 Entering Gaussian System
 *********************************************
 Gaussian 98:
 frequency output generated by the xtb code
 *********************************************
                         Standard orientation:
 --------------------------------------------------------------------
  Center     Atomic     Atomic              Coordinates (Angstroms)
  Number     Number      Type              X           Y           Z
 --------------------------------------------------------------------
    1          6             0       -2.984863   -1.514292    1.845460
    2          6             0       -3.764848   -0.745857    0.820918
    3          6             0       -5.147362   -0.740878    0.862679
    4          6             0       -5.879475   -0.019700   -0.077176
    5          7             0       -7.278160   -0.008270   -0.022935
    6          6             0       -8.093217   -1.114683    0.105625
    7          6             0       -7.772411   -2.464062    0.141880
    8          6             0       -8.805356   -3.373400    0.248126
    9          6             0      -10.152969   -2.992791    0.311119
   10          6             0      -11.217910   -4.072951    0.438907
   11          6             0      -12.635626   -3.497306    0.513392
   12          6             0      -10.965207   -4.881195    1.720744
   13          6             0      -11.143905   -5.000603   -0.783369
   14          6             0      -10.462601   -1.641925    0.242315
   15          6             0       -9.444092   -0.705745    0.135838
   16          6             0       -9.436069    0.729323    0.025539
   17          6             0      -10.442533    1.684307    0.022240
   18          6             0      -10.116159    3.029755   -0.070796
   19          6             0      -11.167689    4.130310   -0.081592
   20          6             0      -11.036007    4.942407   -1.378983
   21          6             0      -12.596324    3.582099   -0.008286
   22          6             0      -10.946550    5.047847    1.130648
   23          6             0       -8.762189    3.385193   -0.142448
   24          6             0       -7.740784    2.456840   -0.140326
   25          6             0       -8.081125    1.113415   -0.073909
   26          6             0       -5.208678    0.692507   -1.068085
   27          6             0       -3.826063    0.691614   -1.117688
   28          6             0       -3.111341    1.457735   -2.190506
   29          6             0       -3.076500   -0.025144   -0.169770
   30          5             0       -1.507939   -0.012278   -0.202685
   31          6             0       -0.706868    1.082255    0.519613
   32          6             0       -1.383120    2.111440    1.201515
   33          6             0       -0.698362    3.107935    1.853504
   34          6             0        0.699116    3.107597    1.853959
   35          6             0        1.383889    2.111127    1.201936
   36          6             0        0.707685    1.082664    0.518875
   37          5             0        1.508519   -0.010038   -0.206565
   38          6             0        3.077184   -0.021447   -0.176734
   39          6             0        3.824347    0.718699   -1.108516
   40          6             0        3.107178    1.507963   -2.162804
   41          6             0        5.207060    0.721525   -1.060117
   42          6             0        5.880220   -0.014464   -0.088510
   43          7             0        7.279071   -0.002048   -0.034890
   44          6             0        8.079812    1.122183   -0.048749
   45          6             0        7.736602    2.466186   -0.076515
   46          6             0        8.755792    3.396371   -0.043819
   47          6             0       10.110140    3.041783    0.025559
   48          6             0       11.159074    4.144509    0.053742
   49          6             0       11.038165    4.987083   -1.225104
   50          6             0       10.923968    5.032136    1.285420
   51          6             0       12.588149    3.597685    0.128414
   52          6             0       10.439309    1.694850    0.077853
   53          6             0        9.435153    0.737947    0.044811
   54          6             0        9.445858   -0.699861    0.109845
   55          6             0       10.465880   -1.637231    0.188049
   56          6             0       10.158541   -2.990168    0.210928
   57          6             0       11.225354   -4.072376    0.299628
   58          6             0       10.973907   -4.928716    1.550038
   59          6             0       12.642023   -3.497454    0.396160
   60          6             0       11.153088   -4.953513   -0.956781
   61          6             0        8.811654   -3.370955    0.134154
   62          6             0        7.777254   -2.460543    0.055714
   63          6             0        8.095884   -1.110193    0.062535
   64          6             0        5.150684   -0.760191    0.833954
   65          6             0        3.768082   -0.764684    0.795429
   66          6             0        2.991318   -1.556825    1.804258
   67          6             0        0.707502   -1.093492   -0.944693
   68          6             0        1.383584   -2.115188   -1.637943
   69          6             0        0.698459   -3.105774   -2.298572
   70          6             0       -0.699069   -3.108382   -2.294354
   71          6             0       -1.383843   -2.119960   -1.630122
   72          6             0       -0.707298   -1.095345   -0.941692
   73          1             0       -3.645317   -1.998153    2.561675
   74          1             0       -2.308751   -0.848245    2.379317
   75          1             0       -2.374072   -2.273051    1.357988
   76          1             0       -5.670349   -1.272890    1.644751
   77          1             0       -6.748240   -2.799532    0.078431
   78          1             0       -8.549810   -4.421593    0.278968
   79          1             0      -12.883121   -2.946263   -0.391158
   80          1             0      -13.351299   -4.310779    0.616062
   81          1             0      -12.747018   -2.841597    1.374123
   82          1             0       -9.995817   -5.371284    1.697702
   83          1             0      -10.996130   -4.227493    2.590541
   84          1             0      -11.729892   -5.646583    1.836980
   85          1             0      -10.177857   -5.493351   -0.850749
   86          1             0      -11.913434   -5.767145   -0.718254
   87          1             0      -11.300106   -4.430923   -1.697554
   88          1             0      -11.482290   -1.295811    0.265023
   89          1             0      -11.465750    1.356883    0.099131
   90          1             0      -11.168909    4.294927   -2.243775
   91          1             0      -10.061011    5.415811   -1.454951
   92          1             0      -11.795215    5.721259   -1.411318
   93          1             0      -13.302517    4.409935   -0.028902
   94          1             0      -12.756978    3.028231    0.913965
   95          1             0      -12.811892    2.935938   -0.856354
   96          1             0      -11.705997    5.826789    1.153857
   97          1             0       -9.971169    5.525292    1.095059
   98          1             0      -11.011266    4.474104    2.053349
   99          1             0       -8.491544    4.428678   -0.196373
  100          1             0       -6.709497    2.773934   -0.177139
  101          1             0       -5.780592    1.226581   -1.813732
  102          1             0       -3.813903    1.899760   -2.893599
  103          1             0       -2.511668    2.250905   -1.745235
  104          1             0       -2.430706    0.802035   -2.730976
  105          1             0       -2.465414    2.111668    1.207602
  106          1             0       -1.238316    3.891238    2.369137
  107          1             0        1.239083    3.890619    2.370011
  108          1             0        2.466173    2.111151    1.208566
  109          1             0        3.807956    1.960660   -2.860886
  110          1             0        2.421195    0.865267   -2.712051
  111          1             0        2.512951    2.294989   -1.699682
  112          1             0        5.777285    1.275566   -1.792406
  113          1             0        6.704770    2.781863   -0.110079
  114          1             0        8.483076    4.440437   -0.068041
  115          1             0       11.180856    4.360243   -2.103394
  116          1             0       10.062622    5.459699   -1.299243
  117          1             0       11.795718    5.768182   -1.231602
  118          1             0       10.979668    4.436318    2.194609
  119          1             0        9.948591    5.509616    1.251287
  120          1             0       11.682204    5.810991    1.335526
  121          1             0       12.739201    3.018511    1.036643
  122          1             0       12.815445    2.976072   -0.734774
  123          1             0       13.292440    4.427327    0.139192
  124          1             0       11.462859    1.367389    0.150276
  125          1             0       11.484929   -1.290270    0.224184
  126          1             0       10.006128   -5.420659    1.507717
  127          1             0       11.001777   -4.307711    2.443510
  128          1             0       11.740932   -5.695473    1.638489
  129          1             0       12.751659   -2.873222    1.280183
  130          1             0       12.889450   -2.913530   -0.487522
  131          1             0       13.358836   -4.313032    0.469861
  132          1             0       11.305612   -4.349211   -1.849080
  133          1             0       11.925578   -5.719062   -0.921687
  134          1             0       10.188743   -5.447003   -1.041244
  135          1             0        8.558038   -4.420067    0.130419
  136          1             0        6.753676   -2.795429   -0.019541
  137          1             0        5.675854   -1.311737    1.600904
  138          1             0        2.308632   -0.905412    2.347684
  139          1             0        2.387780   -2.311919    1.302293
  140          1             0        3.653756   -2.048034    2.513608
  141          1             0        2.465892   -2.114166   -1.645661
  142          1             0        1.238167   -3.882816   -2.823828
  143          1             0       -1.239039   -3.887515   -2.816222
  144          1             0       -2.466174   -2.122666   -1.631627
 --------------------------------------------------------------------
     1 basis functions        1 primitive gaussians
     1 alpha electrons        1 beta electrons
 
 Harmonic frequencies (cm**-1), IR intensities (km*mol⁻¹),
 Raman scattering activities (A**4/amu), Raman depolarization ratios,
 reduced masses (AMU), force constants (mDyne/A) and normal coordinates:
                      1                      2                      3
                        a                      a                      a 
 Frequencies --     4.5388                 5.8848                 6.6919
 Red. masses --    10.5630                10.5022                10.4891
 Frc consts  --     0.0000                 0.0000                 0.0000
 IR Inten    --     1.2921                 1.8398                 3.0168
 Raman Activ --     0.0000                 0.0000                 0.0000
 Depolar     --     0.0000                 0.0000                 0.0000
 Atom AN      X      Y      Z        X      Y      Z        X      Y      Z
   1   6     0.05   0.10  -0.04     0.00  -0.05  -0.04     0.03  -0.05  -0.11
   2   6     0.03   0.07  -0.04     0.00  -0.05  -0.04     0.02  -0.03  -0.09
   3   6     0.03   0.05  -0.02     0.00  -0.03  -0.03     0.02  -0.04  -0.07
   4   6     0.00   0.03  -0.02     0.00  -0.04  -0.03     0.00  -0.01  -0.04
   5   7     0.00   0.00  -0.01     0.00  -0.01  -0.01     0.00  -0.01  -0.02
   6   6     0.03  -0.01   0.02    -0.02   0.01   0.02    -0.00  -0.01  -0.02
   7   6     0.05  -0.00   0.04    -0.04   0.00   0.04    -0.01  -0.01  -0.07
   8   6     0.07  -0.02   0.08    -0.06   0.03   0.08    -0.01  -0.01  -0.07
   9   6     0.06  -0.04   0.10    -0.05   0.06   0.10    -0.01  -0.00  -0.03
  10   6     0.09  -0.06   0.15    -0.07   0.08   0.15    -0.01   0.00  -0.04
  11   6     0.08  -0.09   0.14    -0.06   0.11   0.15    -0.00   0.01   0.01
  12   6     0.12   0.00   0.19    -0.06   0.12   0.18     0.01  -0.05  -0.08
  13   6     0.09  -0.12   0.20    -0.11   0.03   0.18    -0.04   0.05  -0.08
  14   6     0.04  -0.05   0.07    -0.03   0.06   0.07    -0.00   0.00   0.02
  15   6     0.02  -0.03   0.04    -0.01   0.04   0.03     0.00  -0.00   0.02
  16   6    -0.01  -0.04   0.01     0.02   0.03   0.01     0.01   0.00   0.06
  17   6    -0.03  -0.06   0.01     0.04   0.05   0.00     0.02   0.01   0.12
  18   6    -0.06  -0.05  -0.01     0.06   0.05  -0.02     0.02   0.01   0.15
  19   6    -0.08  -0.07  -0.01     0.08   0.07  -0.03     0.03   0.02   0.22
  20   6    -0.11  -0.09  -0.03     0.08   0.05  -0.04    -0.01   0.06   0.24
  21   6    -0.07  -0.10   0.01     0.07   0.10  -0.00     0.03   0.02   0.25
  22   6    -0.08  -0.05  -0.03     0.12   0.08  -0.04     0.07  -0.02   0.24
  23   6    -0.06  -0.03  -0.04     0.07   0.02  -0.05     0.02   0.00   0.12
  24   6    -0.05  -0.01  -0.04     0.05  -0.00  -0.05     0.02  -0.00   0.07
  25   6    -0.02  -0.01  -0.01     0.02   0.01  -0.02     0.01  -0.00   0.04
  26   6    -0.02   0.02  -0.04     0.00  -0.06  -0.05    -0.01   0.00  -0.04
  27   6    -0.02   0.05  -0.06     0.00  -0.08  -0.06    -0.01   0.00  -0.06
  28   6    -0.05   0.04  -0.08     0.00  -0.10  -0.08    -0.03   0.02  -0.06
  29   6     0.00   0.07  -0.06     0.00  -0.07  -0.06    -0.00  -0.01  -0.09
  30   5     0.00   0.08  -0.08     0.00  -0.07  -0.06    -0.00  -0.01  -0.10
  31   6     0.00   0.09  -0.09     0.00  -0.08  -0.06    -0.00   0.00  -0.11
  32   6     0.00   0.09  -0.09     0.00  -0.08  -0.06    -0.00   0.01  -0.12
  33   6     0.00   0.09  -0.09     0.00  -0.08  -0.06    -0.01   0.01  -0.13
  34   6     0.00   0.09  -0.09     0.00  -0.08  -0.05    -0.01   0.02  -0.13
  35   6     0.00   0.08  -0.08     0.00  -0.08  -0.06    -0.00   0.01  -0.12
  36   6     0.00   0.08  -0.08     0.00  -0.08  -0.06    -0.00   0.00  -0.11
  37   5     0.00   0.08  -0.08     0.00  -0.07  -0.06    -0.00  -0.00  -0.09
  38   6    -0.00   0.06  -0.06     0.00  -0.07  -0.06    -0.00  -0.01  -0.08
  39   6     0.02   0.06  -0.04    -0.00  -0.05  -0.04     0.02  -0.03  -0.08
  40   6     0.05   0.09  -0.04    -0.00  -0.04  -0.04     0.03  -0.06  -0.11
  41   6     0.02   0.04  -0.02    -0.00  -0.03  -0.03     0.01  -0.03  -0.06
  42   6    -0.00   0.02  -0.02    -0.00  -0.03  -0.03    -0.00  -0.01  -0.03
  43   7    -0.00  -0.00  -0.00    -0.00  -0.01  -0.02    -0.00  -0.00   0.00
  44   6     0.02  -0.02   0.03    -0.02   0.01   0.03    -0.01  -0.00  -0.01
  45   6     0.04  -0.01   0.05    -0.05   0.00   0.05    -0.01  -0.00  -0.06
  46   6     0.05  -0.03   0.08    -0.07   0.02   0.09    -0.01  -0.00  -0.06
  47   6     0.04  -0.05   0.10    -0.07   0.05   0.11    -0.01   0.00  -0.03
  48   6     0.06  -0.07   0.14    -0.09   0.07   0.16    -0.01   0.01  -0.04
  49   6     0.10  -0.05   0.15    -0.08   0.09   0.17     0.01  -0.02  -0.06
  50   6     0.05  -0.08   0.15    -0.14   0.05   0.17    -0.04   0.03  -0.06
  51   6     0.05  -0.09   0.16    -0.08   0.10   0.18    -0.01   0.01  -0.00
  52   6     0.02  -0.05   0.08    -0.04   0.06   0.09    -0.01   0.01   0.01
  53   6     0.01  -0.04   0.05    -0.02   0.04   0.04    -0.01   0.00   0.02
  54   6    -0.02  -0.04   0.02     0.01   0.03   0.01    -0.01   0.01   0.06
  55   6    -0.03  -0.06   0.03     0.03   0.05   0.00    -0.00   0.01   0.11
  56   6    -0.05  -0.05  -0.00     0.06   0.05  -0.03    -0.00   0.01   0.15
  57   6    -0.07  -0.07  -0.01     0.08   0.07  -0.04    -0.00   0.01   0.20
  58   6    -0.10  -0.08  -0.02     0.08   0.04  -0.06    -0.03   0.05   0.22
  59   6    -0.07  -0.10   0.02     0.06   0.09  -0.01    -0.01   0.02   0.21
  60   6    -0.07  -0.05  -0.02     0.11   0.09  -0.05     0.03  -0.02   0.23
  61   6    -0.06  -0.03  -0.03     0.07   0.02  -0.06     0.00   0.00   0.13
  62   6    -0.04  -0.01  -0.03     0.05   0.00  -0.06    -0.00   0.00   0.08
  63   6    -0.02  -0.02  -0.01     0.02   0.01  -0.02    -0.00   0.00   0.05
  64   6    -0.03   0.02  -0.04     0.00  -0.06  -0.06    -0.02   0.01  -0.02
  65   6    -0.02   0.04  -0.06     0.00  -0.08  -0.07    -0.02   0.01  -0.05
  66   6    -0.05   0.04  -0.08     0.00  -0.11  -0.09    -0.04   0.03  -0.04
  67   6    -0.00   0.09  -0.09     0.00  -0.08  -0.06     0.00  -0.01  -0.09
  68   6    -0.00   0.09  -0.10     0.00  -0.07  -0.07     0.00  -0.01  -0.09
  69   6    -0.00   0.09  -0.10     0.00  -0.07  -0.07     0.01  -0.01  -0.08
  70   6    -0.00   0.09  -0.10     0.00  -0.08  -0.06     0.01  -0.01  -0.09
  71   6    -0.00   0.09  -0.09     0.00  -0.08  -0.06     0.00  -0.01  -0.10
  72   6    -0.00   0.09  -0.09     0.00  -0.08  -0.06     0.00  -0.01  -0.10
  73   1     0.02   0.02  -0.01     0.00  -0.01  -0.01     0.01  -0.02  -0.03
  74   1     0.01   0.04  -0.01     0.00  -0.01  -0.01     0.01  -0.02  -0.03
  75   1     0.02   0.03  -0.01    -0.00  -0.02  -0.01     0.01  -0.01  -0.04
  76   1     0.01   0.02  -0.00     0.00  -0.00  -0.00     0.01  -0.01  -0.02
  77   1     0.02   0.00   0.01    -0.02  -0.01   0.01    -0.00  -0.00  -0.03
  78   1     0.03  -0.00   0.03    -0.02   0.01   0.03    -0.00  -0.00  -0.03
  79   1     0.02  -0.04   0.04    -0.02   0.02   0.04    -0.01   0.01   0.01
  80   1     0.03  -0.03   0.05    -0.02   0.04   0.05    -0.00   0.00  -0.00
  81   1     0.02  -0.02   0.03    -0.01   0.04   0.04     0.01  -0.01   0.01
  82   1     0.04   0.01   0.06    -0.02   0.03   0.05     0.00  -0.01  -0.03
  83   1     0.03   0.01   0.05    -0.01   0.05   0.04     0.01  -0.02  -0.01
  84   1     0.04  -0.00   0.07    -0.02   0.04   0.06     0.00  -0.01  -0.03
  85   1     0.03  -0.03   0.06    -0.03   0.00   0.05    -0.01   0.01  -0.03
  86   1     0.03  -0.04   0.07    -0.04   0.01   0.07    -0.01   0.01  -0.03
  87   1     0.02  -0.05   0.05    -0.03   0.00   0.05    -0.02   0.02  -0.01
  88   1     0.01  -0.02   0.02    -0.01   0.02   0.02     0.00   0.00   0.01
  89   1    -0.01  -0.02   0.01     0.01   0.02   0.01     0.00   0.00   0.04
  90   1    -0.03  -0.03  -0.00     0.02   0.01  -0.01    -0.01   0.02   0.07
  91   1    -0.04  -0.02  -0.01     0.03   0.01  -0.02    -0.00   0.02   0.07
  92   1    -0.04  -0.03  -0.01     0.03   0.02  -0.01    -0.00   0.02   0.08
  93   1    -0.02  -0.03   0.00     0.03   0.03  -0.00     0.01   0.01   0.09
  94   1    -0.01  -0.03   0.01     0.02   0.03   0.00     0.02  -0.00   0.07
  95   1    -0.02  -0.03   0.01     0.01   0.03   0.00    -0.00   0.02   0.07
  96   1    -0.03  -0.02  -0.01     0.04   0.03  -0.01     0.02  -0.01   0.08
  97   1    -0.03  -0.01  -0.02     0.04   0.02  -0.02     0.02  -0.01   0.06
  98   1    -0.02  -0.01  -0.01     0.03   0.03  -0.01     0.03  -0.01   0.07
  99   1    -0.02  -0.01  -0.02     0.03   0.00  -0.02     0.01   0.00   0.04
 100   1    -0.02   0.00  -0.02     0.02  -0.01  -0.02     0.00  -0.00   0.01
 101   1    -0.01   0.00  -0.01     0.00  -0.02  -0.01    -0.01   0.01  -0.01
 102   1    -0.02   0.01  -0.02    -0.00  -0.03  -0.02    -0.01   0.01  -0.01
 103   1    -0.01   0.02  -0.03     0.00  -0.03  -0.03    -0.01   0.01  -0.02
 104   1    -0.01   0.01  -0.02    -0.00  -0.03  -0.02    -0.01   0.01  -0.02
 105   1     0.00   0.03  -0.03     0.00  -0.02  -0.02    -0.00   0.00  -0.03
 106   1     0.00   0.03  -0.03     0.00  -0.02  -0.02    -0.00   0.01  -0.04
 107   1     0.00   0.02  -0.03     0.00  -0.02  -0.02    -0.00   0.01  -0.04
 108   1     0.00   0.02  -0.02     0.00  -0.02  -0.02    -0.00   0.00  -0.04
 109   1     0.02   0.02  -0.01    -0.00  -0.01  -0.01     0.01  -0.02  -0.03
 110   1     0.01   0.03  -0.02     0.00  -0.01  -0.01     0.01  -0.02  -0.03
 111   1     0.02   0.03  -0.01    -0.00  -0.01  -0.01     0.01  -0.01  -0.04
 112   1     0.01   0.01  -0.00    -0.00  -0.00  -0.00     0.01  -0.01  -0.02
 113   1     0.01   0.00   0.01    -0.02  -0.01   0.01    -0.00  -0.00  -0.02
 114   1     0.02  -0.01   0.03    -0.03   0.01   0.03    -0.00  -0.00  -0.03
 115   1     0.03  -0.01   0.04    -0.01   0.03   0.05     0.01  -0.01  -0.01
 116   1     0.03  -0.01   0.04    -0.03   0.02   0.04     0.00  -0.01  -0.02
 117   1     0.03  -0.02   0.05    -0.03   0.03   0.06     0.00  -0.01  -0.02
 118   1     0.01  -0.03   0.04    -0.04   0.01   0.05    -0.02   0.02  -0.01
 119   1     0.02  -0.02   0.04    -0.04   0.01   0.04    -0.01   0.01  -0.03
 120   1     0.02  -0.03   0.05    -0.05   0.02   0.06    -0.01   0.01  -0.02
 121   1     0.01  -0.03   0.05    -0.03   0.02   0.05    -0.01   0.01   0.00
 122   1     0.02  -0.02   0.05    -0.01   0.04   0.05     0.00  -0.00   0.01
 123   1     0.02  -0.03   0.06    -0.03   0.03   0.06    -0.00   0.00  -0.00
 124   1     0.00  -0.02   0.03    -0.01   0.02   0.03    -0.00   0.00   0.01
 125   1    -0.01  -0.02   0.01     0.01   0.02   0.01    -0.00   0.00   0.03
 126   1    -0.03  -0.02  -0.01     0.03   0.01  -0.02    -0.01   0.01   0.06
 127   1    -0.03  -0.03  -0.00     0.01   0.01  -0.01    -0.01   0.02   0.06
 128   1    -0.03  -0.03  -0.01     0.03   0.02  -0.02    -0.01   0.02   0.07
 129   1    -0.02  -0.03   0.01     0.01   0.02   0.00    -0.01   0.01   0.06
 130   1    -0.01  -0.02   0.01     0.02   0.03   0.00     0.00  -0.00   0.06
 131   1    -0.02  -0.03   0.01     0.02   0.03  -0.00    -0.00   0.01   0.07
 132   1    -0.01  -0.01  -0.00     0.03   0.03  -0.01     0.01  -0.01   0.06
 133   1    -0.02  -0.02  -0.01     0.04   0.03  -0.02     0.01  -0.01   0.08
 134   1    -0.02  -0.01  -0.01     0.04   0.02  -0.02     0.01  -0.01   0.06
 135   1    -0.02  -0.01  -0.02     0.03   0.00  -0.03     0.00   0.00   0.04
 136   1    -0.01   0.00  -0.02     0.02  -0.01  -0.02     0.00  -0.00   0.02
 137   1    -0.01  -0.00  -0.01     0.00  -0.02  -0.02    -0.01   0.01   0.00
 138   1    -0.01   0.01  -0.02    -0.00  -0.04  -0.02    -0.01   0.01  -0.02
 139   1    -0.02   0.02  -0.03     0.01  -0.03  -0.03    -0.01   0.01  -0.01
 140   1    -0.02   0.00  -0.02     0.00  -0.03  -0.03    -0.01   0.01  -0.01
 141   1    -0.00   0.03  -0.03     0.00  -0.02  -0.02     0.00  -0.00  -0.02
 142   1    -0.00   0.03  -0.03     0.00  -0.02  -0.02     0.00  -0.00  -0.02
 143   1    -0.00   0.03  -0.03     0.00  -0.02  -0.02     0.00  -0.00  -0.03
 144   1    -0.00   0.03  -0.03     0.00  -0.02  -0.02     0.00  -0.00  -0.03
                      4                      5                      6
                        a                      a                      a 
 Frequencies --    12.4385                13.0703                18.9491
 Red. masses --    10.7553                10.7288                10.6105
 Frc consts  --     0.0000                 0.0000                 0.0000
 IR Inten    --     4.8656                 9.9504                 5.0700
 Raman Activ --     0.0000                 0.0000                 0.0000
 Depolar     --     0.0000                 0.0000                 0.0000
 Atom AN      X      Y      Z        X      Y      Z        X      Y      Z
   1   6    -0.00  -0.06  -0.05     0.01   0.08   0.05     0.04  -0.05   0.09
   2   6    -0.00  -0.05  -0.04     0.00   0.09   0.06     0.02  -0.06   0.11
   3   6    -0.00  -0.05  -0.04     0.00   0.09   0.06     0.02  -0.06   0.13
   4   6    -0.00  -0.03  -0.04     0.00   0.10   0.07     0.01  -0.06   0.14
   5   7    -0.00  -0.03  -0.03     0.00   0.08   0.06     0.01  -0.05   0.17
   6   6    -0.01  -0.02  -0.01     0.03   0.06   0.04    -0.01  -0.04   0.13
   7   6    -0.02  -0.02  -0.00     0.06   0.06   0.04    -0.03  -0.04   0.14
   8   6    -0.03  -0.01   0.02     0.08   0.04   0.02    -0.05  -0.03   0.09
   9   6    -0.02   0.00   0.04     0.07   0.01  -0.00    -0.05  -0.01   0.02
  10   6    -0.03   0.01   0.08     0.09  -0.02  -0.03    -0.08   0.00  -0.07
  11   6    -0.02   0.03   0.09     0.07  -0.05  -0.06    -0.07   0.03  -0.10
  12   6    -0.02   0.05   0.11     0.08  -0.02  -0.03    -0.15  -0.07  -0.10
  13   6    -0.06  -0.02   0.11     0.14  -0.01  -0.03    -0.04   0.07  -0.12
  14   6    -0.01   0.00   0.02     0.04   0.00  -0.00    -0.03  -0.01   0.02
  15   6    -0.00  -0.01  -0.00     0.02   0.02   0.02    -0.01  -0.02   0.07
  16   6     0.01  -0.01  -0.02    -0.02   0.02   0.01     0.01  -0.02   0.07
  17   6     0.01   0.00  -0.02    -0.04   0.00  -0.01     0.03  -0.01   0.00
  18   6     0.02  -0.00  -0.03    -0.07   0.01  -0.02     0.05  -0.01  -0.01
  19   6     0.03   0.01  -0.04    -0.10  -0.02  -0.05     0.06   0.00  -0.09
  20   6     0.03  -0.01  -0.05    -0.09  -0.03  -0.05     0.16  -0.02  -0.10
  21   6     0.03   0.02  -0.03    -0.08  -0.05  -0.08     0.05   0.02  -0.17
  22   6     0.05   0.01  -0.05    -0.15  -0.00  -0.05     0.00   0.02  -0.09
  23   6     0.03  -0.01  -0.04    -0.08   0.04   0.01     0.06  -0.03   0.06
  24   6     0.02  -0.02  -0.04    -0.05   0.06   0.04     0.04  -0.04   0.12
  25   6     0.01  -0.02  -0.03    -0.02   0.06   0.04     0.02  -0.04   0.12
  26   6     0.00  -0.03  -0.03     0.00   0.11   0.07    -0.01  -0.06   0.13
  27   6     0.00  -0.02  -0.02     0.00   0.11   0.07    -0.01  -0.06   0.10
  28   6     0.00  -0.01  -0.01     0.00   0.12   0.08    -0.04  -0.06   0.09
  29   6     0.00  -0.03  -0.03     0.00   0.09   0.06     0.00  -0.06   0.09
  30   5     0.00  -0.02  -0.02     0.00   0.05   0.03     0.00  -0.03   0.05
  31   6    -0.02  -0.07   0.09     0.05  -0.00   0.05     0.01  -0.02   0.03
  32   6    -0.04  -0.14   0.17     0.10   0.00   0.09     0.01  -0.04   0.06
  33   6    -0.05  -0.18   0.26     0.15  -0.04   0.11     0.01  -0.02   0.03
  34   6    -0.05  -0.17   0.27     0.15  -0.09   0.08     0.01   0.02  -0.03
  35   6    -0.04  -0.11   0.19     0.10  -0.09   0.03     0.01   0.04  -0.07
  36   6    -0.02  -0.06   0.10     0.05  -0.05   0.02     0.01   0.02  -0.04
  37   5    -0.00   0.01   0.01     0.00  -0.05  -0.03     0.00   0.04  -0.07
  38   6    -0.00   0.03   0.02     0.00  -0.10  -0.06     0.00   0.06  -0.10
  39   6    -0.00   0.04   0.04     0.00  -0.10  -0.07    -0.00   0.06  -0.11
  40   6    -0.00   0.06   0.05     0.00  -0.10  -0.07    -0.01   0.06  -0.10
  41   6    -0.00   0.04   0.04     0.00  -0.11  -0.07    -0.00   0.06  -0.12
  42   6    -0.00   0.03   0.03     0.00  -0.10  -0.07     0.00   0.06  -0.12
  43   7    -0.00   0.02   0.03     0.00  -0.08  -0.06     0.00   0.05  -0.14
  44   6     0.01   0.02   0.00    -0.03  -0.06  -0.04     0.02   0.04  -0.09
  45   6     0.02   0.02  -0.01    -0.06  -0.06  -0.06     0.04   0.04  -0.11
  46   6     0.03   0.01  -0.04    -0.08  -0.04  -0.04     0.05   0.03  -0.06
  47   6     0.02   0.00  -0.06    -0.07  -0.01  -0.01     0.04   0.01   0.01
  48   6     0.03  -0.01  -0.10    -0.10   0.02   0.00     0.06  -0.01   0.07
  49   6     0.01  -0.03  -0.11    -0.10   0.01  -0.00     0.15  -0.01   0.06
  50   6     0.06   0.01  -0.11    -0.15   0.02  -0.01    -0.00  -0.00   0.05
  51   6     0.03  -0.02  -0.12    -0.09   0.06   0.04     0.05  -0.03   0.16
  52   6     0.01  -0.00  -0.04    -0.04   0.00   0.00     0.02   0.00   0.01
  53   6     0.00   0.01  -0.01    -0.02  -0.02  -0.02     0.01   0.02  -0.04
  54   6    -0.01   0.01   0.02     0.02  -0.02  -0.00    -0.01   0.02  -0.04
  55   6    -0.01   0.00   0.03     0.04   0.01   0.03    -0.03   0.00   0.01
  56   6    -0.02   0.01   0.05     0.07  -0.00   0.04    -0.05   0.01   0.01
  57   6    -0.03  -0.00   0.07     0.10   0.03   0.08    -0.07  -0.01   0.07
  58   6    -0.03   0.02   0.08     0.09   0.04   0.09    -0.15   0.01   0.07
  59   6    -0.02  -0.01   0.06     0.08   0.06   0.11    -0.07  -0.03   0.14
  60   6    -0.04  -0.02   0.09     0.15   0.00   0.09    -0.02  -0.02   0.08
  61   6    -0.02   0.01   0.06     0.08  -0.04   0.01    -0.05   0.03  -0.05
  62   6    -0.02   0.02   0.05     0.06  -0.06  -0.02    -0.03   0.04  -0.10
  63   6    -0.01   0.02   0.03     0.03  -0.06  -0.03    -0.01   0.04  -0.09
  64   6    -0.00   0.02   0.02     0.00  -0.11  -0.07     0.01   0.06  -0.12
  65   6    -0.00   0.02   0.01     0.00  -0.10  -0.07     0.01   0.06  -0.11
  66   6    -0.01   0.00   0.00     0.00  -0.11  -0.07     0.02   0.06  -0.10
  67   6     0.02   0.07  -0.09    -0.05  -0.01  -0.05    -0.00   0.03  -0.05
  68   6     0.04   0.13  -0.17    -0.10  -0.01  -0.09    -0.00   0.06  -0.09
  69   6     0.05   0.18  -0.26    -0.15   0.03  -0.11    -0.01   0.04  -0.07
  70   6     0.05   0.17  -0.27    -0.15   0.08  -0.08    -0.01   0.00  -0.00
  71   6     0.03   0.10  -0.19    -0.10   0.09  -0.04    -0.00  -0.02   0.04
  72   6     0.02   0.05  -0.10    -0.05   0.04  -0.02    -0.00  -0.01   0.01
  73   1    -0.00  -0.03  -0.03     0.00   0.02   0.01     0.02  -0.02   0.03
  74   1    -0.01  -0.02  -0.00     0.00   0.02   0.02     0.01  -0.01   0.03
  75   1     0.01  -0.00  -0.02     0.00   0.02   0.01     0.02  -0.01   0.02
  76   1    -0.00  -0.02  -0.01     0.00   0.03   0.02     0.01  -0.02   0.04
  77   1    -0.01  -0.01  -0.00     0.02   0.03   0.02    -0.01  -0.02   0.06
  78   1    -0.01  -0.00   0.01     0.03   0.01   0.01    -0.02  -0.01   0.03
  79   1    -0.01   0.00   0.02     0.02  -0.02  -0.02    -0.01   0.02  -0.03
  80   1    -0.01   0.01   0.03     0.03  -0.02  -0.02    -0.02   0.01  -0.05
  81   1    -0.00   0.01   0.02     0.01  -0.02  -0.02    -0.03  -0.00  -0.02
  82   1    -0.01   0.01   0.03     0.03   0.00  -0.00    -0.05  -0.03  -0.02
  83   1     0.00   0.02   0.02     0.01  -0.01  -0.01    -0.05  -0.03  -0.02
  84   1    -0.01   0.02   0.04     0.03  -0.01  -0.01    -0.05  -0.02  -0.05
  85   1    -0.02  -0.01   0.03     0.04   0.00  -0.00    -0.01   0.02  -0.03
  86   1    -0.02  -0.00   0.04     0.04  -0.01  -0.01    -0.01   0.02  -0.06
  87   1    -0.02  -0.02   0.03     0.04  -0.00  -0.01     0.00   0.03  -0.03
  88   1    -0.00   0.00   0.01     0.01  -0.01  -0.01    -0.01   0.00  -0.01
  89   1     0.00   0.00  -0.00    -0.01  -0.01  -0.01     0.01   0.00  -0.01
  90   1     0.01  -0.00  -0.01    -0.02  -0.01  -0.01     0.06  -0.01  -0.03
  91   1     0.01  -0.00  -0.02    -0.03  -0.00  -0.01     0.05  -0.01  -0.01
  92   1     0.01  -0.00  -0.01    -0.03  -0.01  -0.02     0.05  -0.00  -0.04
  93   1     0.01   0.01  -0.01    -0.03  -0.02  -0.03     0.02   0.01  -0.07
  94   1     0.01   0.01  -0.01    -0.03  -0.01  -0.02    -0.00   0.01  -0.05
  95   1     0.01   0.00  -0.01    -0.01  -0.02  -0.02     0.03   0.00  -0.05
  96   1     0.01   0.01  -0.01    -0.05  -0.01  -0.02     0.00   0.01  -0.05
  97   1     0.01   0.00  -0.02    -0.05   0.01  -0.01     0.00   0.00  -0.01
  98   1     0.01   0.01  -0.01    -0.05   0.00  -0.01    -0.02   0.01  -0.02
  99   1     0.01  -0.00  -0.01    -0.03   0.01   0.00     0.02  -0.01   0.02
 100   1     0.01  -0.01  -0.01    -0.02   0.03   0.02     0.01  -0.02   0.05
 101   1     0.00  -0.01  -0.01     0.00   0.03   0.02    -0.01  -0.02   0.04
 102   1     0.00   0.01   0.00    -0.00   0.04   0.03    -0.01  -0.02   0.03
 103   1     0.01  -0.01   0.00     0.01   0.03   0.02    -0.01  -0.02   0.02
 104   1    -0.01  -0.00  -0.01    -0.01   0.03   0.01    -0.01  -0.02   0.02
 105   1    -0.01  -0.04   0.05     0.03   0.01   0.03     0.00  -0.02   0.03
 106   1    -0.02  -0.07   0.09     0.05  -0.01   0.04     0.00  -0.01   0.02
 107   1    -0.02  -0.06   0.10     0.05  -0.04   0.03     0.00   0.01  -0.02
 108   1    -0.01  -0.03   0.06     0.03  -0.04   0.00     0.00   0.02  -0.03
 109   1     0.00   0.04   0.03    -0.00  -0.03  -0.02    -0.01   0.02  -0.03
 110   1     0.01   0.01  -0.00    -0.00  -0.03  -0.02    -0.00   0.02  -0.03
 111   1    -0.02   0.00   0.02     0.00  -0.03  -0.02    -0.01   0.01  -0.03
 112   1    -0.00   0.01   0.01     0.00  -0.03  -0.02    -0.00   0.02  -0.04
 113   1     0.01   0.01  -0.00    -0.02  -0.03  -0.02     0.01   0.02  -0.05
 114   1     0.01   0.00  -0.02    -0.03  -0.01  -0.01     0.02   0.01  -0.02
 115   1    -0.00  -0.01  -0.03    -0.02   0.00   0.00     0.06  -0.00   0.02
 116   1     0.00  -0.01  -0.03    -0.03  -0.00  -0.01     0.05   0.00   0.00
 117   1     0.01  -0.01  -0.04    -0.03   0.01   0.00     0.05  -0.01   0.03
 118   1     0.02   0.01  -0.03    -0.05   0.01  -0.00    -0.02   0.00   0.02
 119   1     0.02   0.01  -0.03    -0.05   0.00  -0.01     0.00   0.01  -0.00
 120   1     0.02   0.00  -0.04    -0.05   0.01   0.00     0.00  -0.00   0.03
 121   1     0.01  -0.00  -0.03    -0.03   0.02   0.01    -0.01  -0.01   0.05
 122   1     0.00  -0.01  -0.03    -0.02   0.02   0.01     0.03  -0.01   0.05
 123   1     0.01  -0.01  -0.04    -0.03   0.02   0.01     0.02  -0.01   0.06
 124   1     0.00  -0.00  -0.01    -0.01   0.01   0.01     0.00  -0.00   0.02
 125   1    -0.00  -0.00   0.00     0.01   0.01   0.01    -0.01  -0.00   0.02
 126   1    -0.01   0.01   0.03     0.03   0.00   0.02    -0.04   0.01   0.01
 127   1    -0.01   0.01   0.02     0.02   0.02   0.02    -0.05   0.01   0.02
 128   1    -0.01   0.01   0.03     0.03   0.02   0.03    -0.05  -0.00   0.03
 129   1    -0.01   0.00   0.01     0.01   0.02   0.03    -0.03  -0.01   0.04
 130   1    -0.01  -0.01   0.01     0.02   0.02   0.03    -0.00  -0.01   0.04
 131   1    -0.01  -0.00   0.02     0.03   0.02   0.04    -0.02  -0.01   0.05
 132   1    -0.01  -0.01   0.02     0.05  -0.00   0.03     0.01  -0.01   0.02
 133   1    -0.01  -0.01   0.03     0.05   0.01   0.04    -0.01  -0.01   0.04
 134   1    -0.01  -0.00   0.03     0.05  -0.01   0.02    -0.01  -0.00   0.01
 135   1    -0.01   0.00   0.02     0.03  -0.01   0.01    -0.02   0.01  -0.02
 136   1    -0.01   0.01   0.02     0.02  -0.03  -0.01    -0.01   0.02  -0.04
 137   1    -0.00   0.00   0.01     0.00  -0.03  -0.02     0.00   0.02  -0.03
 138   1     0.01   0.00   0.01     0.01  -0.03  -0.01     0.00   0.02  -0.03
 139   1    -0.01   0.01  -0.00    -0.01  -0.02  -0.02     0.01   0.01  -0.03
 140   1    -0.00  -0.01  -0.01     0.00  -0.04  -0.03     0.01   0.02  -0.03
 141   1     0.01   0.04  -0.05    -0.03  -0.01  -0.03    -0.00   0.02  -0.04
 142   1     0.02   0.07  -0.09    -0.05   0.01  -0.04    -0.00   0.02  -0.03
 143   1     0.02   0.06  -0.10    -0.05   0.03  -0.03    -0.00  -0.00   0.00
 144   1     0.01   0.03  -0.06    -0.03   0.04  -0.00    -0.00  -0.02   0.03
                      7                      8                      9
                        a                      a                      a 
 Frequencies --    26.0038                30.3069                34.7711
 Red. masses --    10.5229                 8.7613                 8.8065
 Frc consts  --     0.0000                 0.0000                 0.0000
 IR Inten    --     9.6394                55.7456                 0.4478
 Raman Activ --     0.0000                 0.0000                 0.0000
 Depolar     --     0.0000                 0.0000                 0.0000
 Atom AN      X      Y      Z        X      Y      Z        X      Y      Z
   1   6     0.09   0.02  -0.00     0.02  -0.06  -0.03    -0.00  -0.10  -0.10
   2   6     0.05   0.00   0.02     0.01  -0.03  -0.00     0.00  -0.05  -0.06
   3   6     0.05  -0.00   0.08     0.01  -0.04   0.00     0.00  -0.04  -0.05
   4   6     0.01  -0.02   0.10     0.00  -0.02   0.03    -0.00   0.00  -0.01
   5   7     0.01  -0.02   0.16     0.00  -0.02   0.02    -0.00   0.00  -0.01
   6   6    -0.00  -0.01   0.13    -0.01  -0.02  -0.01    -0.00  -0.00  -0.02
   7   6    -0.01  -0.02   0.14    -0.01  -0.02   0.01    -0.00  -0.00  -0.04
   8   6    -0.02  -0.01   0.10    -0.02  -0.01   0.00    -0.00  -0.00  -0.02
   9   6    -0.02  -0.00   0.05    -0.02  -0.01  -0.06     0.00   0.00   0.03
  10   6    -0.03  -0.00  -0.04    -0.02  -0.00  -0.01     0.00   0.01   0.07
  11   6    -0.03   0.01  -0.01    -0.04  -0.01  -0.34     0.02   0.02   0.27
  12   6    -0.07  -0.12  -0.11    -0.17   0.29   0.20     0.12  -0.10  -0.02
  13   6    -0.03   0.11  -0.13     0.16  -0.27   0.21    -0.14   0.10  -0.01
  14   6    -0.01  -0.00   0.06    -0.01  -0.01  -0.09     0.00   0.00   0.02
  15   6     0.00  -0.01   0.10    -0.01  -0.01  -0.06     0.00  -0.00  -0.01
  16   6     0.01  -0.01   0.09     0.00  -0.01  -0.05    -0.00  -0.00  -0.01
  17   6     0.01  -0.00   0.04     0.01  -0.01  -0.06    -0.01  -0.00  -0.03
  18   6     0.02  -0.01   0.01     0.02  -0.00   0.00    -0.01  -0.00  -0.02
  19   6     0.03  -0.00  -0.07     0.03   0.01   0.02    -0.01  -0.01  -0.05
  20   6     0.09  -0.04  -0.09     0.18   0.18   0.15     0.15   0.15   0.07
  21   6     0.02   0.00  -0.13     0.02   0.01  -0.21    -0.02  -0.02  -0.31
  22   6    -0.03   0.03  -0.09    -0.08  -0.16   0.17    -0.17  -0.15   0.09
  23   6     0.03  -0.01   0.05     0.03  -0.01   0.08    -0.01   0.00   0.03
  24   6     0.02  -0.02   0.11     0.02  -0.02   0.08    -0.00   0.00   0.04
  25   6     0.01  -0.02   0.12     0.01  -0.02   0.01    -0.00   0.00   0.01
  26   6    -0.04  -0.03   0.06    -0.01   0.01   0.04    -0.00   0.05   0.02
  27   6    -0.04  -0.02   0.00    -0.01   0.02   0.04    -0.00   0.06   0.02
  28   6    -0.09  -0.04  -0.04    -0.01   0.06   0.06    -0.00   0.12   0.06
  29   6     0.00  -0.00  -0.02     0.00  -0.00   0.02     0.00   0.01  -0.02
  30   5     0.00   0.02  -0.06    -0.00   0.01   0.00     0.00   0.01  -0.01
  31   6    -0.00   0.04  -0.08     0.00   0.02  -0.01    -0.00   0.00  -0.01
  32   6    -0.00   0.06  -0.11     0.00   0.02  -0.02    -0.01   0.00  -0.01
  33   6    -0.00   0.07  -0.13     0.00   0.04  -0.04    -0.01   0.00  -0.01
  34   6    -0.00   0.06  -0.12     0.00   0.04  -0.06    -0.01   0.01  -0.00
  35   6    -0.00   0.04  -0.08     0.00   0.03  -0.05    -0.01   0.00   0.01
  36   6    -0.00   0.03  -0.07     0.00   0.02  -0.03    -0.00   0.00   0.01
  37   5     0.00   0.01  -0.04    -0.00   0.01  -0.02     0.00  -0.00   0.02
  38   6    -0.00  -0.01   0.01    -0.00   0.00  -0.01     0.00  -0.00   0.03
  39   6     0.04  -0.02   0.05     0.01  -0.01  -0.01     0.00  -0.05  -0.01
  40   6     0.09  -0.01   0.02     0.02  -0.02  -0.02     0.01  -0.10  -0.05
  41   6     0.04  -0.03   0.10     0.01  -0.02   0.00     0.00  -0.05  -0.01
  42   6    -0.01  -0.04   0.13    -0.00  -0.01   0.02     0.00  -0.01   0.02
  43   7    -0.01  -0.04   0.18    -0.00  -0.01   0.03     0.00  -0.01   0.03
  44   6    -0.02  -0.03   0.14    -0.01  -0.01   0.02     0.00  -0.01   0.01
  45   6    -0.03  -0.03   0.16    -0.01  -0.01   0.02     0.00  -0.01  -0.04
  46   6    -0.04  -0.02   0.10    -0.01  -0.01   0.01    -0.00  -0.01  -0.04
  47   6    -0.03  -0.01   0.02    -0.01  -0.00  -0.01    -0.00  -0.00   0.01
  48   6    -0.04   0.00  -0.07    -0.01   0.00  -0.02    -0.01   0.00   0.01
  49   6    -0.17   0.02  -0.04    -0.04   0.01  -0.01     0.15  -0.17  -0.12
  50   6     0.06  -0.02  -0.03     0.01  -0.01  -0.01    -0.15   0.17  -0.14
  51   6    -0.03   0.02  -0.21    -0.01   0.00  -0.06    -0.02   0.01   0.27
  52   6    -0.02  -0.01   0.02    -0.01  -0.00  -0.00    -0.00  -0.00   0.04
  53   6    -0.01  -0.02   0.08    -0.00  -0.00   0.01     0.00  -0.00   0.03
  54   6     0.00  -0.02   0.08    -0.00  -0.00   0.01     0.00  -0.00   0.04
  55   6     0.02  -0.01   0.02     0.00  -0.00   0.01     0.00  -0.00   0.02
  56   6     0.03  -0.01   0.02     0.01  -0.00   0.01     0.01  -0.00   0.00
  57   6     0.05   0.00  -0.06     0.01   0.00  -0.01     0.01  -0.00  -0.06
  58   6     0.13  -0.02  -0.06     0.03  -0.00  -0.00     0.04  -0.05  -0.08
  59   6     0.05   0.01  -0.14     0.01   0.00  -0.02     0.01  -0.00  -0.07
  60   6    -0.02   0.02  -0.07    -0.00   0.00  -0.01    -0.01   0.04  -0.09
  61   6     0.03  -0.02   0.09     0.01  -0.01   0.02     0.01  -0.00   0.02
  62   6     0.02  -0.03   0.14     0.00  -0.01   0.03     0.00  -0.00   0.04
  63   6     0.01  -0.03   0.13    -0.00  -0.01   0.03     0.00  -0.00   0.04
  64   6    -0.05  -0.04   0.09    -0.01   0.00   0.02     0.00   0.04   0.06
  65   6    -0.05  -0.03   0.03    -0.01   0.01   0.01     0.00   0.04   0.06
  66   6    -0.09  -0.03  -0.00    -0.03   0.02   0.01    -0.00   0.09   0.10
  67   6     0.00   0.03  -0.07    -0.00   0.01  -0.01     0.01   0.00   0.01
  68   6     0.00   0.05  -0.10    -0.01   0.01  -0.02     0.01  -0.01   0.02
  69   6     0.01   0.07  -0.13    -0.01   0.02  -0.03     0.01   0.00   0.01
  70   6     0.01   0.08  -0.14    -0.01   0.02  -0.02     0.01   0.02  -0.02
  71   6     0.00   0.06  -0.11    -0.01   0.01  -0.01     0.01   0.02  -0.03
  72   6     0.00   0.04  -0.08    -0.00   0.01  -0.01     0.01   0.01  -0.01
  73   1     0.04  -0.00   0.00     0.01  -0.02  -0.01    -0.00  -0.03  -0.03
  74   1     0.02   0.01  -0.00     0.01  -0.02  -0.00     0.01  -0.04  -0.02
  75   1     0.03   0.02  -0.01     0.00  -0.01  -0.01    -0.01  -0.03  -0.04
  76   1     0.02   0.00   0.03     0.00  -0.02  -0.00     0.00  -0.02  -0.02
  77   1    -0.00  -0.01   0.05    -0.00  -0.01   0.02    -0.00  -0.00  -0.02
  78   1    -0.01  -0.00   0.03    -0.01  -0.00   0.01    -0.00  -0.00  -0.01
  79   1    -0.01   0.02   0.01     0.03  -0.04  -0.13    -0.03   0.02   0.09
  80   1    -0.01   0.00  -0.02    -0.01  -0.00  -0.10     0.01   0.01   0.09
  81   1    -0.01  -0.01   0.01    -0.06   0.03  -0.13     0.04  -0.00   0.09
  82   1    -0.02  -0.04  -0.04    -0.04   0.10   0.13     0.03  -0.04  -0.05
  83   1    -0.02  -0.06  -0.02    -0.10   0.14   0.02     0.07  -0.05   0.01
  84   1    -0.02  -0.03  -0.06    -0.04   0.08   0.07     0.03  -0.02   0.00
  85   1    -0.01   0.03  -0.05     0.04  -0.09   0.14    -0.04   0.04  -0.05
  86   1    -0.01   0.03  -0.06     0.04  -0.07   0.07    -0.03   0.02   0.01
  87   1    -0.00   0.06  -0.02     0.09  -0.14   0.02    -0.08   0.05   0.01
  88   1    -0.00   0.00   0.01    -0.00  -0.00  -0.04     0.00   0.00   0.01
  89   1     0.00   0.00   0.00     0.00   0.00  -0.03    -0.00  -0.00  -0.02
  90   1     0.04  -0.02  -0.02     0.08   0.09   0.01     0.08   0.07  -0.01
  91   1     0.03  -0.01  -0.02     0.05   0.06   0.09     0.04   0.06   0.08
  92   1     0.03  -0.01  -0.04     0.05   0.05   0.05     0.04   0.04   0.02
  93   1     0.01   0.00  -0.05     0.01   0.00  -0.07    -0.01  -0.01  -0.11
  94   1    -0.01   0.01  -0.03    -0.03  -0.02  -0.08    -0.05  -0.02  -0.11
  95   1     0.02  -0.01  -0.03     0.04   0.02  -0.08     0.04   0.01  -0.11
  96   1    -0.01   0.01  -0.04    -0.02  -0.04   0.05    -0.04  -0.04   0.02
  97   1    -0.01   0.01  -0.02    -0.02  -0.06   0.10    -0.04  -0.05   0.08
  98   1    -0.02   0.02  -0.02    -0.06  -0.08   0.03    -0.10  -0.07   0.01
  99   1     0.01  -0.00   0.01     0.01  -0.00   0.04    -0.00   0.00   0.02
 100   1     0.01  -0.01   0.04     0.01  -0.01   0.04    -0.00   0.00   0.02
 101   1    -0.02  -0.01   0.02    -0.00   0.01   0.02    -0.00   0.03   0.01
 102   1    -0.04  -0.02  -0.01    -0.01   0.02   0.02    -0.00   0.04   0.02
 103   1    -0.02  -0.01  -0.02    -0.01   0.02   0.02    -0.01   0.03   0.03
 104   1    -0.03  -0.01  -0.02    -0.00   0.02   0.01     0.01   0.04   0.01
 105   1    -0.00   0.02  -0.03     0.00   0.00  -0.00    -0.00   0.00  -0.00
 106   1    -0.00   0.03  -0.05     0.00   0.01  -0.01    -0.00   0.00  -0.00
 107   1    -0.00   0.02  -0.04     0.00   0.02  -0.02    -0.00   0.00  -0.00
 108   1    -0.00   0.01  -0.02     0.00   0.01  -0.02    -0.00   0.00   0.00
 109   1     0.04  -0.01   0.01     0.01  -0.01  -0.01     0.00  -0.04  -0.02
 110   1     0.03   0.00   0.00     0.01  -0.01  -0.01     0.00  -0.04  -0.01
 111   1     0.03   0.00  -0.00     0.01  -0.00  -0.01     0.00  -0.02  -0.02
 112   1     0.02  -0.01   0.04     0.01  -0.01   0.00     0.00  -0.03  -0.01
 113   1    -0.01  -0.01   0.06    -0.00  -0.00   0.01     0.00  -0.00  -0.02
 114   1    -0.01  -0.01   0.03    -0.00  -0.00   0.00     0.00  -0.00  -0.03
 115   1    -0.07   0.01  -0.02    -0.02   0.00  -0.01     0.08  -0.08  -0.00
 116   1    -0.05   0.00   0.02    -0.01   0.00   0.00     0.04  -0.06  -0.09
 117   1    -0.05   0.01  -0.03    -0.01   0.00  -0.01     0.04  -0.04  -0.03
 118   1     0.05  -0.01  -0.01     0.01  -0.00  -0.00    -0.09   0.08  -0.02
 119   1     0.01  -0.01   0.02     0.00  -0.00   0.00    -0.04   0.06  -0.10
 120   1     0.01  -0.00  -0.03     0.00  -0.00  -0.01    -0.04   0.04  -0.04
 121   1     0.02   0.01  -0.06     0.00   0.00  -0.02    -0.05   0.02   0.10
 122   1    -0.03   0.00  -0.07    -0.01   0.00  -0.02     0.04  -0.02   0.10
 123   1    -0.01   0.01  -0.08    -0.00   0.00  -0.02    -0.01   0.00   0.09
 124   1    -0.00   0.00  -0.01    -0.00   0.00  -0.00    -0.00   0.00   0.02
 125   1     0.00   0.00  -0.01     0.00   0.00  -0.00     0.00  -0.00   0.00
 126   1     0.04  -0.01  -0.00     0.01  -0.00   0.00     0.01  -0.02  -0.02
 127   1     0.05  -0.01  -0.02     0.01  -0.00  -0.00     0.02  -0.02  -0.02
 128   1     0.04  -0.00  -0.04     0.01   0.00  -0.00     0.02  -0.01  -0.04
 129   1     0.03   0.00  -0.04     0.01   0.00  -0.01     0.01  -0.01  -0.01
 130   1    -0.00   0.01  -0.04    -0.00   0.00  -0.01    -0.00   0.01  -0.02
 131   1     0.02   0.01  -0.06     0.00   0.00  -0.01     0.00  -0.00  -0.03
 132   1    -0.02   0.01  -0.02    -0.01   0.00  -0.00    -0.01   0.02  -0.02
 133   1    -0.00   0.01  -0.04    -0.00   0.00  -0.01    -0.00   0.01  -0.04
 134   1    -0.01   0.00  -0.01    -0.00  -0.00   0.00    -0.00   0.01  -0.02
 135   1     0.01  -0.01   0.03     0.00  -0.00   0.01     0.00  -0.00   0.01
 136   1     0.01  -0.01   0.06     0.00  -0.00   0.01     0.00  -0.00   0.02
 137   1    -0.02  -0.01   0.03    -0.01   0.00   0.01     0.00   0.02   0.02
 138   1    -0.02  -0.01   0.00    -0.00   0.01   0.00     0.01   0.04   0.02
 139   1    -0.03   0.00  -0.01    -0.01   0.01   0.00    -0.01   0.03   0.04
 140   1    -0.04  -0.02  -0.00    -0.01   0.00   0.00    -0.00   0.03   0.03
 141   1     0.00   0.01  -0.03    -0.00   0.00  -0.01     0.00  -0.00   0.01
 142   1     0.00   0.03  -0.04    -0.00   0.01  -0.01     0.01  -0.00   0.00
 143   1     0.00   0.03  -0.05    -0.00   0.01  -0.01     0.01   0.01  -0.01
 144   1     0.00   0.02  -0.03    -0.00   0.00  -0.00     0.00   0.01  -0.02
                     10                     11                     12
                        a                      a                      a 
 Frequencies --    34.8688                36.9748                37.2414
 Red. masses --     8.8319                10.5659                 9.4567
 Frc consts  --     0.0000                 0.0000                 0.0000
 IR Inten    --    68.4447                 0.1600               200.0668
 Raman Activ --     0.0000                 0.0000                 0.0000
 Depolar     --     0.0000                 0.0000                 0.0000
 Atom AN      X      Y      Z        X      Y      Z        X      Y      Z
   1   6    -0.02  -0.01  -0.01    -0.01  -0.06  -0.05     0.01   0.29   0.20
   2   6    -0.01  -0.00  -0.01    -0.00  -0.02  -0.02     0.00   0.14   0.09
   3   6    -0.01  -0.00  -0.02    -0.00   0.05   0.03     0.00   0.10   0.07
   4   6    -0.00   0.01  -0.02     0.00   0.08   0.04    -0.00  -0.03  -0.02
   5   7    -0.00   0.00  -0.04     0.00   0.11   0.07    -0.01  -0.04  -0.04
   6   6    -0.00   0.00  -0.04     0.02   0.08   0.06    -0.01  -0.03  -0.01
   7   6     0.00   0.00  -0.05     0.05   0.09   0.05    -0.01  -0.03   0.03
   8   6     0.00   0.00  -0.02     0.07   0.07   0.03    -0.02  -0.02   0.04
   9   6     0.01   0.00   0.02     0.06   0.04   0.02    -0.02  -0.02   0.00
  10   6     0.01   0.00   0.06     0.09   0.01  -0.02    -0.03  -0.01  -0.02
  11   6     0.02   0.02   0.25     0.07  -0.03  -0.07    -0.02  -0.00  -0.01
  12   6     0.12  -0.08  -0.02     0.06   0.03  -0.01    -0.05  -0.04  -0.03
  13   6    -0.12   0.09  -0.01     0.15   0.01  -0.01    -0.03   0.01  -0.04
  14   6     0.00   0.00   0.01     0.03   0.03   0.03    -0.01  -0.02  -0.02
  15   6    -0.00   0.00  -0.02     0.02   0.06   0.05    -0.01  -0.02  -0.03
  16   6    -0.00  -0.00  -0.03    -0.01   0.06   0.05    -0.00  -0.02  -0.04
  17   6    -0.01  -0.00  -0.04    -0.03   0.04   0.03     0.01  -0.01  -0.03
  18   6    -0.01  -0.00  -0.03    -0.06   0.04   0.02     0.02  -0.02  -0.03
  19   6    -0.01  -0.01  -0.03    -0.09   0.02  -0.01     0.04  -0.00   0.05
  20   6     0.12   0.17   0.10    -0.07   0.03  -0.00     0.06   0.12   0.12
  21   6    -0.02  -0.02  -0.27    -0.07  -0.02  -0.06     0.03   0.01  -0.02
  22   6    -0.15  -0.16   0.12    -0.15   0.02   0.00     0.04  -0.12   0.13
  23   6    -0.01   0.00   0.00    -0.06   0.07   0.03     0.03  -0.03  -0.05
  24   6    -0.01   0.01  -0.00    -0.04   0.09   0.05     0.01  -0.04  -0.08
  25   6    -0.00   0.00  -0.02    -0.02   0.08   0.06     0.00  -0.03  -0.05
  26   6     0.01   0.02  -0.01     0.00   0.05   0.02    -0.01  -0.13  -0.10
  27   6     0.01   0.01   0.00     0.00  -0.02  -0.02    -0.01  -0.10  -0.09
  28   6     0.02   0.02   0.02     0.01  -0.06  -0.05    -0.01  -0.23  -0.18
  29   6     0.00   0.00   0.00    -0.00  -0.06  -0.05    -0.01   0.03   0.01
  30   5     0.00  -0.00   0.01    -0.00  -0.10  -0.06    -0.00   0.04   0.02
  31   6     0.00  -0.00  -0.00    -0.00  -0.11  -0.05     0.00   0.05   0.01
  32   6     0.01   0.00  -0.00    -0.00  -0.12  -0.04     0.01   0.06  -0.01
  33   6     0.01   0.00  -0.00    -0.00  -0.14  -0.01     0.01   0.05   0.00
  34   6     0.01  -0.00  -0.01    -0.00  -0.14  -0.00     0.01   0.03   0.03
  35   6     0.01  -0.00  -0.01    -0.00  -0.13  -0.02     0.01   0.01   0.05
  36   6     0.00  -0.00  -0.01    -0.00  -0.11  -0.05     0.00   0.03   0.03
  37   5     0.00  -0.00  -0.01    -0.00  -0.10  -0.06    -0.00   0.03   0.03
  38   6     0.00   0.00  -0.02    -0.00  -0.06  -0.04    -0.00   0.01   0.02
  39   6    -0.01   0.06   0.02    -0.01   0.00   0.01    -0.00   0.07   0.07
  40   6    -0.01   0.11   0.06    -0.01  -0.00   0.01     0.00   0.16   0.14
  41   6    -0.01   0.06   0.01    -0.01   0.08   0.05    -0.00   0.05   0.05
  42   6     0.00   0.01  -0.04    -0.00   0.08   0.05     0.00  -0.03  -0.00
  43   7     0.00   0.01  -0.05    -0.01   0.11   0.09    -0.00  -0.03  -0.00
  44   6     0.00   0.01  -0.03     0.01   0.08   0.08    -0.01  -0.02   0.02
  45   6     0.01   0.01   0.03     0.05   0.09   0.07    -0.01  -0.02   0.01
  46   6     0.01   0.01   0.04     0.07   0.07   0.04    -0.02  -0.02   0.00
  47   6     0.01   0.00  -0.02     0.06   0.04   0.02    -0.02  -0.01   0.00
  48   6     0.01  -0.00  -0.01     0.09   0.01  -0.05    -0.02  -0.01  -0.05
  49   6    -0.15   0.19   0.14     0.08  -0.04  -0.08     0.02  -0.13  -0.13
  50   6     0.17  -0.19   0.16     0.15   0.08  -0.08    -0.07   0.11  -0.14
  51   6     0.02  -0.01  -0.29     0.08  -0.02  -0.06    -0.02   0.00   0.05
  52   6     0.01  -0.00  -0.05     0.03   0.03   0.05    -0.01  -0.01   0.03
  53   6     0.00   0.00  -0.04     0.01   0.06   0.08    -0.01  -0.01   0.03
  54   6     0.00   0.00  -0.05    -0.02   0.06   0.08     0.00  -0.02   0.03
  55   6    -0.00   0.00  -0.02    -0.04   0.04   0.07     0.01  -0.01   0.04
  56   6    -0.00   0.00  -0.00    -0.06   0.04   0.03     0.02  -0.01   0.01
  57   6    -0.01   0.00   0.07    -0.09   0.02  -0.01     0.03  -0.00   0.02
  58   6    -0.06   0.06   0.10    -0.17  -0.11  -0.11    -0.07  -0.12  -0.08
  59   6    -0.01   0.00   0.10    -0.08  -0.02   0.13     0.01   0.01   0.20
  60   6     0.03  -0.05   0.11    -0.04   0.15  -0.11     0.15   0.11  -0.07
  61   6    -0.00   0.00  -0.03    -0.07   0.07   0.00     0.03  -0.02  -0.05
  62   6    -0.00   0.00  -0.06    -0.05   0.09   0.03     0.02  -0.03  -0.05
  63   6     0.00   0.01  -0.06    -0.02   0.08   0.07     0.00  -0.02  -0.00
  64   6     0.01  -0.04  -0.07     0.00   0.02   0.01    -0.00  -0.09  -0.06
  65   6     0.01  -0.05  -0.07     0.00  -0.05  -0.04    -0.00  -0.08  -0.05
  66   6     0.02  -0.11  -0.11     0.01  -0.12  -0.09     0.00  -0.15  -0.11
  67   6    -0.00  -0.01   0.01    -0.00  -0.12  -0.05    -0.01   0.04   0.01
  68   6    -0.00  -0.02   0.02    -0.00  -0.13  -0.02    -0.01   0.05  -0.01
  69   6    -0.01  -0.03   0.04     0.00  -0.15   0.00    -0.01   0.06  -0.01
  70   6    -0.01  -0.04   0.05     0.00  -0.15   0.00    -0.01   0.05   0.01
  71   6    -0.00  -0.03   0.04    -0.00  -0.13  -0.03    -0.01   0.04   0.03
  72   6    -0.00  -0.01   0.02    -0.00  -0.11  -0.05    -0.01   0.04   0.02
  73   1    -0.01  -0.00  -0.00    -0.00  -0.01  -0.01     0.01   0.09   0.07
  74   1    -0.00  -0.01  -0.00     0.01  -0.02  -0.02    -0.01   0.11   0.05
  75   1    -0.01  -0.01  -0.00    -0.01  -0.02  -0.02     0.02   0.08   0.09
  76   1    -0.00  -0.00  -0.01    -0.00   0.02   0.01     0.00   0.05   0.03
  77   1    -0.00   0.00  -0.02     0.02   0.03   0.02    -0.00  -0.01   0.02
  78   1     0.00   0.00  -0.01     0.03   0.02   0.01    -0.01  -0.01   0.02
  79   1    -0.02   0.01   0.09     0.03  -0.01  -0.02    -0.01   0.00  -0.00
  80   1     0.01   0.01   0.09     0.02  -0.01  -0.03    -0.01   0.00  -0.01
  81   1     0.04  -0.00   0.08     0.00  -0.01  -0.02    -0.01  -0.00  -0.00
  82   1     0.03  -0.04  -0.04     0.02   0.02   0.01    -0.02  -0.02  -0.01
  83   1     0.07  -0.04   0.01     0.00   0.01  -0.00    -0.01  -0.02  -0.01
  84   1     0.03  -0.02   0.01     0.03  -0.00  -0.01    -0.02  -0.01  -0.02
  85   1    -0.03   0.03  -0.04     0.05   0.01   0.01    -0.01   0.00  -0.01
  86   1    -0.03   0.02   0.01     0.05  -0.00  -0.01    -0.01   0.00  -0.02
  87   1    -0.07   0.04   0.01     0.05   0.00  -0.01    -0.01   0.01  -0.01
  88   1     0.00  -0.00   0.01     0.01   0.00   0.00    -0.00  -0.00  -0.01
  89   1    -0.00  -0.00  -0.02    -0.01   0.00   0.00     0.00  -0.00  -0.01
  90   1     0.07   0.08  -0.00    -0.01   0.01  -0.00     0.02   0.06   0.02
  91   1     0.03   0.06   0.08    -0.02   0.02   0.01     0.02   0.04   0.05
  92   1     0.03   0.04   0.03    -0.03   0.00  -0.01     0.02   0.03   0.05
  93   1    -0.01  -0.01  -0.09    -0.03  -0.01  -0.02     0.01   0.01   0.00
  94   1    -0.04  -0.02  -0.09    -0.03  -0.01  -0.02    -0.00  -0.01  -0.02
  95   1     0.03   0.01  -0.10    -0.01  -0.01  -0.02     0.01   0.02  -0.02
  96   1    -0.04  -0.04   0.03    -0.05   0.00  -0.01     0.02  -0.03   0.06
  97   1    -0.04  -0.06   0.09    -0.04   0.01   0.01     0.02  -0.04   0.06
  98   1    -0.08  -0.08   0.01    -0.05   0.00  -0.00     0.00  -0.06   0.02
  99   1    -0.00   0.00   0.01    -0.02   0.02   0.01     0.01  -0.01  -0.02
 100   1    -0.00   0.00   0.00    -0.01   0.03   0.02     0.01  -0.02  -0.03
 101   1     0.00   0.01  -0.00     0.00   0.02   0.01    -0.01  -0.06  -0.05
 102   1     0.01   0.01   0.00     0.00  -0.01  -0.01    -0.01  -0.08  -0.06
 103   1     0.00   0.01   0.01     0.01  -0.02  -0.02     0.01  -0.06  -0.08
 104   1     0.01   0.01   0.01    -0.01  -0.03  -0.02    -0.01  -0.09  -0.04
 105   1     0.00   0.00   0.00    -0.00  -0.03  -0.01     0.00   0.02  -0.01
 106   1     0.00   0.00  -0.00    -0.00  -0.04   0.00     0.00   0.02  -0.00
 107   1     0.00  -0.00  -0.00    -0.00  -0.05   0.00     0.00   0.00   0.01
 108   1     0.00  -0.00  -0.00    -0.00  -0.04  -0.01     0.00  -0.00   0.02
 109   1    -0.01   0.04   0.02    -0.00   0.01   0.01     0.00   0.05   0.04
 110   1    -0.01   0.04   0.01     0.00  -0.00  -0.00    -0.01   0.07   0.03
 111   1     0.00   0.03   0.03    -0.01  -0.01   0.00     0.01   0.05   0.06
 112   1    -0.00   0.03   0.01    -0.00   0.04   0.03    -0.00   0.03   0.02
 113   1     0.00   0.00   0.02     0.02   0.03   0.02    -0.00  -0.01   0.01
 114   1     0.00   0.00   0.03     0.03   0.02   0.00    -0.01  -0.01  -0.00
 115   1    -0.08   0.09   0.01     0.01  -0.02  -0.02     0.02  -0.06  -0.02
 116   1    -0.04   0.07   0.10     0.03  -0.00  -0.02     0.00  -0.05  -0.06
 117   1    -0.04   0.05   0.04     0.03  -0.02  -0.04    -0.00  -0.03  -0.05
 118   1     0.10  -0.09   0.02     0.04   0.03  -0.02    -0.04   0.06  -0.02
 119   1     0.04  -0.07   0.11     0.05   0.03  -0.02    -0.02   0.04  -0.07
 120   1     0.04  -0.05   0.04     0.05   0.02  -0.04    -0.01   0.03  -0.05
 121   1     0.05  -0.03  -0.10     0.03   0.00  -0.01    -0.02   0.02   0.03
 122   1    -0.04   0.02  -0.11     0.01  -0.02  -0.01     0.01  -0.01   0.03
 123   1     0.01  -0.00  -0.10     0.03  -0.01  -0.03    -0.01   0.00   0.01
 124   1     0.00  -0.00  -0.02     0.01   0.00   0.01    -0.00  -0.00   0.01
 125   1    -0.00   0.00  -0.00    -0.01   0.00   0.03     0.00   0.00   0.02
 126   1    -0.02   0.02   0.03    -0.05  -0.03  -0.07    -0.01  -0.05  -0.06
 127   1    -0.02   0.03   0.02    -0.07  -0.06  -0.01    -0.05  -0.06  -0.01
 128   1    -0.02   0.02   0.05    -0.05  -0.03  -0.04    -0.01  -0.03  -0.02
 129   1    -0.01   0.01   0.02    -0.04  -0.02   0.05    -0.03  -0.01   0.07
 130   1     0.00  -0.01   0.02    -0.00   0.01   0.06     0.03   0.02   0.08
 131   1    -0.00   0.00   0.04    -0.03  -0.01   0.04     0.00   0.01   0.07
 132   1     0.02  -0.03   0.03     0.01   0.07  -0.01     0.07   0.06  -0.00
 133   1     0.01  -0.02   0.05    -0.02   0.04  -0.04     0.04   0.03  -0.02
 134   1     0.01  -0.01   0.03    -0.01   0.05  -0.06     0.05   0.04  -0.06
 135   1    -0.00   0.00  -0.01    -0.03   0.02  -0.01     0.01  -0.01  -0.03
 136   1     0.00   0.00  -0.02    -0.02   0.03   0.00     0.01  -0.01  -0.03
 137   1     0.00  -0.02  -0.03     0.00   0.01   0.01    -0.00  -0.04  -0.03
 138   1    -0.00  -0.04  -0.03    -0.01  -0.05  -0.03    -0.01  -0.06  -0.02
 139   1     0.02  -0.03  -0.04     0.02  -0.04  -0.04     0.01  -0.04  -0.05
 140   1     0.01  -0.03  -0.03     0.00  -0.03  -0.02    -0.00  -0.05  -0.04
 141   1    -0.00  -0.00   0.00    -0.00  -0.04  -0.01    -0.00   0.02  -0.01
 142   1    -0.00  -0.01   0.01     0.00  -0.05   0.01    -0.00   0.02  -0.01
 143   1    -0.00  -0.01   0.02     0.00  -0.05   0.01    -0.00   0.01   0.00
 144   1    -0.00  -0.01   0.01    -0.00  -0.04  -0.01    -0.00   0.01   0.01
                     13                     14                     15
                        a                      a                      a 
 Frequencies --    38.3946                41.7197                42.4005
 Red. masses --     9.2009                 9.3585                10.5741
 Frc consts  --     0.0000                 0.0000                 0.0000
 IR Inten    --    99.8720                 8.4621                21.8934
 Raman Activ --     0.0000                 0.0000                 0.0000
 Depolar     --     0.0000                 0.0000                 0.0000
 Atom AN      X      Y      Z        X      Y      Z        X      Y      Z
   1   6     0.01   0.20   0.13    -0.00  -0.13  -0.10     0.06  -0.04  -0.13
   2   6     0.00   0.10   0.05    -0.00  -0.06  -0.05     0.03  -0.02  -0.09
   3   6     0.01   0.12   0.07    -0.00  -0.05  -0.03     0.03   0.02  -0.01
   4   6     0.00   0.04   0.01    -0.01   0.00   0.01     0.00   0.04   0.03
   5   7     0.00   0.04   0.02    -0.01   0.01   0.02     0.01   0.06   0.10
   6   6     0.01   0.04   0.04    -0.01   0.00   0.00     0.02   0.05   0.09
   7   6     0.03   0.04   0.07    -0.01   0.00  -0.02     0.03   0.05   0.09
   8   6     0.04   0.03   0.06    -0.01   0.00  -0.03     0.04   0.04   0.07
   9   6     0.04   0.01   0.02    -0.01   0.00  -0.01     0.04   0.02   0.04
  10   6     0.05  -0.00  -0.03    -0.01   0.01   0.00     0.05   0.01  -0.02
  11   6     0.04  -0.02  -0.05    -0.01   0.01  -0.02     0.03  -0.02  -0.10
  12   6     0.02  -0.03  -0.04    -0.01   0.04   0.02    -0.01  -0.00  -0.02
  13   6     0.09   0.03  -0.05    -0.01  -0.02   0.02     0.13   0.02  -0.03
  14   6     0.02   0.01   0.01    -0.01   0.01   0.00     0.02   0.02   0.06
  15   6     0.01   0.02   0.02    -0.01   0.00   0.01     0.01   0.04   0.09
  16   6    -0.00   0.02  -0.00    -0.01   0.00   0.02    -0.00   0.04   0.08
  17   6    -0.01   0.02  -0.01    -0.01   0.00   0.02    -0.01   0.02   0.06
  18   6    -0.02   0.02  -0.01    -0.01   0.00   0.02    -0.03   0.03   0.03
  19   6    -0.02   0.01   0.03    -0.02  -0.00  -0.02    -0.04   0.01  -0.02
  20   6     0.01   0.11   0.10    -0.02  -0.06  -0.05     0.00   0.00  -0.02
  21   6    -0.02  -0.00  -0.06    -0.02  -0.01   0.00    -0.04  -0.01  -0.07
  22   6    -0.06  -0.08   0.11    -0.03   0.05  -0.05    -0.10   0.03  -0.02
  23   6    -0.02   0.03  -0.03    -0.02   0.01   0.04    -0.03   0.04   0.05
  24   6    -0.01   0.03  -0.03    -0.01   0.01   0.05    -0.02   0.05   0.08
  25   6    -0.01   0.03  -0.01    -0.01   0.01   0.03    -0.00   0.05   0.09
  26   6    -0.00  -0.07  -0.07    -0.01   0.05   0.05    -0.03   0.02  -0.01
  27   6    -0.00  -0.10  -0.10    -0.01   0.05   0.04    -0.04  -0.02  -0.09
  28   6    -0.01  -0.23  -0.19    -0.01   0.11   0.08    -0.07  -0.04  -0.13
  29   6    -0.00  -0.02  -0.03    -0.00  -0.01  -0.01    -0.00  -0.03  -0.12
  30   5    -0.00  -0.03  -0.04    -0.00  -0.01  -0.01    -0.00  -0.00  -0.11
  31   6    -0.00  -0.05  -0.01    -0.01   0.01  -0.03    -0.06   0.00  -0.06
  32   6    -0.01  -0.05  -0.00    -0.02   0.03  -0.06    -0.13   0.01  -0.12
  33   6    -0.01  -0.08   0.04    -0.02   0.05  -0.07    -0.18   0.01  -0.06
  34   6    -0.01  -0.09   0.06    -0.02   0.04  -0.05    -0.18   0.00   0.07
  35   6    -0.01  -0.07   0.04    -0.02   0.02  -0.01    -0.13   0.00   0.13
  36   6    -0.00  -0.05   0.00    -0.01   0.01  -0.01    -0.06   0.01   0.07
  37   5     0.00  -0.04  -0.01    -0.00   0.00   0.01    -0.01   0.01   0.11
  38   6    -0.00  -0.02  -0.01    -0.00   0.00   0.01    -0.00   0.04   0.12
  39   6    -0.01  -0.02  -0.02    -0.00   0.14   0.12    -0.04   0.02   0.08
  40   6    -0.02  -0.06  -0.04    -0.00   0.30   0.24    -0.07   0.04   0.12
  41   6    -0.01   0.00  -0.01    -0.00   0.12   0.11    -0.03  -0.03  -0.00
  42   6    -0.00   0.03   0.01     0.01  -0.01   0.00     0.00  -0.05  -0.04
  43   7    -0.00   0.03   0.00     0.00  -0.01   0.00     0.00  -0.07  -0.12
  44   6     0.00   0.03  -0.02     0.00  -0.00   0.02    -0.01  -0.05  -0.10
  45   6     0.01   0.03  -0.02     0.01  -0.00   0.06    -0.03  -0.06  -0.09
  46   6     0.01   0.02  -0.01     0.01  -0.00   0.05    -0.04  -0.05  -0.06
  47   6     0.01   0.01   0.01     0.01  -0.01   0.02    -0.04  -0.03  -0.04
  48   6     0.02   0.01   0.06     0.02  -0.01  -0.02    -0.05  -0.01   0.02
  49   6     0.07   0.02   0.06     0.08  -0.15  -0.12    -0.04   0.03   0.05
  50   6    -0.03   0.00   0.05    -0.04   0.12  -0.13    -0.10  -0.06   0.05
  51   6     0.01   0.00   0.12     0.01  -0.01   0.12    -0.05   0.01   0.04
  52   6     0.01   0.01  -0.02     0.01  -0.01   0.00    -0.02  -0.03  -0.06
  53   6     0.00   0.02  -0.03     0.00  -0.00  -0.00    -0.00  -0.04  -0.09
  54   6    -0.01   0.02  -0.03     0.01  -0.00  -0.03     0.01  -0.04  -0.10
  55   6    -0.01   0.01  -0.06     0.01   0.00  -0.03     0.02  -0.02  -0.06
  56   6    -0.03   0.01  -0.03     0.02   0.00  -0.03     0.04  -0.03  -0.04
  57   6    -0.04  -0.00  -0.03     0.03   0.01   0.02     0.05  -0.01   0.04
  58   6     0.12   0.21   0.15     0.09   0.18   0.15    -0.02  -0.02   0.02
  59   6    -0.01  -0.02  -0.35     0.03   0.02  -0.14     0.03   0.02   0.14
  60   6    -0.24  -0.21   0.13    -0.05  -0.16   0.14     0.15  -0.01   0.03
  61   6    -0.03   0.02   0.05     0.03  -0.00  -0.04     0.04  -0.05  -0.07
  62   6    -0.03   0.03   0.05     0.02  -0.01  -0.05     0.03  -0.06  -0.11
  63   6    -0.01   0.03   0.00     0.01  -0.01  -0.03     0.02  -0.05  -0.11
  64   6     0.00   0.04   0.02     0.00  -0.13  -0.10     0.03  -0.02   0.01
  65   6     0.00   0.02   0.01     0.00  -0.14  -0.10     0.03   0.03   0.09
  66   6     0.01   0.03   0.02     0.01  -0.30  -0.22     0.06   0.06   0.14
  67   6     0.00  -0.03  -0.02     0.00  -0.01   0.01     0.06   0.01   0.06
  68   6     0.01  -0.03  -0.02     0.01  -0.01   0.02     0.12   0.00   0.13
  69   6     0.01  -0.03  -0.02     0.02  -0.02   0.03     0.18   0.00   0.07
  70   6     0.01  -0.04  -0.02     0.02  -0.03   0.03     0.18   0.01  -0.06
  71   6     0.01  -0.04  -0.03     0.01  -0.03   0.02     0.12   0.01  -0.12
  72   6     0.00  -0.03  -0.03     0.00  -0.01   0.01     0.06   0.00  -0.06
  73   1     0.00   0.07   0.04    -0.00  -0.05  -0.03     0.02  -0.02  -0.04
  74   1    -0.00   0.08   0.02     0.00  -0.05  -0.02     0.02  -0.01  -0.04
  75   1     0.01   0.05   0.06    -0.01  -0.03  -0.04     0.02  -0.01  -0.05
  76   1     0.00   0.06   0.04     0.00  -0.03  -0.02     0.02   0.01   0.00
  77   1     0.01   0.02   0.03    -0.00  -0.00  -0.01     0.01   0.02   0.03
  78   1     0.02   0.01   0.02    -0.00   0.00  -0.01     0.02   0.01   0.02
  79   1     0.01  -0.00  -0.01    -0.00  -0.00  -0.01     0.02  -0.00  -0.03
  80   1     0.01  -0.01  -0.02    -0.00   0.00  -0.00     0.01  -0.01  -0.05
  81   1     0.00  -0.01  -0.01    -0.01   0.00  -0.01    -0.01  -0.01  -0.03
  82   1     0.01  -0.01  -0.01    -0.00   0.01   0.01     0.00   0.01   0.01
  83   1    -0.00  -0.02  -0.01    -0.01   0.02   0.00    -0.03  -0.00  -0.00
  84   1     0.01  -0.01  -0.02    -0.00   0.01   0.01     0.00  -0.01  -0.02
  85   1     0.03   0.01  -0.01    -0.00  -0.01   0.01     0.04   0.01   0.01
  86   1     0.03   0.01  -0.03    -0.00  -0.00   0.01     0.04   0.00  -0.03
  87   1     0.03   0.02  -0.01     0.00  -0.01   0.00     0.05   0.01  -0.01
  88   1     0.00  -0.00  -0.00    -0.00   0.00   0.00     0.00   0.00   0.01
  89   1    -0.00   0.00   0.00    -0.00  -0.00   0.00    -0.00   0.00   0.01
  90   1     0.02   0.05   0.01    -0.01  -0.03  -0.01     0.01  -0.00  -0.01
  91   1    -0.00   0.04   0.05    -0.01  -0.02  -0.02    -0.00   0.01   0.00
  92   1    -0.00   0.03   0.04    -0.01  -0.02  -0.02    -0.00  -0.00  -0.02
  93   1    -0.01  -0.00  -0.02    -0.01  -0.00  -0.00    -0.01  -0.01  -0.04
  94   1    -0.02  -0.01  -0.03    -0.00   0.00   0.01    -0.02   0.00  -0.02
  95   1     0.01   0.01  -0.03    -0.01  -0.01   0.01     0.00  -0.01  -0.02
  96   1    -0.02  -0.02   0.04    -0.01   0.01  -0.02    -0.03   0.01  -0.02
  97   1    -0.02  -0.03   0.05    -0.01   0.02  -0.02    -0.03   0.01   0.01
  98   1    -0.03  -0.04   0.02    -0.01   0.02  -0.01    -0.04   0.01  -0.00
  99   1    -0.01   0.01  -0.01    -0.01   0.00   0.01    -0.01   0.01   0.01
 100   1    -0.00   0.01  -0.01    -0.00   0.00   0.02    -0.01   0.02   0.02
 101   1    -0.00  -0.04  -0.03    -0.00   0.03   0.02    -0.02   0.01   0.01
 102   1    -0.00  -0.07  -0.06    -0.00   0.04   0.03    -0.03  -0.02  -0.03
 103   1     0.02  -0.07  -0.08    -0.01   0.03   0.04    -0.02  -0.01  -0.05
 104   1    -0.02  -0.09  -0.05     0.00   0.04   0.02    -0.03  -0.02  -0.04
 105   1    -0.00  -0.01  -0.01    -0.00   0.01  -0.02    -0.04   0.00  -0.06
 106   1    -0.00  -0.03   0.01    -0.01   0.02  -0.03    -0.07   0.00  -0.03
 107   1    -0.00  -0.03   0.02    -0.01   0.01  -0.02    -0.07   0.00   0.04
 108   1    -0.00  -0.02   0.01    -0.01   0.00   0.00    -0.04   0.00   0.07
 109   1    -0.01  -0.01  -0.01    -0.00   0.10   0.08    -0.03   0.02   0.03
 110   1     0.00  -0.02  -0.01    -0.01   0.11   0.05    -0.03   0.01   0.04
 111   1    -0.01  -0.02  -0.02     0.01   0.08   0.10    -0.02   0.01   0.05
 112   1    -0.00  -0.00  -0.01    -0.00   0.06   0.05    -0.02  -0.01  -0.01
 113   1     0.00   0.01  -0.01     0.00   0.00   0.03    -0.01  -0.02  -0.03
 114   1     0.01   0.01  -0.00     0.00  -0.00   0.02    -0.02  -0.01  -0.01
 115   1     0.03   0.01   0.02     0.04  -0.07  -0.01    -0.00   0.02   0.01
 116   1     0.02   0.00   0.00     0.02  -0.05  -0.06    -0.01   0.00   0.01
 117   1     0.02   0.01   0.03     0.02  -0.04  -0.04    -0.01   0.01   0.03
 118   1    -0.02  -0.00   0.01    -0.04   0.06  -0.02    -0.03  -0.03   0.01
 119   1    -0.01   0.00   0.00    -0.00   0.05  -0.07    -0.03  -0.02   0.01
 120   1    -0.01  -0.00   0.03    -0.00   0.03  -0.04    -0.03  -0.01   0.03
 121   1    -0.01  -0.00   0.03    -0.02   0.01   0.05    -0.02  -0.01   0.01
 122   1     0.01   0.01   0.03     0.02  -0.02   0.05    -0.00   0.01   0.01
 123   1     0.00  -0.00   0.05     0.00  -0.00   0.04    -0.02   0.01   0.02
 124   1     0.00   0.00  -0.01     0.00  -0.00  -0.00    -0.00  -0.00  -0.02
 125   1    -0.00  -0.00  -0.03     0.00   0.00  -0.01     0.00  -0.00  -0.01
 126   1     0.02   0.08   0.11     0.02   0.06   0.08    -0.00  -0.01  -0.02
 127   1     0.09   0.10   0.01     0.06   0.08   0.02    -0.03  -0.01   0.01
 128   1     0.02   0.05   0.04     0.02   0.04   0.05    -0.00   0.00   0.02
 129   1     0.05   0.02  -0.12     0.03   0.02  -0.06    -0.01   0.01   0.04
 130   1    -0.05  -0.03  -0.13    -0.01  -0.01  -0.06     0.03   0.00   0.05
 131   1    -0.00  -0.01  -0.12     0.01   0.01  -0.04     0.01   0.01   0.06
 132   1    -0.11  -0.10   0.00    -0.03  -0.08   0.02     0.06  -0.00   0.01
 133   1    -0.07  -0.06   0.04    -0.01  -0.04   0.06     0.05  -0.00   0.03
 134   1    -0.07  -0.07   0.10    -0.01  -0.05   0.08     0.05  -0.00  -0.01
 135   1    -0.01   0.01   0.03     0.01  -0.00  -0.01     0.02  -0.01  -0.02
 136   1    -0.01   0.01   0.03     0.01  -0.01  -0.02     0.01  -0.02  -0.03
 137   1     0.00   0.02   0.01     0.00  -0.07  -0.05     0.02  -0.01  -0.01
 138   1    -0.00   0.01   0.00    -0.02  -0.12  -0.05     0.03   0.02   0.04
 139   1     0.01   0.00   0.01     0.03  -0.09  -0.10     0.01   0.01   0.05
 140   1     0.00   0.01   0.01     0.00  -0.10  -0.07     0.02   0.02   0.04
 141   1     0.00  -0.01  -0.01     0.00   0.00   0.00     0.03   0.00   0.06
 142   1     0.00  -0.01  -0.01     0.01  -0.01   0.01     0.06   0.00   0.03
 143   1     0.00  -0.01  -0.01     0.01  -0.01   0.01     0.06   0.00  -0.03
 144   1     0.00  -0.01  -0.01     0.00  -0.01   0.00     0.03   0.00  -0.06
                     16                     17                     18
                        a                      a                      a 
 Frequencies --    49.8326                50.6496                57.2127
 Red. masses --    10.4212                10.3852                10.3734
 Frc consts  --     0.0000                 0.0000                 0.0000
 IR Inten    --     3.4455                 0.5045                 1.0925
 Raman Activ --     0.0000                 0.0000                 0.0000
 Depolar     --     0.0000                 0.0000                 0.0000
 Atom AN      X      Y      Z        X      Y      Z        X      Y      Z
   1   6     0.04  -0.02   0.01     0.13   0.11  -0.10     0.10   0.08  -0.13
   2   6     0.04  -0.02   0.01     0.07   0.07  -0.08     0.05   0.05  -0.11
   3   6     0.04  -0.01   0.01     0.07  -0.02  -0.05     0.05   0.00  -0.07
   4   6     0.06   0.01   0.00     0.01  -0.04  -0.03    -0.00  -0.01  -0.04
   5   7     0.07   0.01  -0.00     0.02  -0.08   0.01    -0.00  -0.03   0.01
   6   6     0.08   0.01  -0.02     0.01  -0.06   0.02    -0.01  -0.02   0.03
   7   6     0.11   0.02  -0.06    -0.01  -0.07   0.02    -0.02  -0.03   0.04
   8   6     0.13   0.00  -0.06    -0.02  -0.05   0.02    -0.03  -0.02   0.05
   9   6     0.12  -0.02  -0.03    -0.01  -0.04   0.01    -0.03  -0.01   0.03
  10   6     0.16  -0.05  -0.00    -0.03  -0.03  -0.00    -0.04   0.00  -0.00
  11   6     0.14  -0.09   0.04    -0.02  -0.01  -0.02    -0.04   0.02  -0.04
  12   6     0.22  -0.03  -0.00    -0.06  -0.03   0.00    -0.09  -0.01  -0.00
  13   6     0.16  -0.05   0.00    -0.02  -0.03  -0.00    -0.02   0.01  -0.01
  14   6     0.09  -0.02  -0.01     0.00  -0.04   0.02    -0.01  -0.01   0.04
  15   6     0.07   0.00  -0.01     0.01  -0.05   0.02    -0.00  -0.02   0.04
  16   6     0.07   0.01   0.01     0.03  -0.04   0.03    -0.00  -0.02   0.04
  17   6     0.09   0.03   0.01     0.04  -0.02   0.02     0.00  -0.02   0.03
  18   6     0.11   0.03   0.02     0.07  -0.03   0.02     0.00  -0.02   0.02
  19   6     0.14   0.05  -0.02     0.10  -0.01  -0.01     0.01  -0.02  -0.01
  20   6     0.18   0.02  -0.03     0.14  -0.04  -0.03     0.03  -0.03  -0.01
  21   6     0.13   0.09  -0.03     0.08   0.03  -0.03     0.00  -0.01  -0.03
  22   6     0.14   0.07  -0.03     0.10   0.02  -0.03    -0.01  -0.01  -0.01
  23   6     0.12   0.02   0.04     0.08  -0.05   0.04     0.01  -0.02   0.02
  24   6     0.10   0.00   0.04     0.06  -0.07   0.04     0.00  -0.02   0.02
  25   6     0.07   0.01   0.02     0.03  -0.06   0.03    -0.00  -0.02   0.02
  26   6     0.06   0.01   0.01    -0.05   0.01  -0.04    -0.05   0.02  -0.06
  27   6     0.06  -0.00   0.01    -0.05   0.09  -0.06    -0.06   0.07  -0.09
  28   6     0.08  -0.01   0.02    -0.11   0.15  -0.06    -0.11   0.12  -0.10
  29   6     0.04  -0.02   0.01     0.01   0.12  -0.08    -0.00   0.09  -0.12
  30   5     0.03  -0.01   0.02     0.00   0.12  -0.09    -0.00   0.11  -0.12
  31   6    -0.01   0.00   0.02     0.04   0.07  -0.06     0.00   0.06  -0.06
  32   6    -0.02  -0.02   0.05     0.08   0.15  -0.12    -0.00  -0.04   0.09
  33   6    -0.03  -0.01   0.05     0.13   0.07  -0.05    -0.00  -0.14   0.26
  34   6    -0.03   0.02   0.02     0.13  -0.08   0.08    -0.00  -0.14   0.25
  35   6    -0.02   0.04  -0.01     0.08  -0.14   0.13     0.00  -0.02   0.07
  36   6    -0.01   0.03  -0.00     0.04  -0.06   0.06     0.00   0.07  -0.06
  37   5    -0.02   0.04  -0.02    -0.01  -0.11   0.08     0.00   0.11  -0.13
  38   6    -0.04   0.04  -0.02    -0.01  -0.11   0.07     0.01   0.10  -0.13
  39   6    -0.03   0.04  -0.01    -0.06  -0.07   0.06     0.06   0.07  -0.10
  40   6    -0.02   0.06  -0.00    -0.12  -0.11   0.07     0.12   0.11  -0.12
  41   6    -0.03   0.02  -0.00    -0.06   0.01   0.04     0.06   0.01  -0.06
  42   6    -0.06  -0.01  -0.01    -0.01   0.04   0.02     0.01  -0.01  -0.04
  43   7    -0.07  -0.02   0.01    -0.02   0.07  -0.01     0.00  -0.03   0.02
  44   6    -0.08  -0.02   0.02    -0.01   0.06  -0.02     0.00  -0.03   0.03
  45   6    -0.12  -0.03   0.05     0.01   0.06  -0.02    -0.01  -0.03   0.03
  46   6    -0.14  -0.01   0.04     0.02   0.05  -0.02    -0.01  -0.02   0.03
  47   6    -0.13   0.01   0.02     0.01   0.04  -0.01    -0.01  -0.02   0.02
  48   6    -0.17   0.04  -0.02     0.03   0.03   0.01    -0.01  -0.02  -0.01
  49   6    -0.21  -0.00  -0.05     0.05   0.05   0.02    -0.04  -0.04  -0.02
  50   6    -0.18   0.08  -0.05     0.03   0.01   0.02     0.01   0.00  -0.02
  51   6    -0.15   0.09  -0.02     0.02   0.01   0.01    -0.01  -0.01  -0.03
  52   6    -0.10   0.02   0.01     0.00   0.03  -0.02    -0.00  -0.02   0.04
  53   6    -0.08  -0.01   0.02    -0.01   0.04  -0.02     0.00  -0.02   0.04
  54   6    -0.07  -0.02   0.00    -0.02   0.04  -0.03     0.01  -0.02   0.05
  55   6    -0.09  -0.03  -0.00    -0.04   0.02  -0.02     0.01  -0.01   0.04
  56   6    -0.11  -0.03  -0.01    -0.06   0.03  -0.02     0.03  -0.01   0.03
  57   6    -0.13  -0.05  -0.00    -0.09   0.00   0.00     0.05  -0.00  -0.01
  58   6    -0.16  -0.04   0.00    -0.13   0.03   0.01     0.09  -0.02  -0.01
  59   6    -0.12  -0.09  -0.00    -0.08  -0.03   0.02     0.04   0.02  -0.04
  60   6    -0.15  -0.06   0.00    -0.10  -0.01   0.02     0.03   0.01  -0.02
  61   6    -0.11  -0.02  -0.03    -0.07   0.05  -0.04     0.03  -0.02   0.04
  62   6    -0.09  -0.01  -0.03    -0.05   0.07  -0.04     0.02  -0.03   0.04
  63   6    -0.07  -0.02  -0.01    -0.03   0.06  -0.02     0.01  -0.03   0.03
  64   6    -0.07  -0.02  -0.02     0.04   0.00   0.04    -0.05   0.01  -0.07
  65   6    -0.07   0.01  -0.02     0.04  -0.08   0.06    -0.05   0.07  -0.11
  66   6    -0.09   0.02  -0.04     0.10  -0.12   0.07    -0.11   0.11  -0.12
  67   6     0.01   0.01  -0.02    -0.04  -0.07   0.06     0.00   0.07  -0.06
  68   6     0.02   0.02  -0.02    -0.09  -0.15   0.14     0.00  -0.03   0.09
  69   6     0.03  -0.01   0.02    -0.13  -0.09   0.09     0.00  -0.15   0.26
  70   6     0.03  -0.05   0.05    -0.13   0.07  -0.05     0.00  -0.15   0.26
  71   6     0.02  -0.05   0.05    -0.09   0.14  -0.13     0.00  -0.03   0.09
  72   6     0.01  -0.02   0.01    -0.04   0.07  -0.06     0.00   0.07  -0.06
  73   1     0.01  -0.03  -0.01     0.05   0.01  -0.03     0.04   0.00  -0.04
  74   1    -0.01   0.00   0.02     0.02   0.04  -0.02     0.01   0.03  -0.03
  75   1     0.04   0.01   0.00     0.06   0.05  -0.03     0.05   0.04  -0.04
  76   1     0.01  -0.00   0.00     0.03  -0.02  -0.01     0.03  -0.01  -0.02
  77   1     0.03   0.01  -0.02    -0.00  -0.02   0.01    -0.01  -0.01   0.01
  78   1     0.04   0.00  -0.02    -0.01  -0.02   0.01    -0.01  -0.01   0.02
  79   1     0.03  -0.03   0.01    -0.00  -0.00  -0.01    -0.00   0.01  -0.01
  80   1     0.05  -0.03   0.02    -0.01  -0.00  -0.01    -0.02   0.01  -0.02
  81   1     0.04  -0.03   0.01    -0.01  -0.00  -0.00    -0.02   0.00  -0.01
  82   1     0.07  -0.00  -0.01    -0.02  -0.01   0.00    -0.03  -0.00   0.01
  83   1     0.07  -0.01  -0.00    -0.02  -0.01   0.00    -0.04  -0.01   0.00
  84   1     0.07  -0.02   0.01    -0.02  -0.01  -0.00    -0.03  -0.00  -0.01
  85   1     0.05  -0.01  -0.01    -0.01  -0.01   0.00    -0.01  -0.00   0.01
  86   1     0.05  -0.02   0.01    -0.01  -0.00  -0.00    -0.01   0.01  -0.01
  87   1     0.03  -0.02   0.00    -0.00  -0.01  -0.00     0.01   0.01  -0.00
  88   1     0.02  -0.01   0.00     0.00  -0.01   0.01    -0.00   0.00   0.01
  89   1     0.02   0.01  -0.00     0.01  -0.00   0.00     0.00  -0.00   0.01
  90   1     0.05   0.00  -0.01     0.04  -0.02  -0.01     0.01  -0.01  -0.00
  91   1     0.06  -0.00  -0.01     0.04  -0.02  -0.01     0.01  -0.01   0.00
  92   1     0.06   0.01  -0.02     0.05  -0.01  -0.02     0.01  -0.01  -0.01
  93   1     0.04   0.03  -0.01     0.03   0.01  -0.01     0.00  -0.00  -0.01
  94   1     0.03   0.03  -0.01     0.02   0.01  -0.01    -0.00  -0.00  -0.01
  95   1     0.04   0.02  -0.01     0.02   0.01  -0.00     0.01  -0.01  -0.01
  96   1     0.05   0.03  -0.02     0.03   0.01  -0.02    -0.00  -0.00  -0.01
  97   1     0.04   0.02  -0.01     0.03  -0.00  -0.01    -0.00  -0.00   0.00
  98   1     0.03   0.03  -0.01     0.02   0.01  -0.01    -0.01   0.00  -0.00
  99   1     0.04   0.00   0.01     0.03  -0.02   0.01     0.00  -0.01   0.00
 100   1     0.03  -0.01   0.02     0.02  -0.03   0.02     0.00  -0.01   0.01
 101   1     0.02   0.00   0.00    -0.03  -0.01  -0.01    -0.03   0.00  -0.01
 102   1     0.02   0.01   0.01    -0.04   0.04  -0.01    -0.04   0.01  -0.03
 103   1     0.04  -0.02   0.01    -0.04   0.05  -0.02    -0.06   0.05  -0.03
 104   1     0.01  -0.01  -0.00    -0.03   0.05  -0.03    -0.01   0.05  -0.02
 105   1    -0.01  -0.01   0.02     0.02   0.07  -0.06    -0.00  -0.01   0.03
 106   1    -0.01  -0.01   0.02     0.05   0.04  -0.03    -0.00  -0.07   0.11
 107   1    -0.01   0.01   0.01     0.05  -0.04   0.04    -0.00  -0.06   0.11
 108   1    -0.01   0.02  -0.01     0.02  -0.07   0.07     0.00  -0.00   0.02
 109   1    -0.00   0.04   0.01    -0.05  -0.02   0.02     0.05   0.01  -0.04
 110   1     0.01   0.01  -0.02    -0.03  -0.04   0.03     0.02   0.05  -0.03
 111   1    -0.02   0.00   0.00    -0.04  -0.04   0.02     0.06   0.05  -0.04
 112   1    -0.00   0.00   0.00    -0.03   0.01   0.01     0.03  -0.00  -0.01
[...]
  42   6     0.00   0.00   0.00    -0.00   0.00   0.00     0.00   0.00   0.00
  43   7    -0.00  -0.00   0.00     0.00   0.00  -0.00    -0.00  -0.00  -0.00
  44   6    -0.00  -0.00  -0.00     0.00   0.00  -0.00    -0.00  -0.00  -0.00
  45   6    -0.00   0.00   0.00     0.06  -0.02   0.00     0.00   0.00   0.00
  46   6    -0.00   0.00  -0.00     0.02  -0.07   0.00    -0.00   0.00   0.00
  47   6    -0.00   0.00  -0.00    -0.00  -0.00  -0.00    -0.00   0.00  -0.00
  48   6     0.00  -0.00  -0.00     0.00  -0.00   0.00     0.00  -0.00  -0.00
  49   6     0.00   0.00   0.00     0.00  -0.00   0.00     0.00   0.00   0.00
  50   6     0.00   0.00  -0.00     0.00  -0.00  -0.00     0.00   0.00  -0.00
  51   6    -0.00   0.00  -0.00    -0.00  -0.00  -0.00    -0.00   0.00  -0.00
  52   6    -0.00  -0.00   0.00     0.00  -0.00   0.00    -0.00  -0.00  -0.00
  53   6     0.00   0.00  -0.00    -0.00   0.00  -0.00     0.00   0.00  -0.00
  54   6     0.00  -0.00   0.00    -0.00  -0.00  -0.00     0.00  -0.00   0.00
  55   6    -0.00   0.00  -0.00     0.01   0.00   0.00    -0.00  -0.00  -0.00
  56   6     0.00  -0.00   0.00    -0.00   0.00  -0.00    -0.00  -0.00   0.00
  57   6    -0.00  -0.00  -0.00     0.00   0.00   0.00    -0.00  -0.00  -0.00
  58   6    -0.00  -0.00  -0.00     0.01   0.00  -0.00     0.00  -0.00  -0.00
  59   6    -0.00  -0.00  -0.00    -0.00   0.00  -0.00    -0.00  -0.00  -0.00
  60   6    -0.00  -0.00   0.00     0.01   0.00   0.00     0.00  -0.00   0.00
  61   6    -0.00  -0.02  -0.00     0.05   0.20   0.00     0.00   0.00  -0.00
  62   6    -0.01  -0.00  -0.00     0.15   0.05   0.01     0.00   0.00   0.00
  63   6    -0.00   0.00   0.00     0.00  -0.01   0.00     0.00   0.00   0.00
  64   6     0.00  -0.00   0.00    -0.00   0.00  -0.00    -0.00  -0.00   0.00
  65   6     0.00  -0.00   0.00     0.00   0.00  -0.00     0.00  -0.00   0.00
  66   6     0.00  -0.00   0.00    -0.00   0.00  -0.00     0.00  -0.00   0.00
  67   6     0.00  -0.00  -0.00    -0.00  -0.00  -0.00     0.00  -0.00  -0.00
  68   6     0.00   0.00   0.00    -0.00   0.00   0.00     0.00   0.00   0.00
  69   6     0.00  -0.00  -0.00    -0.00   0.00   0.00     0.00  -0.00  -0.00
  70   6    -0.00  -0.00  -0.00     0.00   0.00   0.00    -0.00  -0.00  -0.00
  71   6    -0.00  -0.00  -0.00     0.00  -0.00  -0.00    -0.00  -0.00  -0.00
  72   6    -0.00   0.00   0.00     0.00   0.00   0.00    -0.00   0.00   0.00
  73   1     0.00   0.00  -0.00    -0.00  -0.00   0.00     0.00   0.00  -0.00
  74   1    -0.00  -0.00  -0.00    -0.00  -0.00  -0.00    -0.00  -0.00   0.00
  75   1     0.00  -0.00  -0.00    -0.00   0.00   0.00    -0.00   0.00   0.00
  76   1     0.01   0.01  -0.01    -0.00  -0.00   0.00     0.00   0.00  -0.00
  77   1    -0.44   0.15   0.03    -0.04   0.01   0.00     0.00  -0.00  -0.00
  78   1    -0.13   0.55  -0.02    -0.01   0.04  -0.00     0.00  -0.02   0.00
  79   1     0.00  -0.00   0.00     0.00  -0.00   0.00    -0.00   0.00  -0.00
  80   1     0.01   0.01  -0.00     0.00   0.00  -0.00     0.00   0.00  -0.00
  81   1     0.00  -0.00  -0.00     0.00  -0.00  -0.00    -0.00   0.00   0.00
  82   1    -0.03   0.02   0.00    -0.00   0.00   0.00    -0.00   0.00   0.00
  83   1     0.00  -0.01  -0.01     0.00  -0.00  -0.00     0.00  -0.00  -0.00
  84   1     0.00   0.00  -0.00    -0.00  -0.00   0.00    -0.00  -0.00   0.00
  85   1    -0.03   0.02   0.00    -0.00   0.00   0.00    -0.00   0.00   0.00
  86   1     0.00   0.00  -0.00     0.00  -0.00  -0.00    -0.00  -0.00   0.00
  87   1     0.00  -0.01   0.01     0.00  -0.00   0.00     0.00  -0.00   0.00
  88   1    -0.03   0.01   0.00    -0.00   0.00   0.00    -0.44   0.14   0.01
  89   1    -0.03  -0.01   0.00    -0.00  -0.00   0.00     0.80   0.25  -0.06
  90   1     0.00   0.00   0.01     0.00   0.00   0.00     0.00   0.00   0.00
  91   1    -0.02  -0.01   0.00    -0.00  -0.00   0.00     0.00   0.00  -0.00
  92   1     0.00  -0.00  -0.00     0.00  -0.00  -0.00     0.00  -0.00  -0.00
  93   1     0.01  -0.01   0.00     0.00  -0.00   0.00    -0.00   0.00   0.00
  94   1     0.00   0.00  -0.00     0.00   0.00  -0.00     0.00   0.01  -0.01
  95   1     0.00   0.00   0.00     0.00   0.00   0.00     0.00   0.01   0.01
  96   1     0.00  -0.00  -0.00    -0.00   0.00   0.00     0.00  -0.00   0.00
  97   1    -0.03  -0.01   0.00    -0.00  -0.00   0.00     0.00   0.00   0.00
  98   1     0.00   0.00  -0.01     0.00   0.00  -0.00    -0.00   0.00  -0.00
  99   1    -0.11  -0.44   0.02    -0.01  -0.03   0.00    -0.01  -0.03   0.00
 100   1    -0.38  -0.12   0.01    -0.03  -0.01   0.00    -0.01  -0.00   0.00
 101   1     0.01  -0.01   0.01    -0.00   0.00  -0.00    -0.00   0.00  -0.00
 102   1     0.00  -0.00   0.00    -0.00   0.00  -0.00     0.00  -0.00   0.00
 103   1     0.00   0.00   0.00    -0.00  -0.00  -0.00    -0.00  -0.00  -0.00
 104   1    -0.00   0.00   0.00    -0.00   0.00   0.00    -0.00   0.00   0.00
 105   1     0.01  -0.00  -0.00    -0.01  -0.00   0.00     0.00  -0.00  -0.00
 106   1     0.00  -0.01  -0.00    -0.00   0.00   0.00     0.00  -0.00  -0.00
 107   1    -0.00  -0.01  -0.00     0.00   0.00   0.00    -0.00  -0.00  -0.00
 108   1    -0.01   0.00  -0.00     0.01   0.00   0.00    -0.00   0.00  -0.00
 109   1    -0.00  -0.00   0.00     0.00   0.00  -0.00    -0.00  -0.00   0.00
 110   1    -0.00  -0.00  -0.00    -0.00  -0.00  -0.00    -0.00  -0.00  -0.00
 111   1    -0.00   0.00   0.00    -0.00   0.00   0.00    -0.00   0.00   0.00
 112   1    -0.00  -0.00   0.00     0.01   0.01  -0.01    -0.00  -0.00   0.00
 113   1     0.00  -0.00   0.00    -0.22   0.07  -0.01    -0.00   0.00  -0.00
 114   1     0.00  -0.00   0.00    -0.06   0.24  -0.01     0.00  -0.00   0.00
 115   1     0.00  -0.00  -0.00     0.00  -0.00  -0.01     0.00  -0.00  -0.00
 116   1    -0.00   0.00  -0.00    -0.01   0.01  -0.00    -0.00   0.00  -0.00
 117   1    -0.00  -0.00   0.00     0.00   0.00   0.00    -0.00  -0.00   0.00
 118   1     0.00  -0.00   0.00     0.00  -0.00   0.01     0.00  -0.00   0.00
 119   1    -0.00   0.00  -0.00    -0.02   0.01  -0.00    -0.00   0.00  -0.00
 120   1    -0.00  -0.00  -0.00     0.00   0.00  -0.00    -0.00  -0.00  -0.00
 121   1     0.00  -0.00   0.00     0.00  -0.00   0.00     0.00  -0.00   0.00
 122   1     0.00  -0.00  -0.00     0.00  -0.00  -0.00     0.00  -0.00  -0.00
 123   1     0.00   0.00   0.00     0.00   0.01   0.00     0.00   0.00   0.00
 124   1     0.00  -0.00   0.00    -0.02   0.00  -0.00     0.00  -0.00   0.00
 125   1     0.00   0.00   0.00    -0.04  -0.01  -0.00     0.00   0.00   0.00
 126   1     0.00   0.00   0.00    -0.04  -0.02  -0.00    -0.00  -0.00  -0.00
 127   1    -0.00   0.00   0.00     0.00   0.01   0.01     0.00   0.00   0.00
 128   1    -0.00   0.00  -0.00     0.00  -0.00   0.00    -0.00   0.00  -0.00
 129   1     0.00   0.00   0.00    -0.00   0.00   0.00     0.00   0.00   0.00
 130   1     0.00   0.00  -0.00     0.00   0.00  -0.00     0.00   0.00  -0.00
 131   1     0.00  -0.00   0.00     0.01  -0.01   0.00     0.00  -0.00   0.00
 132   1     0.00   0.00  -0.00     0.00   0.01  -0.01     0.00   0.00  -0.00
 133   1    -0.00   0.00   0.00     0.00  -0.00   0.00    -0.00   0.00   0.00
 134   1     0.00   0.00   0.00    -0.03  -0.02  -0.00    -0.00  -0.00  -0.00
 135   1     0.01   0.06   0.00    -0.16  -0.68  -0.00    -0.00  -0.00   0.00
 136   1     0.04   0.01   0.00    -0.52  -0.17  -0.04    -0.00  -0.00  -0.00
 137   1    -0.00   0.00  -0.00     0.01  -0.01   0.01    -0.00   0.00  -0.00
 138   1    -0.00   0.00   0.00    -0.00   0.00   0.00    -0.00   0.00   0.00
 139   1    -0.00  -0.00  -0.00     0.00   0.00   0.00    -0.00  -0.00  -0.00
 140   1    -0.00   0.00  -0.00     0.00  -0.00   0.00    -0.00   0.00  -0.00
 141   1    -0.01  -0.00   0.00     0.00  -0.00  -0.00    -0.00  -0.00   0.00
 142   1    -0.00   0.01   0.00     0.00  -0.00  -0.00    -0.00   0.00   0.00
 143   1     0.00   0.01   0.00    -0.00  -0.00  -0.00     0.00   0.00   0.00
 144   1     0.01   0.00   0.00    -0.01   0.00   0.00     0.00   0.00   0.00
                    424                    425                    426
                        a                      a                      a 
 Frequencies --  3116.4328              3119.0326              3119.1147
 Red. masses --     1.8212                 1.8157                 1.8159
 Frc consts  --     0.0000                 0.0000                 0.0000
 IR Inten    --    12.1803              1088.9089               174.1501
 Raman Activ --     0.0000                 0.0000                 0.0000
 Depolar     --     0.0000                 0.0000                 0.0000
 Atom AN      X      Y      Z        X      Y      Z        X      Y      Z
   1   6    -0.00  -0.00   0.00    -0.00   0.00  -0.00     0.00   0.00  -0.00
   2   6    -0.00  -0.00   0.00    -0.00  -0.00   0.00     0.00   0.00  -0.00
   3   6    -0.00  -0.00   0.00     0.00  -0.00   0.00     0.00   0.00  -0.00
   4   6    -0.00   0.00   0.00    -0.00   0.00   0.00     0.00   0.00  -0.00
   5   7     0.00  -0.00  -0.00     0.00  -0.00  -0.00     0.00  -0.00  -0.00
   6   6    -0.00   0.00   0.00    -0.00   0.00   0.00    -0.00   0.00  -0.00
   7   6     0.00  -0.00  -0.00    -0.00   0.00   0.00    -0.00   0.00   0.00
   8   6    -0.00  -0.00  -0.00    -0.00   0.01  -0.00    -0.00   0.00  -0.00
   9   6     0.00  -0.00  -0.00     0.01   0.00  -0.00     0.00   0.00  -0.00
  10   6     0.00  -0.00   0.00     0.00  -0.00  -0.00     0.00  -0.00  -0.00
  11   6     0.00  -0.00  -0.00     0.00  -0.00  -0.00     0.00  -0.00  -0.00
  12   6    -0.00  -0.00  -0.00     0.00  -0.00  -0.00     0.00   0.00  -0.00
  13   6    -0.00  -0.00   0.00     0.00  -0.00   0.00     0.00   0.00   0.00
  14   6     0.00  -0.00  -0.00     0.20  -0.07  -0.00     0.09  -0.03  -0.00
  15   6    -0.00  -0.00   0.00     0.00  -0.01   0.00     0.00  -0.00   0.00
  16   6    -0.00   0.00   0.00     0.00   0.00  -0.00     0.00   0.00  -0.00
  17   6    -0.00  -0.00   0.00     0.11   0.04  -0.01     0.05   0.02  -0.00
  18   6    -0.00   0.00  -0.00     0.00  -0.00  -0.00     0.00  -0.00  -0.00
  19   6    -0.00  -0.00   0.00     0.00   0.00  -0.00     0.00   0.00  -0.00
  20   6    -0.00   0.00   0.00    -0.00   0.00   0.00     0.00  -0.00   0.00
  21   6     0.00   0.00  -0.00     0.00   0.00  -0.00     0.00   0.00  -0.00
  22   6    -0.00   0.00  -0.00    -0.00   0.00  -0.00     0.00  -0.00  -0.00
  23   6     0.00   0.00  -0.00    -0.00  -0.00   0.00    -0.00  -0.00   0.00
  24   6    -0.00  -0.00   0.00    -0.00  -0.00   0.00    -0.00  -0.00   0.00
  25   6     0.00  -0.00  -0.00    -0.00  -0.00  -0.00    -0.00  -0.00   0.00
  26   6    -0.00   0.00  -0.00     0.00   0.00  -0.00     0.00  -0.00   0.00
  27   6    -0.00   0.00  -0.00    -0.00   0.00  -0.00     0.00  -0.00   0.00
  28   6    -0.00   0.00  -0.00     0.00  -0.00   0.00     0.00  -0.00   0.00
  29   6     0.00  -0.00  -0.00     0.00  -0.00  -0.00    -0.00   0.00  -0.00
  30   5    -0.00   0.00  -0.00    -0.00  -0.00   0.00     0.00   0.00   0.00
  31   6    -0.00   0.00   0.00     0.00   0.00   0.00     0.00   0.00   0.00
  32   6    -0.00  -0.00  -0.00     0.00  -0.00  -0.00     0.00  -0.00  -0.00
  33   6    -0.00   0.00   0.00     0.00  -0.00  -0.00     0.00  -0.00  -0.00
  34   6     0.00   0.00   0.00    -0.00  -0.00  -0.00    -0.00  -0.00  -0.00
  35   6     0.00   0.00   0.00    -0.00   0.00   0.00    -0.00  -0.00  -0.00
  36   6     0.00  -0.00  -0.00    -0.00  -0.00  -0.00    -0.00   0.00   0.00
  37   5    -0.00   0.00  -0.00    -0.00   0.00  -0.00     0.00  -0.00   0.00
  38   6     0.00  -0.00   0.00     0.00   0.00   0.00    -0.00  -0.00  -0.00
  39   6    -0.00   0.00   0.00    -0.00  -0.00   0.00     0.00  -0.00   0.00
  40   6     0.00   0.00  -0.00    -0.00  -0.00   0.00    -0.00  -0.00   0.00
  41   6     0.00   0.00  -0.00     0.00  -0.00   0.00    -0.00  -0.00   0.00
  42   6    -0.00  -0.00   0.00    -0.00   0.00  -0.00     0.00  -0.00   0.00
  43   7     0.00  -0.00  -0.00     0.00   0.00   0.00    -0.00  -0.00  -0.00
  44   6     0.00  -0.00   0.00    -0.00   0.00   0.00     0.00  -0.00   0.00
  45   6     0.00  -0.00   0.00    -0.00   0.00  -0.00     0.00  -0.00   0.00
  46   6     0.00  -0.01   0.00    -0.00   0.00  -0.00     0.00  -0.01   0.00
  47   6    -0.00  -0.00  -0.00     0.00   0.00   0.00    -0.01  -0.00  -0.00
  48   6    -0.00   0.00  -0.00     0.00  -0.00   0.00    -0.00   0.00  -0.00
  49   6    -0.00   0.00   0.00    -0.00  -0.00  -0.00    -0.00   0.00   0.00
  50   6    -0.00   0.00  -0.00    -0.00  -0.00   0.00    -0.00   0.00  -0.00
  51   6    -0.00   0.00   0.00     0.00  -0.00   0.00    -0.00   0.00   0.00
  52   6    -0.16   0.05  -0.01     0.08  -0.03   0.01    -0.18   0.06  -0.01
  53   6    -0.00   0.00  -0.00     0.00  -0.00   0.00    -0.00   0.01  -0.00
  54   6     0.00   0.01  -0.00     0.00   0.00  -0.00    -0.00  -0.00   0.00
  55   6     0.20   0.07   0.01     0.06   0.02   0.00    -0.14  -0.05  -0.01
  56   6     0.01  -0.00   0.00     0.00  -0.00   0.00    -0.00   0.00  -0.00
  57   6     0.00   0.00   0.00     0.00   0.00   0.00    -0.00  -0.00  -0.00
  58   6     0.00   0.00   0.00    -0.00   0.00   0.00    -0.00  -0.00  -0.00
  59   6     0.00   0.00   0.00     0.00   0.00   0.00    -0.00  -0.00  -0.00
  60   6     0.00   0.00  -0.00    -0.00   0.00  -0.00    -0.00  -0.00   0.00
  61   6    -0.00  -0.01  -0.00    -0.00  -0.00  -0.00     0.00   0.01   0.00
  62   6    -0.00  -0.00  -0.00    -0.00  -0.00  -0.00     0.00   0.00   0.00
  63   6    -0.00  -0.00  -0.00    -0.00  -0.00  -0.00     0.00   0.00   0.00
  64   6    -0.00   0.00  -0.00     0.00   0.00  -0.00    -0.00   0.00  -0.00
  65   6    -0.00   0.00   0.00    -0.00   0.00  -0.00     0.00   0.00  -0.00
  66   6    -0.00  -0.00   0.00    -0.00   0.00  -0.00    -0.00   0.00  -0.00
  67   6     0.00   0.00   0.00    -0.00   0.00   0.00    -0.00  -0.00  -0.00
  68   6     0.00  -0.00  -0.00    -0.00  -0.00  -0.00    -0.00   0.00   0.00
  69   6     0.00  -0.00  -0.00    -0.00   0.00   0.00    -0.00   0.00   0.00
  70   6    -0.00  -0.00  -0.00     0.00   0.00   0.00     0.00   0.00   0.00
  71   6    -0.00   0.00   0.00     0.00   0.00   0.00     0.00   0.00   0.00
  72   6    -0.00  -0.00  -0.00     0.00  -0.00  -0.00     0.00  -0.00  -0.00
  73   1     0.00   0.00  -0.00    -0.00  -0.00   0.00    -0.00  -0.00   0.00
  74   1     0.00   0.00   0.00     0.00   0.00   0.00    -0.00  -0.00  -0.00
  75   1     0.00  -0.00  -0.00     0.00  -0.00  -0.00    -0.00   0.00   0.00
  76   1     0.00   0.00  -0.00     0.00   0.00  -0.00    -0.00  -0.00   0.00
  77   1    -0.00   0.00   0.00     0.01  -0.00  -0.00     0.01  -0.00  -0.00
  78   1    -0.00   0.00   0.00     0.01  -0.03   0.00     0.00  -0.01   0.00
  79   1    -0.00   0.00  -0.00    -0.00   0.01  -0.01    -0.00   0.00  -0.00
  80   1    -0.00  -0.00   0.00     0.00   0.00  -0.00     0.00   0.00  -0.00
  81   1    -0.00   0.00   0.00    -0.00   0.01   0.01    -0.00   0.00   0.00
  82   1     0.00  -0.00  -0.00     0.00  -0.00  -0.00    -0.00   0.00  -0.00
  83   1    -0.00   0.00   0.00     0.00   0.00   0.00     0.00   0.00   0.00
  84   1     0.00   0.00  -0.00    -0.00  -0.00  -0.00    -0.00  -0.00   0.00
  85   1     0.00  -0.00  -0.00     0.00  -0.00   0.00    -0.00   0.00   0.00
  86   1     0.00   0.00   0.00    -0.00  -0.00   0.00    -0.00  -0.00   0.00
  87   1    -0.00   0.00  -0.00    -0.00   0.00  -0.00    -0.00   0.00  -0.00
  88   1    -0.00   0.00   0.00    -0.73   0.24   0.02    -0.33   0.11   0.01
  89   1     0.00   0.00  -0.00    -0.40  -0.12   0.03    -0.18  -0.06   0.01
  90   1    -0.00  -0.00  -0.00    -0.00  -0.00  -0.00     0.00  -0.00  -0.00
  91   1     0.00   0.00  -0.00     0.00   0.00  -0.00    -0.00  -0.00   0.00
  92   1     0.00  -0.00   0.00    -0.00   0.00   0.00    -0.00   0.00  -0.00
  93   1    -0.00   0.00  -0.00    -0.00   0.00  -0.00     0.00  -0.00  -0.00
  94   1    -0.00  -0.00   0.00    -0.00  -0.01   0.01    -0.00  -0.00   0.00
  95   1    -0.00  -0.00  -0.00    -0.00  -0.01  -0.01    -0.00  -0.00  -0.00
  96   1     0.00  -0.00  -0.00    -0.00   0.00  -0.00    -0.00   0.00   0.00
  97   1     0.00   0.00  -0.00     0.00   0.00  -0.00     0.00  -0.00  -0.00
  98   1    -0.00  -0.00   0.00    -0.00  -0.00   0.00     0.00  -0.00   0.00
  99   1    -0.00  -0.00  -0.00     0.01   0.02  -0.00     0.00   0.01  -0.00
 100   1     0.00   0.00  -0.00     0.01   0.00  -0.00     0.00   0.00  -0.00
 101   1     0.00  -0.00   0.00    -0.00  -0.00  -0.00    -0.00   0.00  -0.00
 102   1     0.00  -0.00   0.00    -0.00   0.00  -0.00    -0.00   0.00  -0.00
 103   1     0.00   0.00   0.00     0.00   0.00   0.00    -0.00  -0.00  -0.00
 104   1     0.00  -0.00  -0.00     0.00  -0.00  -0.00    -0.00   0.00   0.00
 105   1     0.00   0.00  -0.00    -0.00   0.00   0.00    -0.00   0.00   0.00
 106   1     0.00  -0.00  -0.00    -0.00   0.00   0.00    -0.00   0.00   0.00
 107   1    -0.00  -0.00  -0.00     0.00   0.00   0.00     0.00   0.00   0.00
 108   1    -0.00   0.00  -0.00     0.00  -0.00  -0.00     0.00   0.00   0.00
 109   1    -0.00  -0.00   0.00     0.00   0.00  -0.00     0.00   0.00  -0.00
 110   1    -0.00  -0.00  -0.00     0.00   0.00   0.00    -0.00  -0.00   0.00
 111   1     0.00  -0.00  -0.00     0.00  -0.00  -0.00    -0.00   0.00   0.00
 112   1    -0.00  -0.00   0.00     0.00   0.00  -0.00     0.00   0.00  -0.00
 113   1    -0.01   0.00  -0.00     0.01  -0.00   0.00    -0.01   0.00  -0.00
 114   1    -0.01   0.02  -0.00     0.00  -0.01   0.00    -0.01   0.03  -0.00
 115   1    -0.00  -0.00  -0.00    -0.00   0.00   0.00     0.00  -0.00  -0.00
 116   1     0.00  -0.00   0.00     0.00  -0.00   0.00    -0.00   0.00   0.00
 117   1     0.00   0.00   0.00    -0.00  -0.00  -0.00     0.00   0.00   0.00
 118   1    -0.00  -0.00   0.00    -0.00   0.00  -0.00     0.00  -0.00   0.00
 119   1     0.00  -0.00   0.00     0.00  -0.00   0.00    -0.00   0.00  -0.00
 120   1     0.00   0.00   0.00     0.00   0.00   0.00     0.00   0.00  -0.00
 121   1     0.00  -0.00   0.00    -0.00   0.00  -0.00     0.00  -0.01   0.01
 122   1     0.00  -0.01  -0.00    -0.00   0.00   0.00     0.00  -0.01  -0.01
 123   1    -0.00  -0.00  -0.00    -0.00  -0.00   0.00    -0.00  -0.00  -0.00
 124   1     0.56  -0.17   0.04    -0.30   0.09  -0.02     0.66  -0.20   0.05
 125   1    -0.72  -0.24  -0.03    -0.23  -0.07  -0.01     0.51   0.17   0.02
 126   1    -0.00  -0.00   0.00     0.00   0.00   0.00    -0.00  -0.00  -0.00
 127   1     0.00  -0.00  -0.00    -0.00  -0.00  -0.00    -0.00   0.00   0.00
 128   1    -0.00   0.00  -0.00    -0.00   0.00   0.00     0.00  -0.00  -0.00
 129   1    -0.00  -0.01  -0.01    -0.00  -0.00  -0.00     0.00   0.01   0.01
 130   1    -0.00  -0.01   0.01    -0.00  -0.00   0.00     0.00   0.00  -0.01
 131   1     0.00  -0.00   0.00    -0.00   0.00  -0.00    -0.00   0.00  -0.00
 132   1    -0.00  -0.00   0.00    -0.00  -0.00   0.00     0.00   0.00  -0.00
 133   1    -0.00   0.00  -0.00    -0.00   0.00  -0.00     0.00  -0.00   0.00
 134   1    -0.00  -0.00  -0.00     0.00   0.00   0.00    -0.00  -0.00   0.00
 135   1     0.01   0.03   0.00     0.00   0.01   0.00    -0.01  -0.02  -0.00
 136   1     0.01   0.00   0.00     0.00   0.00   0.00    -0.01  -0.00  -0.00
 137   1     0.00  -0.00   0.00     0.00  -0.00   0.00     0.00  -0.00   0.00
 138   1     0.00  -0.00  -0.00     0.00  -0.00  -0.00    -0.00   0.00  -0.00
 139   1    -0.00   0.00   0.00     0.00   0.00   0.00    -0.00   0.00  -0.00
 140   1    -0.00   0.00  -0.00     0.00  -0.00   0.00     0.00  -0.00   0.00
 141   1    -0.00   0.00   0.00     0.00   0.00   0.00     0.00  -0.00  -0.00
 142   1    -0.00   0.00   0.00     0.00  -0.00  -0.00     0.00  -0.00  -0.00
 143   1     0.00   0.00   0.00    -0.00  -0.00  -0.00    -0.00  -0.00  -0.00
 144   1     0.00   0.00   0.00    -0.00  -0.00  -0.00    -0.00  -0.00  -0.00
