      -----------------------------------------------------------      
     |                   =====================                   |     
     |                           x T B                           |     
     |                   =====================                   |     
     |                         S. Grimme                         |     
     |          Mulliken Center for Theoretical Chemistry        |     
     |                    University of Bonn                     |     
      -----------------------------------------------------------      

   * xtb version 6.7.1 (edcfbbe) compiled by 'albert@albert-system' on 2024-07-22

   xtb is free software: you can redistribute it and/or modify it under
   the terms of the GNU Lesser General Public License as published by
   the Free Software Foundation, either version 3 of the License, or
   (at your option) any later version.
   
   xtb is distributed in the hope that it will be useful,
   but WITHOUT ANY WARRANTY; without even the implied warranty of
   MERCHANTABILITY or FITNESS FOR A PARTICULAR PURPOSE.  See the
   GNU Lesser General Public License for more details.
   
   Cite this work as:
   * C. Bannwarth, E. Caldeweyher, S. Ehlert, A. Hansen, P. Pracht,
     J. Seibert, S. Spicher, S. Grimme, WIREs Comput. Mol. Sci., 2020, 11,
     e01493. DOI: 10.1002/wcms.1493
   
   for GFN2-xTB:
   * C. Bannwarth, S. Ehlert and S. Grimme., J. Chem. Theory Comput., 2019,
     15, 1652-1671. DOI: 10.1021/acs.jctc.8b01176
   for GFN1-xTB:
   * S. Grimme, C. Bannwarth, P. Shushkov, J. Chem. Theory Comput., 2017,
     13, 1989-2009. DOI: 10.1021/acs.jctc.7b00118
   for GFN0-xTB:
   * P. Pracht, E. Caldeweyher, S. Ehlert, S. Grimme, ChemRxiv, 2019, preprint.
     DOI: 10.26434/chemrxiv.8326202.v1
   for GFN-FF:
   * S. Spicher and S. Grimme, Angew. Chem. Int. Ed., 2020, 59, 15665-15673.
     DOI: 10.1002/anie.202004239
   
   for ALPB and GBSA implicit solvation:
   * S. Ehlert, M. Stahn, S. Spicher, S. Grimme, J. Chem. Theory Comput.,
     2021, 17, 4250-4261. DOI: 10.1021/acs.jctc.1c00471
   
   for ddCOSMO and CPCM-X implicit solvation:
   * M. Stahn, S. Ehlert, S. Grimme, J. Phys. Chem. A,
     2023, XX, XXXX-XXXX. DOI: 10.1021/acs.jpca.3c04382
   
   for DFT-D4:
   * E. Caldeweyher, C. Bannwarth and S. Grimme, J. Chem. Phys., 2017,
     147, 034112. DOI: 10.1063/1.4993215
   * E. Caldeweyher, S. Ehlert, A. Hansen, H. Neugebauer, S. Spicher,
     C. Bannwarth and S. Grimme, J. Chem. Phys., 2019, 150, 154122.
     DOI: 10.1063/1.5090222
   * E. Caldeweyher, J.-M. Mewes, S. Ehlert and S. Grimme, Phys. Chem. Chem. Phys.
     2020, 22, 8499-8512. DOI: 10.1039/D0CP00502A
   
   for sTDA-xTB:
   * S. Grimme and C. Bannwarth, J. Chem. Phys., 2016, 145, 054103.
     DOI: 10.1063/1.4959605
   
   in the mass-spec context:
   * V. Asgeirsson, C. Bauer and S. Grimme, Chem. Sci., 2017, 8, 4879.
     DOI: 10.1039/c7sc00601b
   * J. Koopman and S. Grimme, ACS Omega 2019, 4, 12, 15120-15133.
     DOI: 10.1021/acsomega.9b02011
   
   for metadynamics refer to:
   * S. Grimme, J. Chem. Theory Comput., 2019, 155, 2847-2862
     DOI: 10.1021/acs.jctc.9b00143
   
   for SPH calculations refer to:
   * S. Spicher and S. Grimme, J. Chem. Theory Comput., 2021, 17, 1701-1714
     DOI: 10.1021/acs.jctc.0c01306
   
   for ONIOM refer to:
   * C. Plett, A. Katbashev, S. Ehlert, S. Grimme, M. Bursch,
     Phys. Chem. Chem. Phys., 2023, 25, 17860-17868. DOI: 10.1039/D3CP02178E
   
   for DIPRO refer to:
   * J. Kohn, N. Gildemeister, S. Grimme, D. Fazzi, A. Hansen,
     J. Chem. Phys., 2023, just accepted.
   
   for PTB refer to:
   * S. Grimme, M. Mueller, A. Hansen, J. Chem. Phys., 2023, 158, 124111.
     DOI: 10.1063/5.0137838
   
   with help from (in alphabetical order)
   P. Atkinson, C. Bannwarth, F. Bohle, G. Brandenburg, E. Caldeweyher
   M. Checinski, S. Dohm, S. Ehlert, S. Ehrlich, I. Gerasimov, C. Hölzer
   A. Katbashev, J. Kohn, J. Koopman, C. Lavigne, S. Lehtola, F. März, M. Müller,
   F. Musil, H. Neugebauer, J. Pisarek, C. Plett, P. Pracht, F. Pultar,
   J. Seibert, P. Shushkov, S. Spicher, M. Stahn, M. Steiner, T. Strunk,
   J. Stückrath, T. Rose, and J. Unsleber
   
 * started run on 2025/08/24 at 16:01:54.024     
   ID    Z sym.   atoms
    1    6 C      1-12, 14, 16-18, 20-25, 27-36, 38-43, 45-54
    2    7 N      13, 19, 37
    3    8 O      15, 26, 44, 55
    4    1 H      56-92

           -------------------------------------------------
          |                Calculation Setup                |
           -------------------------------------------------

          program call               : xtb data2507/gas/2PN/2PN_gas_S0_crest.xyz --gfn 2 --ohess vtight --parallel 40 --molden --ceasefiles --namespace data2507/gas/2PN/2PN_gas_S0_finalOpt
          calculation namespace      : data2507/gas/2PN/2PN_gas_S0_finalOpt
          coordinate file            : data2507/gas/2PN/2PN_gas_S0_crest.xyz
          omp threads                :                    40


           -------------------------------------------------
          |                 G F N 2 - x T B                 |
           -------------------------------------------------

        Reference                      10.1021/acs.jctc.8b01176
      * Hamiltonian:
        H0-scaling (s, p, d)           1.850000    2.230000    2.230000
        zeta-weighting                 0.500000
      * Dispersion:
        s8                             2.700000
        a1                             0.520000
        a2                             5.000000
        s9                             5.000000
      * Repulsion:
        kExp                           1.500000    1.000000
        rExp                           1.000000
      * Coulomb:
        alpha                          2.000000
        third order                    shell-resolved
        anisotropic                    true
        a3                             3.000000
        a5                             4.000000
        cn-shift                       1.200000
        cn-exp                         4.000000
        max-rad                        5.000000


          ...................................................
          :                      SETUP                      :
          :.................................................:
          :  # basis functions                 257          :
          :  # atomic orbitals                 257          :
          :  # shells                          147          :
          :  # electrons                       268          :
          :  max. iterations                   250          :
          :  Hamiltonian                  GFN2-xTB          :
          :  restarted?                      false          :
          :  GBSA solvation                  false          :
          :  PC potential                    false          :
          :  electronic temp.          300.0000000     K    :
          :  accuracy                    1.0000000          :
          :  -> integral cutoff          0.2500000E+02      :
          :  -> integral neglect         0.1000000E-07      :
          :  -> SCF convergence          0.1000000E-05 Eh   :
          :  -> wf. convergence          0.1000000E-03 e    :
          :  Broyden damping             0.4000000          :
          :  net charge                          0          :
          :  unpaired electrons                  0          :
          ...................................................

 iter      E             dE          RMSdq      gap      omega  full diag
   1   -149.0774327 -0.149077E+03  0.412E+00    0.87       0.0  T
   2   -149.2230234 -0.145591E+00  0.247E+00    1.01       1.0  T
   3   -149.1974880  0.255354E-01  0.104E+00    0.77       1.0  T
   4   -149.2337314 -0.362434E-01  0.394E-01    0.94       1.0  T
   5   -149.2462056 -0.124741E-01  0.124E-01    0.83       1.0  T
   6   -149.2472925 -0.108697E-02  0.508E-02    0.87       1.0  T
   7   -149.2473744 -0.818289E-04  0.247E-02    0.87       1.0  T
   8   -149.2473942 -0.198316E-04  0.118E-02    0.87       1.0  T
   9   -149.2474011 -0.688323E-05  0.403E-03    0.87       2.6  T
  10   -149.2474017 -0.643442E-06  0.186E-03    0.87       5.6  T
  11   -149.2474019 -0.222576E-06  0.567E-04    0.87      18.4  T
  12   -149.2474019 -0.235079E-08  0.293E-04    0.87      35.6  T

   *** convergence criteria satisfied after 12 iterations ***

         #    Occupation            Energy/Eh            Energy/eV
      -------------------------------------------------------------
         1        2.0000           -0.7335330             -19.9604
       ...           ...                  ...                  ...
       128        2.0000           -0.4082198             -11.1082
       129        2.0000           -0.3980653             -10.8319
       130        2.0000           -0.3956520             -10.7662
       131        2.0000           -0.3952349             -10.7549
       132        2.0000           -0.3906378             -10.6298
       133        2.0000           -0.3504780              -9.5370
       134        2.0000           -0.3497728              -9.5178 (HOMO)
       135        0.0000           -0.3178255              -8.6485 (LUMO)
       136                         -0.2630491              -7.1579
       137                         -0.2555918              -6.9550
       138                         -0.2438963              -6.6368
       139                         -0.2433415              -6.6217
       ...                                ...                  ...
       257                          0.7266061              19.7720
      -------------------------------------------------------------
                  HL-Gap            0.0319473 Eh            0.8693 eV
             Fermi-level           -0.3336142 Eh           -9.0781 eV

 SCC (total)                   0 d,  0 h,  0 min,  0.181 sec
 SCC setup                      ...        0 min,  0.001 sec (  0.393%)
 Dispersion                     ...        0 min,  0.005 sec (  2.597%)
 classical contributions        ...        0 min,  0.000 sec (  0.195%)
 integral evaluation            ...        0 min,  0.009 sec (  4.974%)
 iterations                     ...        0 min,  0.150 sec ( 82.432%)
 molecular gradient             ...        0 min,  0.016 sec (  8.627%)
 printout                       ...        0 min,  0.001 sec (  0.736%)

         :::::::::::::::::::::::::::::::::::::::::::::::::::::
         ::                     SUMMARY                     ::
         :::::::::::::::::::::::::::::::::::::::::::::::::::::
         :: total energy            -146.828922000213 Eh    ::
         :: gradient norm              0.000320464230 Eh/a0 ::
         :: HOMO-LUMO gap              0.869329106021 eV    ::
         ::.................................................::
         :: SCC energy              -149.246149686909 Eh    ::
         :: -> isotropic ES            0.098444589005 Eh    ::
         :: -> anisotropic ES          0.013230641642 Eh    ::
         :: -> anisotropic XC          0.058728852879 Eh    ::
         :: -> dispersion             -0.130448597222 Eh    ::
         :: repulsion energy           2.417227686695 Eh    ::
         :: add. restraining           0.000000000000 Eh    ::
         :: total charge               0.000000000587 e     ::
         :::::::::::::::::::::::::::::::::::::::::::::::::::::

      ----------------------------------------------------------- 
     |                   =====================                   |
     |                        A N C O P T                        |
     |                   =====================                   |
     |               Approximate Normal Coordinate               |
     |                Rational Function Optimizer                |
      ----------------------------------------------------------- 

Optimization log is written to '/dev/null'
      ----------------------------------------------------------- 
     |                   =====================                   |
     |                        A N C O P T                        |
     |                   =====================                   |
     |               Approximate Normal Coordinate               |
     |                Rational Function Optimizer                |
      ----------------------------------------------------------- 

          ...................................................
          :                      SETUP                      :
          :.................................................:
          :   optimization level         verytight          :
          :   max. optcycles                  1840          :
          :   ANC micro-cycles                  20          :
          :   degrees of freedom               270          :
          :.................................................:
          :   RF solver                   davidson          :
          :   write xtbopt.log                true          :
          :   linear?                        false          :
          :   energy convergence         0.1000000E-06 Eh   :
          :   grad. convergence          0.2000000E-03 Eh/α :
          :   maxmium RF displ.          1.0000000          :
          :   Hlow (freq-cutoff)         0.1000000E-01      :
          :   Hmax (freq-cutoff)         5.0000000          :
          :   S6 in model hess.         20.0000000          :
          ...................................................

generating ANC from exact Hessian ...
Using Lindh-Hessian (1995)
 Shifting diagonal of input Hessian by   9.919466897029806E-003
 Lowest  eigenvalues of input Hessian
    0.000000    0.000000    0.000000    0.000000    0.000000    0.000000
    0.010000    0.010030    0.010067    0.010093    0.010336    0.010362
    0.010396    0.010560    0.010784    0.011204    0.011243    0.011664
 Highest eigenvalues
    2.194268    2.209733    2.219294    2.219786    2.308278    2.419468
 

........................................................................
.............................. CYCLE    1 ..............................
........................................................................

 iter      E             dE          RMSdq      gap      omega  full diag
   1   -149.2474019 -0.149247E+03  0.938E-05    0.87       0.0  T
   2   -149.2474019 -0.167233E-09  0.571E-05    0.87     182.5  T
   3   -149.2474019 -0.132928E-09  0.394E-05    0.87     264.5  T
     SCC iter.                  ...        0 min,  0.037 sec
     gradient                   ...        0 min,  0.014 sec
 * total energy  :  -146.8289220 Eh     change       -0.3262045E-08 Eh
   gradient norm :     0.0003203 Eh/α   predicted     0.0000000E+00 (-100.00%)
   displ. norm   :     0.0107186 α      lambda       -0.9373498E-07
   maximum displ.:     0.0052202 α      in ANC's #4, #8, #6, ...

........................................................................
.............................. CYCLE    2 ..............................
........................................................................

 iter      E             dE          RMSdq      gap      omega  full diag
   1   -149.2473502 -0.149247E+03  0.211E-03    0.87       0.0  T
   2   -149.2473502 -0.244839E-08  0.125E-03    0.87       8.3  T
   3   -149.2473502  0.887596E-08  0.328E-04    0.87      31.8  T
   4   -149.2473502 -0.101344E-07  0.495E-05    0.87     210.5  T
     SCC iter.                  ...        0 min,  0.045 sec
     gradient                   ...        0 min,  0.014 sec
 * total energy  :  -146.8289230 Eh     change       -0.9466130E-06 Eh
   gradient norm :     0.0002003 Eh/α   predicted    -0.4348334E-06 ( -54.06%)
   displ. norm   :     0.0311348 α      lambda       -0.1584564E-05
   maximum displ.:     0.0149169 α      in ANC's #4, #8, #6, ...

........................................................................
.............................. CYCLE    3 ..............................
........................................................................

 iter      E             dE          RMSdq      gap      omega  full diag
   1   -149.2473184 -0.149247E+03  0.441E-03    0.87       0.0  T
   2   -149.2473184 -0.864799E-08  0.260E-03    0.87       4.0  T
   3   -149.2473183  0.446103E-07  0.741E-04    0.87      14.1  T
   4   -149.2473184 -0.504207E-07  0.112E-04    0.87      93.5  T
     SCC iter.                  ...        0 min,  0.044 sec
     gradient                   ...        0 min,  0.014 sec
 * total energy  :  -146.8289250 Eh     change       -0.2022797E-05 Eh
   gradient norm :     0.0003031 Eh/α   predicted    -0.7931558E-06 ( -60.79%)
   displ. norm   :     0.0744574 α      lambda       -0.3113588E-05
   maximum displ.:     0.0355990 α      in ANC's #4, #8, #6, ...

........................................................................
.............................. CYCLE    4 ..............................
........................................................................

 iter      E             dE          RMSdq      gap      omega  full diag
   1   -149.2473183 -0.149247E+03  0.102E-02    0.87       0.0  T
   2   -149.2473184 -0.304124E-07  0.598E-03    0.87       1.7  T
   3   -149.2473182  0.187256E-06  0.146E-03    0.87       7.1  T
   4   -149.2473184 -0.210222E-06  0.217E-04    0.87      48.1  T
   5   -149.2473184 -0.200447E-08  0.121E-04    0.87      86.5  T
     SCC iter.                  ...        0 min,  0.056 sec
     gradient                   ...        0 min,  0.014 sec
 * total energy  :  -146.8289285 Eh     change       -0.3571478E-05 Eh
   gradient norm :     0.0005443 Eh/α   predicted    -0.1582564E-05 ( -55.69%)
   displ. norm   :     0.0746892 α      lambda       -0.2170925E-05
   maximum displ.:     0.0370726 α      in ANC's #4, #8, #6, ...

........................................................................
.............................. CYCLE    5 ..............................
........................................................................

 iter      E             dE          RMSdq      gap      omega  full diag
   1   -149.2473351 -0.149247E+03  0.979E-03    0.87       0.0  T
   2   -149.2473351 -0.228277E-07  0.577E-03    0.87       1.8  T
   3   -149.2473350  0.125588E-06  0.116E-03    0.87       9.0  T
   4   -149.2473351 -0.141553E-06  0.178E-04    0.87      58.5  T
   5   -149.2473351 -0.101940E-08  0.102E-04    0.87     102.1  T
     SCC iter.                  ...        0 min,  0.056 sec
     gradient                   ...        0 min,  0.014 sec
 * total energy  :  -146.8289309 Eh     change       -0.2374162E-05 Eh
   gradient norm :     0.0005061 Eh/α   predicted    -0.1094681E-05 ( -53.89%)
   displ. norm   :     0.0532080 α      lambda       -0.1264281E-05
   maximum displ.:     0.0279712 α      in ANC's #4, #8, #6, ...

........................................................................
.............................. CYCLE    6 ..............................
........................................................................

 iter      E             dE          RMSdq      gap      omega  full diag
   1   -149.2473857 -0.149247E+03  0.674E-03    0.87       0.0  T
   2   -149.2473858 -0.127857E-07  0.397E-03    0.87       2.6  T
   3   -149.2473857  0.495332E-07  0.753E-04    0.87      13.8  T
   4   -149.2473858 -0.562825E-07  0.128E-04    0.87      81.5  T
     SCC iter.                  ...        0 min,  0.044 sec
     gradient                   ...        0 min,  0.014 sec
 * total energy  :  -146.8289323 Eh     change       -0.1431287E-05 Eh
   gradient norm :     0.0002799 Eh/α   predicted    -0.6332260E-06 ( -55.76%)
   displ. norm   :     0.0440881 α      lambda       -0.1044690E-05
   maximum displ.:     0.0248799 α      in ANC's #4, #8, #6, ...

........................................................................
.............................. CYCLE    7 ..............................
........................................................................

 iter      E             dE          RMSdq      gap      omega  full diag
   1   -149.2474199 -0.149247E+03  0.545E-03    0.87       0.0  T
   2   -149.2474199 -0.112142E-07  0.320E-03    0.87       3.3  T
   3   -149.2474199  0.466232E-07  0.760E-04    0.87      13.7  T
   4   -149.2474199 -0.530765E-07  0.116E-04    0.87      90.2  T
     SCC iter.                  ...        0 min,  0.044 sec
     gradient                   ...        0 min,  0.013 sec
 * total energy  :  -146.8289335 Eh     change       -0.1182300E-05 Eh
   gradient norm :     0.0001504 Eh/α   predicted    -0.5293210E-06 ( -55.23%)
   displ. norm   :     0.0341449 α      lambda       -0.8248612E-06
   maximum displ.:     0.0204488 α      in ANC's #4, #8, #3, ...

........................................................................
.............................. CYCLE    8 ..............................
........................................................................

 iter      E             dE          RMSdq      gap      omega  full diag
   1   -149.2474285 -0.149247E+03  0.442E-03    0.87       0.0  T
   2   -149.2474285 -0.745817E-08  0.260E-03    0.87       4.0  T
   3   -149.2474285  0.294108E-07  0.576E-04    0.87      18.1  T
   4   -149.2474285 -0.340353E-07  0.855E-05    0.87     122.0  T
     SCC iter.                  ...        0 min,  0.045 sec
     gradient                   ...        0 min,  0.013 sec
 * total energy  :  -146.8289345 Eh     change       -0.9427198E-06 Eh
   gradient norm :     0.0002935 Eh/α   predicted    -0.4159972E-06 ( -55.87%)
   displ. norm   :     0.0309098 α      lambda       -0.6826850E-06
   maximum displ.:     0.0189226 α      in ANC's #4, #3, #1, ...

........................................................................
.............................. CYCLE    9 ..............................
........................................................................

 iter      E             dE          RMSdq      gap      omega  full diag
   1   -149.2474211 -0.149247E+03  0.418E-03    0.87       0.0  T
   2   -149.2474211 -0.489359E-08  0.246E-03    0.87       4.2  T
   3   -149.2474211  0.191785E-07  0.442E-04    0.87      23.6  T
   4   -149.2474211 -0.226339E-07  0.698E-05    0.87     149.4  T
     SCC iter.                  ...        0 min,  0.045 sec
     gradient                   ...        0 min,  0.013 sec
 * total energy  :  -146.8289353 Eh     change       -0.7949544E-06 Eh
   gradient norm :     0.0003261 Eh/α   predicted    -0.3456564E-06 ( -56.52%)
   displ. norm   :     0.0290378 α      lambda       -0.5678952E-06
   maximum displ.:     0.0181823 α      in ANC's #4, #3, #1, ...

........................................................................
.............................. CYCLE   10 ..............................
........................................................................

 iter      E             dE          RMSdq      gap      omega  full diag
   1   -149.2474024 -0.149247E+03  0.399E-03    0.87       0.0  T
   2   -149.2474024 -0.434071E-08  0.235E-03    0.87       4.4  T
   3   -149.2474024  0.137437E-07  0.402E-04    0.87      26.0  T
   4   -149.2474024 -0.163338E-07  0.667E-05    0.87     156.3  T
     SCC iter.                  ...        0 min,  0.044 sec
     gradient                   ...        0 min,  0.014 sec
 * total energy  :  -146.8289359 Eh     change       -0.6746702E-06 Eh
   gradient norm :     0.0002066 Eh/α   predicted    -0.2870032E-06 ( -57.46%)
   displ. norm   :     0.0246882 α      lambda       -0.4608537E-06
   maximum displ.:     0.0159335 α      in ANC's #4, #3, #1, ...

........................................................................
.............................. CYCLE   11 ..............................
........................................................................

 iter      E             dE          RMSdq      gap      omega  full diag
   1   -149.2474010 -0.149247E+03  0.342E-03    0.87       0.0  T
   2   -149.2474010 -0.339665E-08  0.201E-03    0.87       5.2  T
   3   -149.2474010  0.119903E-07  0.392E-04    0.87      26.6  T
   4   -149.2474010 -0.138461E-07  0.621E-05    0.87     168.0  T
     SCC iter.                  ...        0 min,  0.044 sec
     gradient                   ...        0 min,  0.014 sec
 * total energy  :  -146.8289365 Eh     change       -0.5628980E-06 Eh
   gradient norm :     0.0000769 Eh/α   predicted    -0.2330543E-06 ( -58.60%)
   displ. norm   :     0.0244985 α      lambda       -0.4366993E-06
   maximum displ.:     0.0156491 α      in ANC's #4, #3, #1, ...

........................................................................
.............................. CYCLE   12 ..............................
........................................................................

 iter      E             dE          RMSdq      gap      omega  full diag
   1   -149.2474044 -0.149247E+03  0.349E-03    0.87       0.0  T
   2   -149.2474044 -0.278274E-08  0.205E-03    0.87       5.1  T
   3   -149.2474044  0.828217E-08  0.323E-04    0.87      32.3  T
   4   -149.2474044 -0.976050E-08  0.524E-05    0.87     198.8  T
     SCC iter.                  ...        0 min,  0.047 sec
     gradient                   ...        0 min,  0.014 sec
 * total energy  :  -146.8289371 Eh     change       -0.5607455E-06 Eh
   gradient norm :     0.0001827 Eh/α   predicted    -0.2225210E-06 ( -60.32%)
   displ. norm   :     0.0302398 α      lambda       -0.5140258E-06
   maximum displ.:     0.0187764 α      in ANC's #4, #3, #1, ...

........................................................................
.............................. CYCLE   13 ..............................
........................................................................

 iter      E             dE          RMSdq      gap      omega  full diag
   1   -149.2474081 -0.149247E+03  0.434E-03    0.87       0.0  T
   2   -149.2474081 -0.314745E-08  0.255E-03    0.87       4.1  T
   3   -149.2474081  0.894369E-08  0.308E-04    0.87      33.8  T
   4   -149.2474081 -0.108273E-07  0.598E-05    0.87     174.4  T
     SCC iter.                  ...        0 min,  0.044 sec
     gradient                   ...        0 min,  0.013 sec
 * total energy  :  -146.8289377 Eh     change       -0.6665233E-06 Eh
   gradient norm :     0.0002802 Eh/α   predicted    -0.2619125E-06 ( -60.70%)
   displ. norm   :     0.0396743 α      lambda       -0.6432836E-06
   maximum displ.:     0.0242688 α      in ANC's #4, #3, #1, ...

........................................................................
.............................. CYCLE   14 ..............................
........................................................................

 iter      E             dE          RMSdq      gap      omega  full diag
   1   -149.2474092 -0.149247E+03  0.567E-03    0.87       0.0  T
   2   -149.2474092 -0.508402E-08  0.333E-03    0.87       3.1  T
   3   -149.2474092  0.224508E-07  0.497E-04    0.87      21.0  T
   4   -149.2474092 -0.261673E-07  0.837E-05    0.87     124.5  T
     SCC iter.                  ...        0 min,  0.044 sec
     gradient                   ...        0 min,  0.013 sec
 * total energy  :  -146.8289385 Eh     change       -0.8089988E-06 Eh
   gradient norm :     0.0002825 Eh/α   predicted    -0.3264271E-06 ( -59.65%)
   displ. norm   :     0.0469099 α      lambda       -0.6906345E-06
   maximum displ.:     0.0288632 α      in ANC's #4, #3, #1, ...

........................................................................
.............................. CYCLE   15 ..............................
........................................................................

 iter      E             dE          RMSdq      gap      omega  full diag
   1   -149.2474011 -0.149247E+03  0.663E-03    0.87       0.0  T
   2   -149.2474011 -0.818747E-08  0.390E-03    0.87       2.7  T
   3   -149.2474011  0.435595E-07  0.713E-04    0.87      14.6  T
   4   -149.2474011 -0.496257E-07  0.110E-04    0.87      94.8  T
     SCC iter.                  ...        0 min,  0.045 sec
     gradient                   ...        0 min,  0.014 sec
 * total energy  :  -146.8289394 Eh     change       -0.8268078E-06 Eh
   gradient norm :     0.0001897 Eh/α   predicted    -0.3472872E-06 ( -58.00%)
   displ. norm   :     0.0437362 α      lambda       -0.5620701E-06
   maximum displ.:     0.0275164 α      in ANC's #4, #3, #1, ...

........................................................................
.............................. CYCLE   16 ..............................
........................................................................

 iter      E             dE          RMSdq      gap      omega  full diag
   1   -149.2473896 -0.149247E+03  0.609E-03    0.87       0.0  T
   2   -149.2473896 -0.858685E-08  0.358E-03    0.87       2.9  T
   3   -149.2473896  0.543428E-07  0.796E-04    0.87      13.1  T
   4   -149.2473896 -0.609010E-07  0.112E-04    0.87      92.9  T
     SCC iter.                  ...        0 min,  0.045 sec
     gradient                   ...        0 min,  0.013 sec
 * total energy  :  -146.8289400 Eh     change       -0.6661329E-06 Eh
   gradient norm :     0.0000960 Eh/α   predicted    -0.2819384E-06 ( -57.68%)
   displ. norm   :     0.0365625 α      lambda       -0.4367796E-06
   maximum displ.:     0.0235638 α      in ANC's #4, #3, #1, ...

........................................................................
.............................. CYCLE   17 ..............................
........................................................................

 iter      E             dE          RMSdq      gap      omega  full diag
   1   -149.2473740 -0.149247E+03  0.503E-03    0.87       0.0  T
   2   -149.2473740 -0.626201E-08  0.296E-03    0.87       3.5  T
   3   -149.2473739  0.393223E-07  0.669E-04    0.87      15.6  T
   4   -149.2473740 -0.439534E-07  0.944E-05    0.87     110.4  T
     SCC iter.                  ...        0 min,  0.045 sec
     gradient                   ...        0 min,  0.014 sec
 * total energy  :  -146.8289406 Eh     change       -0.5396313E-06 Eh
   gradient norm :     0.0001225 Eh/α   predicted    -0.2197260E-06 ( -59.28%)
   displ. norm   :     0.0349562 α      lambda       -0.4135090E-06
   maximum displ.:     0.0227856 α      in ANC's #4, #3, #1, ...

........................................................................
.............................. CYCLE   18 ..............................
........................................................................

 iter      E             dE          RMSdq      gap      omega  full diag
   1   -149.2473581 -0.149247E+03  0.479E-03    0.87       0.0  T
   2   -149.2473581 -0.562045E-08  0.282E-03    0.87       3.7  T
   3   -149.2473581  0.349004E-07  0.625E-04    0.87      16.7  T
   4   -149.2473581 -0.389421E-07  0.858E-05    0.87     121.5  T
     SCC iter.                  ...        0 min,  0.044 sec
     gradient                   ...        0 min,  0.013 sec
 * total energy  :  -146.8289411 Eh     change       -0.5257609E-06 Eh
   gradient norm :     0.0001621 Eh/α   predicted    -0.2098239E-06 ( -60.09%)
   displ. norm   :     0.0378291 α      lambda       -0.4130841E-06
   maximum displ.:     0.0246581 α      in ANC's #4, #3, #1, ...

........................................................................
.............................. CYCLE   19 ..............................
........................................................................

 iter      E             dE          RMSdq      gap      omega  full diag
   1   -149.2473369 -0.149247E+03  0.516E-03    0.87       0.0  T
   2   -149.2473369 -0.531102E-08  0.304E-03    0.87       3.4  T
   3   -149.2473369  0.254016E-07  0.530E-04    0.87      19.7  T
   4   -149.2473369 -0.287414E-07  0.824E-05    0.87     126.5  T
     SCC iter.                  ...        0 min,  0.045 sec
     gradient                   ...        0 min,  0.014 sec
 * total energy  :  -146.8289416 Eh     change       -0.5073596E-06 Eh
   gradient norm :     0.0001566 Eh/α   predicted    -0.2093498E-06 ( -58.74%)
   displ. norm   :     0.0342127 α      lambda       -0.3194279E-06
   maximum displ.:     0.0223746 α      in ANC's #4, #3, #1, ...

........................................................................
.............................. CYCLE   20 ..............................
........................................................................

 iter      E             dE          RMSdq      gap      omega  full diag
   1   -149.2473355 -0.149247E+03  0.460E-03    0.87       0.0  T
   2   -149.2473355 -0.344835E-08  0.271E-03    0.87       3.9  T
   3   -149.2473355  0.139133E-07  0.403E-04    0.87      25.9  T
   4   -149.2473355 -0.159081E-07  0.661E-05    0.87     157.8  T
     SCC iter.                  ...        0 min,  0.044 sec
     gradient                   ...        0 min,  0.014 sec
 * total energy  :  -146.8289420 Eh     change       -0.3729720E-06 Eh
   gradient norm :     0.0001157 Eh/α   predicted    -0.1613971E-06 ( -56.73%)
   displ. norm   :     0.0268929 α      lambda       -0.2216792E-06
   maximum displ.:     0.0176704 α      in ANC's #4, #3, #1, ...
 * RMSD in coord.:     0.0663572 α      energy gain  -0.1998207E-04 Eh

generating ANC from exact Hessian ...
Using Lindh-Hessian (1995)
 Shifting diagonal of input Hessian by   9.919434325733889E-003
 Lowest  eigenvalues of input Hessian
    0.000000    0.000000    0.000000    0.000000    0.000000    0.000000
    0.010000    0.010030    0.010067    0.010093    0.010336    0.010361
    0.010395    0.010563    0.010784    0.011205    0.011242    0.011664
 Highest eigenvalues
    2.194214    2.209575    2.219322    2.219626    2.308303    2.419538
 

........................................................................
.............................. CYCLE   21 ..............................
........................................................................

 iter      E             dE          RMSdq      gap      omega  full diag
   1   -149.2473454 -0.149247E+03  0.355E-03    0.87       0.0  T
   2   -149.2473454 -0.174308E-08  0.209E-03    0.87       5.0  T
   3   -149.2473454  0.325954E-08  0.205E-04    0.87      50.9  T
   4   -149.2473454 -0.403989E-08  0.437E-05    0.87     238.3  T
     SCC iter.                  ...        0 min,  0.045 sec
     gradient                   ...        0 min,  0.013 sec
 * total energy  :  -146.8289422 Eh     change       -0.2564412E-06 Eh
   gradient norm :     0.0000701 Eh/α   predicted     0.0000000E+00 (-100.00%)
   displ. norm   :     0.0001051 α      lambda        0.0000000E+00
   maximum displ.:     0.0000266 α      in ANC's #149, #169, #119, ...

........................................................................
.............................. CYCLE   22 ..............................
........................................................................

 iter      E             dE          RMSdq      gap      omega  full diag
   1   -149.2473454 -0.149247E+03  0.675E-05    0.87       0.0  T
   2   -149.2473454 -0.391367E-10  0.417E-05    0.87     249.9  T
   3   -149.2473454 -0.676437E-11  0.267E-05    0.87     391.2  T
     SCC iter.                  ...        0 min,  0.034 sec
     gradient                   ...        0 min,  0.013 sec
 * total energy  :  -146.8289422 Eh     change       -0.6017586E-08 Eh
   gradient norm :     0.0000558 Eh/α   predicted    -0.3569270E-08 ( -40.69%)
   displ. norm   :     0.0001051 α      lambda        0.0000000E+00
   maximum displ.:     0.0000266 α      in ANC's #149, #169, #119, ...

   *** GEOMETRY OPTIMIZATION CONVERGED AFTER 22 ITERATIONS ***

------------------------------------------------------------------------
 total energy gain   :        -0.0000202 Eh       -0.0127 kcal/mol
 total RMSD          :         0.0663581 a0        0.0351 Å
 total power (kW/mol):        -0.0024160 (step)   -0.0332 (real)
------------------------------------------------------------------------

 ANCopt (total)                0 d,  0 h,  0 min,  1.602 sec
 optimizer setup                ...        0 min,  0.001 sec (  0.063%)
 model hessian                  ...        0 min,  0.114 sec (  7.102%)
 ANC generation                 ...        0 min,  0.016 sec (  0.994%)
 coordinate transformation      ...        0 min,  0.001 sec (  0.094%)
 single point calculation       ...        0 min,  1.454 sec ( 90.738%)
 optimization log               ...        0 min,  0.007 sec (  0.434%)
 hessian update                 ...        0 min,  0.003 sec (  0.205%)
 rational function              ...        0 min,  0.003 sec (  0.204%)

================
 final structure:
================
92
 xtb: 6.7.1 (edcfbbe)
C            1.86111641007757       -4.84776569611798       -2.33371351538444
C            0.42099834107158       -4.60717261463868       -1.87447112494723
C           -0.58825893365398       -5.20184753295130       -2.85795718442914
C            0.22967958348295       -5.17172640807328       -0.48684608562667
C            0.25378136585000       -6.54379794722761       -0.27616790248590
C            0.08306622929827       -7.06815018964819        0.99018603024158
C           -0.10631055946604       -6.22924982887581        2.07089628977651
C           -0.11950351650152       -4.85051118857103        1.90736283205741
C           -0.33057645368841       -3.94113159560793        3.09418837645811
C           -1.76219386481807       -4.09632751127328        3.61274341986976
C            0.69734234955427       -4.21813909574416        4.19237693819306
C            0.04622605863815       -4.34582505569375        0.61988608476526
N            0.02881109495858       -2.91924932845439        0.42372393080974
C           -1.21853939847866       -2.32887642869049        0.30216561222157
O           -2.23110056685114       -2.99265913566822        0.36183723070043
C           -1.22017776144881       -0.86948755626586        0.09015529113882
C           -2.41819849591331       -0.20194542943628       -0.02838399908061
C           -2.44062215780459        1.18866249533053       -0.23763682821631
N           -3.67559092276213        1.85044721609869       -0.34662576484551
C           -4.58153548748623        1.49187297258424       -1.35212694316222
C           -4.27647000618244        0.54718826319572       -2.32387202380528
C           -5.19608449968005        0.21745695365040       -3.30758573323419
C           -6.42858137988292        0.83723753142113       -3.34678042457617
C           -6.73396739611632        1.80997645655516       -2.40716478514150
C           -5.81999919750472        2.14217655225673       -1.42406349629226
O           -6.18056911458764        3.13864721973220       -0.55295474064678
C           -5.27933511995244        3.48762632942894        0.41942621316974
C           -5.66220989265149        4.48932394523507        1.29289488928472
C           -4.82417485934389        4.87581484830294        2.32740510373256
C           -3.61084380101936        4.23910474550829        2.49135971537213
C           -3.22055772100154        3.23751312761165        1.61568585172428
C           -4.03313633012410        2.86098486226674        0.55373761973664
C           -1.25656914304770        1.89116581155368       -0.32384839538736
C           -0.01647980275712        1.23799513480486       -0.19089586415314
C            1.20953724742869        1.92446152859266       -0.27959435912653
C            2.40830258101231        1.25508149614796       -0.14490519553456
N            3.62852114835879        1.94803171011869       -0.21363234048638
C            4.58722150437566        1.59384099358301       -1.17099442075785
C            4.34837607336254        0.62636943094342       -2.13899678996323
C            5.31992832940384        0.30013622351046       -3.07262490399615
C            6.53941709993048        0.94632643870712       -3.06587800092852
C            6.77886340895604        1.94258057160309       -2.13191475772896
C            5.81276645607506        2.27144584717736       -1.19871032165641
O            6.10991415713271        3.29234982002766       -0.33219631045089
C            5.15885804466871        3.63521000445982        0.59369958379590
C            5.47955383707069        4.66031394661615        1.46512536968217
C            4.58887747898722        5.04265765155832        2.45618241044416
C            3.38590227316312        4.37781740059435        2.58005750317272
C            3.05792293733198        3.35278482093484        1.70602549163708
C            3.92337870716616        2.98029934997944        0.68517135703737
C            2.41487649523122       -0.13426252632424        0.07438099950245
C            1.23201409398580       -0.83435346441382        0.14617012877987
C           -0.00154155666459       -0.16551316683098        0.01392305060670
C            1.26240203237381       -2.29113722868701        0.37178241975322
O            2.28945973542239       -2.92208894335274        0.50067466600414
H            2.55562222679731       -4.40811524659677       -1.62103116076239
H            2.02664381567377       -4.39651279633581       -3.30997929160697
H            2.06875579661288       -5.91249356353145       -2.40433563637305
H            0.25349466378078       -3.52479203819230       -1.84853449881079
H           -0.49588237145914       -4.71379690865768       -3.82614600887233
H           -0.42236796574471       -6.26661096956686       -2.99688145871920
H           -1.60119228322433       -5.05467034421748       -2.48939908574078
H            0.40571618095354       -7.21008552885858       -1.11113658699829
H            0.09776424489089       -8.13836729251006        1.13583604976297
H           -0.24324540177956       -6.65191392897589        3.05414892008296
H           -0.19941501364053       -2.90058212642592        2.77774945391576
H           -1.93373200353067       -5.10834232268890        3.97074672956497
H           -2.46988956158729       -3.88901449825505        2.81294481603412
H           -1.94454183198852       -3.40309132429484        4.43136975721446
H            0.56920665569698       -5.21312659576815        4.60973133412366
H            1.70505855337072       -4.13873554022801        3.79024009552145
H            0.58591504863005       -3.49420968215004        4.99706340553011
H           -3.33991109676272       -0.75802587613355        0.05682427707523
H           -3.31104334779364        0.06607129563449       -2.31944223175493
H           -4.93463928568633       -0.52648592654574       -4.04391771967842
H           -7.14898798489676        0.58141697921909       -4.10734769107831
H           -7.67854292740767        2.32958953504025       -2.42148018502566
H           -6.62649805870699        4.94933395540257        1.14822049936697
H           -5.12990824450283        5.65998658477326        3.00154098350988
H           -2.95579196256358        4.51214749928834        3.30423080856848
H           -2.27773226054859        2.73697526753534        1.77127314044268
H           -1.27398627550041        2.95740162627912       -0.49636947190074
H            1.20399630878122        2.98987332442945       -0.45774889607486
H            3.39426488959243        0.12425032226693       -2.17146068356426
H            5.10932143431955       -0.46221718161937       -3.80641792390584
H            7.30026930637210        0.69295930843570       -3.78684007195617
H            7.71133844214670        2.48343295153796       -2.11224326023060
H            6.43782213325165        5.14162937680341        1.35357173829190
H            4.84606628356700        5.84541156759659        3.12870009412418
H            2.69043601536351        4.64702124490045        3.35995801462999
H            2.12232278423454        2.83073233971459        1.83129803529136
H            3.34687560690902       -0.66408400424989        0.20367707938216
 
 Bond Distances (Angstroems)
 ---------------------------
C1-C2=1.5306         C1-H56=1.0879        C1-H57=1.0882        C1-H58=1.0871        C2-C1=1.5306         C2-C3=1.5295         
C2-C4=1.5102         C2-H59=1.0956        C3-C2=1.5295         C3-H60=1.0882        C3-H61=1.0865        C3-H62=1.0879        
C4-C2=1.5102         C4-C5=1.3884         C4-C12=1.3931        C5-C4=1.3884         C5-C6=1.3812         C5-H63=1.0790        
C6-C5=1.3812         C6-C7=1.3811         C6-H64=1.0802        C7-C6=1.3811         C7-C8=1.3885         C7-H65=1.0790        
C8-C7=1.3885         C8-C9=1.5100         C8-C12=1.3928        C9-C8=1.5100         C9-C10=1.5305        C9-C11=1.5295        
C9-H66=1.0955        C10-C9=1.5305        C10-H67=1.0871       C10-H68=1.0879       C10-H69=1.0881       C11-C9=1.5295        
C11-H70=1.0866       C11-H71=1.0879       C11-H72=1.0881       C12-C4=1.3931        C12-C8=1.3928        C12-N13=1.4401       
N13-C12=1.4401       N13-C14=1.3854       N13-C54=1.3853       C14-N13=1.3854       C14-O15=1.2122       C14-C16=1.4747       
O15-C14=1.2122       C16-C14=1.4747       C16-C17=1.3766       C16-C53=1.4094       C17-C16=1.3766       C17-C18=1.4064       
C17-H73=1.0798       C18-C17=1.4064       C18-N19=1.4053       C18-C33=1.3795       N19-C18=1.4053       N19-C20=1.4001       
N19-C32=1.3999       C20-N19=1.4001       C20-C21=1.3892       C20-C25=1.4007       C21-C20=1.3892       C21-C22=1.3864       
C21-H74=1.0787       C22-C21=1.3864       C22-C23=1.3801       C22-H75=1.0789       C23-C22=1.3801       C23-C24=1.3865       
C23-H76=1.0784       C24-C23=1.3865       C24-C25=1.3828       C24-H77=1.0782       C25-C20=1.4007       C25-C24=1.3828       
C25-O26=1.3718       O26-C25=1.3718       O26-C27=1.3710       C27-O26=1.3710       C27-C28=1.3831       C27-C32=1.4013       
C28-C27=1.3831       C28-C29=1.3863       C28-H78=1.0781       C29-C28=1.3863       C29-C30=1.3800       C29-H79=1.0784       
C30-C29=1.3800       C30-C31=1.3865       C30-H80=1.0791       C31-C30=1.3865       C31-C32=1.3892       C31-H81=1.0787       
C32-N19=1.3999       C32-C27=1.4013       C32-C31=1.3892       C33-C18=1.3795       C33-C34=1.4079       C33-H82=1.0802       
C34-C33=1.4079       C34-C35=1.4079       C34-C53=1.4185       C35-C34=1.4079       C35-C36=1.3796       C35-H83=1.0802       
C36-C35=1.3796       C36-N37=1.4049       C36-C51=1.4066       N37-C36=1.4049       N37-C38=1.4004       N37-C50=1.4001       
C38-N37=1.4004       C38-C39=1.3893       C38-C43=1.4007       C39-C38=1.3893       C39-C40=1.3864       C39-H84=1.0787       
C40-C39=1.3864       C40-C41=1.3801       C40-H85=1.0789       C41-C40=1.3801       C41-C42=1.3864       C41-H86=1.0784       
C42-C41=1.3864       C42-C43=1.3829       C42-H87=1.0782       C43-C38=1.4007       C43-C42=1.3829       C43-O44=1.3716       
O44-C43=1.3716       O44-C45=1.3709       C45-O44=1.3709       C45-C46=1.3831       C45-C50=1.4013       C46-C45=1.3831       
C46-C47=1.3862       C46-H88=1.0781       C47-C46=1.3862       C47-C48=1.3800       C47-H89=1.0784       C48-C47=1.3800       
C48-C49=1.3864       C48-H90=1.0791       C49-C48=1.3864       C49-C50=1.3892       C49-H91=1.0787       C50-N37=1.4001       
C50-C45=1.4013       C50-C49=1.3892       C51-C36=1.4066       C51-C52=1.3764       C51-H92=1.0798       C52-C51=1.3764       
C52-C53=1.4094       C52-C54=1.4745       C53-C16=1.4094       C53-C34=1.4185       C53-C52=1.4094       C54-N13=1.3853       
C54-C52=1.4745       C54-O55=1.2123       O55-C54=1.2123       H56-C1=1.0879        H57-C1=1.0882        H58-C1=1.0871        
H59-C2=1.0956        H60-C3=1.0882        H61-C3=1.0865        H62-C3=1.0879        H63-C5=1.0790        H64-C6=1.0802        
H65-C7=1.0790        H66-C9=1.0955        H67-C10=1.0871       H68-C10=1.0879       H69-C10=1.0881       H70-C11=1.0866       
H71-C11=1.0879       H72-C11=1.0881       H73-C17=1.0798       H74-C21=1.0787       H75-C22=1.0789       H76-C23=1.0784       
H77-C24=1.0782       H78-C28=1.0781       H79-C29=1.0784       H80-C30=1.0791       H81-C31=1.0787       H82-C33=1.0802       
H83-C35=1.0802       H84-C39=1.0787       H85-C40=1.0789       H86-C41=1.0784       H87-C42=1.0782       H88-C46=1.0781       
H89-C47=1.0784       H90-C48=1.0791       H91-C49=1.0787       H92-C51=1.0798       
 C  H  Rav=1.0826 sigma=0.0051  Rmin=1.0781  Rmax=1.0956    37
 C  C  Rav=1.4101 sigma=0.0466  Rmin=1.3764  Rmax=1.5306    49
 N  C  Rav=1.4024 sigma=0.0151  Rmin=1.3853  Rmax=1.4401     9
 O  C  Rav=1.3183 sigma=0.0750  Rmin=1.2122  Rmax=1.3718     6
 
 selected bond angles (degree)
 --------------------
H56-C1-C2=109.91               H57-C1-C2=110.31               H57-C1-H56=108.85              H58-C1-C2=110.68               
H58-C1-H56=108.45              H58-C1-H57=108.59              C3-C2-C1=111.52                C4-C2-C1=109.64                
C4-C2-C3=111.21                H59-C2-C1=107.83               H59-C2-C3=107.36               H59-C2-C4=109.16               
H60-C3-C2=109.98               H61-C3-C2=111.25               H61-C3-H60=108.23              H62-C3-C2=110.12               
H62-C3-H60=108.65              H62-C3-H61=108.55              C5-C4-C2=120.44                C12-C4-C2=121.67               
C12-C4-C5=117.88               C6-C5-C4=120.81                H63-C5-C4=119.69               H63-C5-C6=119.50               
C7-C6-C5=120.25                H64-C6-C5=119.87               H64-C6-C7=119.88               C8-C7-C6=120.82                
H65-C7-C6=119.51               H65-C7-C8=119.68               C9-C8-C7=120.45                C12-C8-C7=117.88               
C12-C8-C9=121.67               C10-C9-C8=109.63               C11-C9-C8=111.18               C11-C9-C10=111.53              
H66-C9-C8=109.16               H66-C9-C10=107.83              H66-C9-C11=107.40              H67-C10-C9=110.71              
H68-C10-C9=109.88              H68-C10-H67=108.47             H69-C10-C9=110.31              H69-C10-H67=108.60             
H69-C10-H68=108.83             
 
 selected dihedral angles (degree)
 ---------------------------------
C3-C2-C1-H56=179.54           C3-C2-C1-H57= 59.52           C3-C2-C1-H58=299.31           C4-C2-C1-H56=303.17           
C4-C2-C1-H57=183.14           C4-C2-C1-H58= 62.93           H59-C2-C1-H56= 61.91          H59-C2-C1-H57=301.88          
H59-C2-C1-H58=181.67          H60-C3-C2-C1=297.35           H60-C3-C2-C4=174.62           H60-C3-C2-H59= 55.27          
H61-C3-C2-C1= 57.25           H61-C3-C2-C4=294.53           H61-C3-C2-H59=175.17          H62-C3-C2-C1=177.64           
H62-C3-C2-C4= 54.92           H62-C3-C2-H59=295.56          C5-C4-C2-C1=291.41            C5-C4-C2-C3= 55.21            
C5-C4-C2-H59=173.49           C12-C4-C2-C1=110.37           C12-C4-C2-C3=234.17           C12-C4-C2-H59=352.45          
C6-C5-C4-C2=179.83            C6-C5-C4-C12=  0.84           H63-C5-C4-C2=359.71           H63-C5-C4-C12=180.72          
C7-C6-C5-C4=359.58            C7-C6-C5-H63=179.70           H64-C6-C5-C4=179.58           H64-C6-C5-H63=359.70          
C8-C7-C6-C5=359.56            C8-C7-C6-H64=179.56           H65-C7-C6-C5=179.70           H65-C7-C6-H64=359.70          
C9-C8-C7-C6=179.85            C9-C8-C7-H65=359.71           C12-C8-C7-C6=  0.83           C12-C8-C7-H65=180.69          
C10-C9-C8-C7=291.83           C10-C9-C8-C12=110.82          C11-C9-C8-C7= 55.62           C11-C9-C8-C12=234.60          
H66-C9-C8-C7=173.92           H66-C9-C8-C12=352.90          H67-C10-C9-C8= 63.10          H67-C10-C9-C11=299.52         
H67-C10-C9-H66=181.84         H68-C10-C9-C8=303.31          H68-C10-C9-C11=179.73         H68-C10-C9-H66= 62.05         
H69-C10-C9-C8=183.33          H69-C10-C9-C11= 59.75         H69-C10-C9-H66=302.07         
           -------------------------------------------------
          |                Final Singlepoint                |
           -------------------------------------------------

          ...................................................
          :                      SETUP                      :
          :.................................................:
          :  # basis functions                 257          :
          :  # atomic orbitals                 257          :
          :  # shells                          147          :
          :  # electrons                       268          :
          :  max. iterations                   250          :
          :  Hamiltonian                  GFN2-xTB          :
          :  restarted?                      false          :
          :  GBSA solvation                  false          :
          :  PC potential                    false          :
          :  electronic temp.          300.0000000     K    :
          :  accuracy                    1.0000000          :
          :  -> integral cutoff          0.2500000E+02      :
          :  -> integral neglect         0.1000000E-07      :
          :  -> SCF convergence          0.1000000E-05 Eh   :
          :  -> wf. convergence          0.1000000E-03 e    :
          :  Broyden damping             0.4000000          :
          :  net charge                          0          :
          :  unpaired electrons                  0          :
          ...................................................

 iter      E             dE          RMSdq      gap      omega  full diag
   1   -149.2473454 -0.149247E+03  0.738E-06    0.87       0.0  T
   2   -149.2473454 -0.596856E-12  0.660E-06    0.87    1579.3  T
   3   -149.2473454 -0.392220E-11  0.161E-06    0.87    6477.6  T

   *** convergence criteria satisfied after 3 iterations ***

         #    Occupation            Energy/Eh            Energy/eV
      -------------------------------------------------------------
         1        2.0000           -0.7333489             -19.9554
       ...           ...                  ...                  ...
       128        2.0000           -0.4082055             -11.1078
       129        2.0000           -0.3980409             -10.8312
       130        2.0000           -0.3955503             -10.7635
       131        2.0000           -0.3953276             -10.7574
       132        2.0000           -0.3906230             -10.6294
       133        2.0000           -0.3503487              -9.5335
       134        2.0000           -0.3499080              -9.5215 (HOMO)
       135        0.0000           -0.3178471              -8.6491 (LUMO)
       136                         -0.2630339              -7.1575
       137                         -0.2555978              -6.9552
       138                         -0.2437370              -6.6324
       139                         -0.2434982              -6.6259
       ...                                ...                  ...
       257                          0.7265731              19.7711
      -------------------------------------------------------------
                  HL-Gap            0.0320609 Eh            0.8724 eV
             Fermi-level           -0.3336458 Eh           -9.0790 eV

 SCC (total)                   0 d,  0 h,  0 min,  0.054 sec
 SCC setup                      ...        0 min,  0.000 sec (  0.404%)
 Dispersion                     ...        0 min,  0.001 sec (  2.272%)
 classical contributions        ...        0 min,  0.000 sec (  0.083%)
 integral evaluation            ...        0 min,  0.005 sec (  9.789%)
 iterations                     ...        0 min,  0.034 sec ( 62.390%)
 molecular gradient             ...        0 min,  0.013 sec ( 23.775%)
 printout                       ...        0 min,  0.001 sec (  1.139%)

         :::::::::::::::::::::::::::::::::::::::::::::::::::::
         ::                     SUMMARY                     ::
         :::::::::::::::::::::::::::::::::::::::::::::::::::::
         :: total energy            -146.828942244777 Eh    ::
         :: gradient norm              0.000055712343 Eh/a0 ::
         :: HOMO-LUMO gap              0.872422683854 eV    ::
         ::.................................................::
         :: SCC energy              -149.246094913550 Eh    ::
         :: -> isotropic ES            0.098447618725 Eh    ::
         :: -> anisotropic ES          0.013204843546 Eh    ::
         :: -> anisotropic XC          0.058729900421 Eh    ::
         :: -> dispersion             -0.130463696383 Eh    ::
         :: repulsion energy           2.417152668773 Eh    ::
         :: add. restraining           0.000000000000 Eh    ::
         :: total charge               0.000000001134 e     ::
         :::::::::::::::::::::::::::::::::::::::::::::::::::::

           ------------------------------------------------- 
          |                Numerical Hessian                |
           ------------------------------------------------- 
step length          :   0.00500
SCC accuracy         :   0.30000
Hessian scale factor :   1.00000
frozen atoms in %    :   0.00000    0
RMS gradient         :   0.00006
estimated CPU  time     30.46 min
estimated wall time      0.76 min

writing file <hessian>.

 projected vibrational frequencies (cm⁻¹)
eigval :       -0.00    -0.00    -0.00     0.00     0.00     0.00
eigval :       10.43    13.72    15.14    16.59    18.48    23.38
eigval :       33.26    37.44    40.88    41.99    43.77    46.03
eigval :       51.84    67.29    78.66    95.87   108.83   111.85
eigval :      112.77   119.87   121.44   141.61   147.51   161.59
eigval :      174.37   181.85   194.59   203.34   209.81   224.28
eigval :      227.61   230.30   242.32   246.43   248.16   249.54
eigval :      252.09   265.96   269.66   280.19   280.66   292.42
eigval :      299.68   303.73   306.23   307.54   322.00   377.87
eigval :      384.57   389.56   393.60   415.45   417.14   421.36
eigval :      422.43   430.26   430.91   439.82   441.97   445.79
eigval :      450.30   459.15   477.43   490.70   503.67   506.49
eigval :      509.58   509.79   517.03   521.09   525.16   527.78
eigval :      534.71   557.86   573.11   575.17   583.05   588.42
eigval :      614.42   614.96   616.25   626.60   639.76   643.73
eigval :      657.59   660.57   661.96   662.10   662.86   676.53
eigval :      690.27   692.69   703.52   717.98   729.32   746.48
eigval :      771.25   778.05   778.77   779.01   779.42   797.11
eigval :      809.55   829.72   836.00   841.25   853.71   856.24
eigval :      856.36   856.67   858.39   864.24   864.78   871.01
eigval :      878.80   895.54   896.11   898.34   900.44   901.44
eigval :      908.88   911.15   915.69   916.00   917.13   917.90
eigval :      919.58   920.67   926.68   938.18   948.37   948.68
eigval :      975.03   977.07   989.30   989.42  1001.33  1048.83
eigval :     1066.88  1077.37  1086.21  1090.82  1091.05  1092.02
eigval :     1092.88  1099.61  1109.54  1109.79  1116.15  1125.55
eigval :     1140.56  1141.48  1151.71  1158.64  1165.73  1173.84
eigval :     1175.30  1175.65  1181.12  1182.44  1183.02  1184.86
eigval :     1196.62  1197.35  1201.57  1203.12  1203.71  1224.99
eigval :     1240.92  1244.09  1244.85  1250.09  1253.37  1262.21
eigval :     1262.46  1262.59  1293.94  1297.89  1298.27  1305.76
eigval :     1310.38  1310.93  1311.02  1313.83  1333.63  1334.47
eigval :     1335.05  1348.24  1349.77  1359.28  1362.22  1381.62
eigval :     1387.80  1404.17  1404.58  1418.61  1418.81  1419.36
eigval :     1423.20  1431.66  1432.78  1444.28  1445.13  1455.42
eigval :     1464.10  1485.38  1486.96  1493.58  1494.05  1494.47
eigval :     1494.57  1495.19  1501.31  1501.57  1503.64  1503.90
eigval :     1505.39  1505.72  1533.98  1568.58  1568.67  1576.71
eigval :     1576.92  1580.46  1580.77  1590.77  1590.95  1591.08
eigval :     1593.69  1601.89  1602.17  1692.70  1705.82  2931.03
eigval :     2932.48  3024.19  3025.00  3028.98  3030.15  3035.52
eigval :     3035.64  3039.12  3039.35  3043.34  3043.43  3047.49
eigval :     3047.84  3077.72  3087.00  3089.79  3089.93  3090.62
eigval :     3091.88  3091.92  3093.09  3098.64  3099.21  3099.36
eigval :     3099.43  3099.76  3100.28  3100.47  3105.74  3106.09
eigval :     3107.03  3107.09  3114.61  3114.68  3115.14  3115.24
           -------------------------------------------------
          |                Property Printout                |
           -------------------------------------------------

    * Orbital Energies and Occupations

         #    Occupation            Energy/Eh            Energy/eV
      -------------------------------------------------------------
         1        2.0000           -0.7333489             -19.9554
       ...           ...                  ...                  ...
       122        2.0000           -0.4208037             -11.4507
       123        2.0000           -0.4186110             -11.3910
       124        2.0000           -0.4180403             -11.3755
       125        2.0000           -0.4130441             -11.2395
       126        2.0000           -0.4124474             -11.2233
       127        2.0000           -0.4097984             -11.1512
       128        2.0000           -0.4082055             -11.1078
       129        2.0000           -0.3980409             -10.8312
       130        2.0000           -0.3955503             -10.7635
       131        2.0000           -0.3953276             -10.7574
       132        2.0000           -0.3906230             -10.6294
       133        2.0000           -0.3503487              -9.5335
       134        2.0000           -0.3499080              -9.5215 (HOMO)
       135        0.0000           -0.3178471              -8.6491 (LUMO)
       136                         -0.2630339              -7.1575
       137                         -0.2555978              -6.9552
       138                         -0.2437370              -6.6324
       139                         -0.2434982              -6.6259
       140                         -0.2389112              -6.5011
       141                         -0.2349722              -6.3939
       142                         -0.2347516              -6.3879
       143                         -0.2219636              -6.0399
       144                         -0.2203190              -5.9952
       145                         -0.2195931              -5.9754
       ...                                ...                  ...
       257                          0.7265731              19.7711
      -------------------------------------------------------------
                  HL-Gap            0.0320610 Eh            0.8724 eV
             Fermi-level           -0.3336458 Eh           -9.0790 eV

     #   Z          covCN         q      C6AA      α(0)
     1   6 C        3.756    -0.103    22.529     6.768
     2   6 C        3.855    -0.004    20.616     6.458
     3   6 C        3.755    -0.103    22.521     6.767
     4   6 C        2.973     0.012    27.753     8.641
     5   6 C        2.928    -0.035    28.880     8.813
     6   6 C        2.916    -0.032    28.797     8.800
     7   6 C        2.928    -0.035    28.877     8.813
     8   6 C        2.973     0.012    27.742     8.640
     9   6 C        3.855    -0.004    20.619     6.458
    10   6 C        3.756    -0.104    22.532     6.768
    11   6 C        3.755    -0.103    22.522     6.767
    12   6 C        2.947     0.067    26.507     8.444
    13   7 N        2.747    -0.097    23.142     7.145
    14   6 C        2.775     0.277    22.325     7.739
    15   8 O        0.859    -0.402    21.719     6.248
    16   6 C        2.975    -0.025    28.633     8.777
    17   6 C        2.924    -0.026    28.662     8.780
    18   6 C        2.915     0.071    26.422     8.429
    19   7 N        2.752    -0.068    22.551     7.053
    20   6 C        2.922     0.042    27.061     8.531
    21   6 C        2.924    -0.057    29.426     8.896
    22   6 C        2.919    -0.037    28.919     8.819
    23   6 C        2.919    -0.038    28.944     8.822
    24   6 C        2.920    -0.055    29.367     8.887
    25   6 C        2.885     0.126    25.236     8.236
    26   8 O        1.709    -0.251    18.163     5.754
    27   6 C        2.885     0.126    25.228     8.235
    28   6 C        2.920    -0.055    29.372     8.887
    29   6 C        2.919    -0.039    28.965     8.826
    30   6 C        2.919    -0.038    28.950     8.823
    31   6 C        2.924    -0.060    29.486     8.905
    32   6 C        2.920     0.041    27.070     8.532
    33   6 C        2.922    -0.046    29.137     8.852
    34   6 C        2.982     0.016    27.645     8.625
    35   6 C        2.922    -0.046    29.144     8.853
    36   6 C        2.915     0.070    26.424     8.429
    37   7 N        2.751    -0.067    22.543     7.052
    38   6 C        2.922     0.042    27.063     8.531
    39   6 C        2.924    -0.057    29.425     8.896
    40   6 C        2.919    -0.037    28.919     8.819
    41   6 C        2.919    -0.038    28.943     8.822
    42   6 C        2.920    -0.055    29.366     8.887
    43   6 C        2.885     0.126    25.234     8.235
    44   8 O        1.709    -0.251    18.161     5.754
    45   6 C        2.885     0.126    25.228     8.234
    46   6 C        2.920    -0.055    29.371     8.887
    47   6 C        2.919    -0.039    28.962     8.825
    48   6 C        2.919    -0.038    28.949     8.823
    49   6 C        2.924    -0.060    29.485     8.905
    50   6 C        2.920     0.041    27.071     8.532
    51   6 C        2.924    -0.026    28.662     8.780
    52   6 C        2.975    -0.025    28.634     8.778
    53   6 C        2.995     0.001    28.004     8.681
    54   6 C        2.776     0.277    22.324     7.739
    55   8 O        0.859    -0.402    21.724     6.249
    56   1 H        0.925     0.048     2.347     2.395
    57   1 H        0.925     0.034     2.536     2.490
    58   1 H        0.925     0.039     2.464     2.455
    59   1 H        0.924     0.017     2.779     2.607
    60   1 H        0.925     0.035     2.521     2.483
    61   1 H        0.925     0.040     2.455     2.450
    62   1 H        0.925     0.039     2.465     2.455
    63   1 H        0.926     0.041     2.437     2.441
    64   1 H        0.926     0.037     2.492     2.469
    65   1 H        0.926     0.041     2.436     2.441
    66   1 H        0.924     0.018     2.767     2.601
    67   1 H        0.925     0.039     2.466     2.456
    68   1 H        0.925     0.048     2.347     2.396
    69   1 H        0.925     0.034     2.530     2.487
    70   1 H        0.925     0.039     2.456     2.451
    71   1 H        0.925     0.039     2.464     2.455
    72   1 H        0.925     0.035     2.517     2.481
    73   1 H        0.926     0.075     2.031     2.228
    74   1 H        0.926     0.036     2.507     2.476
    75   1 H        0.926     0.040     2.452     2.449
    76   1 H        0.926     0.041     2.432     2.439
    77   1 H        0.926     0.053     2.284     2.363
    78   1 H        0.926     0.053     2.283     2.363
    79   1 H        0.926     0.041     2.441     2.443
    80   1 H        0.926     0.037     2.483     2.464
    81   1 H        0.926     0.033     2.542     2.493
    82   1 H        0.926     0.052     2.290     2.367
    83   1 H        0.926     0.052     2.290     2.366
    84   1 H        0.926     0.036     2.504     2.474
    85   1 H        0.926     0.040     2.452     2.449
    86   1 H        0.926     0.041     2.431     2.438
    87   1 H        0.926     0.053     2.283     2.363
    88   1 H        0.926     0.053     2.282     2.362
    89   1 H        0.926     0.041     2.440     2.443
    90   1 H        0.926     0.038     2.481     2.463
    91   1 H        0.926     0.033     2.537     2.491
    92   1 H        0.926     0.075     2.030     2.228

 Mol. C6AA /au·bohr⁶  :     114936.238883
 Mol. C8AA /au·bohr⁸  :    2850739.515131
 Mol. α(0) /au        :        538.820205


MOs/occ written to file <molden.input>


molecular dipole:
                 x           y           z       tot (Debye)
 q only:        0.008       0.919      -0.245
   full:        0.006       1.081      -0.241       2.816
molecular quadrupole (traceless):
                xx          xy          yy          xz          yz          zz
 q only:      -15.159      -0.520       3.911      -1.923       6.399      11.248
  q+dip:      -16.140      -0.768       4.678      -2.631      10.271      11.462
   full:      -18.895      -0.577       2.277      -2.217       6.913      16.618

           -------------------------------------------------
          |                Geometry Summary                 |
           -------------------------------------------------

      molecular mass/u    :      719.8268603
   center of mass at/Å    :       -0.0007660       0.0002701      -0.0006282
  moments of inertia/u·Å² :        0.1063491E+05   0.1250802E+05   0.1839004E+05
rotational constants/cm⁻¹ :        0.1585121E-02   0.1347745E-02   0.9166716E-03

 * 96 selected distances

     #   Z          #   Z                                           value/Å
     1   6 C        2   6 C                                       1.5305976 (max)
     2   6 C        3   6 C                                       1.5295371
     4   6 C        5   6 C                                       1.3883612
     5   6 C        6   6 C                                       1.3812102
     6   6 C        7   6 C                                       1.3811417
     7   6 C        8   6 C                                       1.3884660
     9   6 C       10   6 C                                       1.5305273
     9   6 C       11   6 C                                       1.5294995
     4   6 C       12   6 C                                       1.3930631
     8   6 C       12   6 C                                       1.3927567
    13   7 N       14   6 C                                       1.3853520
    14   6 C       15   8 O                                       1.2122081
    16   6 C       17   6 C                                       1.3765602
    17   6 C       18   6 C                                       1.4064424
    18   6 C       19   7 N                                       1.4053419
    19   7 N       20   6 C                                       1.4001229
    20   6 C       21   6 C                                       1.3891663
    21   6 C       22   6 C                                       1.3864006
    22   6 C       23   6 C                                       1.3801134
    23   6 C       24   6 C                                       1.3864918
    20   6 C       25   6 C                                       1.4006650
    24   6 C       25   6 C                                       1.3828172
    25   6 C       26   8 O                                       1.3717854
    26   8 O       27   6 C                                       1.3709610
    27   6 C       28   6 C                                       1.3830904
    28   6 C       29   6 C                                       1.3863224
    29   6 C       30   6 C                                       1.3800194
    30   6 C       31   6 C                                       1.3864754
    19   7 N       32   6 C                                       1.3998856
    27   6 C       32   6 C                                       1.4013318
    31   6 C       32   6 C                                       1.3891695
    18   6 C       33   6 C                                       1.3794656
    33   6 C       34   6 C                                       1.4078815
    34   6 C       35   6 C                                       1.4079140
    35   6 C       36   6 C                                       1.3795831
    36   6 C       37   7 N                                       1.4049331
    37   7 N       38   6 C                                       1.4003928
    38   6 C       39   6 C                                       1.3892722
    39   6 C       40   6 C                                       1.3863635
    40   6 C       41   6 C                                       1.3801306
    41   6 C       42   6 C                                       1.3864143
    38   6 C       43   6 C                                       1.4006703
    42   6 C       43   6 C                                       1.3828834
    43   6 C       44   8 O                                       1.3716372
    44   8 O       45   6 C                                       1.3708918
    45   6 C       46   6 C                                       1.3831367
    46   6 C       47   6 C                                       1.3862487
    47   6 C       48   6 C                                       1.3800389
    48   6 C       49   6 C                                       1.3864323
    37   7 N       50   6 C                                       1.4001307
    45   6 C       50   6 C                                       1.4013153
    49   6 C       50   6 C                                       1.3892094
    36   6 C       51   6 C                                       1.4065585
    51   6 C       52   6 C                                       1.3763883
    16   6 C       53   6 C                                       1.4094204
    34   6 C       53   6 C                                       1.4184533
    52   6 C       53   6 C                                       1.4094313
    13   7 N       54   6 C                                       1.3852688
    54   6 C       55   8 O                                       1.2122545
     1   6 C       56   1 H                                       1.0879096
     1   6 C       57   1 H                                       1.0881744
     1   6 C       58   1 H                                       1.0870820
     2   6 C       59   1 H                                       1.0955721
     3   6 C       60   1 H                                       1.0881712
     3   6 C       61   1 H                                       1.0865271
     3   6 C       62   1 H                                       1.0879018
     5   6 C       63   1 H                                       1.0789793
     6   6 C       64   1 H                                       1.0801828
     7   6 C       65   1 H                                       1.0789727
     9   6 C       66   1 H                                       1.0954818
    10   6 C       67   1 H                                       1.0870906
    10   6 C       68   1 H                                       1.0878832
    10   6 C       69   1 H                                       1.0881068
    11   6 C       70   1 H                                       1.0865559
    11   6 C       71   1 H                                       1.0878930
    11   6 C       72   1 H                                       1.0881224
    17   6 C       73   1 H                                       1.0798334
    21   6 C       74   1 H                                       1.0786760
    22   6 C       75   1 H                                       1.0788835
    23   6 C       76   1 H                                       1.0783750
    24   6 C       77   1 H                                       1.0781585
    28   6 C       78   1 H                                       1.0781427
    29   6 C       79   1 H                                       1.0783588
    30   6 C       80   1 H                                       1.0790759
    31   6 C       81   1 H                                       1.0787333
    33   6 C       82   1 H                                       1.0802434
    35   6 C       83   1 H                                       1.0802186
    39   6 C       84   1 H                                       1.0786593
    40   6 C       85   1 H                                       1.0788839
    41   6 C       86   1 H                                       1.0783680
    42   6 C       87   1 H                                       1.0781550
    46   6 C       88   1 H                                       1.0781406 (min)
    47   6 C       89   1 H                                       1.0783507
    48   6 C       90   1 H                                       1.0790686
    49   6 C       91   1 H                                       1.0786936
    51   6 C       92   1 H                                       1.0798383

 * 4 distinct bonds (by element types)

   Z      Z             #   av. dist./Å        max./Å        min./Å
   1 H    6 C          37     1.0826342     1.0955721     1.0781406
   6 C    6 C          45     1.4028320     1.5305976     1.3763883
   6 C    7 N           8     1.3976785     1.4053419     1.3852688
   6 C    8 O           6     1.3182897     1.3717854     1.2122081

           -------------------------------------------------
          |               Frequency Printout                |
           -------------------------------------------------
 projected vibrational frequencies (cm⁻¹)
eigval :       -0.00    -0.00    -0.00     0.00     0.00     0.00
eigval :       10.43    13.72    15.14    16.59    18.48    23.38
eigval :       33.26    37.44    40.88    41.99    43.77    46.03
eigval :       51.84    67.29    78.66    95.87   108.83   111.85
eigval :      112.77   119.87   121.44   141.61   147.51   161.59
eigval :      174.37   181.85   194.59   203.34   209.81   224.28
eigval :      227.61   230.30   242.32   246.43   248.16   249.54
eigval :      252.09   265.96   269.66   280.19   280.66   292.42
eigval :      299.68   303.73   306.23   307.54   322.00   377.87
eigval :      384.57   389.56   393.60   415.45   417.14   421.36
eigval :      422.43   430.26   430.91   439.82   441.97   445.79
eigval :      450.30   459.15   477.43   490.70   503.67   506.49
eigval :      509.58   509.79   517.03   521.09   525.16   527.78
eigval :      534.71   557.86   573.11   575.17   583.05   588.42
eigval :      614.42   614.96   616.25   626.60   639.76   643.73
eigval :      657.59   660.57   661.96   662.10   662.86   676.53
eigval :      690.27   692.69   703.52   717.98   729.32   746.48
eigval :      771.25   778.05   778.77   779.01   779.42   797.11
eigval :      809.55   829.72   836.00   841.25   853.71   856.24
eigval :      856.36   856.67   858.39   864.24   864.78   871.01
eigval :      878.80   895.54   896.11   898.34   900.44   901.44
eigval :      908.88   911.15   915.69   916.00   917.13   917.90
eigval :      919.58   920.67   926.68   938.18   948.37   948.68
eigval :      975.03   977.07   989.30   989.42  1001.33  1048.83
eigval :     1066.88  1077.37  1086.21  1090.82  1091.05  1092.02
eigval :     1092.88  1099.61  1109.54  1109.79  1116.15  1125.55
eigval :     1140.56  1141.48  1151.71  1158.64  1165.73  1173.84
eigval :     1175.30  1175.65  1181.12  1182.44  1183.02  1184.86
eigval :     1196.62  1197.35  1201.57  1203.12  1203.71  1224.99
eigval :     1240.92  1244.09  1244.85  1250.09  1253.37  1262.21
eigval :     1262.46  1262.59  1293.94  1297.89  1298.27  1305.76
eigval :     1310.38  1310.93  1311.02  1313.83  1333.63  1334.47
eigval :     1335.05  1348.24  1349.77  1359.28  1362.22  1381.62
eigval :     1387.80  1404.17  1404.58  1418.61  1418.81  1419.36
eigval :     1423.20  1431.66  1432.78  1444.28  1445.13  1455.42
eigval :     1464.10  1485.38  1486.96  1493.58  1494.05  1494.47
eigval :     1494.57  1495.19  1501.31  1501.57  1503.64  1503.90
eigval :     1505.39  1505.72  1533.98  1568.58  1568.67  1576.71
eigval :     1576.92  1580.46  1580.77  1590.77  1590.95  1591.08
eigval :     1593.69  1601.89  1602.17  1692.70  1705.82  2931.03
eigval :     2932.48  3024.19  3025.00  3028.98  3030.15  3035.52
eigval :     3035.64  3039.12  3039.35  3043.34  3043.43  3047.49
eigval :     3047.84  3077.72  3087.00  3089.79  3089.93  3090.62
eigval :     3091.88  3091.92  3093.09  3098.64  3099.21  3099.36
eigval :     3099.43  3099.76  3100.28  3100.47  3105.74  3106.09
eigval :     3107.03  3107.09  3114.61  3114.68  3115.14  3115.24
 reduced masses (amu)
   1: 11.78   2: 11.69   3: 11.78   4: 11.77   5: 11.75   6: 11.81   7: 10.23   8: 10.72
   9: 11.21  10: 10.87  11: 11.73  12: 11.18  13:  9.30  14: 11.30  15: 10.72  16: 11.27
  17: 11.55  18:  9.25  19: 10.62  20: 13.96  21: 10.98  22: 13.15  23: 10.34  24: 10.40
  25:  9.89  26:  9.16  27: 11.55  28: 11.46  29: 11.46  30: 11.68  31: 11.09  32: 11.10
  33:  6.25  34:  1.70  35: 11.34  36:  6.62  37:  4.90  38:  1.94  39:  7.29  40: 11.88
  41: 12.32  42: 10.43  43: 11.37  44:  8.82  45:  9.49  46: 11.50  47: 11.68  48: 12.16
  49: 10.40  50:  9.07  51: 11.73  52: 10.67  53: 10.41  54: 12.04  55: 13.56  56: 11.43
  57: 11.44  58: 10.66  59: 10.80  60: 10.79  61: 10.40  62:  9.85  63:  9.79  64: 10.46
  65: 10.78  66:  8.56  67: 11.97  68: 11.97  69: 11.99  70: 11.04  71: 11.92  72: 10.29
  73: 10.21  74: 10.24  75: 11.11  76: 10.90  77: 12.03  78: 11.34  79: 10.90  80: 12.08
  81: 12.12  82: 11.64  83: 11.53  84:  9.58  85: 11.90  86: 11.67  87: 10.96  88: 11.94
  89: 11.07  90: 10.39  91: 11.69  92: 11.62  93: 11.77  94: 11.77  95: 11.69  96: 10.95
  97: 11.59  98: 11.79  99: 11.96 100: 10.48 101: 11.82 102: 12.09 103: 12.16 104:  3.28
 105:  3.26 106:  3.27 107:  3.30 108: 11.73 109:  4.48 110: 11.79 111: 11.59 112:  4.25
 113: 10.43 114: 12.34 115: 11.94 116: 10.93 117:  3.75 118:  3.48 119:  3.42 120:  3.38
 121:  3.74 122:  3.90 123:  3.92 124:  3.88 125:  3.90 126:  3.98 127:  4.04 128:  3.86
 129:  3.19 130:  4.09 131:  7.26 132:  8.84 133:  6.74 134:  4.43 135:  3.40 136:  7.96
 137:  2.67 138:  2.67 139:  7.11 140: 11.92 141:  4.03 142:  4.03 143: 10.73 144:  9.26
 145: 12.03 146:  5.37 147:  4.44 148:  5.64 149:  5.51 150:  5.81 151:  5.88 152:  9.19
 153:  8.57 154:  8.55 155:  7.33 156:  7.30 157:  8.32 158:  8.31 159:  5.69 160:  3.69
 161:  4.55 162:  6.63 163:  1.97 164:  2.02 165:  2.38 166:  6.71 167:  3.08 168:  2.66
 169:  8.17 170:  1.96 171:  7.74 172:  7.01 173:  7.03 174:  7.24 175:  9.35 176:  4.84
 177:  6.88 178:  5.71 179: 10.57 180:  4.80 181:  4.89 182:  9.27 183:  9.65 184:  9.69
 185:  9.79 186: 11.85 187: 11.66 188:  6.27 189: 10.10 190:  5.10 191: 10.00 192:  6.22
 193: 10.31 194: 11.31 195: 11.07 196:  5.91 197: 11.12 198: 10.89 199: 11.41 200:  3.08
 201:  3.07 202:  3.13 203:  3.04 204:  9.72 205:  9.34 206: 10.67 207: 10.86 208:  9.74
 209:  9.88 210:  9.63 211:  9.49 212: 10.65 213: 10.69 214:  1.59 215:  1.61 216:  1.61
 217:  1.64 218: 11.16 219: 10.49 220: 10.55 221:  1.55 222:  1.55 223:  1.76 224:  1.86
 225: 11.73 226: 11.48 227: 11.48 228: 11.69 229: 11.64 230: 11.59 231: 11.59 232: 11.62
 233: 11.58 234: 11.43 235: 11.67 236: 11.72 237: 11.72 238: 13.48 239: 13.45 240:  1.74
 241:  1.74 242:  1.83 243:  1.84 244:  1.83 245:  1.83 246:  1.83 247:  1.84 248:  1.85
 249:  1.84 250:  1.39 251:  1.39 252:  1.56 253:  1.57 254:  1.78 255:  1.83 256:  1.77
 257:  1.77 258:  1.81 259:  1.76 260:  1.76 261:  1.83 262:  1.88 263:  1.82 264:  1.82
 265:  1.81 266:  1.81 267:  1.82 268:  1.82 269:  1.87 270:  1.87 271:  1.87 272:  1.87
 273:  1.89 274:  1.89 275:  1.89 276:  1.89
 IR intensities (km·mol⁻¹)
   1:  0.02   2:  0.02   3:  0.03   4:  0.01   5:  0.02   6:  0.01   7:  0.01   8:  0.04
   9:  0.01  10:  0.33  11:  0.06  12:  0.22  13:  0.12  14:  0.50  15:  0.00  16:  0.47
  17:  1.03  18:  0.25  19:  0.02  20:  0.04  21:  0.13  22:  4.61  23:  0.78  24:  0.82
  25:  0.27  26:  0.00  27:  1.67  28:  1.41  29:  3.05  30:  1.73  31:  3.49  32:  1.91
  33:  0.11  34:  0.05  35: 14.32  36:  0.04  37:  0.23  38:  0.11  39:  0.02  40:  2.55
  41:  2.71  42:  1.07  43:  7.13  44:  0.25  45:  3.50  46:  0.31  47:  0.70  48:  1.15
  49:  0.44  50:  0.01  51:  2.25  52:  7.10  53:  1.27  54:  0.44  55: 15.43  56:  0.60
  57:  0.88  58:  0.39  59:  4.88  60:  0.65  61:  1.83  62: 10.69  63:  1.86  64:  3.12
  65:  1.28  66:  0.02  67:  0.02  68: 11.14  69:  0.05  70:  6.45  71:  8.59  72:  0.01
  73:  7.00  74:  2.00  75: 19.19  76:  1.30  77:  0.13  78: 12.83  79:  3.99  80:  3.29
  81:  0.80  82:  1.94  83:  1.08  84:  0.16  85:  5.08  86:  2.27  87:  1.22  88: 12.63
  89:  1.22  90:  0.41  91:  0.95  92:  0.90  93:  0.34  94:  0.40  95: 19.33  96:  0.24
  97:  2.17  98:  7.35  99:  2.00 100:  0.12 101:  5.11 102: 19.43 103:  0.89 104:  4.32
 105:  7.70 106: 22.63 107:112.05 108:  4.65 109: 24.10 110:  6.29 111: 18.97 112:  0.01
 113: 16.78 114:  3.58 115: 14.86 116: 21.24 117:  0.77 118:  0.49 119:  0.11 120:  5.04
 121:  5.06 122:  6.94 123:  0.12 124:  0.02 125:  0.19 126:  5.55 127:  3.13 128:  2.26
 129:  0.73 130:  3.45 131:  3.39 132: 45.86 133:  1.67 134:  8.53 135:  0.09 136:  1.25
 137:  1.32 138:  0.49 139: 21.23 140:  0.20 141:  0.68 142:  0.05 143:  1.45 144:  0.07
 145:  6.74 146:  0.25 147: 13.22 148:  0.16 149:  0.28 150:  3.95 151:  5.06 152:  9.84
 153:  0.09 154:  3.45 155: 21.33 156: 56.48 157:  0.83 158:  0.64 159: 36.55 160: 38.62
 161: 11.37 162:  9.33 163:  0.02 164:  2.01 165: 20.00 166:  3.33 167:  0.03 168:  1.84
 169:216.87 170:  0.68 171: 12.32 172: 11.10 173: 23.62 174: 10.29 175: 57.97 176: 17.27
 177: 47.40 178:  2.35 179: 55.87 180:  3.33 181:  0.12 182:234.36 183:162.64 184:  8.40
 185: 14.41 186:472.14 187: 80.32 188: 86.55 189:219.63 190: 11.95 191:228.28 192: 60.42
 193: 11.31 194: 15.08 195: 18.69 196:  5.05 197:218.10 198:134.88 199:380.18 200:  0.29
 201: 10.49 202:  0.86 203:  3.82 204: 37.38 205:  0.12 206: 39.98 207:134.08 208:  1.66
 209: 20.13 210: 10.06 211:  2.23 212: 43.18 213:977.71 214:  0.02 215:  0.04 216:  1.17
 217:  4.55 218: 48.53 219: 15.61 220: 51.10 221:  1.71 222:  3.60 223:  7.26 224:  4.25
 225: 98.80 226:  6.39 227:  8.85 228:386.05 229: 81.11 230: 11.83 231: 16.75 232: 34.16
 233: 18.01 234:  6.34 235:  7.39 236:  7.01 237:  5.62 238:470.38 239:252.15 240: 28.40
 241: 64.40 242:  2.00 243:  1.32 244:108.03 245: 58.80 246: 19.89 247: 10.29 248: 13.87
 249: 19.64 250: 21.87 251: 10.64 252: 31.90 253: 62.75 254: 12.72 255:  5.67 256:  8.97
 257:  6.83 258: 16.99 259:  1.20 260:  6.22 261: 31.61 262: 80.18 263: 18.91 264:  6.67
 265: 21.11 266: 31.25 267: 43.12 268:  7.98 269: 22.55 270: 61.30 271: 33.12 272: 34.68
 273: 17.95 274: 22.89 275: 78.44 276: 22.47
 Raman intensities (Ä⁴*amu⁻¹)
   1:  0.00   2:  0.00   3:  0.00   4:  0.00   5:  0.00   6:  0.00   7:  0.00   8:  0.00
   9:  0.00  10:  0.00  11:  0.00  12:  0.00  13:  0.00  14:  0.00  15:  0.00  16:  0.00
  17:  0.00  18:  0.00  19:  0.00  20:  0.00  21:  0.00  22:  0.00  23:  0.00  24:  0.00
  25:  0.00  26:  0.00  27:  0.00  28:  0.00  29:  0.00  30:  0.00  31:  0.00  32:  0.00
  33:  0.00  34:  0.00  35:  0.00  36:  0.00  37:  0.00  38:  0.00  39:  0.00  40:  0.00
  41:  0.00  42:  0.00  43:  0.00  44:  0.00  45:  0.00  46:  0.00  47:  0.00  48:  0.00
  49:  0.00  50:  0.00  51:  0.00  52:  0.00  53:  0.00  54:  0.00  55:  0.00  56:  0.00
  57:  0.00  58:  0.00  59:  0.00  60:  0.00  61:  0.00  62:  0.00  63:  0.00  64:  0.00
  65:  0.00  66:  0.00  67:  0.00  68:  0.00  69:  0.00  70:  0.00  71:  0.00  72:  0.00
  73:  0.00  74:  0.00  75:  0.00  76:  0.00  77:  0.00  78:  0.00  79:  0.00  80:  0.00
  81:  0.00  82:  0.00  83:  0.00  84:  0.00  85:  0.00  86:  0.00  87:  0.00  88:  0.00
  89:  0.00  90:  0.00  91:  0.00  92:  0.00  93:  0.00  94:  0.00  95:  0.00  96:  0.00
  97:  0.00  98:  0.00  99:  0.00 100:  0.00 101:  0.00 102:  0.00 103:  0.00 104:  0.00
 105:  0.00 106:  0.00 107:  0.00 108:  0.00 109:  0.00 110:  0.00 111:  0.00 112:  0.00
 113:  0.00 114:  0.00 115:  0.00 116:  0.00 117:  0.00 118:  0.00 119:  0.00 120:  0.00
 121:  0.00 122:  0.00 123:  0.00 124:  0.00 125:  0.00 126:  0.00 127:  0.00 128:  0.00
 129:  0.00 130:  0.00 131:  0.00 132:  0.00 133:  0.00 134:  0.00 135:  0.00 136:  0.00
 137:  0.00 138:  0.00 139:  0.00 140:  0.00 141:  0.00 142:  0.00 143:  0.00 144:  0.00
 145:  0.00 146:  0.00 147:  0.00 148:  0.00 149:  0.00 150:  0.00 151:  0.00 152:  0.00
 153:  0.00 154:  0.00 155:  0.00 156:  0.00 157:  0.00 158:  0.00 159:  0.00 160:  0.00
 161:  0.00 162:  0.00 163:  0.00 164:  0.00 165:  0.00 166:  0.00 167:  0.00 168:  0.00
 169:  0.00 170:  0.00 171:  0.00 172:  0.00 173:  0.00 174:  0.00 175:  0.00 176:  0.00
 177:  0.00 178:  0.00 179:  0.00 180:  0.00 181:  0.00 182:  0.00 183:  0.00 184:  0.00
 185:  0.00 186:  0.00 187:  0.00 188:  0.00 189:  0.00 190:  0.00 191:  0.00 192:  0.00
 193:  0.00 194:  0.00 195:  0.00 196:  0.00 197:  0.00 198:  0.00 199:  0.00 200:  0.00
 201:  0.00 202:  0.00 203:  0.00 204:  0.00 205:  0.00 206:  0.00 207:  0.00 208:  0.00
 209:  0.00 210:  0.00 211:  0.00 212:  0.00 213:  0.00 214:  0.00 215:  0.00 216:  0.00
 217:  0.00 218:  0.00 219:  0.00 220:  0.00 221:  0.00 222:  0.00 223:  0.00 224:  0.00
 225:  0.00 226:  0.00 227:  0.00 228:  0.00 229:  0.00 230:  0.00 231:  0.00 232:  0.00
 233:  0.00 234:  0.00 235:  0.00 236:  0.00 237:  0.00 238:  0.00 239:  0.00 240:  0.00
 241:  0.00 242:  0.00 243:  0.00 244:  0.00 245:  0.00 246:  0.00 247:  0.00 248:  0.00
 249:  0.00 250:  0.00 251:  0.00 252:  0.00 253:  0.00 254:  0.00 255:  0.00 256:  0.00
 257:  0.00 258:  0.00 259:  0.00 260:  0.00 261:  0.00 262:  0.00 263:  0.00 264:  0.00
 265:  0.00 266:  0.00 267:  0.00 268:  0.00 269:  0.00 270:  0.00 271:  0.00 272:  0.00
 273:  0.00 274:  0.00 275:  0.00 276:  0.00
 output can be read by thermo (or use thermo option).
 writing <g98.out> molden fake output.
 recommended (thermochemical) frequency scaling factor: 1.0
           -------------------------------------------------
          |             Thermodynamic Functions             |
           -------------------------------------------------

Molecule has no symmetry elements
It seems to be the C1 point group
c1  symmetry found (for desy threshold:  0.10E+00) used in thermo

          ...................................................
          :                      SETUP                      :
          :.................................................:
          :  # frequencies                         270      :
          :  # imaginary freq.                       0      :
          :  linear?                             false      :
          :  only rotor calc.                    false      :
          :  symmetry                               c1      :
          :  rotational number                       1      :
          :  scaling factor                  1.0000000      :
          :  rotor cutoff                   50.0000000 cm⁻¹ :
          :  imag. cutoff                  -20.0000000 cm⁻¹ :
          :.................................................:

    mode    ω/cm⁻¹     T·S(HO)/kcal·mol⁻¹    T·S(FR)/kcal·mol⁻¹   T·S(vib)
   ------------------------------------------------------------------------
       1     10.43    -2.36374 (  0.19%)    -1.52092 ( 99.81%)    -1.52251
       2     13.72    -2.20133 (  0.56%)    -1.43970 ( 99.44%)    -1.44399
       3     15.14    -2.14279 (  0.83%)    -1.41042 ( 99.17%)    -1.41653
       4     16.59    -2.08856 (  1.20%)    -1.38329 ( 98.80%)    -1.39175
       5     18.48    -2.02475 (  1.83%)    -1.35137 ( 98.17%)    -1.36371
       6     23.38    -1.88557 (  4.56%)    -1.28173 ( 95.44%)    -1.30928
       7     33.26    -1.67711 ( 16.37%)    -1.17734 ( 83.63%)    -1.25914
       8     37.44    -1.60703 ( 23.92%)    -1.14222 ( 76.08%)    -1.25342
       9     40.88    -1.55518 ( 30.88%)    -1.11622 ( 69.12%)    -1.25177
      10     41.99    -1.53929 ( 33.22%)    -1.10825 ( 66.78%)    -1.25145
      11     43.77    -1.51485 ( 36.99%)    -1.09598 ( 63.01%)    -1.25093
      12     46.03    -1.48506 ( 41.81%)    -1.08103 ( 58.19%)    -1.24995
      13     51.84    -1.41505 ( 53.60%)    -1.04586 ( 46.40%)    -1.24374
      14     67.29    -1.26153 ( 76.63%)    -0.96858 ( 23.37%)    -1.19308
      15     78.66    -1.16997 ( 85.96%)    -0.92232 ( 14.04%)    -1.13521
      16     95.87    -1.05444 ( 93.11%)    -0.86371 (  6.89%)    -1.04130
      17    108.83    -0.98081 ( 95.73%)    -0.82614 (  4.27%)    -0.97422
      18    111.85    -0.96496 ( 96.16%)    -0.81802 (  3.84%)    -0.95932
      19    112.77    -0.96022 ( 96.28%)    -0.81559 (  3.72%)    -0.95484
      20    119.87    -0.92502 ( 97.06%)    -0.79753 (  2.94%)    -0.92127
      21    121.44    -0.91750 ( 97.21%)    -0.79366 (  2.79%)    -0.91404
      22    141.61    -0.82944 ( 98.47%)    -0.74814 (  1.53%)    -0.82820
      23    147.51    -0.80623 ( 98.70%)    -0.73605 (  1.30%)    -0.80531
      24    161.59    -0.75463 ( 99.09%)    -0.70904 (  0.91%)    -0.75422
      25    174.37    -0.71194 ( 99.33%)    -0.68650 (  0.67%)    -0.71177
      26    181.85    -0.68854 ( 99.43%)    -0.67406 (  0.57%)    -0.68846
      27    194.59    -0.65107 ( 99.57%)    -0.65400 (  0.43%)    -0.65108
      28    203.34    -0.62690 ( 99.64%)    -0.64096 (  0.36%)    -0.62695
      29    209.81    -0.60982 ( 99.68%)    -0.63169 (  0.32%)    -0.60989
      30    224.28    -0.57371 ( 99.75%)    -0.61192 (  0.25%)    -0.57380
      31    227.61    -0.56580 ( 99.77%)    -0.60756 (  0.23%)    -0.56590
      32    230.30    -0.55952 ( 99.78%)    -0.60409 (  0.22%)    -0.55962
      33    242.32    -0.53244 ( 99.82%)    -0.58901 (  0.18%)    -0.53254
      34    246.43    -0.52354 ( 99.83%)    -0.58402 (  0.17%)    -0.52364
      35    248.16    -0.51986 ( 99.84%)    -0.58195 (  0.16%)    -0.51996
      36    249.54    -0.51694 ( 99.84%)    -0.58031 (  0.16%)    -0.51704
      37    252.09    -0.51161 ( 99.85%)    -0.57730 (  0.15%)    -0.51171
      38    265.96    -0.48370 ( 99.88%)    -0.56143 (  0.12%)    -0.48379
      39    269.66    -0.47655 ( 99.88%)    -0.55733 (  0.12%)    -0.47664
      40    280.19    -0.45692 ( 99.90%)    -0.54599 (  0.10%)    -0.45701
      41    280.66    -0.45606 ( 99.90%)    -0.54550 (  0.10%)    -0.45615
      42    292.42    -0.43528 ( 99.91%)    -0.53334 (  0.09%)    -0.43536
      43    299.68    -0.42299 ( 99.92%)    -0.52608 (  0.08%)    -0.42307
   ------------------------------------------------------------------------

   temp. (K)  partition function   enthalpy   heat capacity  entropy
                                   cal/mol     cal/K/mol   cal/K/mol   J/K/mol
 298.15  VIB  0.943E+22            27471.690    168.498    171.114
         ROT  0.119E+09              888.752      2.981     39.941
         INT  0.113E+31            28360.443    171.479    211.056
         TR   0.187E+29             1481.254      4.968     45.581
         TOT                       29841.6968   176.4471   256.6366  1073.7674

       T/K    H(0)-H(T)+PV         H(T)/Eh          T*S/Eh         G(T)/Eh
   ------------------------------------------------------------------------
    298.15    0.475558E-01    0.760325E+00    0.121936E+00    0.638389E+00
   ------------------------------------------------------------------------

         :::::::::::::::::::::::::::::::::::::::::::::::::::::
         ::                  THERMODYNAMIC                  ::
         :::::::::::::::::::::::::::::::::::::::::::::::::::::
         :: total free energy        -146.190553721254 Eh   ::
         ::.................................................::
         :: total energy             -146.828942244777 Eh   ::
         :: zero point energy           0.712769070186 Eh   ::
         :: G(RRHO) w/o ZPVE           -0.074380546664 Eh   ::
         :: G(RRHO) contrib.            0.638388523523 Eh   ::
         :::::::::::::::::::::::::::::::::::::::::::::::::::::

optimized geometry written to: xtbopt.xyz


           -------------------------------------------------
          | TOTAL ENERGY             -146.828942244777 Eh   |
          | TOTAL ENTHALPY           -146.068617403734 Eh   |
          | TOTAL FREE ENERGY        -146.190553721254 Eh   |
          | GRADIENT NORM               0.000055715267 Eh/α |
          | HOMO-LUMO GAP               0.872423155440 eV   |
           -------------------------------------------------

------------------------------------------------------------------------
 * finished run on 2025/08/24 at 16:02:01.256     
------------------------------------------------------------------------
 total:
 * wall-time:     0 d,  0 h,  0 min,  7.231 sec
 *  cpu-time:     0 d,  0 h,  4 min, 23.210 sec
 * ratio c/w:    36.401 speedup
 SCF:
 * wall-time:     0 d,  0 h,  0 min,  0.182 sec
 *  cpu-time:     0 d,  0 h,  0 min,  7.124 sec
 * ratio c/w:    39.074 speedup
 ANC optimizer:
 * wall-time:     0 d,  0 h,  0 min,  1.658 sec
 *  cpu-time:     0 d,  0 h,  1 min,  6.316 sec
 * ratio c/w:    39.997 speedup
 analytical hessian:
 * wall-time:     0 d,  0 h,  0 min,  5.141 sec
 *  cpu-time:     0 d,  0 h,  3 min,  0.832 sec
 * ratio c/w:    35.178 speedup

