      -----------------------------------------------------------      
     |                   =====================                   |     
     |                           x T B                           |     
     |                   =====================                   |     
     |                         S. Grimme                         |     
     |          Mulliken Center for Theoretical Chemistry        |     
     |                    University of Bonn                     |     
      -----------------------------------------------------------      

   * xtb version 6.7.1 (edcfbbe) compiled by 'albert@albert-system' on 2024-07-22

   xtb is free software: you can redistribute it and/or modify it under
   the terms of the GNU Lesser General Public License as published by
   the Free Software Foundation, either version 3 of the License, or
   (at your option) any later version.
   
   xtb is distributed in the hope that it will be useful,
   but WITHOUT ANY WARRANTY; without even the implied warranty of
   MERCHANTABILITY or FITNESS FOR A PARTICULAR PURPOSE.  See the
   GNU Lesser General Public License for more details.
   
   Cite this work as:
   * C. Bannwarth, E. Caldeweyher, S. Ehlert, A. Hansen, P. Pracht,
     J. Seibert, S. Spicher, S. Grimme, WIREs Comput. Mol. Sci., 2020, 11,
     e01493. DOI: 10.1002/wcms.1493
   
   for GFN2-xTB:
   * C. Bannwarth, S. Ehlert and S. Grimme., J. Chem. Theory Comput., 2019,
     15, 1652-1671. DOI: 10.1021/acs.jctc.8b01176
   for GFN1-xTB:
   * S. Grimme, C. Bannwarth, P. Shushkov, J. Chem. Theory Comput., 2017,
     13, 1989-2009. DOI: 10.1021/acs.jctc.7b00118
   for GFN0-xTB:
   * P. Pracht, E. Caldeweyher, S. Ehlert, S. Grimme, ChemRxiv, 2019, preprint.
     DOI: 10.26434/chemrxiv.8326202.v1
   for GFN-FF:
   * S. Spicher and S. Grimme, Angew. Chem. Int. Ed., 2020, 59, 15665-15673.
     DOI: 10.1002/anie.202004239
   
   for ALPB and GBSA implicit solvation:
   * S. Ehlert, M. Stahn, S. Spicher, S. Grimme, J. Chem. Theory Comput.,
     2021, 17, 4250-4261. DOI: 10.1021/acs.jctc.1c00471
   
   for ddCOSMO and CPCM-X implicit solvation:
   * M. Stahn, S. Ehlert, S. Grimme, J. Phys. Chem. A,
     2023, XX, XXXX-XXXX. DOI: 10.1021/acs.jpca.3c04382
   
   for DFT-D4:
   * E. Caldeweyher, C. Bannwarth and S. Grimme, J. Chem. Phys., 2017,
     147, 034112. DOI: 10.1063/1.4993215
   * E. Caldeweyher, S. Ehlert, A. Hansen, H. Neugebauer, S. Spicher,
     C. Bannwarth and S. Grimme, J. Chem. Phys., 2019, 150, 154122.
     DOI: 10.1063/1.5090222
   * E. Caldeweyher, J.-M. Mewes, S. Ehlert and S. Grimme, Phys. Chem. Chem. Phys.
     2020, 22, 8499-8512. DOI: 10.1039/D0CP00502A
   
   for sTDA-xTB:
   * S. Grimme and C. Bannwarth, J. Chem. Phys., 2016, 145, 054103.
     DOI: 10.1063/1.4959605
   
   in the mass-spec context:
   * V. Asgeirsson, C. Bauer and S. Grimme, Chem. Sci., 2017, 8, 4879.
     DOI: 10.1039/c7sc00601b
   * J. Koopman and S. Grimme, ACS Omega 2019, 4, 12, 15120-15133.
     DOI: 10.1021/acsomega.9b02011
   
   for metadynamics refer to:
   * S. Grimme, J. Chem. Theory Comput., 2019, 155, 2847-2862
     DOI: 10.1021/acs.jctc.9b00143
   
   for SPH calculations refer to:
   * S. Spicher and S. Grimme, J. Chem. Theory Comput., 2021, 17, 1701-1714
     DOI: 10.1021/acs.jctc.0c01306
   
   for ONIOM refer to:
   * C. Plett, A. Katbashev, S. Ehlert, S. Grimme, M. Bursch,
     Phys. Chem. Chem. Phys., 2023, 25, 17860-17868. DOI: 10.1039/D3CP02178E
   
   for DIPRO refer to:
   * J. Kohn, N. Gildemeister, S. Grimme, D. Fazzi, A. Hansen,
     J. Chem. Phys., 2023, just accepted.
   
   for PTB refer to:
   * S. Grimme, M. Mueller, A. Hansen, J. Chem. Phys., 2023, 158, 124111.
     DOI: 10.1063/5.0137838
   
   with help from (in alphabetical order)
   P. Atkinson, C. Bannwarth, F. Bohle, G. Brandenburg, E. Caldeweyher
   M. Checinski, S. Dohm, S. Ehlert, S. Ehrlich, I. Gerasimov, C. Hölzer
   A. Katbashev, J. Kohn, J. Koopman, C. Lavigne, S. Lehtola, F. März, M. Müller,
   F. Musil, H. Neugebauer, J. Pisarek, C. Plett, P. Pracht, F. Pultar,
   J. Seibert, P. Shushkov, S. Spicher, M. Stahn, M. Steiner, T. Strunk,
   J. Stückrath, T. Rose, and J. Unsleber
   
 * started run on 2025/08/21 at 19:24:03.141     
   ID    Z sym.   atoms
    1    6 C      1-12, 14-25, 27, 28, 30, 32-40, 42-57
    2    7 N      13, 26, 29, 31, 41, 58
    3    1 H      59-90

           -------------------------------------------------
          |                Calculation Setup                |
           -------------------------------------------------

          program call               : xtb data2507/toluene/CZ9CZPZ/CZ9CZPZ_toluene_S0_finalOpt.xtbopt.xyz --gfn 2 --uhf 2 --gbsa toluene --ohess vtight --parallel 40 --molden --ceasefiles --namespace data2507/toluene/CZ9CZPZ/CZ9CZPZ_toluene_T1_preOpt
          calculation namespace      : data2507/toluene/CZ9CZPZ/CZ9CZPZ_toluene_T1_preOpt
          coordinate file            : data2507/toluene/CZ9CZPZ/CZ9CZPZ_toluene_S0_finalOpt.xtbopt.xyz
          omp threads                :                    40


           -------------------------------------------------
          |                 G F N 2 - x T B                 |
           -------------------------------------------------

        Reference                      10.1021/acs.jctc.8b01176
      * Hamiltonian:
        H0-scaling (s, p, d)           1.850000    2.230000    2.230000
        zeta-weighting                 0.500000
      * Dispersion:
        s8                             2.700000
        a1                             0.520000
        a2                             5.000000
        s9                             5.000000
      * Repulsion:
        kExp                           1.500000    1.000000
        rExp                           1.000000
      * Coulomb:
        alpha                          2.000000
        third order                    shell-resolved
        anisotropic                    true
        a3                             3.000000
        a5                             4.000000
        cn-shift                       1.200000
        cn-exp                         4.000000
        max-rad                        5.000000

      * Solvation model:               GBSA
        Solvent                        toluene
        Parameter file                 internal GFN2-xTB/GBSA
        Dielectric constant                7.0000E+00
        Reference state                gsolv [1 M gas/solution]
        Free energy shift                  4.5239E-03 Eh       2.8388E+00 kcal/mol
        Temperature                        2.9815E+02 K
        Density                            8.6700E-01 kg/L
        Solvent mass                       9.2140E+01 g/mol
        Interaction kernel             Still
        Born radius scaling (c1)           1.5686E+00
        Born radii integrator          GBOBC
        Born offset                        0.0000E+00 a0       0.0000E+00 AA
        H-bond correction              false
        Ion screening                  false
        Surface tension                    1.0000E-05 Eh       1.5569E+01 dyn/cm
        Grid points                               230 per atom

          ...................................................
          :                      SETUP                      :
          :.................................................:
          :  # basis functions                 264          :
          :  # atomic orbitals                 264          :
          :  # shells                          148          :
          :  # electrons                       270          :
          :  max. iterations                   250          :
          :  Hamiltonian                  GFN2-xTB          :
          :  restarted?                      false          :
          :  GBSA solvation                   true          :
          :  PC potential                    false          :
          :  electronic temp.          300.0000000     K    :
          :  accuracy                    1.0000000          :
          :  -> integral cutoff          0.2500000E+02      :
          :  -> integral neglect         0.1000000E-07      :
          :  -> SCF convergence          0.1000000E-05 Eh   :
          :  -> wf. convergence          0.1000000E-03 e    :
          :  Broyden damping             0.4000000          :
          :  net charge                          0          :
          :  unpaired electrons                  2          :
          ...................................................

 iter      E             dE          RMSdq      gap      omega  full diag
   1   -147.8574996 -0.147857E+03  0.403E+00    0.14       0.0  T
   2   -147.9173836 -0.598840E-01  0.245E+00    0.09       1.0  T
   3   -147.7470936  0.170290E+00  0.170E+00    0.83       1.0  T
   4   -147.9651199 -0.218026E+00  0.703E-01    0.21       1.0  T
   5   -147.9881591 -0.230392E-01  0.381E-01    0.21       1.0  T
   6   -147.9815134  0.664572E-02  0.401E-01    0.19       1.0  T
   7   -147.9880970 -0.658360E-02  0.360E-01    0.34       1.0  T
   8   -148.0041101 -0.160131E-01  0.189E-01    0.24       1.0  T
   9   -148.0096856 -0.557551E-02  0.722E-02    0.27       1.0  T
  10   -148.0101556 -0.469975E-03  0.279E-02    0.26       1.0  T
  11   -148.0101169  0.387318E-04  0.228E-02    0.25       1.0  T
  12   -148.0101874 -0.705024E-04  0.871E-03    0.25       1.2  T
  13   -148.0101846  0.281460E-05  0.857E-03    0.25       1.2  T
  14   -148.0101975 -0.129294E-04  0.109E-03    0.25       9.7  T
  15   -148.0101974  0.109698E-06  0.112E-03    0.25       9.4  T
  16   -148.0101975 -0.137981E-06  0.646E-04    0.25      16.3  T
  17   -148.0101976 -0.723658E-07  0.115E-04    0.25      91.5  T

   *** convergence criteria satisfied after 17 iterations ***

         #    Occupation            Energy/Eh            Energy/eV
      -------------------------------------------------------------
         1        2.0000           -0.6860590             -18.6686
       ...           ...                  ...                  ...
       130        2.0000           -0.3834584             -10.4344
       131        2.0000           -0.3828445             -10.4177
       132        2.0000           -0.3744552             -10.1894
       133        1.9995           -0.3671803              -9.9915
       134        1.6204           -0.3603615              -9.8059
       135        1.3801           -0.3594302              -9.7806
       136        0.9917           -0.2657366              -7.2311 (HOMO)
       137        0.0068           -0.2564543              -6.9785 (LUMO)
       138        0.0016           -0.2550616              -6.9406
       139        0.0000           -0.2503522              -6.8124
       140        0.0000           -0.2497004              -6.7947
       141                         -0.2449852              -6.6664
       ...                                ...                  ...
       264                          0.7400731              20.1384
      -------------------------------------------------------------
                  HL-Gap            0.0092824 Eh            0.2526 eV
             Fermi-level           -0.3105456 Eh           -8.4504 eV
 
 transition dipole moment (au) for excitation:         135         136
     X       Y       Z   
   0.4321  -0.1342  -0.2456  total (au/Debye):    0.515   1.309
 dE (eV)             :    2.550
 oscillator strength :  0.23410E-01

 SCC (total)                   0 d,  0 h,  0 min,  0.240 sec
 SCC setup                      ...        0 min,  0.008 sec (  3.391%)
 Dispersion                     ...        0 min,  0.004 sec (  1.764%)
 classical contributions        ...        0 min,  0.000 sec (  0.062%)
 integral evaluation            ...        0 min,  0.010 sec (  3.986%)
 iterations                     ...        0 min,  0.174 sec ( 72.522%)
 molecular gradient             ...        0 min,  0.015 sec (  6.048%)
 printout                       ...        0 min,  0.029 sec ( 12.189%)

         :::::::::::::::::::::::::::::::::::::::::::::::::::::
         ::                     SUMMARY                     ::
         :::::::::::::::::::::::::::::::::::::::::::::::::::::
         :: total energy            -145.337278055230 Eh    ::
         :: total w/o Gsasa/hb      -145.280319333771 Eh    ::
         :: gradient norm              0.068498853958 Eh/a0 ::
         :: HOMO-LUMO gap              0.252586147919 eV    ::
         ::.................................................::
         :: SCC energy              -148.011626944177 Eh    ::
         :: -> isotropic ES            0.030850431696 Eh    ::
         :: -> anisotropic ES          0.010873057893 Eh    ::
         :: -> anisotropic XC          0.077135092897 Eh    ::
         :: -> dispersion             -0.130210142763 Eh    ::
         :: -> Gsolv                  -0.060295193465 Eh    ::
         ::    -> Gelec               -0.003336472006 Eh    ::
         ::    -> Gsasa               -0.061482601330 Eh    ::
         ::    -> Ghb                  0.000000000000 Eh    ::
         ::    -> Gshift               0.004523879872 Eh    ::
         :: repulsion energy           2.674348888947 Eh    ::
         :: add. restraining           0.000000000000 Eh    ::
         :: total charge               0.000000000256 e     ::
         :::::::::::::::::::::::::::::::::::::::::::::::::::::

      ----------------------------------------------------------- 
     |                   =====================                   |
     |                        A N C O P T                        |
     |                   =====================                   |
     |               Approximate Normal Coordinate               |
     |                Rational Function Optimizer                |
      ----------------------------------------------------------- 

Optimization log is written to '/dev/null'
      ----------------------------------------------------------- 
     |                   =====================                   |
     |                        A N C O P T                        |
     |                   =====================                   |
     |               Approximate Normal Coordinate               |
     |                Rational Function Optimizer                |
      ----------------------------------------------------------- 

          ...................................................
          :                      SETUP                      :
          :.................................................:
          :   optimization level         verytight          :
          :   max. optcycles                  1800          :
          :   ANC micro-cycles                  20          :
          :   degrees of freedom               264          :
          :.................................................:
          :   RF solver                   davidson          :
          :   write xtbopt.log                true          :
          :   linear?                        false          :
          :   energy convergence         0.1000000E-06 Eh   :
          :   grad. convergence          0.2000000E-03 Eh/α :
          :   maxmium RF displ.          1.0000000          :
          :   Hlow (freq-cutoff)         0.1000000E-01      :
          :   Hmax (freq-cutoff)         5.0000000          :
          :   S6 in model hess.         20.0000000          :
          ...................................................

generating ANC from exact Hessian ...
Using Lindh-Hessian (1995)
 Shifting diagonal of input Hessian by   9.953081989950565E-003
 Lowest  eigenvalues of input Hessian
    0.000000    0.000000    0.000000    0.000000    0.000000    0.000000
    0.010000    0.010059    0.010080    0.010232    0.010242    0.010342
    0.010478    0.010925    0.011137    0.011875    0.012040    0.012605
 Highest eigenvalues
    2.188004    2.202311    2.205519    2.236614    2.240362    2.334969
 

........................................................................
.............................. CYCLE    1 ..............................
........................................................................

 iter      E             dE          RMSdq      gap      omega  full diag
   1   -148.0101976 -0.148010E+03  0.698E-05    0.25       0.0  T
   2   -148.0101976  0.161761E-07  0.292E-04    0.25      36.1  T
   3   -148.0101976 -0.162595E-07  0.521E-05    0.25     202.3  T
     SCC iter.                  ...        0 min,  0.034 sec
     gradient                   ...        0 min,  0.014 sec
 * total energy  :  -145.3372781 Eh     change       -0.2474962E-09 Eh
   gradient norm :     0.0684907 Eh/α   predicted     0.0000000E+00 (-100.00%)
   displ. norm   :     0.1325886 α      lambda       -0.3697112E-02
   maximum displ.:     0.0668095 α      in ANC's #53, #50, #122, ...

........................................................................
.............................. CYCLE    2 ..............................
........................................................................

 iter      E             dE          RMSdq      gap      omega  full diag
   1   -147.9932836 -0.147993E+03  0.201E-01    0.38       0.0  T
   2   -147.8738715  0.119412E+00  0.828E-01    0.11       1.0  T
   3   -147.9974685 -0.123597E+00  0.173E-01    0.32       1.0  T
   4   -148.0005820 -0.311348E-02  0.889E-02    0.31       1.0  T
   5   -148.0012315 -0.649459E-03  0.545E-02    0.32       1.0  T
   6   -148.0015446 -0.313134E-03  0.232E-02    0.31       1.0  T
   7   -148.0016120 -0.674134E-04  0.109E-02    0.31       1.0  T
   8   -148.0016106  0.142449E-05  0.113E-02    0.32       1.0  T
   9   -148.0016176 -0.696764E-05  0.731E-03    0.32       1.4  T
  10   -148.0016204 -0.280958E-05  0.444E-03    0.32       2.4  T
  11   -148.0016219 -0.152161E-05  0.165E-03    0.32       6.4  T
  12   -148.0016221 -0.157295E-06  0.858E-04    0.32      12.3  T
  13   -148.0016221 -0.206790E-07  0.610E-04    0.32      17.3  T
     SCC iter.                  ...        0 min,  0.130 sec
     gradient                   ...        0 min,  0.014 sec
 * total energy  :  -145.3398694 Eh     change       -0.2591317E-02 Eh
   gradient norm :     0.0320086 Eh/α   predicted    -0.1881127E-02 ( -27.41%)
   displ. norm   :     0.1209911 α      lambda       -0.1324590E-02
   maximum displ.:     0.0512429 α      in ANC's #53, #50, #17, ...

........................................................................
.............................. CYCLE    3 ..............................
........................................................................

 iter      E             dE          RMSdq      gap      omega  full diag
   1   -147.9931250 -0.147993E+03  0.161E-01    0.42       0.0  T
   2   -147.9062004  0.869246E-01  0.697E-01    0.14       1.0  T
   3   -147.9966387 -0.904383E-01  0.117E-01    0.37       1.0  T
   4   -147.9980592 -0.142045E-02  0.588E-02    0.36       1.0  T
   5   -147.9982241 -0.164929E-03  0.448E-02    0.36       1.0  T
   6   -147.9984753 -0.251215E-03  0.149E-02    0.36       1.0  T
   7   -147.9984960 -0.206237E-04  0.866E-03    0.36       1.2  T
   8   -147.9984983 -0.236867E-05  0.643E-03    0.36       1.6  T
   9   -147.9984994 -0.106246E-05  0.488E-03    0.36       2.2  T
  10   -147.9985004 -0.956761E-06  0.286E-03    0.36       3.7  T
  11   -147.9985009 -0.528964E-06  0.922E-04    0.36      11.4  T
  12   -147.9985009 -0.361954E-07  0.503E-04    0.36      20.9  T
     SCC iter.                  ...        0 min,  0.120 sec
     gradient                   ...        0 min,  0.014 sec
 * total energy  :  -145.3406223 Eh     change       -0.7529392E-03 Eh
   gradient norm :     0.0077077 Eh/α   predicted    -0.6720364E-03 ( -10.74%)
   displ. norm   :     0.0559787 α      lambda       -0.1197876E-03
   maximum displ.:     0.0210238 α      in ANC's #17, #7, #13, ...

........................................................................
.............................. CYCLE    4 ..............................
........................................................................

 iter      E             dE          RMSdq      gap      omega  full diag
   1   -147.9982881 -0.147998E+03  0.464E-02    0.38       0.0  T
   2   -147.9877552  0.105329E-01  0.238E-01    0.30       1.0  T
   3   -147.9986663 -0.109111E-01  0.138E-02    0.37       1.0  T
   4   -147.9986732 -0.690498E-05  0.102E-02    0.37       1.0  T
   5   -147.9986711  0.212474E-05  0.858E-03    0.37       1.2  T
   6   -147.9986833 -0.122083E-04  0.245E-03    0.37       4.3  T
   7   -147.9986842 -0.928487E-06  0.539E-04    0.37      19.5  T
   8   -147.9986842 -0.224436E-07  0.221E-04    0.37      47.7  T
     SCC iter.                  ...        0 min,  0.081 sec
     gradient                   ...        0 min,  0.014 sec
 * total energy  :  -145.3407118 Eh     change       -0.8948464E-04 Eh
   gradient norm :     0.0041048 Eh/α   predicted    -0.6230067E-04 ( -30.38%)
   displ. norm   :     0.0764322 α      lambda       -0.7786210E-04
   maximum displ.:     0.0320058 α      in ANC's #7, #17, #13, ...

........................................................................
.............................. CYCLE    5 ..............................
........................................................................

 iter      E             dE          RMSdq      gap      omega  full diag
   1   -147.9990195 -0.147999E+03  0.326E-02    0.38       0.0  T
   2   -147.9951383  0.388123E-02  0.144E-01    0.33       1.0  T
   3   -147.9991580 -0.401971E-02  0.112E-02    0.37       1.0  T
   4   -147.9991456  0.123995E-04  0.107E-02    0.37       1.0  T
   5   -147.9991526 -0.699848E-05  0.654E-03    0.37       1.6  T
   6   -147.9991605 -0.793182E-05  0.130E-03    0.37       8.1  T
   7   -147.9991607 -0.197264E-06  0.576E-04    0.37      18.3  T
   8   -147.9991607 -0.445223E-07  0.180E-04    0.37      58.5  T
     SCC iter.                  ...        0 min,  0.081 sec
     gradient                   ...        0 min,  0.013 sec
 * total energy  :  -145.3407600 Eh     change       -0.4819534E-04 Eh
   gradient norm :     0.0020744 Eh/α   predicted    -0.3916823E-04 ( -18.73%)
   displ. norm   :     0.0541164 α      lambda       -0.1968229E-04
   maximum displ.:     0.0271693 α      in ANC's #7, #11, #13, ...

........................................................................
.............................. CYCLE    6 ..............................
........................................................................

 iter      E             dE          RMSdq      gap      omega  full diag
   1   -147.9994315 -0.147999E+03  0.106E-02    0.37       0.0  T
   2   -147.9994082  0.232609E-04  0.122E-02    0.37       1.0  T
   3   -147.9993732  0.350569E-04  0.185E-02    0.38       1.0  T
   4   -147.9994286 -0.554143E-04  0.516E-03    0.37       2.0  T
   5   -147.9994313 -0.268696E-05  0.261E-03    0.37       4.0  T
   6   -147.9994326 -0.133510E-05  0.243E-04    0.37      43.4  T
   7   -147.9994326  0.347967E-09  0.164E-04    0.37      64.4  T
   8   -147.9994326 -0.356076E-08  0.471E-05    0.37     224.0  T
     SCC iter.                  ...        0 min,  0.080 sec
     gradient                   ...        0 min,  0.014 sec
 * total energy  :  -145.3407754 Eh     change       -0.1539493E-04 Eh
   gradient norm :     0.0018200 Eh/α   predicted    -0.9943920E-05 ( -35.41%)
   displ. norm   :     0.1365473 α      lambda       -0.2530640E-04
   maximum displ.:     0.0706957 α      in ANC's #7, #11, #13, ...

........................................................................
.............................. CYCLE    7 ..............................
........................................................................

 iter      E             dE          RMSdq      gap      omega  full diag
   1   -147.9998520 -0.148000E+03  0.251E-02    0.37       0.0  T
   2   -147.9997166  0.135353E-03  0.309E-02    0.38       1.0  T
   3   -147.9996392  0.774116E-04  0.354E-02    0.36       1.0  T
   4   -147.9997975 -0.158254E-03  0.182E-02    0.37       1.0  T
   5   -147.9998576 -0.601121E-04  0.142E-03    0.37       7.4  T
   6   -147.9998579 -0.313437E-06  0.373E-04    0.37      28.2  T
   7   -147.9998579 -0.706785E-08  0.217E-04    0.37      48.5  T
     SCC iter.                  ...        0 min,  0.072 sec
     gradient                   ...        0 min,  0.014 sec
 * total energy  :  -145.3407984 Eh     change       -0.2297851E-04 Eh
   gradient norm :     0.0023833 Eh/α   predicted    -0.1276455E-04 ( -44.45%)
   displ. norm   :     0.0492757 α      lambda       -0.1211793E-04
   maximum displ.:     0.0294044 α      in ANC's #7, #11, #1, ...

........................................................................
.............................. CYCLE    8 ..............................
........................................................................

 iter      E             dE          RMSdq      gap      omega  full diag
   1   -147.9999521 -0.148000E+03  0.906E-03    0.37       0.0  T
   2   -147.9999312  0.208150E-04  0.114E-02    0.37       1.0  T
   3   -147.9999170  0.142058E-04  0.145E-02    0.37       1.0  T
   4   -147.9999497 -0.326580E-04  0.476E-03    0.37       2.2  T
   5   -147.9999517 -0.197715E-05  0.277E-03    0.37       3.8  T
   6   -147.9999531 -0.143401E-05  0.231E-04    0.37      45.6  T
   7   -147.9999531 -0.613909E-11  0.169E-04    0.37      62.4  T
   8   -147.9999531 -0.361715E-08  0.477E-05    0.37     221.1  T
     SCC iter.                  ...        0 min,  0.081 sec
     gradient                   ...        0 min,  0.013 sec
 * total energy  :  -145.3408088 Eh     change       -0.1043583E-04 Eh
   gradient norm :     0.0016307 Eh/α   predicted    -0.6074153E-05 ( -41.80%)
   displ. norm   :     0.1403864 α      lambda       -0.2033192E-04
   maximum displ.:     0.0842904 α      in ANC's #7, #1, #11, ...

........................................................................
.............................. CYCLE    9 ..............................
........................................................................

 iter      E             dE          RMSdq      gap      omega  full diag
   1   -148.0000589 -0.148000E+03  0.243E-02    0.37       0.0  T
   2   -147.9999135  0.145471E-03  0.301E-02    0.38       1.0  T
   3   -147.9997847  0.128765E-03  0.404E-02    0.36       1.0  T
   4   -148.0000482 -0.263552E-03  0.117E-02    0.37       1.0  T
   5   -148.0000570 -0.871639E-05  0.718E-03    0.37       1.5  T
   6   -148.0000666 -0.965465E-05  0.736E-04    0.37      14.3  T
   7   -148.0000666 -0.280891E-07  0.449E-04    0.37      23.5  T
   8   -148.0000667 -0.240807E-07  0.118E-04    0.37      89.3  T
     SCC iter.                  ...        0 min,  0.080 sec
     gradient                   ...        0 min,  0.014 sec
 * total energy  :  -145.3408270 Eh     change       -0.1820274E-04 Eh
   gradient norm :     0.0014962 Eh/α   predicted    -0.1025959E-04 ( -43.64%)
   displ. norm   :     0.0766972 α      lambda       -0.7610477E-05
   maximum displ.:     0.0469198 α      in ANC's #7, #1, #6, ...

........................................................................
.............................. CYCLE   10 ..............................
........................................................................

 iter      E             dE          RMSdq      gap      omega  full diag
   1   -148.0000502 -0.148000E+03  0.104E-02    0.37       0.0  T
   2   -148.0000343  0.159583E-04  0.111E-02    0.37       1.0  T
   3   -147.9999971  0.372008E-04  0.173E-02    0.38       1.0  T
   4   -148.0000506 -0.535209E-04  0.150E-03    0.37       7.0  T
   5   -148.0000508 -0.220894E-06  0.505E-04    0.37      20.9  T
   6   -148.0000509 -0.342655E-07  0.289E-04    0.37      36.5  T
     SCC iter.                  ...        0 min,  0.061 sec
     gradient                   ...        0 min,  0.013 sec
 * total energy  :  -145.3408374 Eh     change       -0.1035205E-04 Eh
   gradient norm :     0.0014853 Eh/α   predicted    -0.3819872E-05 ( -63.10%)
   displ. norm   :     0.1560663 α      lambda       -0.1858347E-04
   maximum displ.:     0.0904487 α      in ANC's #7, #1, #6, ...

........................................................................
.............................. CYCLE   11 ..............................
........................................................................

 iter      E             dE          RMSdq      gap      omega  full diag
   1   -147.9999638 -0.148000E+03  0.197E-02    0.37       0.0  T
   2   -147.9999191  0.447219E-04  0.191E-02    0.37       1.0  T
   3   -147.9997054  0.213656E-03  0.378E-02    0.38       1.0  T
   4   -147.9999619 -0.256480E-03  0.455E-03    0.37       2.3  T
   5   -147.9999650 -0.312072E-05  0.182E-03    0.37       5.8  T
   6   -147.9999656 -0.597466E-06  0.538E-04    0.37      19.6  T
   7   -147.9999657 -0.452694E-07  0.147E-04    0.37      71.6  T
     SCC iter.                  ...        0 min,  0.070 sec
     gradient                   ...        0 min,  0.013 sec
 * total energy  :  -145.3408594 Eh     change       -0.2202441E-04 Eh
   gradient norm :     0.0008736 Eh/α   predicted    -0.9392915E-05 ( -57.35%)
   displ. norm   :     0.2080353 α      lambda       -0.1558222E-04
   maximum displ.:     0.1199238 α      in ANC's #7, #1, #6, ...

........................................................................
.............................. CYCLE   12 ..............................
........................................................................

 iter      E             dE          RMSdq      gap      omega  full diag
   1   -147.9995925 -0.148000E+03  0.249E-02    0.37       0.0  T
   2   -147.9995084  0.840425E-04  0.255E-02    0.36       1.0  T
   3   -147.9992425  0.265918E-03  0.443E-02    0.38       1.0  T
   4   -147.9995868 -0.344276E-03  0.725E-03    0.37       1.5  T
   5   -147.9995941 -0.733198E-05  0.301E-03    0.37       3.5  T
   6   -147.9995959 -0.174145E-05  0.485E-04    0.37      21.7  T
   7   -147.9995959 -0.305088E-07  0.176E-04    0.37      60.1  T
   8   -147.9995959 -0.102415E-08  0.890E-05    0.37     118.5  T
     SCC iter.                  ...        0 min,  0.080 sec
     gradient                   ...        0 min,  0.013 sec
 * total energy  :  -145.3408764 Eh     change       -0.1700464E-04 Eh
   gradient norm :     0.0007902 Eh/α   predicted    -0.7941454E-05 ( -53.30%)
   displ. norm   :     0.1612222 α      lambda       -0.7969735E-05
   maximum displ.:     0.0924494 α      in ANC's #7, #1, #3, ...

........................................................................
.............................. CYCLE   13 ..............................
........................................................................

 iter      E             dE          RMSdq      gap      omega  full diag
   1   -147.9996700 -0.148000E+03  0.181E-02    0.37       0.0  T
   2   -147.9996399  0.301468E-04  0.165E-02    0.37       1.0  T
   3   -147.9994281  0.211788E-03  0.363E-02    0.38       1.0  T
   4   -147.9996706 -0.242462E-03  0.206E-03    0.37       5.1  T
   5   -147.9996712 -0.669137E-06  0.358E-04    0.37      29.4  T
   6   -147.9996712 -0.104820E-07  0.209E-04    0.37      50.4  T
     SCC iter.                  ...        0 min,  0.061 sec
     gradient                   ...        0 min,  0.013 sec
 * total energy  :  -145.3408857 Eh     change       -0.9315574E-05 Eh
   gradient norm :     0.0006873 Eh/α   predicted    -0.4031281E-05 ( -56.73%)
   displ. norm   :     0.1431443 α      lambda       -0.6824449E-05
   maximum displ.:     0.0803709 α      in ANC's #7, #1, #3, ...

........................................................................
.............................. CYCLE   14 ..............................
........................................................................

 iter      E             dE          RMSdq      gap      omega  full diag
   1   -147.9998297 -0.148000E+03  0.156E-02    0.37       0.0  T
   2   -147.9998164  0.132709E-04  0.124E-02    0.37       1.0  T
   3   -147.9995967  0.219723E-03  0.352E-02    0.38       1.0  T
   4   -147.9998300 -0.233307E-03  0.119E-03    0.37       8.8  T
   5   -147.9998301 -0.132512E-06  0.739E-04    0.37      14.3  T
   6   -147.9998302 -0.982753E-07  0.197E-04    0.37      53.5  T
     SCC iter.                  ...        0 min,  0.061 sec
     gradient                   ...        0 min,  0.014 sec
 * total energy  :  -145.3408940 Eh     change       -0.8343678E-05 Eh
   gradient norm :     0.0005003 Eh/α   predicted    -0.3447237E-05 ( -58.68%)
   displ. norm   :     0.1479008 α      lambda       -0.7553698E-05
   maximum displ.:     0.0791993 α      in ANC's #1, #7, #3, ...

........................................................................
.............................. CYCLE   15 ..............................
........................................................................

 iter      E             dE          RMSdq      gap      omega  full diag
   1   -148.0000413 -0.148000E+03  0.170E-02    0.37       0.0  T
   2   -148.0000350  0.629915E-05  0.116E-02    0.37       1.0  T
   3   -147.9997167  0.318320E-03  0.412E-02    0.38       1.0  T
   4   -148.0000397 -0.322978E-03  0.332E-03    0.37       3.2  T
   5   -148.0000413 -0.168030E-05  0.127E-03    0.37       8.3  T
   6   -148.0000416 -0.299188E-06  0.218E-04    0.37      48.3  T
   7   -148.0000416 -0.322618E-08  0.976E-05    0.37     108.0  T
     SCC iter.                  ...        0 min,  0.070 sec
     gradient                   ...        0 min,  0.014 sec
 * total energy  :  -145.3409033 Eh     change       -0.9237198E-05 Eh
   gradient norm :     0.0004681 Eh/α   predicted    -0.3814981E-05 ( -58.70%)
   displ. norm   :     0.1590819 α      lambda       -0.8001731E-05
   maximum displ.:     0.0885163 α      in ANC's #1, #7, #2, ...

........................................................................
.............................. CYCLE   16 ..............................
........................................................................

 iter      E             dE          RMSdq      gap      omega  full diag
   1   -148.0001449 -0.148000E+03  0.201E-02    0.37       0.0  T
   2   -148.0001445  0.352074E-06  0.119E-02    0.37       1.0  T
   3   -148.0000819  0.626386E-04  0.184E-02    0.37       1.0  T
   4   -148.0001403 -0.584001E-04  0.508E-03    0.37       2.1  T
   5   -148.0001442 -0.392897E-05  0.209E-03    0.37       5.1  T
   6   -148.0001451 -0.838214E-06  0.309E-04    0.37      34.1  T
   7   -148.0001451 -0.866450E-08  0.136E-04    0.37      77.5  T
     SCC iter.                  ...        0 min,  0.071 sec
     gradient                   ...        0 min,  0.013 sec
 * total energy  :  -145.3409130 Eh     change       -0.9712190E-05 Eh
   gradient norm :     0.0005942 Eh/α   predicted    -0.4046479E-05 ( -58.34%)
   displ. norm   :     0.1536733 α      lambda       -0.7846590E-05
   maximum displ.:     0.0880215 α      in ANC's #1, #2, #7, ...

........................................................................
.............................. CYCLE   17 ..............................
........................................................................

 iter      E             dE          RMSdq      gap      omega  full diag
   1   -148.0002053 -0.148000E+03  0.214E-02    0.37       0.0  T
   2   -148.0002052  0.280194E-07  0.126E-02    0.37       1.0  T
   3   -148.0001823  0.229703E-04  0.115E-02    0.37       1.0  T
   4   -148.0001953 -0.129961E-04  0.735E-03    0.37       1.4  T
   5   -148.0002047 -0.944757E-05  0.203E-03    0.37       5.2  T
   6   -148.0002055 -0.783270E-06  0.431E-04    0.37      24.4  T
   7   -148.0002055 -0.245204E-07  0.152E-04    0.37      69.5  T
     SCC iter.                  ...        0 min,  0.070 sec
     gradient                   ...        0 min,  0.017 sec
 * total energy  :  -145.3409227 Eh     change       -0.9663373E-05 Eh
   gradient norm :     0.0006053 Eh/α   predicted    -0.3965909E-05 ( -58.96%)
   displ. norm   :     0.1523672 α      lambda       -0.8023466E-05
   maximum displ.:     0.0885779 α      in ANC's #1, #2, #3, ...

........................................................................
.............................. CYCLE   18 ..............................
........................................................................

 iter      E             dE          RMSdq      gap      omega  full diag
   1   -148.0002608 -0.148000E+03  0.232E-02    0.37       0.0  T
   2   -148.0002605  0.329955E-06  0.137E-02    0.37       1.0  T
   3   -148.0001784  0.820891E-04  0.207E-02    0.36       1.0  T
   4   -148.0002528 -0.743702E-04  0.691E-03    0.37       1.5  T
   5   -148.0002610 -0.824178E-05  0.909E-04    0.37      11.6  T
   6   -148.0002611 -0.856341E-07  0.579E-04    0.37      18.2  T
   7   -148.0002612 -0.510905E-07  0.233E-04    0.37      45.2  T
     SCC iter.                  ...        0 min,  0.072 sec
     gradient                   ...        0 min,  0.014 sec
 * total energy  :  -145.3409323 Eh     change       -0.9677037E-05 Eh
   gradient norm :     0.0004674 Eh/α   predicted    -0.4056876E-05 ( -58.08%)
   displ. norm   :     0.1334363 α      lambda       -0.6486070E-05
   maximum displ.:     0.0776889 α      in ANC's #1, #2, #11, ...

........................................................................
.............................. CYCLE   19 ..............................
........................................................................

 iter      E             dE          RMSdq      gap      omega  full diag
   1   -148.0002371 -0.148000E+03  0.213E-02    0.37       0.0  T
   2   -148.0002367  0.401067E-06  0.125E-02    0.37       1.0  T
   3   -148.0001568  0.798421E-04  0.204E-02    0.36       1.0  T
   4   -148.0002305 -0.736396E-04  0.623E-03    0.37       1.7  T
   5   -148.0002366 -0.613588E-05  0.203E-03    0.37       5.2  T
   6   -148.0002373 -0.719789E-06  0.505E-04    0.37      20.9  T
   7   -148.0002374 -0.398037E-07  0.159E-04    0.37      66.3  T
     SCC iter.                  ...        0 min,  0.070 sec
     gradient                   ...        0 min,  0.013 sec
 * total energy  :  -145.3409399 Eh     change       -0.7591982E-05 Eh
   gradient norm :     0.0002945 Eh/α   predicted    -0.3269470E-05 ( -56.94%)
   displ. norm   :     0.0960294 α      lambda       -0.4347075E-05
   maximum displ.:     0.0560126 α      in ANC's #1, #2, #11, ...

........................................................................
.............................. CYCLE   20 ..............................
........................................................................

 iter      E             dE          RMSdq      gap      omega  full diag
   1   -148.0002509 -0.148000E+03  0.149E-02    0.37       0.0  T
   2   -148.0002508  0.106641E-06  0.869E-03    0.37       1.2  T
   3   -148.0002361  0.146678E-04  0.880E-03    0.37       1.2  T
   4   -148.0002471 -0.110171E-04  0.460E-03    0.37       2.3  T
   5   -148.0002504 -0.324648E-05  0.186E-03    0.37       5.7  T
   6   -148.0002510 -0.625929E-06  0.283E-04    0.37      37.3  T
   7   -148.0002510 -0.114232E-07  0.104E-04    0.37     101.8  T
     SCC iter.                  ...        0 min,  0.070 sec
     gradient                   ...        0 min,  0.014 sec
 * total energy  :  -145.3409452 Eh     change       -0.5284061E-05 Eh
   gradient norm :     0.0002760 Eh/α   predicted    -0.2186973E-05 ( -58.61%)
   displ. norm   :     0.0838599 α      lambda       -0.4289914E-05
   maximum displ.:     0.0488244 α      in ANC's #1, #2, #3, ...
 * RMSD in coord.:     0.1953366 α      energy gain  -0.3667154E-02 Eh

generating ANC from exact Hessian ...
Using Lindh-Hessian (1995)
 Shifting diagonal of input Hessian by   9.953642036241940E-003
 Lowest  eigenvalues of input Hessian
    0.000000    0.000000    0.000000    0.000000    0.000000    0.000000
    0.010000    0.010057    0.010078    0.010228    0.010241    0.010350
    0.010478    0.010931    0.011142    0.011886    0.012007    0.012610
 Highest eigenvalues
    2.187303    2.198579    2.199367    2.234953    2.242018    2.301384
 

........................................................................
.............................. CYCLE   21 ..............................
........................................................................

 iter      E             dE          RMSdq      gap      omega  full diag
   1   -148.0002549 -0.148000E+03  0.116E-02    0.37       0.0  T
   2   -148.0002547  0.162558E-06  0.680E-03    0.37       1.5  T
   3   -148.0002435  0.112468E-04  0.772E-03    0.37       1.4  T
   4   -148.0002547 -0.112864E-04  0.110E-03    0.37       9.6  T
   5   -148.0002545  0.220685E-06  0.147E-03    0.37       7.2  T
   6   -148.0002549 -0.414051E-06  0.141E-04    0.37      74.7  T
   7   -148.0002549 -0.110930E-08  0.774E-05    0.37     136.1  T
     SCC iter.                  ...        0 min,  0.070 sec
     gradient                   ...        0 min,  0.014 sec
 * total energy  :  -145.3409508 Eh     change       -0.5546273E-05 Eh
   gradient norm :     0.0003578 Eh/α   predicted     0.0000000E+00 (-100.00%)
   displ. norm   :     0.0191644 α      lambda       -0.2001870E-05
   maximum displ.:     0.0090951 α      in ANC's #1, #11, #7, ...

........................................................................
.............................. CYCLE   22 ..............................
........................................................................

 iter      E             dE          RMSdq      gap      omega  full diag
   1   -148.0002834 -0.148000E+03  0.311E-03    0.37       0.0  T
   2   -148.0002832  0.190405E-06  0.211E-03    0.37       5.0  T
   3   -148.0002746  0.861338E-05  0.676E-03    0.37       1.6  T
   4   -148.0002832 -0.863546E-05  0.119E-03    0.37       8.9  T
   5   -148.0002834 -0.176991E-06  0.296E-04    0.37      35.6  T
   6   -148.0002834 -0.121619E-07  0.150E-04    0.37      70.1  T
     SCC iter.                  ...        0 min,  0.061 sec
     gradient                   ...        0 min,  0.013 sec
 * total energy  :  -145.3409536 Eh     change       -0.2829923E-05 Eh
   gradient norm :     0.0002261 Eh/α   predicted    -0.1021908E-05 ( -63.89%)
   displ. norm   :     0.1085186 α      lambda       -0.9893870E-05
   maximum displ.:     0.0506504 α      in ANC's #11, #1, #7, ...

........................................................................
.............................. CYCLE   23 ..............................
........................................................................

 iter      E             dE          RMSdq      gap      omega  full diag
   1   -148.0003173 -0.148000E+03  0.175E-02    0.37       0.0  T
   2   -148.0003167  0.624312E-06  0.104E-02    0.37       1.0  T
   3   -148.0002362  0.804716E-04  0.206E-02    0.37       1.0  T
   4   -148.0003010 -0.648398E-04  0.984E-03    0.37       1.1  T
   5   -148.0003164 -0.153225E-04  0.281E-03    0.37       3.8  T
   6   -148.0003177 -0.133725E-05  0.733E-04    0.37      14.4  T
   7   -148.0003178 -0.929902E-07  0.214E-04    0.37      49.2  T
   8   -148.0003178 -0.367584E-08  0.886E-05    0.37     119.0  T
     SCC iter.                  ...        0 min,  0.080 sec
     gradient                   ...        0 min,  0.014 sec
 * total energy  :  -145.3409641 Eh     change       -0.1055042E-04 Eh
   gradient norm :     0.0005822 Eh/α   predicted    -0.4975468E-05 ( -52.84%)
   displ. norm   :     0.1014398 α      lambda       -0.5522990E-05
   maximum displ.:     0.0494701 α      in ANC's #1, #11, #7, ...

........................................................................
.............................. CYCLE   24 ..............................
........................................................................

 iter      E             dE          RMSdq      gap      omega  full diag
   1   -148.0002474 -0.148000E+03  0.154E-02    0.37       0.0  T
   2   -148.0002444  0.301239E-05  0.991E-03    0.37       1.1  T
   3   -148.0000184  0.225986E-03  0.344E-02    0.38       1.0  T
   4   -148.0002466 -0.228169E-03  0.313E-03    0.37       3.4  T
   5   -148.0002476 -0.105502E-05  0.759E-04    0.37      13.9  T
   6   -148.0002477 -0.498205E-07  0.589E-04    0.37      17.9  T
   7   -148.0002477 -0.566993E-07  0.137E-04    0.37      76.8  T
     SCC iter.                  ...        0 min,  0.070 sec
     gradient                   ...        0 min,  0.014 sec
 * total energy  :  -145.3409699 Eh     change       -0.5732695E-05 Eh
   gradient norm :     0.0007163 Eh/α   predicted    -0.2782923E-05 ( -51.46%)
   displ. norm   :     0.0731586 α      lambda       -0.3258317E-05
   maximum displ.:     0.0388137 α      in ANC's #1, #7, #11, ...

........................................................................
.............................. CYCLE   25 ..............................
........................................................................

 iter      E             dE          RMSdq      gap      omega  full diag
   1   -148.0002011 -0.148000E+03  0.104E-02    0.37       0.0  T
   2   -148.0001995  0.156766E-05  0.677E-03    0.37       1.6  T
   3   -148.0000906  0.108922E-03  0.240E-02    0.38       1.0  T
   4   -148.0002005 -0.109922E-03  0.202E-03    0.37       5.2  T
   5   -148.0002010 -0.494638E-06  0.977E-04    0.37      10.8  T
   6   -148.0002012 -0.188012E-06  0.165E-04    0.37      64.0  T
     SCC iter.                  ...        0 min,  0.060 sec
     gradient                   ...        0 min,  0.013 sec
 * total energy  :  -145.3409738 Eh     change       -0.3915308E-05 Eh
   gradient norm :     0.0005119 Eh/α   predicted    -0.1667876E-05 ( -57.40%)
   displ. norm   :     0.0666864 α      lambda       -0.3392357E-05
   maximum displ.:     0.0388553 α      in ANC's #1, #7, #2, ...

........................................................................
.............................. CYCLE   26 ..............................
........................................................................

 iter      E             dE          RMSdq      gap      omega  full diag
   1   -148.0001494 -0.148000E+03  0.894E-03    0.37       0.0  T
   2   -148.0001488  0.574239E-06  0.557E-03    0.37       1.9  T
   3   -148.0001036  0.452593E-04  0.154E-02    0.37       1.0  T
   4   -148.0001461 -0.425601E-04  0.457E-03    0.37       2.3  T
   5   -148.0001490 -0.290106E-05  0.161E-03    0.37       6.6  T
   6   -148.0001495 -0.490526E-06  0.224E-04    0.37      47.0  T
   7   -148.0001495 -0.714243E-08  0.774E-05    0.37     136.2  T
     SCC iter.                  ...        0 min,  0.070 sec
     gradient                   ...        0 min,  0.014 sec
 * total energy  :  -145.3409777 Eh     change       -0.3911332E-05 Eh
   gradient norm :     0.0002042 Eh/α   predicted    -0.1703995E-05 ( -56.43%)
   displ. norm   :     0.0585720 α      lambda       -0.2556293E-05
   maximum displ.:     0.0365855 α      in ANC's #1, #2, #7, ...

........................................................................
.............................. CYCLE   27 ..............................
........................................................................

 iter      E             dE          RMSdq      gap      omega  full diag
   1   -148.0000681 -0.148000E+03  0.778E-03    0.37       0.0  T
   2   -148.0000659  0.222642E-05  0.572E-03    0.37       1.8  T
   3   -148.0000079  0.579878E-04  0.177E-02    0.36       1.0  T
   4   -148.0000676 -0.597469E-04  0.241E-03    0.37       4.4  T
   5   -148.0000681 -0.444624E-06  0.982E-04    0.37      10.7  T
   6   -148.0000683 -0.173574E-06  0.265E-04    0.37      39.8  T
     SCC iter.                  ...        0 min,  0.061 sec
     gradient                   ...        0 min,  0.014 sec
 * total energy  :  -145.3409807 Eh     change       -0.2986198E-05 Eh
   gradient norm :     0.0003480 Eh/α   predicted    -0.1282364E-05 ( -57.06%)
   displ. norm   :     0.0533796 α      lambda       -0.2200644E-05
   maximum displ.:     0.0341073 α      in ANC's #1, #2, #7, ...

........................................................................
.............................. CYCLE   28 ..............................
........................................................................

 iter      E             dE          RMSdq      gap      omega  full diag
   1   -148.0000413 -0.148000E+03  0.744E-03    0.37       0.0  T
   2   -148.0000405  0.823194E-06  0.483E-03    0.37       2.2  T
   3   -147.9999949  0.455957E-04  0.156E-02    0.37       1.0  T
   4   -148.0000390 -0.441126E-04  0.373E-03    0.37       2.8  T
   5   -148.0000412 -0.218704E-05  0.108E-03    0.37       9.7  T
   6   -148.0000414 -0.201991E-06  0.184E-04    0.37      57.3  T
   7   -148.0000414 -0.574636E-08  0.472E-05    0.37     223.4  T
     SCC iter.                  ...        0 min,  0.072 sec
     gradient                   ...        0 min,  0.015 sec
 * total energy  :  -145.3409836 Eh     change       -0.2872007E-05 Eh
   gradient norm :     0.0005043 Eh/α   predicted    -0.1106418E-05 ( -61.48%)
   displ. norm   :     0.0694737 α      lambda       -0.3046889E-05
   maximum displ.:     0.0436904 α      in ANC's #1, #2, #7, ...

........................................................................
.............................. CYCLE   29 ..............................
........................................................................

 iter      E             dE          RMSdq      gap      omega  full diag
   1   -148.0000588 -0.148000E+03  0.101E-02    0.37       0.0  T
   2   -148.0000540  0.482086E-05  0.781E-03    0.37       1.4  T
   3   -147.9999564  0.975488E-04  0.233E-02    0.36       1.0  T
   4   -148.0000586 -0.102229E-03  0.149E-03    0.37       7.1  T
   5   -148.0000589 -0.222221E-06  0.855E-04    0.37      12.3  T
   6   -148.0000590 -0.128443E-06  0.195E-04    0.37      54.0  T
     SCC iter.                  ...        0 min,  0.060 sec
     gradient                   ...        0 min,  0.014 sec
 * total energy  :  -145.3409876 Eh     change       -0.4039641E-05 Eh
   gradient norm :     0.0005008 Eh/α   predicted    -0.1528095E-05 ( -62.17%)
   displ. norm   :     0.1028620 α      lambda       -0.4432176E-05
   maximum displ.:     0.0649295 α      in ANC's #1, #2, #6, ...

........................................................................
.............................. CYCLE   30 ..............................
........................................................................

 iter      E             dE          RMSdq      gap      omega  full diag
   1   -148.0000818 -0.148000E+03  0.149E-02    0.37       0.0  T
   2   -148.0000814  0.482548E-06  0.885E-03    0.37       1.2  T
   3   -148.0000214  0.599792E-04  0.179E-02    0.37       1.0  T
   4   -148.0000780 -0.566565E-04  0.442E-03    0.37       2.4  T
   5   -148.0000819 -0.384148E-05  0.711E-04    0.37      14.8  T
   6   -148.0000820 -0.677321E-07  0.155E-04    0.37      68.1  T
   7   -148.0000820 -0.829061E-09  0.935E-05    0.37     112.7  T
     SCC iter.                  ...        0 min,  0.070 sec
     gradient                   ...        0 min,  0.013 sec
 * total energy  :  -145.3409932 Eh     change       -0.5562161E-05 Eh
   gradient norm :     0.0003579 Eh/α   predicted    -0.2227025E-05 ( -59.96%)
   displ. norm   :     0.1147142 α      lambda       -0.4122783E-05
   maximum displ.:     0.0737913 α      in ANC's #1, #2, #3, ...

........................................................................
.............................. CYCLE   31 ..............................
........................................................................

 iter      E             dE          RMSdq      gap      omega  full diag
   1   -148.0001631 -0.148000E+03  0.162E-02    0.37       0.0  T
   2   -148.0001630  0.722871E-07  0.954E-03    0.37       1.1  T
   3   -148.0001413  0.216449E-04  0.110E-02    0.37       1.0  T
   4   -148.0001599 -0.185463E-04  0.408E-03    0.37       2.6  T
   5   -148.0001632 -0.325895E-05  0.310E-04    0.37      34.0  T
   6   -148.0001632 -0.183223E-08  0.241E-04    0.37      43.7  T
   7   -148.0001632 -0.591149E-08  0.152E-04    0.37      69.4  T
     SCC iter.                  ...        0 min,  0.069 sec
     gradient                   ...        0 min,  0.014 sec
 * total energy  :  -145.3409981 Eh     change       -0.4927337E-05 Eh
   gradient norm :     0.0002150 Eh/α   predicted    -0.2075776E-05 ( -57.87%)
   displ. norm   :     0.0855746 α      lambda       -0.2540667E-05
   maximum displ.:     0.0566388 α      in ANC's #1, #2, #3, ...

........................................................................
.............................. CYCLE   32 ..............................
........................................................................

 iter      E             dE          RMSdq      gap      omega  full diag
   1   -148.0002404 -0.148000E+03  0.117E-02    0.37       0.0  T
   2   -148.0002402  0.157219E-06  0.694E-03    0.37       1.5  T
   3   -148.0002098  0.304635E-04  0.125E-02    0.37       1.0  T
   4   -148.0002399 -0.300983E-04  0.205E-03    0.37       5.1  T
   5   -148.0002404 -0.497663E-06  0.670E-04    0.37      15.7  T
   6   -148.0002404 -0.799427E-07  0.139E-04    0.37      75.8  T
     SCC iter.                  ...        0 min,  0.060 sec
     gradient                   ...        0 min,  0.014 sec
 * total energy  :  -145.3410012 Eh     change       -0.3145886E-05 Eh
   gradient norm :     0.0002225 Eh/α   predicted    -0.1276332E-05 ( -59.43%)
   displ. norm   :     0.0582332 α      lambda       -0.1802020E-05
   maximum displ.:     0.0397787 α      in ANC's #1, #2, #3, ...

........................................................................
.............................. CYCLE   33 ..............................
........................................................................

 iter      E             dE          RMSdq      gap      omega  full diag
   1   -148.0002967 -0.148000E+03  0.768E-03    0.37       0.0  T
   2   -148.0002957  0.956430E-06  0.509E-03    0.37       2.1  T
   3   -148.0002335  0.622142E-04  0.181E-02    0.37       1.0  T
   4   -148.0002960 -0.624866E-04  0.208E-03    0.37       5.1  T
   5   -148.0002967 -0.673827E-06  0.610E-04    0.37      17.3  T
   6   -148.0002967 -0.684918E-07  0.990E-05    0.37     106.5  T
     SCC iter.                  ...        0 min,  0.061 sec
     gradient                   ...        0 min,  0.014 sec
 * total energy  :  -145.3410036 Eh     change       -0.2351583E-05 Eh
   gradient norm :     0.0002424 Eh/α   predicted    -0.9049014E-06 ( -61.52%)
   displ. norm   :     0.0508917 α      lambda       -0.1755739E-05
   maximum displ.:     0.0353409 α      in ANC's #1, #2, #3, ...

........................................................................
.............................. CYCLE   34 ..............................
........................................................................

 iter      E             dE          RMSdq      gap      omega  full diag
   1   -148.0003030 -0.148000E+03  0.648E-03    0.37       0.0  T
   2   -148.0003025  0.523703E-06  0.420E-03    0.37       2.5  T
   3   -148.0002659  0.365263E-04  0.139E-02    0.37       1.0  T
   4   -148.0003016 -0.356407E-04  0.276E-03    0.37       3.8  T
   5   -148.0003030 -0.143162E-05  0.327E-04    0.37      32.3  T
   6   -148.0003030 -0.179276E-07  0.816E-05    0.37     129.2  T
   7   -148.0003030 -0.416833E-09  0.399E-05    0.37     264.2  T
     SCC iter.                  ...        0 min,  0.070 sec
     gradient                   ...        0 min,  0.013 sec
 * total energy  :  -145.3410059 Eh     change       -0.2290518E-05 Eh
   gradient norm :     0.0002146 Eh/α   predicted    -0.8796878E-06 ( -61.59%)
   displ. norm   :     0.0536812 α      lambda       -0.1750610E-05
   maximum displ.:     0.0376070 α      in ANC's #1, #2, #3, ...

........................................................................
.............................. CYCLE   35 ..............................
........................................................................

 iter      E             dE          RMSdq      gap      omega  full diag
   1   -148.0002668 -0.148000E+03  0.648E-03    0.37       0.0  T
   2   -148.0002663  0.461389E-06  0.415E-03    0.37       2.5  T
   3   -148.0002285  0.378195E-04  0.142E-02    0.37       1.0  T
   4   -148.0002662 -0.376602E-04  0.184E-03    0.37       5.7  T
   5   -148.0002668 -0.614948E-06  0.484E-04    0.37      21.8  T
   6   -148.0002668 -0.397894E-07  0.781E-05    0.37     135.0  T
     SCC iter.                  ...        0 min,  0.060 sec
     gradient                   ...        0 min,  0.014 sec
 * total energy  :  -145.3410082 Eh     change       -0.2319244E-05 Eh
   gradient norm :     0.0001620 Eh/α   predicted    -0.8799437E-06 ( -62.06%)
   displ. norm   :     0.0528570 α      lambda       -0.1643654E-05
   maximum displ.:     0.0372495 α      in ANC's #1, #2, #3, ...

........................................................................
.............................. CYCLE   36 ..............................
........................................................................

 iter      E             dE          RMSdq      gap      omega  full diag
   1   -148.0002440 -0.148000E+03  0.588E-03    0.37       0.0  T
   2   -148.0002438  0.117190E-06  0.356E-03    0.37       3.0  T
   3   -148.0002289  0.149146E-04  0.898E-03    0.37       1.2  T
   4   -148.0002433 -0.143937E-04  0.183E-03    0.37       5.8  T
   5   -148.0002439 -0.587203E-06  0.637E-04    0.37      16.5  T
   6   -148.0002440 -0.722488E-07  0.795E-05    0.37     132.6  T
     SCC iter.                  ...        0 min,  0.060 sec
     gradient                   ...        0 min,  0.014 sec
 * total energy  :  -145.3410104 Eh     change       -0.2225077E-05 Eh
   gradient norm :     0.0001386 Eh/α   predicted    -0.8242847E-06 ( -62.95%)
   displ. norm   :     0.0573638 α      lambda       -0.1835206E-05
   maximum displ.:     0.0402583 α      in ANC's #1, #2, #3, ...

........................................................................
.............................. CYCLE   37 ..............................
........................................................................

 iter      E             dE          RMSdq      gap      omega  full diag
   1   -148.0002149 -0.148000E+03  0.610E-03    0.37       0.0  T
   2   -148.0002149 -0.200413E-08  0.358E-03    0.37       2.9  T
   3   -148.0002142  0.684240E-06  0.223E-03    0.37       4.7  T
   4   -148.0002138  0.387528E-06  0.235E-03    0.37       4.5  T
   5   -148.0002149 -0.107852E-05  0.239E-04    0.37      44.1  T
   6   -148.0002149 -0.783845E-08  0.117E-04    0.37      89.7  T
   7   -148.0002149 -0.200359E-08  0.444E-05    0.37     237.2  T
     SCC iter.                  ...        0 min,  0.069 sec
     gradient                   ...        0 min,  0.014 sec
 * total energy  :  -145.3410130 Eh     change       -0.2551667E-05 Eh
   gradient norm :     0.0001645 Eh/α   predicted    -0.9200910E-06 ( -63.94%)
   displ. norm   :     0.0750114 α      lambda       -0.2521678E-05
   maximum displ.:     0.0521536 α      in ANC's #1, #2, #3, ...

........................................................................
.............................. CYCLE   38 ..............................
........................................................................

 iter      E             dE          RMSdq      gap      omega  full diag
   1   -148.0001934 -0.148000E+03  0.794E-03    0.37       0.0  T
   2   -148.0001934  0.135004E-07  0.467E-03    0.37       2.3  T
   3   -148.0001917  0.162560E-05  0.319E-03    0.37       3.3  T
   4   -148.0001931 -0.140636E-05  0.119E-03    0.37       8.8  T
   5   -148.0001934 -0.259318E-06  0.179E-04    0.37      58.9  T
   6   -148.0001934  0.124375E-07  0.307E-04    0.37      34.3  T
     SCC iter.                  ...        0 min,  0.060 sec
     gradient                   ...        0 min,  0.014 sec
 * total energy  :  -145.3410165 Eh     change       -0.3483907E-05 Eh
   gradient norm :     0.0002335 Eh/α   predicted    -0.1267087E-05 ( -63.63%)
   displ. norm   :     0.1075625 α      lambda       -0.3550445E-05
   maximum displ.:     0.0742195 α      in ANC's #1, #2, #3, ...

........................................................................
.............................. CYCLE   39 ..............................
........................................................................

 iter      E             dE          RMSdq      gap      omega  full diag
   1   -148.0002003 -0.148000E+03  0.115E-02    0.37       0.0  T
   2   -148.0001992  0.110808E-05  0.713E-03    0.37       1.5  T
   3   -148.0000827  0.116535E-03  0.247E-02    0.36       1.0  T
   4   -148.0002000 -0.117293E-03  0.166E-03    0.37       6.3  T
   5   -148.0002003 -0.295717E-06  0.847E-04    0.37      12.4  T
   6   -148.0002004 -0.131490E-06  0.185E-04    0.37      57.1  T
     SCC iter.                  ...        0 min,  0.061 sec
     gradient                   ...        0 min,  0.014 sec
 * total energy  :  -145.3410213 Eh     change       -0.4824160E-05 Eh
   gradient norm :     0.0002583 Eh/α   predicted    -0.1785327E-05 ( -62.99%)
   displ. norm   :     0.1435230 α      lambda       -0.4240818E-05
   maximum displ.:     0.0991745 α      in ANC's #1, #2, #3, ...

........................................................................
.............................. CYCLE   40 ..............................
........................................................................

 iter      E             dE          RMSdq      gap      omega  full diag
   1   -148.0001615 -0.148000E+03  0.153E-02    0.37       0.0  T
   2   -148.0001506  0.109314E-04  0.118E-02    0.37       1.0  T
   3   -147.9999306  0.220023E-03  0.349E-02    0.38       1.0  T
   4   -148.0001611 -0.230566E-03  0.225E-03    0.37       4.7  T
   5   -148.0001618 -0.660902E-06  0.104E-03    0.37      10.1  T
   6   -148.0001620 -0.191572E-06  0.259E-04    0.37      40.7  T
   7   -148.0001620 -0.898763E-08  0.822E-05    0.37     128.2  T
     SCC iter.                  ...        0 min,  0.069 sec
     gradient                   ...        0 min,  0.014 sec
 * total energy  :  -145.3410268 Eh     change       -0.5520701E-05 Eh
   gradient norm :     0.0002394 Eh/α   predicted    -0.2140830E-05 ( -61.22%)
   displ. norm   :     0.1402068 α      lambda       -0.3429060E-05
   maximum displ.:     0.0976901 α      in ANC's #1, #2, #3, ...

........................................................................
.............................. CYCLE   41 ..............................
........................................................................

 iter      E             dE          RMSdq      gap      omega  full diag
   1   -148.0002219 -0.148000E+03  0.148E-02    0.37       0.0  T
   2   -148.0002174  0.457260E-05  0.998E-03    0.37       1.1  T
   3   -147.9999716  0.245728E-03  0.361E-02    0.38       1.0  T
   4   -148.0002221 -0.250452E-03  0.878E-04    0.37      12.0  T
   5   -148.0002221 -0.521150E-07  0.398E-04    0.37      26.5  T
   6   -148.0002222 -0.155797E-07  0.253E-04    0.37      41.6  T
     SCC iter.                  ...        0 min,  0.061 sec
     gradient                   ...        0 min,  0.014 sec
 * total energy  :  -145.3410312 Eh     change       -0.4389627E-05 Eh
   gradient norm :     0.0002110 Eh/α   predicted    -0.1730473E-05 ( -60.58%)
   displ. norm   :     0.1031313 α      lambda       -0.2168290E-05
   maximum displ.:     0.0728474 α      in ANC's #1, #2, #7, ...

........................................................................
.............................. CYCLE   42 ..............................
........................................................................

 iter      E             dE          RMSdq      gap      omega  full diag
   1   -148.0002823 -0.148000E+03  0.108E-02    0.37       0.0  T
   2   -148.0002790  0.332774E-05  0.765E-03    0.37       1.4  T
   3   -148.0001537  0.125278E-03  0.259E-02    0.38       1.0  T
   4   -148.0002811 -0.127455E-03  0.274E-03    0.37       3.8  T
   5   -148.0002823 -0.119529E-05  0.820E-04    0.37      12.9  T
   6   -148.0002825 -0.129797E-06  0.128E-04    0.37      82.2  T
   7   -148.0002825 -0.104993E-08  0.684E-05    0.37     154.1  T
     SCC iter.                  ...        0 min,  0.069 sec
     gradient                   ...        0 min,  0.014 sec
 * total energy  :  -145.3410341 Eh     change       -0.2868742E-05 Eh
   gradient norm :     0.0001499 Eh/α   predicted    -0.1092245E-05 ( -61.93%)
   displ. norm   :     0.0648559 α      lambda       -0.1347368E-05
   maximum displ.:     0.0466563 α      in ANC's #1, #2, #7, ...
 * RMSD in coord.:     0.1591226 α      energy gain  -0.8884441E-04 Eh

generating ANC from exact Hessian ...
Using Lindh-Hessian (1995)
 Shifting diagonal of input Hessian by   9.953603462946206E-003
 Lowest  eigenvalues of input Hessian
    0.000000    0.000000    0.000000    0.000000    0.000000    0.000000
    0.010000    0.010057    0.010078    0.010226    0.010248    0.010351
    0.010478    0.010934    0.011141    0.011908    0.012013    0.012603
 Highest eigenvalues
    2.187056    2.198229    2.199013    2.234387    2.241860    2.301000
 

........................................................................
.............................. CYCLE   43 ..............................
........................................................................

 iter      E             dE          RMSdq      gap      omega  full diag
   1   -148.0003303 -0.148000E+03  0.702E-03    0.37       0.0  T
   2   -148.0003283  0.193932E-05  0.523E-03    0.37       2.0  T
   3   -148.0002773  0.510165E-04  0.167E-02    0.37       1.0  T
   4   -148.0003302 -0.528590E-04  0.109E-03    0.37       9.7  T
   5   -148.0003303 -0.120665E-06  0.585E-04    0.37      18.0  T
   6   -148.0003304 -0.666239E-07  0.820E-05    0.37     128.5  T
     SCC iter.                  ...        0 min,  0.061 sec
     gradient                   ...        0 min,  0.014 sec
 * total energy  :  -145.3410359 Eh     change       -0.1805878E-05 Eh
   gradient norm :     0.0001041 Eh/α   predicted     0.0000000E+00 (-100.00%)
   displ. norm   :     0.0083319 α      lambda       -0.1631880E-07
   maximum displ.:     0.0062607 α      in ANC's #1, #8, #10, ...

........................................................................
.............................. CYCLE   44 ..............................
........................................................................

 iter      E             dE          RMSdq      gap      omega  full diag
   1   -148.0003423 -0.148000E+03  0.131E-03    0.37       0.0  T
   2   -148.0003423  0.582636E-07  0.957E-04    0.37      11.0  T
   3   -148.0003414  0.875247E-06  0.226E-03    0.37       4.7  T
   4   -148.0003420 -0.591178E-06  0.136E-03    0.37       7.7  T
   5   -148.0003423 -0.345512E-06  0.133E-04    0.37      79.5  T
     SCC iter.                  ...        0 min,  0.050 sec
     gradient                   ...        0 min,  0.014 sec
 * total energy  :  -145.3410364 Eh     change       -0.5059135E-06 Eh
   gradient norm :     0.0000757 Eh/α   predicted    -0.1843246E-06 ( -63.57%)
   displ. norm   :     0.0259773 α      lambda       -0.9988692E-06
   maximum displ.:     0.0167513 α      in ANC's #1, #8, #10, ...

........................................................................
.............................. CYCLE   45 ..............................
........................................................................

 iter      E             dE          RMSdq      gap      omega  full diag
   1   -148.0003406 -0.148000E+03  0.432E-03    0.37       0.0  T
   2   -148.0003401  0.503235E-06  0.301E-03    0.37       3.5  T
   3   -148.0003233  0.167686E-04  0.954E-03    0.37       1.1  T
   4   -148.0003395 -0.161837E-04  0.249E-03    0.37       4.2  T
   5   -148.0003406 -0.109350E-05  0.399E-04    0.37      26.4  T
   6   -148.0003406 -0.316421E-07  0.488E-05    0.37     216.1  T
   7   -148.0003406 -0.122355E-09  0.253E-05    0.37     416.9  T
     SCC iter.                  ...        0 min,  0.070 sec
     gradient                   ...        0 min,  0.014 sec
 * total energy  :  -145.3410376 Eh     change       -0.1261689E-05 Eh
   gradient norm :     0.0001132 Eh/α   predicted    -0.4997538E-06 ( -60.39%)
   displ. norm   :     0.0361512 α      lambda       -0.1012338E-05
   maximum displ.:     0.0239502 α      in ANC's #1, #8, #10, ...

........................................................................
.............................. CYCLE   46 ..............................
........................................................................

 iter      E             dE          RMSdq      gap      omega  full diag
   1   -148.0003126 -0.148000E+03  0.554E-03    0.37       0.0  T
   2   -148.0003119  0.654103E-06  0.380E-03    0.37       2.8  T
   3   -148.0002982  0.137432E-04  0.880E-03    0.37       1.2  T
   4   -148.0003068 -0.861652E-05  0.550E-03    0.37       1.9  T
   5   -148.0003126 -0.584092E-05  0.329E-04    0.37      32.0  T
   6   -148.0003126 -0.219088E-07  0.648E-05    0.37     162.6  T
   7   -148.0003126 -0.211628E-09  0.342E-05    0.37     307.8  T
     SCC iter.                  ...        0 min,  0.071 sec
     gradient                   ...        0 min,  0.013 sec
 * total energy  :  -145.3410388 Eh     change       -0.1184290E-05 Eh
   gradient norm :     0.0001149 Eh/α   predicted    -0.5076826E-06 ( -57.13%)
   displ. norm   :     0.0268710 α      lambda       -0.5699840E-06
   maximum displ.:     0.0189622 α      in ANC's #1, #8, #3, ...

........................................................................
.............................. CYCLE   47 ..............................
........................................................................

 iter      E             dE          RMSdq      gap      omega  full diag
   1   -148.0003203 -0.148000E+03  0.346E-03    0.37       0.0  T
   2   -148.0003199  0.334471E-06  0.245E-03    0.37       4.3  T
   3   -148.0003130  0.694222E-05  0.622E-03    0.37       1.7  T
   4   -148.0003181 -0.511780E-05  0.340E-03    0.37       3.1  T
   5   -148.0003203 -0.218437E-05  0.214E-04    0.37      49.3  T
   6   -148.0003203 -0.858523E-08  0.470E-05    0.37     224.4  T
   7   -148.0003203 -0.207109E-09  0.231E-05    0.37     455.6  T
     SCC iter.                  ...        0 min,  0.071 sec
     gradient                   ...        0 min,  0.014 sec
 * total energy  :  -145.3410396 Eh     change       -0.7517498E-06 Eh
   gradient norm :     0.0001139 Eh/α   predicted    -0.2868212E-06 ( -61.85%)
   displ. norm   :     0.0208571 α      lambda       -0.5101721E-06
   maximum displ.:     0.0151163 α      in ANC's #1, #8, #3, ...

........................................................................
.............................. CYCLE   48 ..............................
........................................................................

 iter      E             dE          RMSdq      gap      omega  full diag
   1   -148.0003335 -0.148000E+03  0.219E-03    0.37       0.0  T
   2   -148.0003333  0.194282E-06  0.164E-03    0.37       6.4  T
   3   -148.0003293  0.400127E-05  0.470E-03    0.37       2.2  T
   4   -148.0003332 -0.386210E-05  0.139E-03    0.37       7.6  T
   5   -148.0003335 -0.337527E-06  0.233E-04    0.37      45.3  T
   6   -148.0003335 -0.854524E-08  0.547E-05    0.37     192.6  T
     SCC iter.                  ...        0 min,  0.060 sec
     gradient                   ...        0 min,  0.014 sec
 * total energy  :  -145.3410403 Eh     change       -0.7235275E-06 Eh
   gradient norm :     0.0000951 Eh/α   predicted    -0.2562879E-06 ( -64.58%)
   displ. norm   :     0.0260538 α      lambda       -0.7208245E-06
   maximum displ.:     0.0185731 α      in ANC's #1, #8, #3, ...

........................................................................
.............................. CYCLE   49 ..............................
........................................................................

 iter      E             dE          RMSdq      gap      omega  full diag
   1   -148.0003479 -0.148000E+03  0.268E-03    0.37       0.0  T
   2   -148.0003479  0.293491E-08  0.157E-03    0.37       6.7  T
   3   -148.0003475  0.385151E-06  0.146E-03    0.37       7.2  T
   4   -148.0003477 -0.173676E-06  0.109E-03    0.37       9.6  T
   5   -148.0003479 -0.199219E-06  0.323E-04    0.37      32.7  T
   6   -148.0003479 -0.192640E-07  0.624E-05    0.37     169.0  T
     SCC iter.                  ...        0 min,  0.060 sec
     gradient                   ...        0 min,  0.014 sec
 * total energy  :  -145.3410413 Eh     change       -0.1000476E-05 Eh
   gradient norm :     0.0000723 Eh/α   predicted    -0.3653128E-06 ( -63.49%)
   displ. norm   :     0.0352354 α      lambda       -0.9098146E-06
   maximum displ.:     0.0251550 α      in ANC's #1, #3, #8, ...

........................................................................
.............................. CYCLE   50 ..............................
........................................................................

 iter      E             dE          RMSdq      gap      omega  full diag
   1   -148.0003734 -0.148000E+03  0.374E-03    0.37       0.0  T
   2   -148.0003734  0.204270E-07  0.222E-03    0.37       4.7  T
   3   -148.0003699  0.346457E-05  0.421E-03    0.37       2.5  T
   4   -148.0003733 -0.337796E-05  0.867E-04    0.37      12.2  T
   5   -148.0003734 -0.979687E-07  0.297E-04    0.37      35.5  T
   6   -148.0003734 -0.155333E-07  0.651E-05    0.37     161.8  T
     SCC iter.                  ...        0 min,  0.060 sec
     gradient                   ...        0 min,  0.014 sec
 * total energy  :  -145.3410425 Eh     change       -0.1181750E-05 Eh
   gradient norm :     0.0000729 Eh/α   predicted    -0.4555077E-06 ( -61.45%)
   displ. norm   :     0.0339885 α      lambda       -0.7328698E-06
   maximum displ.:     0.0247200 α      in ANC's #1, #3, #8, ...

........................................................................
.............................. CYCLE   51 ..............................
........................................................................

 iter      E             dE          RMSdq      gap      omega  full diag
   1   -148.0003916 -0.148000E+03  0.353E-03    0.37       0.0  T
   2   -148.0003916  0.374849E-07  0.212E-03    0.37       5.0  T
   3   -148.0003861  0.551519E-05  0.533E-03    0.37       2.0  T
   4   -148.0003915 -0.547979E-05  0.692E-04    0.37      15.2  T
   5   -148.0003916 -0.681736E-07  0.236E-04    0.37      44.8  T
   6   -148.0003916 -0.100657E-07  0.438E-05    0.37     240.8  T
     SCC iter.                  ...        0 min,  0.060 sec
     gradient                   ...        0 min,  0.013 sec
 * total energy  :  -145.3410434 Eh     change       -0.9655560E-06 Eh
   gradient norm :     0.0000903 Eh/α   predicted    -0.3701999E-06 ( -61.66%)
   displ. norm   :     0.0273615 α      lambda       -0.5614306E-06
   maximum displ.:     0.0203057 α      in ANC's #1, #3, #8, ...

........................................................................
.............................. CYCLE   52 ..............................
........................................................................

 iter      E             dE          RMSdq      gap      omega  full diag
   1   -148.0004038 -0.148000E+03  0.280E-03    0.37       0.0  T
   2   -148.0004038  0.294982E-07  0.169E-03    0.37       6.2  T
   3   -148.0003995  0.424264E-05  0.470E-03    0.37       2.2  T
   4   -148.0004038 -0.424068E-05  0.453E-04    0.37      23.3  T
   5   -148.0004038 -0.312720E-07  0.132E-04    0.37      79.8  T
   6   -148.0004038 -0.328239E-08  0.319E-05    0.37     330.5  T
     SCC iter.                  ...        0 min,  0.060 sec
     gradient                   ...        0 min,  0.014 sec
 * total energy  :  -145.3410442 Eh     change       -0.7972730E-06 Eh
   gradient norm :     0.0000962 Eh/α   predicted    -0.2813644E-06 ( -64.71%)
   displ. norm   :     0.0244468 α      lambda       -0.5680831E-06
   maximum displ.:     0.0182041 α      in ANC's #1, #3, #2, ...

........................................................................
.............................. CYCLE   53 ..............................
........................................................................

 iter      E             dE          RMSdq      gap      omega  full diag
   1   -148.0004075 -0.148000E+03  0.257E-03    0.37       0.0  T
   2   -148.0004075  0.452797E-07  0.158E-03    0.37       6.7  T
   3   -148.0004024  0.512271E-05  0.519E-03    0.37       2.0  T
   4   -148.0004075 -0.513571E-05  0.466E-04    0.37      22.6  T
   5   -148.0004075 -0.305176E-07  0.170E-04    0.37      62.2  T
   6   -148.0004075 -0.538077E-08  0.369E-05    0.37     285.9  T
     SCC iter.                  ...        0 min,  0.060 sec
     gradient                   ...        0 min,  0.013 sec
 * total energy  :  -145.3410451 Eh     change       -0.8335901E-06 Eh
   gradient norm :     0.0000915 Eh/α   predicted    -0.2876656E-06 ( -65.49%)
   displ. norm   :     0.0292448 α      lambda       -0.7620380E-06
   maximum displ.:     0.0213210 α      in ANC's #1, #3, #10, ...

........................................................................
.............................. CYCLE   54 ..............................
........................................................................

 iter      E             dE          RMSdq      gap      omega  full diag
   1   -148.0003968 -0.148000E+03  0.327E-03    0.37       0.0  T
   2   -148.0003967  0.749639E-07  0.201E-03    0.37       5.3  T
   3   -148.0003882  0.846965E-05  0.668E-03    0.37       1.6  T
   4   -148.0003968 -0.851610E-05  0.489E-04    0.37      21.6  T
   5   -148.0003968 -0.242234E-07  0.237E-04    0.37      44.5  T
   6   -148.0003968 -0.104156E-07  0.553E-05    0.37     190.5  T
     SCC iter.                  ...        0 min,  0.059 sec
     gradient                   ...        0 min,  0.013 sec
 * total energy  :  -145.3410462 Eh     change       -0.1093751E-05 Eh
   gradient norm :     0.0000753 Eh/α   predicted    -0.3852240E-06 ( -64.78%)
   displ. norm   :     0.0426815 α      lambda       -0.1087926E-05
   maximum displ.:     0.0307620 α      in ANC's #1, #3, #10, ...

........................................................................
.............................. CYCLE   55 ..............................
........................................................................

 iter      E             dE          RMSdq      gap      omega  full diag
   1   -148.0003714 -0.148000E+03  0.490E-03    0.37       0.0  T
   2   -148.0003712  0.190741E-06  0.302E-03    0.37       3.5  T
   3   -148.0003519  0.192951E-04  0.101E-02    0.37       1.0  T
   4   -148.0003712 -0.192956E-04  0.111E-03    0.37       9.5  T
   5   -148.0003713 -0.175232E-06  0.401E-04    0.37      26.3  T
   6   -148.0003714 -0.308559E-07  0.789E-05    0.37     133.5  T
[...]
    51   6 C       86   1 H                                       1.0800874
    52   6 C       87   1 H                                       1.0793504
    54   6 C       88   1 H                                       1.0790552
    55   6 C       89   1 H                                       1.0785742
    57   6 C       90   1 H                                       1.0806113

 * 3 distinct bonds (by element types)

   Z      Z             #   av. dist./Å        max./Å        min./Å
   1 H    6 C          32     1.0795596     1.0806113     1.0782058
   6 C    6 C          54     1.3951498     1.4385594     1.3774148
   6 C    7 N          16     1.3773127     1.4016455     1.3332623

           -------------------------------------------------
          |               Frequency Printout                |
           -------------------------------------------------
 projected vibrational frequencies (cm⁻¹)
eigval :       -0.00    -0.00     0.00     0.00     0.00     0.00
eigval :        6.43    11.92    13.84    23.35    23.67    28.68
eigval :       33.56    39.68    45.03    65.06    66.09    81.60
eigval :       90.97   102.53   104.02   105.67   110.44   125.87
eigval :      129.18   142.87   143.90   148.78   153.27   165.65
eigval :      168.88   196.48   211.74   228.17   252.06   256.97
eigval :      270.38   271.63   274.23   276.25   283.05   293.66
eigval :      310.48   321.85   326.22   345.21   375.06   382.27
eigval :      392.55   394.11   395.86   397.25   411.17   415.82
eigval :      419.53   420.80   422.68   426.24   431.80   435.98
eigval :      438.47   463.03   464.72   490.34   516.04   516.16
eigval :      529.93   531.25   533.66   534.12   537.66   537.86
eigval :      538.79   543.56   558.33   559.34   573.81   586.25
eigval :      586.58   589.67   592.39   596.96   619.12   619.16
eigval :      627.25   631.99   633.40   662.91   674.00   674.45
eigval :      675.71   676.40   690.96   699.68   703.54   707.59
eigval :      709.33   711.87   741.57   753.95   754.12   766.93
eigval :      768.56   769.30   770.48   779.09   781.02   789.15
eigval :      791.66   793.78   814.37   817.93   822.04   861.32
eigval :      861.83   869.78   871.08   871.65   873.03   878.38
eigval :      880.08   886.59   892.05   896.08   896.52   899.01
eigval :      902.27   902.37   902.96   903.37   905.79   906.37
eigval :      908.42   910.99   916.36   917.85   922.62   924.06
eigval :      924.14   926.91   941.04   964.54   969.23   984.92
eigval :     1010.59  1010.70  1022.50  1023.40  1068.26  1068.31
eigval :     1070.13  1070.43  1071.31  1071.69  1081.24  1102.05
eigval :     1104.49  1116.31  1120.70  1140.29  1142.42  1146.54
eigval :     1147.87  1165.35  1170.27  1171.46  1176.58  1177.77
eigval :     1179.41  1179.49  1181.59  1182.14  1189.31  1216.47
eigval :     1218.14  1220.60  1224.08  1231.38  1232.09  1236.61
eigval :     1237.55  1245.08  1260.84  1269.51  1273.16  1288.47
eigval :     1289.21  1291.03  1292.45  1295.62  1297.16  1302.15
eigval :     1338.49  1339.31  1346.24  1347.73  1352.21  1353.09
eigval :     1355.10  1357.58  1359.69  1360.97  1369.82  1385.71
eigval :     1401.42  1411.04  1412.35  1417.71  1417.84  1423.69
eigval :     1424.43  1435.18  1437.91  1459.17  1461.05  1464.10
eigval :     1466.59  1471.55  1481.24  1482.41  1482.96  1485.01
eigval :     1540.33  1545.05  1550.76  1566.07  1568.46  1569.54
eigval :     1574.25  1577.63  1579.06  1580.96  1583.50  1585.70
eigval :     1586.07  1586.24  1603.11  1605.14  3057.33  3058.83
eigval :     3075.60  3075.76  3075.92  3076.14  3079.06  3079.80
eigval :     3081.46  3081.61  3082.19  3082.29  3083.62  3084.11
eigval :     3089.07  3089.44  3089.75  3090.14  3090.31  3090.46
eigval :     3093.95  3095.15  3095.19  3095.76  3095.99  3096.71
eigval :     3097.30  3097.77  3099.94  3100.14  3104.23  3107.90
 reduced masses (amu)
   1: 11.50   2: 11.70   3: 11.67   4: 11.51   5: 11.32   6: 11.73   7: 11.46   8: 11.03
   9: 11.12  10: 11.12  11: 11.19  12: 10.98  13: 10.96  14: 11.04  15: 10.99  16: 11.10
  17: 10.93  18: 11.96  19: 11.02  20: 10.42  21: 10.94  22: 10.62  23: 10.84  24: 10.30
  25: 10.40  26: 10.27  27: 10.32  28: 10.88  29: 10.71  30: 11.66  31: 11.39  32: 11.08
  33: 10.98  34: 11.24  35: 10.97  36: 11.02  37: 10.39  38: 10.50  39: 10.56  40: 10.87
  41: 10.82  42: 11.26  43: 11.36  44: 11.47  45: 10.64  46: 11.23  47: 11.34  48: 10.86
  49:  9.47  50:  9.50  51:  9.76  52: 10.21  53: 11.54  54: 11.04  55: 10.36  56: 10.00
  57:  9.87  58:  9.71  59: 10.90  60: 10.54  61: 11.12  62: 11.09  63: 11.04  64: 11.22
  65: 10.89  66: 10.89  67: 10.97  68: 11.10  69: 10.94  70: 11.20  71: 10.67  72: 10.41
  73: 10.03  74: 11.33  75: 11.27  76: 11.26  77: 12.05  78: 11.36  79: 11.42  80: 12.56
  81: 11.64  82: 11.59  83: 11.33  84: 11.27  85: 11.41  86: 11.51  87: 11.41  88: 11.39
  89: 11.46  90: 11.48  91: 11.67  92: 11.64  93: 11.43  94: 11.67  95: 11.62  96: 11.43
  97: 11.48  98: 11.33  99: 11.33 100: 10.84 101: 10.85 102:  3.68 103:  3.75 104:  3.52
 105:  3.50 106:  3.93 107:  3.86 108:  4.83 109:  9.97 110: 10.56 111:  3.69 112:  4.30
 113:  4.37 114:  3.46 115:  3.43 116:  3.40 117:  3.39 118:  3.40 119:  3.44 120:  4.06
 121:  3.41 122: 11.17 123: 11.70 124: 11.21 125: 11.53 126:  4.27 127:  4.04 128:  3.93
 129:  4.11 130:  4.15 131:  8.20 132:  7.04 133:  3.69 134:  3.50 135:  3.04 136:  3.09
 137:  3.20 138:  3.08 139:  3.08 140:  3.10 141: 12.02 142: 11.13 143: 11.47 144:  9.71
 145: 10.83 146: 10.85 147:  8.17 148:  8.18 149:  5.83 150:  5.80 151:  6.39 152:  6.28
 153:  6.42 154:  6.42 155: 11.39 156:  8.21 157:  8.16 158:  7.45 159:  7.68 160:  4.05
 161:  4.01 162:  4.16 163:  4.17 164:  4.98 165:  3.75 166:  3.90 167:  2.22 168:  1.96
 169:  1.93 170:  2.50 171:  3.03 172:  2.87 173:  4.95 174:  4.26 175:  4.64 176:  4.67
 177:  6.81 178:  5.90 179:  5.86 180:  6.23 181:  6.35 182:  6.37 183:  7.87 184:  9.09
 185:  7.45 186:  7.34 187:  8.53 188:  8.02 189:  8.35 190:  8.42 191:  8.32 192: 10.18
 193: 10.53 194: 10.25 195: 11.57 196: 11.54 197: 11.56 198: 11.50 199: 11.14 200: 10.68
 201: 11.74 202: 11.70 203: 11.63 204: 10.58 205: 10.16 206:  9.46 207:  9.46 208:  8.99
 209:  8.99 210: 10.96 211: 10.90 212: 11.36 213: 11.37 214: 10.71 215: 10.59 216: 10.46
 217: 10.32 218: 11.39 219: 10.87 220: 10.44 221: 10.37 222: 10.93 223: 11.67 224: 11.64
 225: 11.61 226: 11.62 227: 11.57 228: 11.61 229: 11.66 230: 11.59 231: 11.60 232: 11.64
 233: 11.57 234: 11.63 235: 11.66 236: 11.66 237: 11.68 238: 11.69 239:  1.80 240:  1.80
 241:  1.75 242:  1.75 243:  1.75 244:  1.76 245:  1.75 246:  1.75 247:  1.81 248:  1.81
 249:  1.81 250:  1.81 251:  1.80 252:  1.80 253:  1.86 254:  1.86 255:  1.86 256:  1.86
 257:  1.86 258:  1.86 259:  1.79 260:  1.88 261:  1.89 262:  1.84 263:  1.90 264:  1.90
 265:  1.91 266:  1.91 267:  1.83 268:  1.84 269:  1.88 270:  1.88
 IR intensities (km·mol⁻¹)
   1:  0.72   2:  0.39   3:  6.86   4:  1.51   5:  1.17   6:  0.16   7:  0.02   8:  5.89
   9:  1.83  10:  3.42  11: 12.17  12: 22.16  13:  6.35  14:  5.59  15:  0.27  16:  0.86
  17:  1.10  18:  4.54  19:  2.95  20: 21.20  21: 13.23  22:  0.20  23:  0.29  24: 22.68
  25:  1.40  26:  0.52  27:  1.34  28:  1.48  29: 40.84  30:  5.49  31:127.83  32:  2.97
  33: 20.33  34: 49.18  35:  1.29  36: 26.65  37: 53.06  38: 27.84  39:  6.25  40:  7.23
  41: 27.78  42:  0.83  43: 51.43  44:101.56  45: 16.26  46:  5.60  47:  1.20  48: 32.30
  49: 15.99  50: 64.96  51: 11.04  52: 11.66  53: 14.43  54:  5.50  55:  6.39  56: 23.98
  57: 36.19  58: 10.37  59: 12.57  60:  8.28  61: 56.18  62: 43.92  63: 10.01  64: 15.69
  65:  2.98  66:  0.73  67:  3.75  68:  4.32  69: 30.24  70:  7.87  71:  2.95  72:  1.73
  73:  0.08  74:  4.32  75:  0.35  76:  9.68  77: 49.28  78: 11.16  79:  8.02  80: 41.44
  81:  7.93  82:  2.48  83:  5.16  84:  5.88  85: 25.84  86:  1.44  87: 22.45  88: 74.06
  89:  3.50  90:  0.39  91: 14.57  92:  7.47  93:  5.24  94:  6.79  95: 33.47  96:  5.06
  97:  3.76  98:446.04  99:  8.02 100: 61.31 101: 30.57 102:132.93 103: 55.43 104: 61.30
 105: 51.46 106:154.40 107: 42.06 108:243.81 109: 93.03 110: 47.97 111: 94.62 112: 15.24
 113: 38.31 114:168.44 115:  1.04 116: 78.51 117:  5.86 118: 44.91 119: 22.54 120: 12.39
 121:111.23 122:  6.67 123:  1.25 124: 10.99 125:  6.71 126:  6.31 127: 94.27 128: 26.11
 129: 49.89 130: 47.68 131:  2.67 132: 15.07 133:  7.46 134:  2.49 135: 16.13 136: 44.50
 137:  1.26 138:246.95 139:  0.23 140:  0.34 141:  1.48 142: 82.49 143:  2.76 144:115.33
 145:  6.78 146:  8.82 147: 62.76 148: 36.86 149: 41.78 150: 21.52 151:  0.87 152: 96.14
 153:176.70 154: 56.76 155:  0.62 156:420.24 157:  5.99 158: 51.52 159: 10.50 160:367.80
 161: 45.93 162: 19.20 163:  7.91 164: 45.76 165: 17.55 166:  1.09 167:  2.46 168: 13.22
 169: 31.74 170: 17.93 171:  2.82 172:148.56 173: 26.61 174: 19.67 175: 17.22 176:  1.66
 177: 39.20 178: 15.98 179: 40.00 180:  3.56 181:662.96 182:  4.59 183:390.38 184: 46.78
 185:277.67 186: 48.39 187: 11.06 188:103.20 189: 63.11 190:877.14 191:157.36 192:290.20
 193:969.30 194: 17.27 195:234.90 196:  8.10 197:501.41 198:914.97 199:****** 200: 95.50
 201: 55.39 202: 28.28 203:103.21 204: 14.24 205:288.99 206:564.30 207:611.21 208:149.79
 209:123.75 210:613.16 211:****** 212:991.59 213: 13.56 214: 79.02 215:403.67 216: 14.36
 217: 66.99 218: 59.19 219:552.46 220: 69.50 221: 74.62 222: 53.79 223:260.24 224:324.74
 225:****** 226: 30.16 227: 24.87 228: 12.17 229: 74.85 230:206.38 231:106.97 232: 85.30
 233:361.55 234: 22.42 235:  6.21 236: 33.46 237:****** 238: 15.53 239: 39.26 240: 37.40
 241:  1.86 242:  5.50 243:  2.54 244:  2.20 245:  1.06 246: 10.86 247: 69.92 248: 71.46
 249: 33.80 250: 49.68 251: 11.74 252: 12.01 253: 41.11 254:  3.94 255: 38.97 256:309.07
 257:453.85 258:358.42 259: 23.33 260: 67.87 261:288.57 262: 75.40 263:784.06 264: 63.96
 265:171.65 266: 94.95 267:385.82 268: 15.85 269: 39.23 270: 46.34
 Raman intensities (Ä⁴*amu⁻¹)
   1:  0.00   2:  0.00   3:  0.00   4:  0.00   5:  0.00   6:  0.00   7:  0.00   8:  0.00
   9:  0.00  10:  0.00  11:  0.00  12:  0.00  13:  0.00  14:  0.00  15:  0.00  16:  0.00
  17:  0.00  18:  0.00  19:  0.00  20:  0.00  21:  0.00  22:  0.00  23:  0.00  24:  0.00
  25:  0.00  26:  0.00  27:  0.00  28:  0.00  29:  0.00  30:  0.00  31:  0.00  32:  0.00
  33:  0.00  34:  0.00  35:  0.00  36:  0.00  37:  0.00  38:  0.00  39:  0.00  40:  0.00
  41:  0.00  42:  0.00  43:  0.00  44:  0.00  45:  0.00  46:  0.00  47:  0.00  48:  0.00
  49:  0.00  50:  0.00  51:  0.00  52:  0.00  53:  0.00  54:  0.00  55:  0.00  56:  0.00
  57:  0.00  58:  0.00  59:  0.00  60:  0.00  61:  0.00  62:  0.00  63:  0.00  64:  0.00
  65:  0.00  66:  0.00  67:  0.00  68:  0.00  69:  0.00  70:  0.00  71:  0.00  72:  0.00
  73:  0.00  74:  0.00  75:  0.00  76:  0.00  77:  0.00  78:  0.00  79:  0.00  80:  0.00
  81:  0.00  82:  0.00  83:  0.00  84:  0.00  85:  0.00  86:  0.00  87:  0.00  88:  0.00
  89:  0.00  90:  0.00  91:  0.00  92:  0.00  93:  0.00  94:  0.00  95:  0.00  96:  0.00
  97:  0.00  98:  0.00  99:  0.00 100:  0.00 101:  0.00 102:  0.00 103:  0.00 104:  0.00
 105:  0.00 106:  0.00 107:  0.00 108:  0.00 109:  0.00 110:  0.00 111:  0.00 112:  0.00
 113:  0.00 114:  0.00 115:  0.00 116:  0.00 117:  0.00 118:  0.00 119:  0.00 120:  0.00
 121:  0.00 122:  0.00 123:  0.00 124:  0.00 125:  0.00 126:  0.00 127:  0.00 128:  0.00
 129:  0.00 130:  0.00 131:  0.00 132:  0.00 133:  0.00 134:  0.00 135:  0.00 136:  0.00
 137:  0.00 138:  0.00 139:  0.00 140:  0.00 141:  0.00 142:  0.00 143:  0.00 144:  0.00
 145:  0.00 146:  0.00 147:  0.00 148:  0.00 149:  0.00 150:  0.00 151:  0.00 152:  0.00
 153:  0.00 154:  0.00 155:  0.00 156:  0.00 157:  0.00 158:  0.00 159:  0.00 160:  0.00
 161:  0.00 162:  0.00 163:  0.00 164:  0.00 165:  0.00 166:  0.00 167:  0.00 168:  0.00
 169:  0.00 170:  0.00 171:  0.00 172:  0.00 173:  0.00 174:  0.00 175:  0.00 176:  0.00
 177:  0.00 178:  0.00 179:  0.00 180:  0.00 181:  0.00 182:  0.00 183:  0.00 184:  0.00
 185:  0.00 186:  0.00 187:  0.00 188:  0.00 189:  0.00 190:  0.00 191:  0.00 192:  0.00
 193:  0.00 194:  0.00 195:  0.00 196:  0.00 197:  0.00 198:  0.00 199:  0.00 200:  0.00
 201:  0.00 202:  0.00 203:  0.00 204:  0.00 205:  0.00 206:  0.00 207:  0.00 208:  0.00
 209:  0.00 210:  0.00 211:  0.00 212:  0.00 213:  0.00 214:  0.00 215:  0.00 216:  0.00
 217:  0.00 218:  0.00 219:  0.00 220:  0.00 221:  0.00 222:  0.00 223:  0.00 224:  0.00
 225:  0.00 226:  0.00 227:  0.00 228:  0.00 229:  0.00 230:  0.00 231:  0.00 232:  0.00
 233:  0.00 234:  0.00 235:  0.00 236:  0.00 237:  0.00 238:  0.00 239:  0.00 240:  0.00
 241:  0.00 242:  0.00 243:  0.00 244:  0.00 245:  0.00 246:  0.00 247:  0.00 248:  0.00
 249:  0.00 250:  0.00 251:  0.00 252:  0.00 253:  0.00 254:  0.00 255:  0.00 256:  0.00
 257:  0.00 258:  0.00 259:  0.00 260:  0.00 261:  0.00 262:  0.00 263:  0.00 264:  0.00
 265:  0.00 266:  0.00 267:  0.00 268:  0.00 269:  0.00 270:  0.00
 output can be read by thermo (or use thermo option).
 writing <g98.out> molden fake output.
 recommended (thermochemical) frequency scaling factor: 1.0
           -------------------------------------------------
          |             Thermodynamic Functions             |
           -------------------------------------------------

Refinement of some symmetry elements was terminated before convergence was reached.
Some symmetry elements may remain unidentified.
Molecule has no symmetry elements
It seems to be the C1 point group
c1  symmetry found (for desy threshold:  0.10E+00) used in thermo

          ...................................................
          :                      SETUP                      :
          :.................................................:
          :  # frequencies                         264      :
          :  # imaginary freq.                       0      :
          :  linear?                             false      :
          :  only rotor calc.                    false      :
          :  symmetry                               c1      :
          :  rotational number                       1      :
          :  scaling factor                  1.0000000      :
          :  rotor cutoff                   50.0000000 cm⁻¹ :
          :  imag. cutoff                  -20.0000000 cm⁻¹ :
          :.................................................:

    mode    ω/cm⁻¹     T·S(HO)/kcal·mol⁻¹    T·S(FR)/kcal·mol⁻¹   T·S(vib)
   ------------------------------------------------------------------------
       1      6.43    -2.65036 (  0.03%)    -1.66425 ( 99.97%)    -1.66452
       2     11.92    -2.28451 (  0.32%)    -1.48132 ( 99.68%)    -1.48390
       3     13.84    -2.19579 (  0.58%)    -1.43694 ( 99.42%)    -1.44138
       4     23.35    -1.88622 (  4.54%)    -1.28206 ( 95.46%)    -1.30951
       5     23.67    -1.87830 (  4.78%)    -1.27810 ( 95.22%)    -1.30679
       6     28.68    -1.76466 (  9.77%)    -1.22121 ( 90.23%)    -1.27429
       7     33.56    -1.67174 ( 16.87%)    -1.17466 ( 83.13%)    -1.25852
       8     39.68    -1.57271 ( 28.40%)    -1.12502 ( 71.60%)    -1.25218
       9     45.03    -1.49808 ( 39.68%)    -1.08757 ( 60.32%)    -1.25045
      10     65.06    -1.28126 ( 74.14%)    -0.97853 ( 25.86%)    -1.20298
      11     66.09    -1.27206 ( 75.33%)    -0.97389 ( 24.67%)    -1.19849
      12     81.60    -1.14847 ( 87.65%)    -0.91144 ( 12.35%)    -1.11919
      13     90.97    -1.08500 ( 91.64%)    -0.87925 (  8.36%)    -1.06779
      14    102.53    -1.01537 ( 94.65%)    -0.84380 (  5.35%)    -1.00619
      15    104.02    -1.00702 ( 94.93%)    -0.83954 (  5.07%)    -0.99853
      16    105.67    -0.99791 ( 95.23%)    -0.83488 (  4.77%)    -0.99013
      17    110.44    -0.97230 ( 95.97%)    -0.82178 (  4.03%)    -0.96623
      18    125.87    -0.89687 ( 97.57%)    -0.78304 (  2.43%)    -0.89411
      19    129.18    -0.88201 ( 97.80%)    -0.77537 (  2.20%)    -0.87967
      20    142.87    -0.82442 ( 98.52%)    -0.74553 (  1.48%)    -0.82325
      21    143.90    -0.82031 ( 98.56%)    -0.74339 (  1.44%)    -0.81920
      22    148.78    -0.80134 ( 98.74%)    -0.73351 (  1.26%)    -0.80049
      23    153.27    -0.78450 ( 98.88%)    -0.72470 (  1.12%)    -0.78383
      24    165.65    -0.74067 ( 99.18%)    -0.70169 (  0.82%)    -0.74035
      25    168.88    -0.72985 ( 99.24%)    -0.69598 (  0.76%)    -0.72959
      26    196.48    -0.64573 ( 99.58%)    -0.65113 (  0.42%)    -0.64575
      27    211.74    -0.60484 ( 99.69%)    -0.62898 (  0.31%)    -0.60492
      28    228.17    -0.56448 ( 99.77%)    -0.60683 (  0.23%)    -0.56457
      29    252.06    -0.51167 ( 99.85%)    -0.57734 (  0.15%)    -0.51177
      30    256.97    -0.50156 ( 99.86%)    -0.57162 (  0.14%)    -0.50166
      31    270.38    -0.47518 ( 99.88%)    -0.55655 (  0.12%)    -0.47528
      32    271.63    -0.47280 ( 99.89%)    -0.55518 (  0.11%)    -0.47289
      33    274.23    -0.46791 ( 99.89%)    -0.55236 (  0.11%)    -0.46801
      34    276.25    -0.46415 ( 99.89%)    -0.55018 (  0.11%)    -0.46424
      35    283.05    -0.45174 ( 99.90%)    -0.54298 (  0.10%)    -0.45183
      36    293.66    -0.43315 ( 99.92%)    -0.53208 (  0.08%)    -0.43323
   ------------------------------------------------------------------------

   temp. (K)  partition function   enthalpy   heat capacity  entropy
                                   cal/mol     cal/K/mol   cal/K/mol   J/K/mol
 298.15  VIB  0.372E+20            25610.463    166.521    157.344
         ROT  0.211E+09              888.752      2.981     41.075
         INT  0.786E+28            26499.215    169.502    198.419
         TR   0.195E+29             1481.254      4.968     45.667
         TOT                       27980.4688   174.4698   244.0857  1021.2547

       T/K    H(0)-H(T)+PV         H(T)/Eh          T*S/Eh         G(T)/Eh
   ------------------------------------------------------------------------
    298.15    0.445897E-01    0.720916E+00    0.115973E+00    0.604943E+00
   ------------------------------------------------------------------------

         :::::::::::::::::::::::::::::::::::::::::::::::::::::
         ::                  THERMODYNAMIC                  ::
         :::::::::::::::::::::::::::::::::::::::::::::::::::::
         :: total free energy        -144.736118624930 Eh   ::
         ::.................................................::
         :: total energy             -145.341061441792 Eh   ::
         :: zero point energy           0.676326105320 Eh   ::
         :: G(RRHO) w/o ZPVE           -0.071383288458 Eh   ::
         :: G(RRHO) contrib.            0.604942816862 Eh   ::
         :::::::::::::::::::::::::::::::::::::::::::::::::::::

optimized geometry written to: xtbopt.xyz


           -------------------------------------------------
          | TOTAL ENERGY             -145.341061441792 Eh   |
          | TOTAL ENTHALPY           -144.620145621199 Eh   |
          | TOTAL FREE ENERGY        -144.736118624930 Eh   |
          | GRADIENT NORM               0.000051568838 Eh/α |
          | HOMO-LUMO GAP               0.369015373522 eV   |
           -------------------------------------------------

------------------------------------------------------------------------
 * finished run on 2025/08/21 at 19:24:15.611     
------------------------------------------------------------------------
 total:
 * wall-time:     0 d,  0 h,  0 min, 12.468 sec
 *  cpu-time:     0 d,  0 h,  7 min, 47.750 sec
 * ratio c/w:    37.516 speedup
 SCF:
 * wall-time:     0 d,  0 h,  0 min,  0.241 sec
 *  cpu-time:     0 d,  0 h,  0 min,  9.580 sec
 * ratio c/w:    39.707 speedup
 ANC optimizer:
 * wall-time:     0 d,  0 h,  0 min,  6.326 sec
 *  cpu-time:     0 d,  0 h,  4 min, 12.994 sec
 * ratio c/w:    39.996 speedup
 analytical hessian:
 * wall-time:     0 d,  0 h,  0 min,  5.694 sec
 *  cpu-time:     0 d,  0 h,  3 min, 17.508 sec
 * ratio c/w:    34.688 speedup

