$hessian                                                                        
        0.5328245196  -0.0904516664   0.1912655341  -0.2460358390  -0.0316494428
       -0.1225232056  -0.0451144322   0.0593015598  -0.0001421480  -0.0214890544
       -0.0258890800  -0.0195850760   0.0355237359  -0.0118211642   0.0135392565
       -0.1029837639  -0.0180122062  -0.0383600944   0.0000816449   0.0119656183
        0.0012610926  -0.0016306353  -0.0029538867  -0.0021206897  -0.0012883405
        0.0025893025   0.0007069482   0.0020603077  -0.0005528403   0.0008857689
       -0.0007535695  -0.0008872807  -0.0006635819   0.0023341074   0.0001981825
        0.0012841326  -0.0030072862   0.0027709806  -0.0003453092   0.0003922774
       -0.0002418782   0.0001691179  -0.0002026615   0.0000160576   0.0000185316
        0.0001024327  -0.0000074236   0.0000427505   0.0002388865   0.0000210697
        0.0000297995  -0.0001130238  -0.0000300450   0.0000599758  -0.0000398276
       -0.0000698064   0.0000425552   0.0000327130  -0.0000251063   0.0000411526
       -0.0000452068  -0.0000280041   0.0000040764  -0.0000043654   0.0000078410
       -0.0000084067  -0.0000002000   0.0000094021  -0.0000084039   0.0000193045
       -0.0000041878   0.0000075631  -0.0000695857  -0.0000479517   0.0000181863
       -0.0002406574   0.0000801033  -0.0000978663   0.0001776904   0.0000578625
       -0.0000227023  -0.0000317841  -0.0000045986  -0.0000085125  -0.0000266172
        0.0000195725  -0.0000089613   0.0001066652   0.0000034503   0.0000073150
       -0.0001109250  -0.0000371345   0.0000018091   0.0000105523   0.0000438128
        0.0000133277   0.0000036792  -0.0000136114  -0.0000095222   0.0000083730
        0.0000092516   0.0000059341  -0.0000076602   0.0000003359   0.0000044777
        0.0000030929  -0.0000084517  -0.0000046097  -0.0000121965   0.0000082093
        0.0000096873  -0.0000045215  -0.0000175689  -0.0000108673  -0.0000049271
        0.0000105048   0.0000037482   0.0000172290  -0.0000129205  -0.0000139818
       -0.0000254364   0.0000072427   0.0000098463   0.0000054931  -0.0000157005
       -0.0000029000  -0.0000005333   0.0000041363  -0.0000040148   0.0000022204
       -0.0000018219  -0.0000024301  -0.0000028572  -0.0000002308  -0.0000016111
       -0.0000001371   0.0000006902  -0.0000027685  -0.0000047745  -0.0000019176
        0.0000010894  -0.0000045385   0.0000045127  -0.0000021160  -0.0000009838
       -0.0000008756  -0.0000013805  -0.0000033092   0.0000020869  -0.0000012322
        0.0000017727   0.0000012218  -0.0000027261  -0.0000005545  -0.0000046161
        0.0000014287   0.0000095247   0.0000117668  -0.0000070883   0.0000045941
       -0.0000034859  -0.0000038419  -0.0000082434   0.0000067159   0.0000077864
        0.0000496740  -0.0000288578  -0.0000165951  -0.0000195303   0.0000367282
        0.0000054697  -0.0000225760  -0.0000255095   0.0000045073  -0.1339247486
        0.1244155024  -0.0031643773  -0.0079926176  -0.0018144664  -0.0051330362
        0.0005307475   0.0042496761  -0.0024291818  -0.0093595039  -0.0214540414
       -0.0144350346  -0.0000009153   0.0001686225  -0.0000305456  -0.0000424437
       -0.0000387458  -0.0000386263   0.0000455248  -0.0000319340  -0.0000331108
        0.0000591079  -0.0000588792  -0.0000287109   0.0000300731   0.0001411299
       -0.0001389517  -0.0000132905   0.0000148690  -0.0000018877  -0.0000166312
        0.0000453295  -0.0000048096   0.0000084260   0.0000000068   0.0000021475
        0.0000010526   0.0000137183  -0.0000096785  -0.0000020115   0.0000082174
       -0.0000064086  -0.0000097203  -0.0000015127  -0.0000058405  -0.0000012862
        0.0000055532   0.0000004750  -0.0000008604   0.0000025951   0.0000048511
        0.0000009229  -0.0000012667   0.0000010829  -0.0000008773  -0.0000025533
        0.0000002626  -0.0000025799  -0.0000016179   0.0000006317  -0.0000022973
       -0.0000009768  -0.0000014552   0.0000003900  -0.0000015331  -0.0000015069
        0.0000003316   0.0000006527  -0.0000034653  -0.0000012835   0.0000008896
       -0.0000034126  -0.0000018478   0.0000004729  -0.0000026107  -0.0000021854
        0.0000009528  -0.0000020611  -0.0000017368   0.0000005770  -0.0000012603
       -0.0000006816   0.0000007415  -0.0000009304  -0.0000010102   0.0000021017
       -0.0000014020  -0.0000013269   0.0000027556   0.0000011381   0.0000036481
       -0.0000024200  -0.0000032417  -0.0000003040  -0.0000033636   0.0000007316
       -0.0904516664   0.6065513262   0.1561990093   0.0335815874  -0.0880315611
        0.0008287759   0.0129509008   0.0248942600   0.0174450659  -0.0192458168
       -0.0128037297  -0.0133720854   0.0329534112  -0.0653720614  -0.0099439765
       -0.0814770890  -0.2562024581  -0.1311674004   0.0048289539   0.0079999620
        0.0029632923  -0.0017575994  -0.0034208038  -0.0023915819  -0.0018650390
        0.0030378569   0.0005299154   0.0025255275  -0.0001632673   0.0012730693
       -0.0004898892  -0.0018980689  -0.0009673716   0.0039043391   0.0003638466
        0.0022037013  -0.0017874723  -0.0023168637  -0.0017013633   0.0002274678
       -0.0001499858   0.0001892419  -0.0001111043  -0.0000318513  -0.0000748374
        0.0000926438  -0.0000424109   0.0000561822   0.0001104449   0.0000167408
        0.0000043444  -0.0000271932  -0.0000145002  -0.0000010129  -0.0000173556
        0.0000586847   0.0000409529   0.0000142846   0.0000018088   0.0000000866
       -0.0000235280  -0.0000054511  -0.0000044952  -0.0000042534  -0.0000081195
        0.0000014514   0.0000071762  -0.0000103648   0.0000058125   0.0000132320
        0.0000108259  -0.0000060700  -0.0000296812  -0.0000275897   0.0000066143
       -0.0001148690   0.0000614063  -0.0000602523   0.0000577442   0.0000214338
       -0.0000073999  -0.0000097405  -0.0000049194  -0.0000046164  -0.0000040820
        0.0000053337  -0.0000030814   0.0000445797   0.0000076435   0.0000017248
       -0.0000450919  -0.0000081076   0.0000026061   0.0000035991   0.0000120876
        0.0000059749   0.0000018369  -0.0000056789  -0.0000027658   0.0000027790
        0.0000018658   0.0000016237  -0.0000048992  -0.0000007620   0.0000042396
        0.0000001856  -0.0000041790  -0.0000011061  -0.0000037119   0.0000032536
        0.0000080168  -0.0000037203  -0.0000084653  -0.0000044849  -0.0000007892
        0.0000049669   0.0000039881   0.0000098914  -0.0000045161  -0.0000059901
       -0.0000133749   0.0000055813   0.0000057572   0.0000040471  -0.0000095022
       -0.0000015796   0.0000000328   0.0000022429  -0.0000002756   0.0000016974
       -0.0000008492  -0.0000009165  -0.0000002644   0.0000006966   0.0000003535
        0.0000012434   0.0000003883  -0.0000019171  -0.0000019872   0.0000002320
        0.0000020581  -0.0000013632   0.0000032355  -0.0000010023   0.0000007782
        0.0000005918   0.0000021374  -0.0000013720   0.0000020752   0.0000012523
        0.0000018876   0.0000015308   0.0000008955  -0.0000000545  -0.0000018084
        0.0000020022   0.0000062259   0.0000071504  -0.0000004485   0.0000012369
       -0.0000014996  -0.0000006412  -0.0000043601   0.0000035560   0.0000014696
        0.0000256258  -0.0000133732  -0.0000045068   0.0000003578   0.0000064938
        0.0000004739  -0.0000192292  -0.0000130069   0.0000035432   0.1244262993
       -0.2056310978  -0.0045763926  -0.0216112883  -0.0031049709  -0.0134830417
        0.0047617985  -0.0021304938  -0.0017933773  -0.0015065222  -0.0014670781
       -0.0019692525  -0.0000124772  -0.0000691045  -0.0001097592  -0.0000292110
       -0.0000055245   0.0000107279   0.0000129154  -0.0000140678  -0.0000165308
        0.0000340389  -0.0001135686  -0.0000845212   0.0000632913  -0.0000324975
       -0.0000088536  -0.0000005093   0.0000035527   0.0000084581  -0.0000058490
        0.0000634753  -0.0000395471   0.0000039705  -0.0000004648  -0.0000083469
        0.0000015524   0.0000014268  -0.0000048235  -0.0000013452  -0.0000000884
       -0.0000055813   0.0000004091  -0.0000065057  -0.0000017208   0.0000001224
       -0.0000012834  -0.0000004168  -0.0000013736  -0.0000036853   0.0000031821
        0.0000004037  -0.0000009374   0.0000038803   0.0000002833  -0.0000025559
        0.0000035325  -0.0000018355  -0.0000017686   0.0000028614  -0.0000003437
       -0.0000007045   0.0000016394   0.0000001745  -0.0000013202  -0.0000003622
        0.0000006486   0.0000000791  -0.0000014428   0.0000004542   0.0000007427
       -0.0000012878   0.0000001451   0.0000010763  -0.0000003289  -0.0000004337
        0.0000020345   0.0000014511   0.0000002280   0.0000018059   0.0000020989
        0.0000008423   0.0000026105   0.0000023560  -0.0000001790   0.0000015650
        0.0000015888   0.0000000527   0.0000004905   0.0000000654   0.0000017593
       -0.0000021525  -0.0000017055   0.0000048572  -0.0000003119   0.0000009969
        0.1912655341   0.1561990093   0.2828315384  -0.0944611051  -0.0346486208
       -0.1153466583  -0.0199153327   0.0424896359   0.0083411805  -0.0164222729
       -0.0171122151  -0.0221386710   0.0320909984  -0.0342772587   0.0045210962
       -0.0650948788  -0.0972381176  -0.1199274303  -0.0014390154   0.0071394334
        0.0087290546  -0.0016778005  -0.0030678760  -0.0020342701  -0.0011843780
        0.0029172213   0.0000831791   0.0021763135  -0.0003808448   0.0010522765
       -0.0003867804  -0.0011127318  -0.0011719348   0.0027773738   0.0001473791
        0.0017019523  -0.0022728213   0.0006162339  -0.0009568723   0.0003119794
       -0.0000803821  -0.0000405080  -0.0001741208   0.0000230612   0.0000602343
        0.0001049280  -0.0000107239   0.0000643819   0.0001801999   0.0000296960
       -0.0000028443  -0.0001016224  -0.0000137881   0.0000337811  -0.0000251808
       -0.0000360345   0.0000390415   0.0000175318  -0.0000086082   0.0000281557
       -0.0000315582  -0.0000121690   0.0000072109  -0.0000050340   0.0000047328
        0.0000020442   0.0000001107   0.0000052429   0.0000027417   0.0000159159
        0.0000038916   0.0000059276  -0.0000487319  -0.0000333427   0.0000092631
       -0.0001876109   0.0000648724  -0.0000755948   0.0001326736   0.0000413869
       -0.0000151116  -0.0000234366  -0.0000048960  -0.0000039997  -0.0000152790
        0.0000173767  -0.0000061132   0.0000829433   0.0000078353   0.0000045279
       -0.0000856276  -0.0000217418  -0.0000008251   0.0000059079   0.0000290239
        0.0000108883   0.0000034481  -0.0000084145  -0.0000104967   0.0000044496
        0.0000087623  -0.0000000704  -0.0000071874   0.0000052499  -0.0000020553
        0.0000025811  -0.0000039904  -0.0000073859  -0.0000075997   0.0000044213
        0.0000121685  -0.0000050803  -0.0000126163  -0.0000115639  -0.0000032231
        0.0000070569   0.0000083664   0.0000129873  -0.0000063155  -0.0000129916
       -0.0000195817   0.0000053572   0.0000093214   0.0000033971  -0.0000146795
       -0.0000022402   0.0000002894   0.0000049875   0.0000059378   0.0000004585
       -0.0000020913   0.0000020765   0.0000019151   0.0000011265   0.0000094398
       -0.0000001568  -0.0000013545  -0.0000018477  -0.0000020520  -0.0000026060
        0.0000067418  -0.0000029904   0.0000016944  -0.0000016589   0.0000006897
       -0.0000009893   0.0000015987  -0.0000010346  -0.0000025256  -0.0000006365
        0.0000012348  -0.0000027236  -0.0000043420  -0.0000006205  -0.0000054011
       -0.0000001795   0.0000090097   0.0000094997  -0.0000021952   0.0000040626
       -0.0000023990  -0.0000012335  -0.0000074521   0.0000100935   0.0000015318
        0.0000385282  -0.0000263819  -0.0000027722  -0.0000147691   0.0000239522
        0.0000024238  -0.0000186279  -0.0000133825   0.0000033275  -0.0031728995
       -0.0045717006  -0.0360427642  -0.0140026179  -0.0025834101  -0.0079678597
       -0.0023801434  -0.0022146691   0.0061738642  -0.0059169695  -0.0122544502
       -0.0079480992  -0.0001085086  -0.0000177290   0.0001167704  -0.0000095278
       -0.0000067150  -0.0000650615  -0.0000116486  -0.0000617682   0.0000550095
        0.0000110592  -0.0001144656   0.0000057812   0.0000106948   0.0000922045
       -0.0001150324  -0.0000044732   0.0000119041   0.0000039298  -0.0000100937
        0.0000427051  -0.0000213659   0.0000053105   0.0000000536   0.0000006873
        0.0000021866   0.0000114188  -0.0000024619  -0.0000019243   0.0000095649
       -0.0000003504  -0.0000067799   0.0000004416  -0.0000037839   0.0000000931
        0.0000028197   0.0000031528  -0.0000014442   0.0000032379   0.0000011733
        0.0000004554   0.0000047718  -0.0000038448  -0.0000015429   0.0000017815
       -0.0000045323  -0.0000032889   0.0000006374  -0.0000021600  -0.0000022829
        0.0000007658  -0.0000003305  -0.0000001979  -0.0000004315   0.0000026029
        0.0000005460   0.0000009889   0.0000038755  -0.0000002806   0.0000008786
        0.0000037926  -0.0000008319  -0.0000017466   0.0000024680  -0.0000004865
       -0.0000014657   0.0000010121  -0.0000013276  -0.0000042131  -0.0000009530
       -0.0000002666  -0.0000013836  -0.0000002011  -0.0000001879   0.0000000104
       -0.0000027281  -0.0000005871   0.0000013200   0.0000017880   0.0000035878
       -0.0000030731  -0.0000002064   0.0000018794  -0.0000012950  -0.0000030787
       -0.2460358390   0.0335815874  -0.0944611051   0.5324225602  -0.0883504588
        0.1926920458  -0.1807269353   0.0986290714  -0.0347068749   0.0333529595
        0.0415733158   0.0364391100  -0.0398719053   0.0279006420  -0.0072676534
       -0.0085238120  -0.0731649860  -0.0360587157  -0.0013659649  -0.0083489067
       -0.0039181669   0.0014004312   0.0036251207   0.0023019616   0.0017905931
       -0.0034175039  -0.0005273605  -0.0031240654   0.0003285007  -0.0014955563
        0.0007297446   0.0018882650   0.0014111971  -0.0027367017  -0.0005358973
       -0.0021725168   0.0054693382  -0.0049458610  -0.0021733278  -0.0009073832
        0.0002577161  -0.0005990459   0.0001066224  -0.0000893529   0.0001835027
        0.0000362039  -0.0000688867   0.0001618064  -0.0003990002   0.0000685424
       -0.0001226261   0.0000604649   0.0001013709  -0.0000889044   0.0002035962
       -0.0000504897   0.0000677478  -0.0000228117   0.0000143588  -0.0000224871
        0.0000605826   0.0000490064  -0.0000139465   0.0000232220  -0.0000139508
        0.0000162717  -0.0000101325  -0.0000120961   0.0000056255  -0.0000280865
        0.0000064513  -0.0000130723   0.0000695511   0.0000540045  -0.0000391899
        0.0005099502  -0.0001101619   0.0001563603  -0.0002915496  -0.0001076905
        0.0000326379   0.0000618358   0.0000163200   0.0000153227   0.0000050295
       -0.0000403145   0.0000118426  -0.0001398862   0.0000160066  -0.0000084473
        0.0001018223   0.0000496638   0.0000040550  -0.0000132443  -0.0000525109
       -0.0000144050   0.0000065721   0.0000140588   0.0000100068  -0.0000019250
       -0.0000016631  -0.0000030169   0.0000124536  -0.0000028948  -0.0000064920
       -0.0000066205   0.0000075410   0.0000047262   0.0000182739  -0.0000085205
       -0.0000108606   0.0000020237   0.0000180451   0.0000118518   0.0000046854
       -0.0000102119  -0.0000038884   0.0000007616   0.0000100335   0.0000071935
        0.0000058692  -0.0000024508  -0.0000019582  -0.0000014666   0.0000034405
        0.0000024583   0.0000021448  -0.0000022319   0.0000016230   0.0000026878
       -0.0000004706   0.0000002045   0.0000021629   0.0000017169  -0.0000004361
        0.0000005308  -0.0000016596   0.0000019596   0.0000018369   0.0000013645
       -0.0000003093   0.0000009823  -0.0000015758   0.0000013155   0.0000015362
        0.0000015641   0.0000005730   0.0000015178  -0.0000019509   0.0000011266
        0.0000031159  -0.0000005656   0.0000000728   0.0000022291   0.0000012099
       -0.0000010718  -0.0000014295  -0.0000015229   0.0000011374  -0.0000040059
        0.0000021405   0.0000039533   0.0000094633  -0.0000069957  -0.0000088880
       -0.0000387409   0.0000264227   0.0000070890   0.0000836842  -0.0000669291
       -0.0000039545  -0.0000055002   0.0000510758  -0.0000074987  -0.0184065339
        0.0015033356  -0.0094502725  -0.0571632470  -0.0505201786  -0.0354020769
       -0.0190214416   0.0200961488  -0.0019996178   0.0022317400  -0.0003007758
       -0.0032497730   0.0001790802   0.0000254999   0.0001235744   0.0000714013
        0.0000421584   0.0000546540   0.0000092467   0.0000254266  -0.0000080175
       -0.0000349344   0.0001501171   0.0000583930  -0.0001713789   0.0000868322
        0.0000529195   0.0000410048   0.0000307534   0.0000076954  -0.0000054122
       -0.0000205294  -0.0000204470  -0.0000178153   0.0000074915  -0.0000050967
       -0.0000037565  -0.0000097469   0.0000055043   0.0000028350  -0.0000063328
        0.0000045892   0.0000150755   0.0000068395   0.0000050245  -0.0000050808
       -0.0000045523  -0.0000010716  -0.0000068004  -0.0000059858  -0.0000024377
       -0.0000045131  -0.0000007156   0.0000007360  -0.0000025684  -0.0000001707
        0.0000013294  -0.0000008711  -0.0000001852  -0.0000001269  -0.0000005429
        0.0000004973   0.0000020007  -0.0000022890   0.0000014622   0.0000015899
       -0.0000014452   0.0000006466   0.0000022808  -0.0000004596   0.0000001470
        0.0000023812  -0.0000003152   0.0000004210   0.0000019404  -0.0000002623
       -0.0000002924   0.0000023112   0.0000001373   0.0000001597   0.0000016236
       -0.0000006658   0.0000003615   0.0000015356  -0.0000022269  -0.0000009468
        0.0000025101  -0.0000015214  -0.0000015285   0.0000004427  -0.0000052722
        0.0000034320   0.0000035785  -0.0000011993   0.0000103643  -0.0000006789
       -0.0316494428  -0.0880315611  -0.0346486208  -0.0883504588   0.6022418841
        0.1596216380   0.1605259518  -0.2369898624   0.0059302046  -0.0016407382
       -0.0630846732  -0.0273882978   0.0177461683  -0.0092308823   0.0079228202
       -0.0243762818   0.0173419038  -0.0063566558   0.0010388414   0.0012387034
        0.0010174513  -0.0003770763  -0.0011868985  -0.0006044698  -0.0003594049
        0.0012731513   0.0003486240   0.0011618287  -0.0002090225   0.0006073051
       -0.0006574724  -0.0008518247  -0.0007405507   0.0001343937  -0.0017997923
       -0.0010368819  -0.0043438419   0.0027520416  -0.0032800298   0.0007182481
       -0.0001319716   0.0001031676  -0.0003709679   0.0001238767   0.0000457965
        0.0001177756   0.0000520769  -0.0000021981   0.0004148135   0.0000039701
        0.0000425374  -0.0001881522  -0.0000324160   0.0000648955  -0.0002391078
       -0.0000200988  -0.0000380173   0.0000242805  -0.0000075662   0.0000365350
       -0.0000615052  -0.0000391289   0.0000088042  -0.0000275193   0.0000072553
       -0.0000157685   0.0000192191   0.0000169250  -0.0000059590   0.0000339865
       -0.0000092720   0.0000149182  -0.0000790624  -0.0000192541   0.0000096794
       -0.0004205653   0.0000949626  -0.0001523153   0.0002680115   0.0000733039
       -0.0000229182  -0.0000541518  -0.0000121403  -0.0000097233  -0.0000091143
        0.0000265247  -0.0000155312   0.0001389490  -0.0000045214   0.0000138894
       -0.0001074116  -0.0000449658  -0.0000063108   0.0000170239   0.0000582276
        0.0000162117  -0.0000027076  -0.0000159438  -0.0000123116   0.0000019607
        0.0000059540   0.0000029591  -0.0000115356  -0.0000003711   0.0000025097
        0.0000024622  -0.0000081582  -0.0000068228  -0.0000177623   0.0000094513
        0.0000108457  -0.0000020313  -0.0000161206  -0.0000119040  -0.0000064019
        0.0000107079   0.0000047506   0.0000034072  -0.0000112063  -0.0000080320
       -0.0000116943   0.0000029534   0.0000029264   0.0000033425  -0.0000057545
       -0.0000001724  -0.0000014814   0.0000022278  -0.0000006073  -0.0000004896
        0.0000007377   0.0000013425  -0.0000019295  -0.0000008057   0.0000020940
        0.0000005133   0.0000008949  -0.0000001233  -0.0000017035  -0.0000007567
        0.0000014029  -0.0000014461   0.0000018428  -0.0000010566  -0.0000005453
       -0.0000018701   0.0000009642  -0.0000016929   0.0000003445  -0.0000005243
       -0.0000006780   0.0000002503  -0.0000005917  -0.0000015770  -0.0000031865
        0.0000003832   0.0000057274   0.0000049674  -0.0000002579   0.0000057686
       -0.0000021170  -0.0000034514  -0.0000097050   0.0000092416   0.0000084822
        0.0000446475  -0.0000280637  -0.0000099399  -0.0000740326   0.0000662455
        0.0000027472  -0.0000047282  -0.0000346755  -0.0000082607   0.0215975853
       -0.0010860731   0.0112949548  -0.0510266865  -0.2202969833  -0.1081588957
        0.0010006166   0.0004788801   0.0006437083  -0.0007180485  -0.0027422135
       -0.0050405353   0.0000079913   0.0000262473   0.0000090421  -0.0000188715
        0.0000314560  -0.0000046288  -0.0000286465  -0.0000184801  -0.0000001680
       -0.0000170893  -0.0000227471  -0.0000513854   0.0002022066  -0.0000464257
       -0.0001118784  -0.0000231187  -0.0000011807   0.0000184767   0.0000315793
        0.0000682119  -0.0000424728   0.0000149639  -0.0000034326   0.0000009002
        0.0000024701   0.0000119378  -0.0000040333  -0.0000040639   0.0000097858
       -0.0000056276  -0.0000144667  -0.0000055757  -0.0000035359   0.0000045028
        0.0000036508   0.0000014970   0.0000042626   0.0000099070   0.0000044228
        0.0000004846   0.0000017063  -0.0000026093  -0.0000001717   0.0000007773
       -0.0000013028  -0.0000004085   0.0000008226  -0.0000004570  -0.0000007728
        0.0000003430  -0.0000006083   0.0000022404  -0.0000006277   0.0000008002
        0.0000016753   0.0000002646   0.0000009200   0.0000013231   0.0000001593
        0.0000008578   0.0000008557   0.0000001137   0.0000002905   0.0000003752
        0.0000003147   0.0000000265   0.0000005944   0.0000000052  -0.0000006882
        0.0000011691   0.0000005402  -0.0000012193   0.0000017646   0.0000016972
       -0.0000014604   0.0000019068   0.0000001741   0.0000004734   0.0000056485
       -0.0000041512  -0.0000029615   0.0000052245  -0.0000048488   0.0000005159
       -0.1225232056   0.0008287759  -0.1153466583   0.1926920458   0.1596216380
        0.2894753372  -0.0079635996  -0.0282394293  -0.0592133541   0.0179860535
       -0.0039867458   0.0073676831  -0.0114088275   0.0134280352  -0.0058066315
       -0.0155136667  -0.0327443792  -0.0211755682  -0.0002269065  -0.0039272329
       -0.0018313845   0.0006937729   0.0015271790   0.0008435106   0.0007977274
       -0.0013214047  -0.0001120030  -0.0011214821   0.0001598033  -0.0006794874
        0.0001608771   0.0006679894   0.0003149719  -0.0017030387  -0.0013376112
       -0.0007127698  -0.0023337405  -0.0035043287   0.0020600595   0.0000420698
       -0.0001377504   0.0007057977   0.0000926486  -0.0001678430  -0.0000378488
       -0.0000281194   0.0000202842  -0.0000761805  -0.0000245928  -0.0001359534
        0.0000649426   0.0001744957  -0.0000534733   0.0000318110   0.0000613619
        0.0001474114   0.0000152040   0.0000018093   0.0000219646  -0.0000372256
        0.0000052917  -0.0000097906   0.0000139891  -0.0000173075   0.0000007028
       -0.0000021160   0.0000139515   0.0000047030   0.0000012082   0.0000031226
       -0.0000028294   0.0000046103   0.0000109416   0.0000226352  -0.0000088971
       -0.0000455455   0.0000051153   0.0000060383   0.0000322410   0.0000043689
       -0.0000005005  -0.0000111280   0.0000011993  -0.0000014044   0.0000013564
        0.0000012773  -0.0000026768   0.0000224257   0.0000045436   0.0000004523
       -0.0000247934  -0.0000049563  -0.0000021293   0.0000024733   0.0000074285
        0.0000062157   0.0000042828  -0.0000058816  -0.0000019441   0.0000013898
        0.0000014754   0.0000016779   0.0000002686  -0.0000006657  -0.0000027046
        0.0000006424  -0.0000018207  -0.0000024586  -0.0000006607  -0.0000029803
        0.0000074853  -0.0000015513  -0.0000027519  -0.0000049372  -0.0000011522
       -0.0000003158   0.0000057082   0.0000030100   0.0000007236  -0.0000071134
       -0.0000050665  -0.0000000955   0.0000004872  -0.0000010124  -0.0000043180
       -0.0000045677   0.0000008797   0.0000014836   0.0000030316  -0.0000002008
       -0.0000014731  -0.0000034959   0.0000027446   0.0000020379   0.0000030641
       -0.0000010873  -0.0000015430  -0.0000061710   0.0000008390  -0.0000002302
        0.0000013404  -0.0000014144   0.0000003508  -0.0000034235   0.0000006271
        0.0000022166  -0.0000004957  -0.0000002109  -0.0000020234  -0.0000013029
        0.0000001826  -0.0000012487  -0.0000031898  -0.0000008180  -0.0000008766
       -0.0000021781   0.0000041481   0.0000048697  -0.0000002448   0.0000024781
        0.0000002239  -0.0000017711  -0.0000024276   0.0000070841  -0.0000044977
        0.0000096948  -0.0000117581   0.0000043466  -0.0000042144   0.0000075129
       -0.0000007301  -0.0000032886  -0.0000054859   0.0000035534  -0.0009809071
        0.0003281184  -0.0003901223  -0.0351079914  -0.1080793017  -0.0992891448
       -0.0102604575   0.0114625018  -0.0008137597  -0.0035260847  -0.0047528939
        0.0045204142   0.0000991168   0.0000287358   0.0000687426   0.0000033603
        0.0000151106   0.0000709228  -0.0000182782  -0.0000045748   0.0000111897
       -0.0000349121   0.0000610634   0.0000245924  -0.0000228800   0.0000441372
        0.0000019732   0.0000025003   0.0000085133  -0.0000103758   0.0000020126
        0.0000057656  -0.0000172324  -0.0000048007  -0.0000032175  -0.0000026058
        0.0000006330   0.0000000030  -0.0000008166  -0.0000010054   0.0000014713
       -0.0000018147  -0.0000004276   0.0000000997  -0.0000024034   0.0000007437
       -0.0000027402  -0.0000000626  -0.0000005629   0.0000013528   0.0000007330
       -0.0000004428   0.0000006802  -0.0000015345  -0.0000011116  -0.0000010438
       -0.0000005269  -0.0000010395  -0.0000009650  -0.0000005581  -0.0000013907
        0.0000004670   0.0000005335  -0.0000006397   0.0000000460  -0.0000013880
       -0.0000000497  -0.0000003564  -0.0000012038  -0.0000000172   0.0000002393
       -0.0000020005  -0.0000005511  -0.0000004981  -0.0000019976  -0.0000001230
        0.0000002996  -0.0000010502  -0.0000011319  -0.0000010469  -0.0000010988
       -0.0000008952   0.0000012042   0.0000015947  -0.0000000574   0.0000005045
       -0.0000013486  -0.0000004395   0.0000003528  -0.0000024003   0.0000009842
       -0.0000011016  -0.0000006571   0.0000000511   0.0000012366  -0.0000010577
       -0.0451144322   0.0129509008  -0.0199153327  -0.1807269353   0.1605259518
       -0.0079635996   0.5593007715  -0.0903905720   0.2138332893  -0.1010106796
       -0.0779663528  -0.0649930856  -0.0053691216  -0.0239067206  -0.0127467359
        0.0000998836   0.0134013434   0.0069752220  -0.0030530104   0.0001926190
       -0.0040941448  -0.0003090201  -0.0016670550  -0.0010762061  -0.0006750411
        0.0005158663   0.0000649613   0.0006531144   0.0002448527   0.0005262302
        0.0006549205  -0.0000598438  -0.0003763115  -0.0015580968   0.0037501552
       -0.0006370227   0.0062152377   0.0134216355   0.0100633668   0.0008019706
        0.0002553027   0.0010097257  -0.0007756663   0.0004383142  -0.0000330073
        0.0002132801  -0.0000253444   0.0002155329   0.0001601643   0.0001342751
        0.0000017502  -0.0001593388  -0.0001359862  -0.0000433537   0.0000533641
        0.0000236905   0.0001090061   0.0000319593  -0.0000245744  -0.0000094755
       -0.0000473890  -0.0000548871   0.0000042719  -0.0000102034   0.0000019816
       -0.0000073361  -0.0000063010  -0.0000060354  -0.0000056617   0.0000274929
       -0.0000094862   0.0000126183  -0.0000630998  -0.0000127473   0.0000438205
       -0.0002682269   0.0000400995  -0.0001906491   0.0001708965   0.0001335706
       -0.0000015404  -0.0000548446  -0.0000054977  -0.0000081256   0.0000062124
        0.0000280412  -0.0000131641   0.0001135330  -0.0000108270   0.0000150801
       -0.0001007558  -0.0000422435   0.0000048491   0.0000089845   0.0000489854
        0.0000155346   0.0000005056  -0.0000135443  -0.0000012828   0.0000119845
        0.0000091970   0.0000058645  -0.0000013466  -0.0000027416   0.0000008415
        0.0000032816  -0.0000052849  -0.0000011555  -0.0000120048   0.0000062486
        0.0000087681  -0.0000018836  -0.0000145293  -0.0000089757  -0.0000022141
        0.0000084769   0.0000039906   0.0000139215  -0.0000102972  -0.0000095188
       -0.0000175716   0.0000065960   0.0000056861   0.0000049694  -0.0000100823
       -0.0000002157  -0.0000016528   0.0000014328  -0.0000011425   0.0000022028
       -0.0000013795  -0.0000012950  -0.0000005391   0.0000002135  -0.0000007123
        0.0000018139  -0.0000003251  -0.0000007477  -0.0000026808  -0.0000004417
        0.0000021412  -0.0000012498   0.0000031332  -0.0000001813   0.0000007619
       -0.0000000411   0.0000007236  -0.0000001785   0.0000013188   0.0000012102
        0.0000030341   0.0000008766  -0.0000001657   0.0000004129  -0.0000015394
        0.0000017606   0.0000058965   0.0000077027  -0.0000004979   0.0000079328
       -0.0000002908  -0.0000030444  -0.0000060100   0.0000024027   0.0000048995
        0.0000414910  -0.0000252622  -0.0000144241  -0.0000679244   0.0000152796
        0.0000057768   0.0000522591  -0.0000506611  -0.0000085182  -0.0029520226
        0.0008211162  -0.0048323031   0.0035824898  -0.0044133964   0.0002520885
       -0.2301344419  -0.0088981049  -0.1169947937   0.0005103323   0.0002561404
        0.0003668159   0.0001412763  -0.0000065107   0.0000388873   0.0000251790
       -0.0000408076   0.0000364650   0.0000001523   0.0000631914   0.0001732780
       -0.0000128059   0.0000201293  -0.0000361821  -0.0003583615   0.0004316273
        0.0001356080  -0.0000330671   0.0000083111   0.0000367594   0.0000123066
        0.0000082385   0.0000555320   0.0000209264   0.0000026310   0.0000062132
        0.0000014706   0.0000128024  -0.0000058791  -0.0000027528   0.0000101954
       -0.0000096611  -0.0000179596   0.0000052365  -0.0000056070   0.0000033449
        0.0000047493   0.0000007588  -0.0000070837   0.0000018415   0.0000000545