 Entering Gaussian System
 *********************************************
 Gaussian 98:
 frequency output generated by the xtb code
 *********************************************
                         Standard orientation:
 --------------------------------------------------------------------
  Center     Atomic     Atomic              Coordinates (Angstroms)
  Number     Number      Type              X           Y           Z
 --------------------------------------------------------------------
    1          6             0        6.528822    2.221782    0.895784
    2          6             0        5.688448    1.069871    0.437805
    3          7             0        6.350787    0.000839    0.001242
    4          6             0        5.689212   -1.068139   -0.436646
    5          6             0        6.530389   -2.220078   -0.893072
    6          6             0        4.297502   -1.122260   -0.461622
    7          6             0        3.725639   -2.344779   -0.824402
    8          7             0        3.328142   -3.395017   -1.096135
    9          6             0        3.517049    0.000869   -0.001367
   10          6             0        2.097508    0.000757   -0.002416
   11          6             0        1.346679    0.738372    0.955190
   12          6             0       -0.019186    0.742392    0.951041
   13          6             0       -0.734759   -0.000285   -0.004109
   14          7             0       -2.146133   -0.000235   -0.004962
   15          6             0       -2.816933    1.182216   -0.237728
   16          6             0       -2.090102    2.346305   -0.548281
   17          6             0       -2.730195    3.547065   -0.744207
   18          6             0       -4.114810    3.615294   -0.654000
   19          6             0       -4.840122    2.464330   -0.405789
   20          6             0       -4.223676    1.236213   -0.206295
   21          6             0       -5.068367    0.000973   -0.004028
   22          6             0       -5.954060   -0.191012   -1.252816
   23          6             0       -5.951471    0.193870    1.246465
   24          6             0       -4.224540   -1.235101    0.196800
   25          6             0       -4.841928   -2.462751    0.396288
   26          6             0       -4.117454   -3.614460    0.643459
   27          6             0       -2.732716   -3.547484    0.732638
   28          6             0       -2.091706   -2.347180    0.536860
   29          6             0       -2.817725   -1.182297    0.227410
   30          6             0       -0.017577   -0.742269   -0.958567
   31          6             0        1.348305   -0.737180   -0.961047
   32          6             0        4.296691    1.124064    0.460122
   33          6             0        3.724124    2.346681    0.821536
   34          7             0        3.325958    3.396864    1.092341
   35          1             0        6.319835    2.456276    1.939179
   36          1             0        6.309775    3.112142    0.307001
   37          1             0        7.578761    1.964330    0.786340
   38          1             0        7.580142   -1.962199   -0.782852
   39          1             0        6.311137   -3.110053   -0.303774
   40          1             0        6.322384   -2.455467   -1.936457
   41          1             0        1.869015    1.267687    1.736578
   42          1             0       -0.562208    1.282400    1.713359
   43          1             0       -1.017615    2.294452   -0.642879
   44          1             0       -2.151930    4.428430   -0.974439
   45          1             0       -4.624230    4.555324   -0.798650
   46          1             0       -5.915821    2.529477   -0.372575
   47          1             0       -6.589866   -1.063559   -1.141209
   48          1             0       -5.330422   -0.327854   -2.134009
   49          1             0       -6.588112    0.675650   -1.410808
   50          1             0       -5.326004    0.330359    2.126418
   51          1             0       -6.585877   -0.672285    1.405843
   52          1             0       -6.586761    1.066937    1.135928
   53          1             0       -5.917717   -2.526908    0.364013
   54          1             0       -4.627610   -4.554082    0.788182
   55          1             0       -2.155053   -4.429477    0.961982
   56          1             0       -1.019107   -2.296352    0.630709
   57          1             0       -0.559225   -1.282449   -1.721738
   58          1             0        1.871996   -1.265762   -1.742027
 --------------------------------------------------------------------
     1 basis functions        1 primitive gaussians
     1 alpha electrons        1 beta electrons
 
 Harmonic frequencies (cm**-1), IR intensities (km*mol⁻¹),
 Raman scattering activities (A**4/amu), Raman depolarization ratios,
 reduced masses (AMU), force constants (mDyne/A) and normal coordinates:
                      1                      2                      3
                        a                      a                      a 
 Frequencies --    15.4286                20.3438                23.2202
 Red. masses --    11.2826                11.7107                10.1945
 Frc consts  --     0.0000                 0.0000                 0.0000
 IR Inten    --     0.2277                 0.4827                 0.5669
 Raman Activ --     0.0000                 0.0000                 0.0000
 Depolar     --     0.0000                 0.0000                 0.0000
 Atom AN      X      Y      Z        X      Y      Z        X      Y      Z
   1   6    -0.14   0.18  -0.07    -0.00   0.08  -0.20     0.05   0.00  -0.18
   2   6    -0.07   0.11  -0.04     0.00   0.04  -0.10     0.02  -0.00  -0.12
   3   7     0.00   0.17  -0.05     0.00  -0.00   0.00     0.00   0.01  -0.19
   4   6     0.07   0.11  -0.04     0.00  -0.04   0.10    -0.02  -0.00  -0.12
   5   6     0.14   0.18  -0.06    -0.00  -0.08   0.20    -0.05   0.00  -0.17
   6   6     0.07   0.01  -0.02     0.00  -0.04   0.10    -0.02  -0.01  -0.02
   7   6     0.15  -0.02  -0.04    -0.01  -0.07   0.23    -0.05  -0.02   0.04
   8   7     0.24  -0.04  -0.07    -0.04  -0.10   0.37    -0.07  -0.03   0.10
   9   6     0.00  -0.05   0.01     0.00   0.00  -0.00     0.00  -0.01   0.02
  10   6    -0.00  -0.13   0.06     0.00   0.00  -0.00     0.00  -0.00   0.07
  11   6     0.00  -0.16   0.08     0.01   0.04  -0.03     0.03  -0.00   0.09
  12   6     0.00  -0.16   0.09     0.01   0.03  -0.03     0.03   0.01   0.12
  13   6    -0.00  -0.14   0.07     0.00   0.00  -0.00     0.00   0.03   0.13
  14   7    -0.00  -0.08   0.04     0.01  -0.00  -0.00     0.00   0.04   0.14
  15   6     0.07  -0.04   0.02     0.01   0.01   0.06    -0.01   0.03   0.10
  16   6     0.13  -0.08   0.03    -0.00   0.03   0.11    -0.01   0.06   0.20
  17   6     0.20  -0.04   0.02    -0.00   0.05   0.21    -0.02   0.05   0.17
  18   6     0.20   0.03   0.00     0.00   0.05   0.25    -0.03   0.01   0.03
  19   6     0.14   0.07  -0.01     0.00   0.03   0.19    -0.03  -0.02  -0.08
  20   6     0.07   0.04  -0.00     0.01   0.01   0.09    -0.01  -0.01  -0.04
  21   6     0.00   0.08  -0.02     0.01   0.00   0.00    -0.00  -0.04  -0.17
  22   6     0.02   0.13  -0.04     0.00   0.09  -0.01     0.22  -0.07  -0.33
  23   6    -0.02   0.13  -0.04     0.01  -0.09   0.02    -0.22  -0.07  -0.33
  24   6    -0.07   0.04  -0.00     0.01  -0.01  -0.09     0.01  -0.01  -0.04
  25   6    -0.14   0.07  -0.01     0.00  -0.03  -0.19     0.03  -0.02  -0.08
  26   6    -0.20   0.03  -0.00     0.00  -0.05  -0.25     0.03   0.00   0.02
  27   6    -0.20  -0.04   0.02    -0.00  -0.05  -0.21     0.02   0.05   0.16
  28   6    -0.13  -0.08   0.03    -0.00  -0.03  -0.11     0.01   0.06   0.20
  29   6    -0.07  -0.04   0.02     0.01  -0.01  -0.07     0.01   0.03   0.10
  30   6    -0.00  -0.16   0.09     0.01  -0.03   0.02    -0.03   0.01   0.12
  31   6    -0.00  -0.16   0.08     0.01  -0.04   0.03    -0.03  -0.00   0.09
  32   6    -0.07   0.01  -0.02     0.00   0.04  -0.10     0.02  -0.01  -0.02
  33   6    -0.15  -0.02  -0.04    -0.01   0.07  -0.23     0.04  -0.02   0.04
  34   7    -0.24  -0.04  -0.07    -0.04   0.10  -0.37     0.07  -0.03   0.10
  35   1    -0.04   0.05  -0.02     0.01   0.04  -0.06     0.03   0.00  -0.05
  36   1    -0.06   0.04  -0.02    -0.01   0.01  -0.07     0.00   0.00  -0.05
  37   1    -0.04   0.07  -0.02     0.00   0.03  -0.06     0.01   0.00  -0.07
  38   1     0.04   0.07  -0.02     0.00  -0.03   0.06    -0.01   0.00  -0.07
  39   1     0.06   0.04  -0.02    -0.01  -0.01   0.07    -0.00  -0.00  -0.05
  40   1     0.04   0.05  -0.02     0.01  -0.04   0.06    -0.03   0.00  -0.05
  41   1     0.00  -0.05   0.03     0.00   0.02  -0.02     0.02  -0.00   0.02
  42   1     0.00  -0.05   0.03     0.00   0.02  -0.01     0.01   0.00   0.04
  43   1     0.04  -0.04   0.02    -0.00   0.01   0.02     0.00   0.03   0.09
  44   1     0.07  -0.02   0.01    -0.00   0.02   0.07    -0.01   0.02   0.07
  45   1     0.07   0.02  -0.00    -0.00   0.02   0.10    -0.01  -0.00  -0.00
  46   1     0.04   0.04  -0.01     0.00   0.01   0.06    -0.01  -0.02  -0.06
  47   1    -0.01   0.05  -0.01    -0.01   0.03  -0.02     0.07  -0.03  -0.13
  48   1     0.01   0.03  -0.01     0.00   0.04  -0.00     0.11  -0.01  -0.06
  49   1     0.02   0.05  -0.01     0.01   0.03   0.01     0.06  -0.03  -0.13
  50   1    -0.01   0.03  -0.01     0.00  -0.04   0.01    -0.11  -0.01  -0.06
  51   1    -0.02   0.05  -0.01     0.01  -0.03  -0.01    -0.06  -0.03  -0.13
  52   1     0.01   0.05  -0.01    -0.00  -0.03   0.02    -0.07  -0.03  -0.13
  53   1    -0.04   0.04  -0.01     0.00  -0.01  -0.06     0.01  -0.02  -0.06
  54   1    -0.07   0.02  -0.00     0.00  -0.02  -0.10     0.01  -0.00  -0.00
  55   1    -0.07  -0.02   0.01    -0.00  -0.02  -0.07     0.01   0.02   0.07
  56   1    -0.04  -0.04   0.02    -0.00  -0.01  -0.02    -0.00   0.03   0.09
  57   1    -0.00  -0.05   0.03     0.00  -0.02   0.01    -0.01   0.00   0.04
  58   1    -0.00  -0.05   0.03     0.00  -0.02   0.02    -0.02  -0.00   0.02
                      4                      5                      6
                        a                      a                      a 
 Frequencies --    29.5505                60.4303                65.1701
 Red. masses --    12.2095                10.9861                 8.9880
 Frc consts  --     0.0000                 0.0000                 0.0000
 IR Inten    --     5.6826                 1.0232                 1.4783
 Raman Activ --     0.0000                 0.0000                 0.0000
 Depolar     --     0.0000                 0.0000                 0.0000
 Atom AN      X      Y      Z        X      Y      Z        X      Y      Z
   1   6    -0.05  -0.06   0.21     0.08  -0.03  -0.04     0.01  -0.16   0.40
   2   6    -0.02  -0.05   0.13     0.04  -0.02  -0.00     0.01  -0.05   0.12
   3   7    -0.00  -0.09   0.26     0.00  -0.05   0.01     0.01   0.00  -0.00
   4   6     0.02  -0.05   0.13    -0.04  -0.02  -0.00     0.01   0.05  -0.12
   5   6     0.05  -0.06   0.21    -0.08  -0.03  -0.04     0.01   0.16  -0.40
   6   6     0.02  -0.01  -0.06    -0.04   0.03  -0.00     0.01   0.01  -0.01
   7   6     0.05   0.03  -0.24    -0.06   0.06  -0.08     0.03  -0.03   0.08
   8   7     0.09   0.06  -0.44    -0.07   0.09  -0.18     0.08  -0.09   0.24
   9   6     0.00  -0.02  -0.09     0.00   0.04   0.04     0.00   0.00  -0.00
  10   6     0.00  -0.01  -0.07    -0.00   0.05   0.12     0.00   0.00  -0.00
  11   6     0.04  -0.01  -0.04     0.03   0.04   0.15    -0.01   0.12  -0.09
  12   6     0.04   0.01  -0.00     0.03   0.02   0.22    -0.00   0.12  -0.09
  13   6     0.00   0.02   0.01    -0.00   0.01   0.25    -0.01   0.00   0.00
  14   7    -0.00   0.03   0.06    -0.00   0.02   0.25    -0.01   0.00   0.00
  15   6    -0.01   0.03   0.06     0.01  -0.00   0.09    -0.01  -0.00  -0.02
  16   6    -0.02   0.05   0.11     0.02  -0.02   0.08    -0.02  -0.01  -0.07
  17   6    -0.03   0.04   0.13     0.02  -0.05  -0.12    -0.02  -0.01  -0.04
  18   6    -0.04   0.02   0.08     0.01  -0.07  -0.28    -0.02   0.01   0.04
  19   6    -0.02  -0.00   0.03     0.01  -0.05  -0.23    -0.01   0.01   0.06
  20   6    -0.01   0.00   0.03     0.00  -0.02  -0.06    -0.01   0.00   0.02
  21   6    -0.00  -0.01  -0.03    -0.00  -0.01   0.00    -0.01  -0.00  -0.00
  22   6     0.11  -0.03  -0.11    -0.16   0.01   0.12    -0.01   0.04  -0.01
  23   6    -0.11  -0.03  -0.11     0.16   0.01   0.12    -0.01  -0.04   0.01
  24   6     0.01   0.00   0.03    -0.00  -0.02  -0.06    -0.01  -0.00  -0.02
  25   6     0.02  -0.00   0.04    -0.01  -0.05  -0.23    -0.01  -0.01  -0.06
  26   6     0.04   0.02   0.09    -0.01  -0.06  -0.28    -0.02  -0.01  -0.04
  27   6     0.03   0.04   0.13    -0.02  -0.05  -0.12    -0.02   0.01   0.04
  28   6     0.02   0.05   0.11    -0.02  -0.02   0.08    -0.02   0.01   0.07
  29   6     0.01   0.03   0.07    -0.01  -0.00   0.09    -0.01   0.00   0.02
  30   6    -0.04   0.01  -0.00    -0.03   0.02   0.22    -0.00  -0.12   0.09
  31   6    -0.04  -0.01  -0.04    -0.03   0.04   0.15    -0.01  -0.12   0.09
  32   6    -0.02  -0.01  -0.06     0.04   0.03  -0.00     0.01  -0.01   0.01
  33   6    -0.05   0.03  -0.24     0.06   0.06  -0.08     0.03   0.03  -0.08
  34   7    -0.09   0.06  -0.44     0.07   0.09  -0.18     0.08   0.09  -0.25
  35   1    -0.05  -0.01   0.05     0.01   0.01  -0.02     0.08  -0.20   0.17
  36   1     0.01  -0.02   0.05     0.04  -0.02  -0.03    -0.07   0.03   0.26
  37   1    -0.01  -0.03   0.10     0.02  -0.03   0.00     0.00  -0.00   0.00
  38   1     0.01  -0.03   0.10    -0.02  -0.03   0.00     0.00   0.01  -0.02
  39   1    -0.01  -0.02   0.05    -0.04  -0.02  -0.03    -0.06  -0.02  -0.24
  40   1     0.05  -0.01   0.05    -0.02   0.01  -0.02     0.06   0.18  -0.16
  41   1     0.02  -0.01  -0.01     0.02   0.02   0.03    -0.00   0.06  -0.04
  42   1     0.02   0.00   0.01     0.02   0.01   0.07     0.00   0.06  -0.04
  43   1    -0.00   0.02   0.04     0.01  -0.00   0.06    -0.01  -0.01  -0.04
  44   1    -0.01   0.02   0.05     0.01  -0.02  -0.04    -0.01  -0.00  -0.02
  45   1    -0.01   0.00   0.03     0.00  -0.03  -0.12    -0.00   0.00   0.02
  46   1    -0.01  -0.01  -0.00     0.00  -0.02  -0.09    -0.00   0.00   0.03
  47   1     0.04  -0.02  -0.05    -0.05   0.01   0.06    -0.01   0.01  -0.01
  48   1     0.05  -0.00  -0.02    -0.08  -0.00   0.01    -0.00   0.01  -0.00
  49   1     0.03  -0.01  -0.05    -0.05   0.01   0.05    -0.00   0.01   0.00
  50   1    -0.05  -0.01  -0.02     0.08  -0.00   0.01    -0.00  -0.01   0.00
  51   1    -0.03  -0.01  -0.05     0.05   0.01   0.06    -0.00  -0.01  -0.00
  52   1    -0.04  -0.01  -0.05     0.05   0.01   0.06    -0.01  -0.01   0.01
  53   1     0.01  -0.01  -0.00    -0.00  -0.02  -0.09    -0.00  -0.00  -0.03
  54   1     0.01   0.00   0.03    -0.00  -0.03  -0.12    -0.00  -0.00  -0.02
  55   1     0.01   0.02   0.05    -0.01  -0.02  -0.04    -0.01   0.00   0.02
  56   1     0.00   0.02   0.04    -0.01  -0.00   0.06    -0.01   0.01   0.04
  57   1    -0.02   0.00   0.01    -0.02   0.01   0.07    -0.00  -0.06   0.04
  58   1    -0.02  -0.01  -0.02    -0.02   0.02   0.03    -0.00  -0.06   0.04
                      7                      8                      9
                        a                      a                      a 
 Frequencies --    68.4364                69.0042                70.7930
 Red. masses --     7.7116                11.1113                 2.0666
 Frc consts  --     0.0000                 0.0000                 0.0000
 IR Inten    --     5.3148                 2.1008                 2.1854
 Raman Activ --     0.0000                 0.0000                 0.0000
 Depolar     --     0.0000                 0.0000                 0.0000
 Atom AN      X      Y      Z        X      Y      Z        X      Y      Z
   1   6    -0.03  -0.00   0.03    -0.12   0.04  -0.06    -0.03   0.02  -0.01
   2   6    -0.02   0.01  -0.01    -0.05  -0.02  -0.01    -0.02  -0.02   0.04
   3   7    -0.03   0.00  -0.01     0.00   0.02  -0.03    -0.01  -0.01   0.03
   4   6    -0.01  -0.01   0.00     0.06  -0.02  -0.01     0.01  -0.00  -0.01
   5   6    -0.01   0.00  -0.02     0.13   0.04  -0.04     0.02   0.06  -0.14
   6   6    -0.01  -0.01   0.00     0.06  -0.12   0.04     0.01  -0.03   0.01
   7   6    -0.08   0.00   0.06     0.14  -0.15   0.01    -0.00  -0.03   0.04
   8   7    -0.24   0.04   0.15     0.25  -0.18  -0.04    -0.04  -0.03   0.11
   9   6     0.00  -0.01   0.00    -0.00  -0.17   0.06    -0.00  -0.04   0.02
  10   6     0.00  -0.01   0.01    -0.00  -0.17   0.08     0.00  -0.03   0.02
  11   6     0.02  -0.19   0.15     0.03  -0.11   0.05     0.01  -0.06   0.04
  12   6     0.02  -0.18   0.15     0.03   0.06  -0.01     0.01  -0.03   0.02
  13   6     0.03   0.01  -0.00    -0.00   0.14  -0.04     0.01   0.02  -0.02
  14   7     0.03   0.01   0.00    -0.00   0.16  -0.02     0.01   0.02  -0.02
  15   6     0.03   0.02   0.03    -0.06   0.12  -0.01     0.00   0.02  -0.00
  16   6     0.05   0.03   0.12    -0.11   0.16   0.03    -0.00   0.03   0.02
  17   6     0.04   0.02   0.05    -0.18   0.13  -0.00    -0.01   0.02   0.02
  18   6     0.03  -0.01  -0.10    -0.18   0.05  -0.06    -0.02   0.01  -0.02
  19   6     0.03  -0.02  -0.13    -0.13   0.01  -0.07    -0.01  -0.00  -0.03
  20   6     0.03  -0.00  -0.05    -0.06   0.04  -0.05    -0.00   0.01  -0.01
  21   6     0.04   0.00  -0.00    -0.00   0.01  -0.01     0.01   0.00   0.00
  22   6     0.03  -0.06   0.02    -0.12  -0.01   0.08    -0.00  -0.02   0.01
  23   6     0.05   0.06  -0.00     0.11  -0.03   0.08     0.02   0.01   0.01
  24   6     0.04   0.01   0.04     0.05   0.04  -0.06     0.02   0.01   0.00
  25   6     0.05   0.02   0.11     0.12   0.01  -0.10     0.03   0.01   0.03
  26   6     0.06   0.02   0.08     0.17   0.04  -0.08     0.04   0.01   0.02
  27   6     0.07   0.00  -0.05     0.16   0.13   0.01     0.04   0.02  -0.01
  28   6     0.07  -0.00  -0.11     0.10   0.17   0.05     0.03   0.02  -0.03
  29   6     0.04   0.00  -0.03     0.05   0.12  -0.00     0.02   0.02  -0.01
  30   6     0.02   0.19  -0.15    -0.04   0.02   0.02     0.00   0.05  -0.04
  31   6     0.02   0.17  -0.14    -0.03  -0.15   0.09     0.00   0.02  -0.02
  32   6    -0.02  -0.00   0.00    -0.05  -0.12   0.04    -0.02  -0.03   0.02
  33   6    -0.11  -0.03  -0.06    -0.12  -0.15   0.02    -0.04  -0.03  -0.01
  34   7    -0.28  -0.07  -0.16    -0.19  -0.17   0.00    -0.08  -0.04  -0.04
  35   1     0.19  -0.20   0.09    -0.01  -0.01  -0.01    -0.30   0.29  -0.13
  36   1    -0.21   0.08   0.21    -0.08   0.01   0.00     0.27  -0.12  -0.30
  37   1    -0.01   0.10  -0.24    -0.03   0.04  -0.05    -0.01  -0.14   0.36
  38   1    -0.00  -0.06   0.14     0.03   0.06  -0.09     0.00  -0.10   0.26
  39   1    -0.12  -0.05  -0.13     0.11   0.03   0.04    -0.23  -0.10  -0.30
  40   1     0.11   0.12  -0.06    -0.02  -0.04   0.01     0.24   0.28  -0.15
  41   1     0.01  -0.10   0.07     0.01  -0.06   0.03     0.00  -0.03   0.02
  42   1     0.00  -0.09   0.07     0.02   0.03  -0.01     0.00  -0.02   0.01
  43   1     0.02   0.02   0.07    -0.03   0.06   0.03    -0.00   0.01   0.01
  44   1     0.01   0.01   0.03    -0.06   0.05   0.01    -0.01   0.01   0.01
  45   1     0.01  -0.01  -0.05    -0.07   0.00  -0.03    -0.01   0.00  -0.01
  46   1     0.01  -0.01  -0.06    -0.04  -0.01  -0.03    -0.00  -0.00  -0.01
  47   1     0.02  -0.03   0.01    -0.02  -0.01   0.04     0.00  -0.01   0.01
  48   1     0.01  -0.01   0.00    -0.06   0.00   0.01    -0.00  -0.00   0.00
  49   1    -0.01  -0.03   0.00    -0.05  -0.01   0.04    -0.01  -0.01   0.00
  50   1     0.02   0.01  -0.00     0.06   0.00   0.01     0.01   0.00   0.00
  51   1     0.00   0.03   0.00     0.05  -0.02   0.04     0.01   0.00   0.00
  52   1     0.03   0.03  -0.00     0.02  -0.02   0.04     0.01   0.00   0.00
  53   1     0.01   0.01   0.06     0.04  -0.02  -0.04     0.01   0.00   0.01
  54   1     0.02   0.01   0.04     0.06   0.00  -0.04     0.01   0.00   0.01
  55   1     0.03  -0.00  -0.03     0.06   0.05   0.02     0.01   0.01  -0.01
  56   1     0.02  -0.00  -0.06     0.03   0.07   0.04     0.01   0.01  -0.01
  57   1     0.00   0.10  -0.07    -0.02   0.01   0.01    -0.00   0.02  -0.02
  58   1     0.01   0.09  -0.07    -0.02  -0.08   0.04     0.00   0.01  -0.01
                     10                     11                     12
                        a                      a                      a 
 Frequencies --    72.8418               101.2077               103.1696
 Red. masses --     5.1863                10.3349                10.4786
 Frc consts  --     0.0000                 0.0000                 0.0000
 IR Inten    --     0.1932                 0.4096                 0.4076
 Raman Activ --     0.0000                 0.0000                 0.0000
 Depolar     --     0.0000                 0.0000                 0.0000
 Atom AN      X      Y      Z        X      Y      Z        X      Y      Z
   1   6     0.01   0.09  -0.23     0.04   0.02  -0.14    -0.07   0.01  -0.01
   2   6     0.01   0.03  -0.09     0.02  -0.03   0.03    -0.06   0.00   0.01
   3   7     0.01  -0.00   0.01     0.00  -0.04   0.01    -0.07  -0.00   0.00
   4   6     0.01  -0.04   0.10    -0.02  -0.03   0.03    -0.06  -0.00  -0.00
   5   6     0.02  -0.07   0.20    -0.04   0.02  -0.14    -0.07  -0.01   0.00
   6   6     0.01  -0.01   0.03    -0.02  -0.05   0.13    -0.06  -0.00  -0.01
   7   6     0.05  -0.00  -0.07    -0.00  -0.02   0.00    -0.11   0.03  -0.02
   8   7     0.13   0.00  -0.21     0.05   0.01  -0.19    -0.23   0.07  -0.02
   9   6     0.00  -0.01   0.00     0.00  -0.07   0.22    -0.04  -0.00   0.01
  10   6     0.00  -0.00   0.00     0.00  -0.03   0.21    -0.03  -0.00   0.00
  11   6    -0.01   0.08  -0.07    -0.03   0.01   0.16    -0.01  -0.05   0.06
  12   6    -0.01   0.09  -0.08    -0.03   0.06   0.07    -0.01  -0.03   0.03
  13   6    -0.02   0.00  -0.00    -0.00   0.07   0.04     0.02   0.00   0.00
  14   7    -0.02   0.00  -0.00    -0.00   0.03   0.00     0.03   0.00  -0.00
  15   6    -0.02  -0.00  -0.02    -0.02   0.01  -0.01     0.05  -0.02  -0.09
  16   6    -0.03  -0.01  -0.06    -0.04  -0.03  -0.21     0.07  -0.09  -0.30
  17   6    -0.04  -0.00  -0.03    -0.05  -0.04  -0.26     0.10  -0.07  -0.23
  18   6    -0.03   0.01   0.04    -0.03  -0.00  -0.04     0.12   0.02   0.11
  19   6    -0.02   0.01   0.06    -0.02   0.03   0.17     0.09   0.07   0.25
  20   6    -0.02   0.00   0.02    -0.02   0.03   0.15     0.06   0.02   0.09
  21   6    -0.02   0.00   0.00    -0.00   0.02   0.12     0.06   0.00   0.00
  22   6    -0.02   0.03  -0.00     0.23  -0.02  -0.05     0.07   0.14  -0.02
  23   6    -0.02  -0.03   0.01    -0.23  -0.01  -0.05     0.06  -0.14   0.02
  24   6    -0.02  -0.00  -0.02     0.01   0.03   0.16     0.06  -0.02  -0.08
  25   6    -0.02  -0.01  -0.06     0.02   0.04   0.18     0.09  -0.06  -0.25
  26   6    -0.02  -0.00  -0.04     0.03  -0.00  -0.03     0.12  -0.02  -0.11
  27   6    -0.03   0.01   0.04     0.04  -0.04  -0.27     0.10   0.06   0.23
  28   6    -0.03   0.01   0.06     0.04  -0.03  -0.23     0.07   0.09   0.29
  29   6    -0.02   0.01   0.02     0.02   0.01  -0.01     0.05   0.02   0.09
  30   6    -0.01  -0.09   0.07     0.03   0.06   0.07    -0.01   0.03  -0.03
  31   6    -0.01  -0.09   0.07     0.03   0.01   0.16    -0.01   0.06  -0.05
  32   6     0.01   0.00  -0.02     0.02  -0.05   0.13    -0.06  -0.00   0.02
  33   6     0.04  -0.01   0.07     0.01  -0.02   0.00    -0.11  -0.03   0.02
  34   7     0.13  -0.01   0.22    -0.04   0.01  -0.19    -0.24  -0.07   0.01
  35   1     0.18  -0.10  -0.00     0.04   0.02  -0.04    -0.03   0.01  -0.01
  36   1    -0.17   0.07   0.07    -0.01  -0.01  -0.05    -0.02  -0.00  -0.01
  37   1     0.00   0.11  -0.27     0.01   0.01  -0.07    -0.02   0.00   0.01
  38   1     0.00  -0.16   0.41    -0.01   0.01  -0.07    -0.02  -0.00  -0.01
  39   1    -0.27  -0.12  -0.20     0.02  -0.01  -0.05    -0.02   0.00   0.01
  40   1     0.29   0.22  -0.06    -0.04   0.02  -0.04    -0.03  -0.01   0.00
  41   1    -0.01   0.04  -0.03    -0.02   0.01   0.05    -0.00  -0.04   0.03
  42   1    -0.00   0.05  -0.04    -0.02   0.03   0.01    -0.01  -0.01   0.01
  43   1    -0.01  -0.00  -0.04    -0.02  -0.02  -0.10     0.01  -0.05  -0.14
  44   1    -0.01  -0.00  -0.02    -0.02  -0.02  -0.13     0.03  -0.03  -0.12
  45   1    -0.01   0.00   0.02    -0.01  -0.00  -0.01     0.04   0.02   0.07
  46   1    -0.01   0.00   0.03    -0.00   0.02   0.09     0.03   0.04   0.14
  47   1    -0.01   0.01  -0.00     0.07  -0.01  -0.05    -0.01   0.06  -0.02
  48   1    -0.01   0.01  -0.00     0.11   0.00   0.02     0.02   0.03  -0.00
  49   1    -0.00   0.01   0.00     0.07  -0.01  -0.05     0.05   0.06   0.00
  50   1    -0.01  -0.01   0.00    -0.12   0.00   0.02     0.02  -0.03   0.01
  51   1     0.00  -0.01  -0.00    -0.07  -0.01  -0.05     0.05  -0.06  -0.00
  52   1    -0.01  -0.01   0.00    -0.07  -0.01  -0.05    -0.01  -0.06   0.02
  53   1    -0.01  -0.00  -0.03     0.00   0.02   0.10     0.03  -0.04  -0.13
  54   1    -0.01  -0.00  -0.02     0.01  -0.00  -0.01     0.04  -0.02  -0.07
  55   1    -0.01   0.00   0.02     0.02  -0.02  -0.14     0.03   0.03   0.12
  56   1    -0.01   0.01   0.03     0.01  -0.02  -0.11     0.01   0.05   0.14
  57   1    -0.00  -0.05   0.03     0.02   0.03   0.01    -0.01   0.01  -0.01
  58   1    -0.01  -0.05   0.03     0.02   0.00   0.05    -0.00   0.04  -0.03
                     13                     14                     15
                        a                      a                      a 
 Frequencies --   115.0619               134.5276               141.3229
 Red. masses --    10.8395                 2.9285                10.3177
 Frc consts  --     0.0000                 0.0000                 0.0000
 IR Inten    --     2.7254                 0.0703                 0.4782
 Raman Activ --     0.0000                 0.0000                 0.0000
 Depolar     --     0.0000                 0.0000                 0.0000
 Atom AN      X      Y      Z        X      Y      Z        X      Y      Z
   1   6     0.09   0.03  -0.16     0.03   0.00  -0.01    -0.17   0.01   0.01
   2   6     0.04  -0.02   0.05     0.03   0.00  -0.00    -0.15   0.00  -0.01
   3   7     0.00  -0.04   0.03     0.03  -0.00   0.00    -0.16  -0.00  -0.00
   4   6    -0.04  -0.02   0.05     0.03  -0.00   0.00    -0.15  -0.00   0.01
   5   6    -0.09   0.03  -0.16     0.03  -0.00   0.01    -0.17  -0.01  -0.01
   6   6    -0.04  -0.02   0.17     0.03   0.00   0.00    -0.15  -0.02   0.01
   7   6    -0.05   0.03   0.02     0.03   0.00   0.01    -0.14  -0.01  -0.02
   8   7    -0.02   0.08  -0.21     0.02   0.00   0.02    -0.11  -0.01  -0.09
   9   6    -0.00  -0.03   0.26     0.02   0.00   0.00    -0.11  -0.00  -0.00
  10   6    -0.00   0.02   0.19     0.02   0.00   0.00    -0.09  -0.00   0.00
  11   6    -0.09   0.03   0.11     0.01  -0.03   0.02    -0.05   0.19  -0.12
  12   6    -0.09  -0.00  -0.02     0.01  -0.04   0.02    -0.03   0.20  -0.13
  13   6    -0.00  -0.02  -0.08    -0.00  -0.00  -0.00     0.01   0.00   0.00
  14   7    -0.00  -0.06  -0.22    -0.01  -0.00  -0.00     0.05   0.00   0.00
  15   6     0.00  -0.04  -0.16    -0.02   0.01   0.05     0.09   0.02   0.03
  16   6     0.01  -0.01  -0.02    -0.03   0.00   0.01     0.13   0.03   0.10
  17   6     0.03   0.03   0.21    -0.04  -0.02  -0.07     0.15   0.04   0.11
  18   6     0.03   0.03   0.20    -0.04  -0.02  -0.09     0.14   0.02  -0.03
  19   6     0.01  -0.01  -0.02    -0.03  -0.01   0.00     0.12   0.01  -0.12
  20   6     0.00  -0.04  -0.17    -0.02   0.01   0.08     0.10   0.02  -0.03
  21   6    -0.00  -0.03  -0.14    -0.02  -0.00  -0.00     0.12   0.00  -0.00
  22   6    -0.18  -0.01  -0.02    -0.03   0.21  -0.03     0.15  -0.03  -0.01
  23   6     0.18  -0.01  -0.02    -0.02  -0.21   0.03     0.15   0.03   0.01
  24   6    -0.00  -0.04  -0.17    -0.02  -0.01  -0.08     0.10  -0.02   0.03
  25   6    -0.01  -0.01  -0.02    -0.03   0.01  -0.00     0.12  -0.01   0.12
  26   6    -0.03   0.03   0.20    -0.04   0.02   0.09     0.14  -0.02   0.03
  27   6    -0.03   0.03   0.21    -0.04   0.02   0.08     0.15  -0.04  -0.11
  28   6    -0.01  -0.01  -0.02    -0.03  -0.00  -0.01     0.13  -0.03  -0.10
  29   6    -0.00  -0.04  -0.16    -0.02  -0.01  -0.05     0.09  -0.02  -0.03
  30   6     0.09  -0.00  -0.02     0.01   0.04  -0.02    -0.03  -0.20   0.13
  31   6     0.09   0.03   0.11     0.01   0.03  -0.02    -0.05  -0.19   0.12
  32   6     0.04  -0.02   0.17     0.03  -0.00  -0.00    -0.14   0.02  -0.01
  33   6     0.05   0.03   0.02     0.03  -0.00  -0.01    -0.14   0.01   0.02
  34   7     0.02   0.08  -0.21     0.02  -0.00  -0.02    -0.11   0.01   0.09
  35   1     0.07   0.03  -0.04     0.01   0.00  -0.00    -0.06  -0.00   0.00
  36   1    -0.00  -0.01  -0.06     0.01  -0.00  -0.01    -0.05   0.00   0.01
  37   1     0.02   0.01  -0.09     0.01  -0.00  -0.00    -0.05   0.01   0.01
  38   1    -0.02   0.01  -0.09     0.01   0.00   0.00    -0.05  -0.01  -0.01
  39   1     0.00  -0.01  -0.06     0.01   0.00   0.01    -0.05  -0.00  -0.01
  40   1    -0.07   0.03  -0.04     0.01  -0.00   0.00    -0.06   0.00  -0.00
  41   1    -0.05   0.02   0.04     0.00  -0.02   0.01    -0.01   0.09  -0.06
  42   1    -0.05  -0.00  -0.02     0.00  -0.02   0.01    -0.02   0.09  -0.07
  43   1     0.00  -0.00  -0.01    -0.01   0.00   0.01     0.04   0.01   0.04
  44   1     0.01   0.02   0.11    -0.01  -0.01  -0.04     0.05   0.01   0.06
  45   1     0.01   0.02   0.11    -0.01  -0.01  -0.05     0.04   0.00  -0.02
  46   1     0.00  -0.00  -0.01    -0.01  -0.01  -0.01     0.03   0.00  -0.07
  47   1    -0.05   0.00   0.02     0.22  -0.13  -0.19     0.11  -0.07  -0.04
  48   1    -0.09  -0.01  -0.03    -0.01   0.43  -0.07     0.05   0.08  -0.01
  49   1    -0.05   0.00   0.02    -0.24  -0.07   0.23    -0.03  -0.05   0.04
  50   1     0.09  -0.01  -0.03    -0.01  -0.43   0.07     0.05  -0.08   0.01
  51   1     0.05   0.00   0.02    -0.24   0.07  -0.23    -0.03   0.05  -0.05
  52   1     0.05   0.00   0.02     0.23   0.13   0.19     0.11   0.07   0.04
  53   1    -0.00  -0.00  -0.01    -0.01   0.01   0.01     0.03  -0.00   0.07
  54   1    -0.01   0.02   0.11    -0.01   0.01   0.05     0.04  -0.00   0.02
  55   1    -0.01   0.02   0.11    -0.01   0.01   0.04     0.05  -0.01  -0.06
  56   1    -0.00  -0.00  -0.01    -0.01  -0.00  -0.01     0.04  -0.01  -0.04
  57   1     0.05  -0.00  -0.02     0.00   0.02  -0.01    -0.02  -0.09   0.07
  58   1     0.05   0.02   0.04     0.00   0.02  -0.01    -0.01  -0.09   0.06
                     16                     17                     18
                        a                      a                      a 
 Frequencies --   162.2408               164.5907               179.4457
 Red. masses --    11.8985                12.5783                11.0247
 Frc consts  --     0.0000                 0.0000                 0.0000
 IR Inten    --     2.3380                 2.4528                 1.7980
 Raman Activ --     0.0000                 0.0000                 0.0000
 Depolar     --     0.0000                 0.0000                 0.0000
 Atom AN      X      Y      Z        X      Y      Z        X      Y      Z
   1   6    -0.24   0.18  -0.09     0.15   0.00  -0.00     0.05   0.04  -0.19
   2   6    -0.09   0.00   0.09     0.14  -0.00   0.00     0.02  -0.06   0.12
   3   7    -0.00   0.03   0.17     0.17   0.00   0.01    -0.00  -0.12   0.21
   4   6     0.08   0.00   0.09     0.15   0.00   0.00    -0.02  -0.06   0.12
   5   6     0.23   0.18  -0.09     0.16   0.01  -0.00    -0.05   0.04  -0.19
   6   6     0.09  -0.12   0.08     0.15   0.00  -0.00    -0.02  -0.04   0.14
   7   6    -0.02  -0.05   0.01    -0.02   0.09  -0.02     0.04  -0.04   0.07
   8   7    -0.45   0.13  -0.05    -0.46   0.26  -0.02     0.23  -0.10  -0.01
   9   6    -0.00  -0.16   0.07     0.13  -0.00   0.00    -0.00  -0.01   0.09
  10   6    -0.00  -0.14  -0.05     0.12  -0.00  -0.00    -0.00   0.16  -0.15
  11   6     0.03  -0.06  -0.09     0.07   0.11  -0.11    -0.02   0.21  -0.21
  12   6     0.03  -0.02  -0.07     0.07   0.16  -0.15    -0.01   0.11  -0.17
  13   6    -0.00  -0.02  -0.04     0.03  -0.00  -0.00     0.00  -0.02  -0.09
  14   7    -0.00  -0.00   0.03     0.02  -0.00   0.00    -0.00  -0.05   0.08
  15   6     0.00   0.01   0.04    -0.01  -0.00   0.01     0.02  -0.02   0.13
  16   6     0.01   0.01   0.05    -0.05   0.03   0.02     0.04  -0.02   0.16
  17   6     0.01  -0.00  -0.00    -0.09   0.01   0.02     0.06  -0.03   0.04
  18   6     0.00  -0.01  -0.05    -0.09  -0.01  -0.00     0.05  -0.04  -0.12
  19   6     0.00  -0.00  -0.02    -0.05  -0.03  -0.01     0.04  -0.02  -0.06
  20   6     0.00   0.00   0.03    -0.01  -0.01  -0.00     0.02  -0.01   0.08
  21   6     0.00   0.01   0.02    -0.02   0.00   0.00    -0.00   0.01   0.07
  22   6     0.02   0.01   0.01    -0.03  -0.01   0.00     0.05   0.01   0.03
  23   6    -0.02   0.01   0.01    -0.03   0.01  -0.00    -0.05   0.02   0.03
  24   6    -0.00   0.00   0.03    -0.01   0.01   0.00    -0.02  -0.01   0.08
  25   6    -0.00  -0.00  -0.02    -0.05   0.03   0.01    -0.04  -0.02  -0.06
  26   6     0.00  -0.01  -0.05    -0.09   0.01  -0.00    -0.05  -0.04  -0.12
  27   6    -0.00  -0.00   0.00    -0.09  -0.02  -0.02    -0.06  -0.03   0.04
  28   6    -0.00   0.01   0.05    -0.05  -0.03  -0.01    -0.04  -0.02   0.16
  29   6    -0.00   0.01   0.04    -0.01   0.00  -0.01    -0.02  -0.02   0.13
  30   6    -0.04  -0.01  -0.08     0.07  -0.16   0.14     0.01   0.11  -0.17
  31   6    -0.03  -0.06  -0.09     0.07  -0.11   0.10     0.02   0.21  -0.21
  32   6    -0.10  -0.12   0.08     0.14  -0.01   0.01     0.02  -0.04   0.14
  33   6     0.02  -0.04   0.01    -0.02  -0.09   0.02    -0.04  -0.04   0.07
  34   7     0.47   0.14  -0.05    -0.44  -0.25   0.01    -0.23  -0.10  -0.01
  35   1    -0.04   0.06  -0.02     0.04   0.01  -0.00     0.08   0.06  -0.05
  36   1    -0.14   0.03  -0.04     0.05  -0.00  -0.01    -0.03  -0.02  -0.08
  37   1    -0.06   0.11  -0.06     0.04  -0.00   0.01     0.01   0.02  -0.11
  38   1     0.06   0.11  -0.06     0.05   0.01  -0.01    -0.01   0.02  -0.11
  39   1     0.14   0.03  -0.04     0.05   0.00   0.00     0.03  -0.02  -0.08
  40   1     0.04   0.06  -0.02     0.04  -0.00   0.00    -0.08   0.06  -0.05
  41   1     0.02  -0.01  -0.04     0.01   0.05  -0.04    -0.02   0.07  -0.06
  42   1     0.02   0.00  -0.02     0.03   0.08  -0.06    -0.01   0.03  -0.05
  43   1     0.00   0.00   0.02    -0.02   0.02   0.00     0.01  -0.00   0.06
  44   1     0.00  -0.00  -0.00    -0.03   0.01   0.01     0.02  -0.01   0.01
  45   1    -0.00  -0.01  -0.03    -0.03  -0.01  -0.00     0.02  -0.02  -0.08
  46   1     0.00  -0.00  -0.01    -0.02  -0.02  -0.01     0.01  -0.01  -0.04
  47   1     0.00   0.00   0.00    -0.01  -0.00   0.00    -0.01   0.02   0.01
  48   1     0.01  -0.00   0.01    -0.01  -0.00   0.00     0.02  -0.02   0.02
  49   1     0.01   0.00  -0.00    -0.01  -0.00  -0.00     0.03   0.02  -0.01
  50   1    -0.01  -0.00   0.01    -0.01   0.00  -0.00    -0.02  -0.02   0.02
  51   1    -0.01   0.00  -0.00    -0.01   0.01   0.00    -0.03   0.02  -0.01
  52   1    -0.00   0.00   0.00    -0.01   0.00  -0.00     0.01   0.02   0.01
  53   1     0.00  -0.00  -0.01    -0.02   0.02   0.01    -0.01  -0.01  -0.04
  54   1     0.00  -0.01  -0.03    -0.03   0.01   0.00    -0.01  -0.02  -0.08
  55   1    -0.00  -0.00  -0.00    -0.03  -0.01  -0.01    -0.02  -0.01   0.01
  56   1    -0.00   0.00   0.02    -0.02  -0.02  -0.00    -0.01  -0.00   0.06
  57   1    -0.02   0.01  -0.02     0.03  -0.08   0.06     0.01   0.03  -0.05
  58   1    -0.02  -0.01  -0.04     0.01  -0.05   0.03     0.02   0.07  -0.06
                     19                     20                     21
                        a                      a                      a 
 Frequencies --   196.8810               211.7640               211.8165
 Red. masses --     1.1847                 9.0507                11.7087
 Frc consts  --     0.0000                 0.0000                 0.0000
 IR Inten    --     0.0421                 3.1422                14.0484
 Raman Activ --     0.0000                 0.0000                 0.0000
 Depolar     --     0.0000                 0.0000                 0.0000
 Atom AN      X      Y      Z        X      Y      Z        X      Y      Z
   1   6     0.01   0.00  -0.02    -0.05   0.02  -0.04     0.03   0.05  -0.19
   2   6     0.00  -0.00   0.01    -0.03  -0.01   0.02     0.01  -0.06   0.12
   3   7    -0.00  -0.02   0.04    -0.04  -0.06   0.13     0.01  -0.23   0.54
   4   6    -0.00  -0.00   0.01    -0.03  -0.02   0.03     0.01  -0.05   0.12
   5   6    -0.01   0.00  -0.02    -0.05   0.00  -0.05    -0.00   0.06  -0.18
   6   6    -0.00   0.00   0.00    -0.03   0.01  -0.04     0.01   0.08  -0.19
   7   6    -0.00   0.00   0.00    -0.02   0.00  -0.03     0.01   0.07  -0.15
   8   7     0.01  -0.00   0.01     0.01  -0.03   0.03     0.03  -0.03   0.20
   9   6    -0.00   0.01  -0.00    -0.01   0.02  -0.04     0.00   0.07  -0.17
  10   6    -0.00   0.01  -0.01    -0.00   0.00  -0.01     0.00   0.00  -0.04
  11   6    -0.00   0.00  -0.01     0.03   0.01   0.01     0.05  -0.06   0.04
  12   6    -0.00  -0.01  -0.01     0.04   0.01   0.03     0.04  -0.03   0.13
  13   6     0.00  -0.02  -0.00     0.04   0.01   0.03    -0.01   0.03   0.12
  14   7     0.00  -0.02   0.01     0.06   0.01   0.01    -0.01   0.04   0.04
  15   6     0.00  -0.01   0.01     0.05   0.06   0.17    -0.02  -0.01  -0.10
  16   6     0.00  -0.01   0.02    -0.02   0.11   0.18    -0.01  -0.03  -0.15
  17   6     0.00  -0.02  -0.00    -0.11   0.01  -0.15     0.01   0.01  -0.00
  18   6     0.00  -0.01  -0.01    -0.12  -0.05  -0.20     0.02   0.04   0.14
  19   6    -0.00  -0.01   0.00    -0.03  -0.03   0.12    -0.01   0.02   0.01
  20   6     0.00  -0.00   0.01     0.06   0.03   0.16    -0.03  -0.01  -0.10
  21   6     0.00   0.00   0.00     0.09  -0.00  -0.02    -0.02  -0.01  -0.06
  22   6     0.00   0.07  -0.01     0.15   0.21  -0.09    -0.08  -0.07  -0.01
  23   6     0.00   0.06  -0.01     0.17  -0.22   0.07     0.01   0.03  -0.05
  24   6     0.00  -0.00   0.00     0.07  -0.03  -0.19    -0.00   0.00  -0.02
  25   6     0.00  -0.00  -0.00    -0.02   0.03  -0.10     0.02   0.01   0.06
  26   6    -0.01  -0.01  -0.00    -0.12   0.06   0.25     0.04   0.01   0.04
  27   6    -0.01  -0.02   0.00    -0.11  -0.00   0.14     0.05   0.01  -0.07
  28   6    -0.00  -0.02   0.01    -0.01  -0.11  -0.24     0.02   0.02  -0.05
  29   6    -0.00  -0.01   0.01     0.06  -0.05  -0.20    -0.00   0.02  -0.01
  30   6     0.00  -0.01  -0.01     0.01  -0.02   0.03    -0.06  -0.02   0.13
  31   6     0.00   0.00  -0.01     0.00  -0.03   0.02    -0.06  -0.05   0.04
  32   6     0.00   0.00   0.00    -0.03   0.03  -0.05     0.01   0.07  -0.19
  33   6    -0.00   0.00   0.00    -0.03   0.03  -0.04     0.00   0.06  -0.15
  34   7    -0.01  -0.00   0.01    -0.00   0.01   0.06    -0.04  -0.04   0.19
  35   1     0.01   0.01  -0.01    -0.00   0.01  -0.01     0.07   0.05  -0.05
  36   1    -0.00  -0.00  -0.01    -0.03   0.00  -0.01    -0.05  -0.01  -0.07
  37   1     0.00   0.00  -0.01    -0.01   0.02  -0.02     0.01   0.03  -0.11
  38   1    -0.00   0.00  -0.01    -0.01   0.00  -0.03     0.00   0.04  -0.11
  39   1     0.00  -0.00  -0.01    -0.00  -0.01  -0.02     0.06  -0.01  -0.07
  40   1    -0.01   0.01  -0.01    -0.03   0.01  -0.01    -0.07   0.05  -0.05
  41   1    -0.00   0.00  -0.00     0.02   0.00  -0.00     0.03  -0.03   0.01
  42   1    -0.00  -0.01  -0.00     0.01   0.00   0.01     0.03  -0.01   0.05
  43   1     0.00  -0.00   0.01    -0.00   0.06   0.09    -0.01  -0.02  -0.07
  44   1     0.00  -0.01  -0.00    -0.05  -0.00  -0.10     0.00   0.00   0.01
  45   1     0.00  -0.00  -0.01    -0.05  -0.03  -0.13     0.01   0.02   0.09
  46   1    -0.00  -0.00   0.00    -0.01  -0.03   0.06    -0.00   0.01   0.01
  47   1     0.28  -0.21  -0.19    -0.07   0.15  -0.01    -0.01  -0.03   0.01
  48   1     0.00   0.42  -0.07     0.06  -0.06   0.01    -0.04  -0.01  -0.02
  49   1    -0.28  -0.14   0.24     0.16   0.13  -0.09    -0.04  -0.03   0.01
  50   1     0.00   0.42  -0.07     0.07   0.04  -0.01     0.01  -0.03  -0.01
  51   1     0.28  -0.14   0.24     0.16  -0.13   0.08    -0.03   0.03  -0.03
  52   1    -0.28  -0.21  -0.18    -0.06  -0.14   0.02     0.04   0.04   0.00
  53   1    -0.00  -0.00  -0.00    -0.01   0.03  -0.05     0.01  -0.00   0.04
  54   1    -0.00  -0.00  -0.00    -0.05   0.04   0.16     0.01   0.00   0.03
  55   1    -0.00  -0.01   0.00    -0.04   0.00   0.09     0.02   0.00  -0.04
  56   1    -0.00  -0.00   0.00     0.00  -0.06  -0.11     0.01   0.01  -0.02
  57   1     0.00  -0.01  -0.00    -0.00  -0.01   0.01    -0.03  -0.01   0.05
  58   1     0.00   0.00  -0.00     0.00  -0.01   0.01    -0.03  -0.03   0.01
                     22                     23                     24
                        a                      a                      a 
 Frequencies --   216.3804               238.2593               243.3248
 Red. masses --    10.7844                 9.4927                11.6573
 Frc consts  --     0.0000                 0.0000                 0.0000
 IR Inten    --     1.6484                 0.7648                 0.4312
 Raman Activ --     0.0000                 0.0000                 0.0000
 Depolar     --     0.0000                 0.0000                 0.0000
 Atom AN      X      Y      Z        X      Y      Z        X      Y      Z
   1   6    -0.17   0.03   0.05     0.06  -0.03   0.01     0.07  -0.08   0.10
   2   6    -0.03  -0.02  -0.04     0.02   0.01  -0.03    -0.01   0.08  -0.18
   3   7     0.00   0.03  -0.12     0.03   0.00  -0.00    -0.04   0.00  -0.00
   4   6     0.03  -0.02  -0.04     0.02  -0.01   0.03    -0.01  -0.08   0.18
   5   6     0.17   0.03   0.05     0.05   0.03  -0.01     0.07   0.08  -0.10
   6   6     0.02  -0.12   0.00     0.02  -0.02   0.06    -0.01  -0.19   0.40
   7   6     0.04  -0.13   0.01     0.01  -0.01   0.05    -0.02  -0.16   0.30
   8   7     0.00  -0.12  -0.03    -0.03   0.02  -0.04    -0.04  -0.01  -0.28
   9   6     0.00  -0.10  -0.02     0.00   0.00   0.00     0.02  -0.00   0.00
  10   6     0.00   0.12  -0.03    -0.01  -0.00   0.00     0.00   0.00   0.00
  11   6     0.09   0.25  -0.05    -0.03   0.04  -0.04     0.02  -0.02   0.01
  12   6     0.08   0.27   0.10    -0.03   0.01  -0.02     0.01  -0.05   0.04
  13   6    -0.00   0.15   0.25    -0.05  -0.00  -0.00     0.02  -0.00  -0.00
  14   7    -0.00   0.02   0.21    -0.05   0.00  -0.00     0.01  -0.00  -0.00
  15   6    -0.01  -0.04  -0.03    -0.06  -0.01   0.11     0.01  -0.00  -0.02
  16   6     0.02  -0.09  -0.14     0.07  -0.09   0.16    -0.01   0.01  -0.03
  17   6     0.06  -0.06  -0.02     0.22  -0.06  -0.02    -0.04   0.00   0.00
  18   6     0.08   0.00   0.17     0.22   0.01  -0.13    -0.04  -0.00   0.03
  19   6     0.03  -0.00   0.02     0.09   0.10  -0.00    -0.02  -0.02   0.00
  20   6    -0.01  -0.04  -0.10    -0.08   0.02   0.08     0.01  -0.01  -0.02
  21   6    -0.00  -0.05  -0.12    -0.15   0.00   0.00     0.02   0.00   0.00
  22   6    -0.09  -0.05  -0.06    -0.34   0.15   0.10     0.04  -0.03  -0.01
  23   6     0.09  -0.05  -0.06    -0.34  -0.15  -0.10     0.04   0.03   0.01
  24   6     0.01  -0.04  -0.10    -0.08  -0.02  -0.08     0.01   0.01   0.02
  25   6    -0.03  -0.00   0.02     0.09  -0.10  -0.00    -0.02   0.02  -0.00
  26   6    -0.08   0.00   0.16     0.22  -0.01   0.13    -0.04   0.00  -0.03
  27   6    -0.06  -0.06  -0.02     0.22   0.06   0.02    -0.04  -0.00  -0.00
  28   6    -0.02  -0.09  -0.14     0.07   0.09  -0.16    -0.01  -0.01   0.03
  29   6     0.01  -0.04  -0.03    -0.06   0.01  -0.11     0.01   0.00   0.02
  30   6    -0.08   0.27   0.10    -0.03  -0.01   0.02     0.01   0.05  -0.04
  31   6    -0.09   0.25  -0.05    -0.03  -0.04   0.04     0.02   0.02  -0.01
  32   6    -0.02  -0.12   0.00     0.02   0.02  -0.06    -0.01   0.19  -0.40
  33   6    -0.04  -0.13   0.01     0.01   0.01  -0.05    -0.02   0.16  -0.30
  34   7    -0.00  -0.12  -0.03    -0.03  -0.02   0.04    -0.04   0.01   0.28
  35   1    -0.08  -0.01   0.01     0.01  -0.01   0.00    -0.02  -0.08   0.03
  36   1    -0.06   0.01   0.02     0.03  -0.00   0.01     0.08   0.02   0.07
  37   1    -0.04   0.04   0.04     0.01  -0.02   0.00     0.01  -0.06   0.07
  38   1     0.04   0.04   0.04     0.01   0.02  -0.00     0.01   0.06  -0.06
  39   1     0.06   0.01   0.02     0.03   0.00  -0.01     0.08  -0.02  -0.07
  40   1     0.08  -0.01   0.01     0.01   0.01  -0.00    -0.02   0.08  -0.03
  41   1     0.04   0.08  -0.03    -0.01   0.03  -0.02     0.01  -0.01   0.01
  42   1     0.05   0.10   0.03    -0.00   0.00  -0.00     0.00  -0.03   0.02
  43   1     0.00  -0.04  -0.07     0.02  -0.06   0.06    -0.00   0.01  -0.01
  44   1     0.02  -0.02  -0.01     0.09  -0.04  -0.02    -0.01   0.00   0.00
  45   1     0.03   0.02   0.10     0.08   0.01  -0.08    -0.01  -0.00   0.02
  46   1     0.01   0.01   0.01     0.03   0.07  -0.00    -0.01  -0.01   0.00
  47   1    -0.02  -0.02  -0.01    -0.16   0.09   0.08     0.02  -0.02  -0.01
  48   1    -0.05  -0.00  -0.03    -0.16  -0.01  -0.00     0.02   0.00   0.00
  49   1    -0.04  -0.02   0.01    -0.05   0.08   0.05     0.00  -0.02  -0.01
  50   1     0.05  -0.00  -0.03    -0.16   0.01   0.00     0.02  -0.00  -0.00
  51   1     0.04  -0.02   0.01    -0.05  -0.09  -0.05     0.00   0.02   0.01
  52   1     0.02  -0.02  -0.01    -0.16  -0.09  -0.08     0.02   0.02   0.01
  53   1    -0.01   0.01   0.01     0.03  -0.07   0.00    -0.01   0.01  -0.00
  54   1    -0.03   0.02   0.10     0.08  -0.01   0.08    -0.01   0.00  -0.02
  55   1    -0.02  -0.02  -0.01     0.09   0.04   0.02    -0.01  -0.00  -0.00
  56   1    -0.00  -0.04  -0.07     0.02   0.06  -0.06    -0.00  -0.01   0.01
  57   1    -0.05   0.10   0.03    -0.00  -0.00   0.00     0.00   0.03  -0.02
  58   1    -0.04   0.08  -0.03    -0.01  -0.03   0.02     0.01   0.01  -0.01
                     25                     26                     27
                        a                      a                      a 
 Frequencies --   262.9499               289.7969               298.1439
 Red. masses --     8.7476                10.8699                10.7426
 Frc consts  --     0.0000                 0.0000                 0.0000
 IR Inten    --    36.9211                 6.3644                17.6369
 Raman Activ --     0.0000                 0.0000                 0.0000
 Depolar     --     0.0000                 0.0000                 0.0000
 Atom AN      X      Y      Z        X      Y      Z        X      Y      Z
   1   6     0.39  -0.27  -0.13     0.14  -0.03  -0.04     0.01   0.03   0.02
   2   6    -0.08   0.01   0.05    -0.01   0.03   0.09     0.12  -0.03  -0.04
   3   7    -0.20   0.00  -0.00     0.00   0.11  -0.09     0.22  -0.00   0.00
   4   6    -0.08  -0.01  -0.05     0.01   0.03   0.09     0.12   0.03   0.04
   5   6     0.39   0.27   0.13    -0.14  -0.03  -0.04     0.01  -0.03  -0.02
   6   6    -0.09  -0.03  -0.09     0.03   0.00   0.22     0.10   0.07   0.07
   7   6    -0.08  -0.05  -0.08     0.02   0.02   0.21     0.14   0.07   0.06
   8   7    -0.04  -0.10   0.02     0.05   0.10  -0.09     0.02   0.15   0.02
   9   6    -0.06   0.00  -0.00     0.00   0.04  -0.03    -0.05  -0.00   0.00
  10   6    -0.07  -0.00  -0.00     0.00  -0.05  -0.32    -0.11  -0.00   0.00
  11   6    -0.07   0.01  -0.00     0.11  -0.12  -0.20    -0.20  -0.00  -0.04
  12   6    -0.07  -0.00   0.00     0.13  -0.15   0.07    -0.21  -0.05   0.01
  13   6    -0.06  -0.00   0.00    -0.00  -0.08   0.13    -0.24  -0.00  -0.00
  14   7    -0.05   0.00   0.00    -0.00   0.05   0.23    -0.23  -0.00  -0.00
  15   6    -0.01   0.02   0.00     0.01   0.03   0.05    -0.13   0.04   0.01
  16   6     0.01   0.00   0.01    -0.03   0.02  -0.05    -0.01  -0.03   0.02
  17   6     0.02   0.01  -0.00    -0.08  -0.00  -0.11     0.10   0.01   0.01
  18   6     0.02   0.02  -0.01    -0.06   0.02   0.10     0.09   0.09  -0.04
  19   6     0.00   0.03  -0.01    -0.03   0.00   0.08    -0.02   0.14  -0.05
  20   6    -0.00   0.02   0.00     0.01  -0.00  -0.07    -0.10   0.09  -0.00
  21   6     0.02  -0.00  -0.00    -0.00  -0.00  -0.14    -0.01  -0.00   0.00
  22   6     0.08   0.00  -0.04    -0.09   0.07  -0.09     0.23   0.02  -0.16
  23   6     0.08  -0.00   0.04     0.10   0.07  -0.09     0.23  -0.02   0.16
  24   6    -0.00  -0.02  -0.00    -0.01  -0.00  -0.07    -0.10  -0.09   0.00
  25   6     0.00  -0.03   0.01     0.03   0.00   0.08    -0.02  -0.14   0.05
  26   6     0.02  -0.02   0.01     0.06   0.02   0.10     0.09  -0.09   0.04
  27   6     0.02  -0.01   0.00     0.08  -0.00  -0.11     0.10  -0.01  -0.01
  28   6     0.01  -0.00  -0.01     0.03   0.02  -0.05    -0.01   0.04  -0.02
  29   6    -0.01  -0.02  -0.00    -0.01   0.03   0.05    -0.13  -0.04  -0.01
  30   6    -0.07   0.00  -0.00    -0.13  -0.15   0.07    -0.21   0.05  -0.01
  31   6    -0.07  -0.01   0.00    -0.11  -0.12  -0.20    -0.20   0.00   0.04
  32   6    -0.09   0.03   0.09    -0.03   0.00   0.22     0.10  -0.06  -0.07
  33   6    -0.08   0.05   0.08    -0.02   0.02   0.20     0.14  -0.07  -0.06
  34   7    -0.04   0.10  -0.02    -0.05   0.10  -0.09     0.02  -0.15  -0.02
  35   1     0.21  -0.04  -0.03     0.08   0.02  -0.01    -0.02  -0.00   0.00
  36   1     0.19  -0.06  -0.04     0.06  -0.01  -0.03    -0.01   0.01   0.01
  37   1     0.07  -0.22  -0.10     0.03  -0.05  -0.04     0.01   0.03   0.02
  38   1     0.07   0.22   0.10    -0.03  -0.05  -0.04     0.01  -0.03  -0.02
  39   1     0.19   0.06   0.04    -0.06  -0.01  -0.03    -0.01  -0.01  -0.01
  40   1     0.21   0.04   0.03    -0.08   0.02  -0.01    -0.02   0.00  -0.00
  41   1    -0.02   0.01  -0.00     0.07  -0.06  -0.07    -0.07   0.02  -0.02
  42   1    -0.02  -0.00  -0.00     0.07  -0.06   0.06    -0.06  -0.02   0.01
  43   1     0.00  -0.00   0.00    -0.01   0.01  -0.02    -0.00  -0.04   0.00
  44   1     0.01   0.00  -0.00    -0.03  -0.00  -0.07     0.05  -0.01   0.01
  45   1     0.01   0.01  -0.01    -0.02   0.01   0.07     0.05   0.03  -0.02
  46   1     0.00   0.01  -0.00    -0.01  -0.01   0.04    -0.00   0.06  -0.02
  47   1     0.02   0.00  -0.02    -0.04   0.03  -0.01     0.06   0.01  -0.10
  48   1     0.04   0.00   0.00    -0.05   0.01  -0.04     0.14   0.00   0.00
  49   1     0.03   0.00  -0.02    -0.01   0.03  -0.01     0.08   0.01  -0.10
  50   1     0.04  -0.00  -0.00     0.05   0.01  -0.04     0.14  -0.01  -0.00
  51   1     0.03  -0.00   0.02     0.01   0.03  -0.01     0.08  -0.01   0.10
  52   1     0.02  -0.00   0.02     0.04   0.03  -0.01     0.06  -0.01   0.10
  53   1     0.00  -0.01   0.00     0.01  -0.01   0.04    -0.00  -0.06   0.02
  54   1     0.01  -0.01   0.01     0.02   0.01   0.07     0.05  -0.03   0.02
  55   1     0.01  -0.00   0.00     0.03  -0.00  -0.07     0.05   0.01  -0.01
  56   1     0.00   0.00  -0.00     0.01   0.01  -0.02    -0.00   0.04  -0.00
  57   1    -0.02   0.00   0.00    -0.07  -0.06   0.06    -0.06   0.02  -0.01
  58   1    -0.02  -0.01   0.00    -0.07  -0.06  -0.07    -0.07  -0.02   0.02
                     28                     29                     30
                        a                      a                      a 
 Frequencies --   303.3717               324.5728               333.6432
 Red. masses --     9.4260                 9.0106                10.3690
 Frc consts  --     0.0000                 0.0000                 0.0000
 IR Inten    --     0.6438                 0.0288                 3.9549
 Raman Activ --     0.0000                 0.0000                 0.0000
 Depolar     --     0.0000                 0.0000                 0.0000
 Atom AN      X      Y      Z        X      Y      Z        X      Y      Z
   1   6     0.08  -0.03  -0.02     0.00  -0.00  -0.00     0.13  -0.08  -0.01
   2   6    -0.02   0.02   0.02     0.01  -0.01  -0.00    -0.07   0.06  -0.02
   3   7     0.00   0.04  -0.00     0.02   0.00   0.00    -0.00   0.06   0.06
   4   6     0.02   0.02   0.02     0.01   0.01   0.00     0.07   0.06  -0.02
   5   6    -0.08  -0.03  -0.02     0.00   0.00   0.00    -0.13  -0.08  -0.01
   6   6     0.03   0.03   0.04     0.01   0.01   0.00     0.09   0.06  -0.03
   7   6     0.03   0.04   0.04     0.01   0.01   0.00     0.10   0.08  -0.06
   8   7     0.01   0.06  -0.00    -0.00   0.02   0.00     0.00   0.10   0.06
   9   6     0.00   0.00  -0.00    -0.01  -0.00   0.00     0.00  -0.09   0.09
  10   6     0.00  -0.12  -0.05    -0.02  -0.00  -0.00     0.00  -0.35   0.14
  11   6     0.05  -0.11  -0.03    -0.02   0.02  -0.02     0.06  -0.15   0.02
  12   6     0.06   0.05  -0.04    -0.02  -0.01   0.01     0.06   0.26  -0.17
  13   6    -0.00   0.12  -0.05    -0.03   0.00  -0.00     0.00   0.20  -0.09
  14   7    -0.00   0.10   0.02    -0.02   0.00   0.00    -0.00  -0.00   0.16
  15   6    -0.06   0.06   0.01    -0.00   0.04   0.17    -0.03  -0.05   0.09
  16   6     0.04  -0.01  -0.03     0.01   0.03   0.16    -0.02  -0.11  -0.05
  17   6     0.17   0.06   0.01     0.00  -0.03  -0.19     0.01  -0.09   0.06
  18   6     0.17   0.11  -0.01     0.02   0.02   0.00     0.01  -0.07   0.06
  19   6     0.05   0.14  -0.06     0.02   0.08   0.30    -0.01  -0.07  -0.10
  20   6    -0.08   0.08   0.00    -0.00   0.03   0.10    -0.01  -0.05   0.02
  21   6     0.00  -0.02   0.03     0.00   0.00   0.00    -0.00  -0.03   0.01
  22   6     0.02  -0.43   0.08    -0.00  -0.40   0.07     0.01   0.17  -0.02
  23   6    -0.02  -0.43   0.09    -0.00   0.39  -0.07    -0.01   0.17  -0.02
  24   6     0.08   0.08   0.00    -0.00  -0.03  -0.10     0.01  -0.05   0.02
  25   6    -0.05   0.14  -0.06     0.02  -0.08  -0.30     0.01  -0.07  -0.10
  26   6    -0.17   0.11  -0.01     0.02  -0.02  -0.00    -0.01  -0.07   0.06
  27   6    -0.17   0.06   0.00     0.00   0.03   0.19    -0.01  -0.09   0.06
  28   6    -0.04  -0.01  -0.02     0.01  -0.03  -0.16     0.02  -0.11  -0.05
  29   6     0.05   0.06   0.01    -0.00  -0.04  -0.17     0.03  -0.05   0.09
  30   6    -0.06   0.05  -0.04    -0.03   0.01  -0.01    -0.06   0.26  -0.17
  31   6    -0.05  -0.11  -0.03    -0.03  -0.02   0.02    -0.06  -0.15   0.02
  32   6    -0.03   0.03   0.04     0.01  -0.01  -0.00    -0.09   0.06  -0.03
  33   6    -0.03   0.04   0.04     0.01  -0.01  -0.00    -0.10   0.08  -0.06
  34   7    -0.01   0.06  -0.00    -0.00  -0.02  -0.00    -0.00   0.10   0.06
  35   1     0.05   0.00  -0.00     0.00  -0.00   0.00     0.07  -0.02   0.00
  36   1     0.04  -0.00  -0.01     0.00  -0.00   0.00     0.08  -0.00   0.01
  37   1     0.02  -0.04  -0.02     0.00  -0.00  -0.00     0.02  -0.09  -0.02
  38   1    -0.02  -0.04  -0.02     0.00  -0.00  -0.00    -0.02  -0.09  -0.02
  39   1    -0.04  -0.00  -0.01     0.00   0.00  -0.00    -0.08  -0.00   0.01
  40   1    -0.05   0.00  -0.00     0.00   0.00  -0.00    -0.07  -0.02   0.00
  41   1     0.03  -0.05  -0.00    -0.01   0.01  -0.01     0.03  -0.05  -0.00
  42   1     0.03   0.03  -0.01    -0.01  -0.01   0.01     0.04   0.14  -0.08
  43   1     0.01  -0.04  -0.02     0.00   0.01   0.06    -0.01  -0.04  -0.06
  44   1     0.07   0.01   0.01    -0.00  -0.03  -0.14     0.01  -0.03   0.02
  45   1     0.06   0.04  -0.00     0.00   0.00  -0.03     0.01  -0.01   0.03
  46   1     0.01   0.06  -0.03     0.01   0.03   0.10    -0.00  -0.02  -0.06
  47   1     0.07  -0.17   0.07     0.10  -0.18   0.05    -0.03   0.07  -0.04
  48   1     0.01  -0.12   0.03    -0.00  -0.07   0.01     0.00   0.06  -0.01
  49   1    -0.06  -0.18  -0.01    -0.11  -0.19   0.01     0.03   0.08   0.01
  50   1    -0.01  -0.12   0.03    -0.00   0.07  -0.01    -0.00   0.05  -0.01
  51   1     0.06  -0.18  -0.01    -0.11   0.19  -0.01    -0.03   0.07   0.01
  52   1    -0.07  -0.17   0.07     0.10   0.18  -0.05     0.03   0.07  -0.04
  53   1    -0.01   0.06  -0.03     0.01  -0.03  -0.10     0.00  -0.02  -0.06
  54   1    -0.06   0.04  -0.00     0.00  -0.00   0.03    -0.01  -0.01   0.03
  55   1    -0.07   0.01   0.01    -0.00   0.03   0.14    -0.01  -0.03   0.02
  56   1    -0.01  -0.04  -0.02     0.00  -0.01  -0.06     0.01  -0.04  -0.06
  57   1    -0.03   0.03  -0.01    -0.01   0.01  -0.01    -0.04   0.14  -0.08
  58   1    -0.03  -0.05  -0.00    -0.01  -0.01   0.01    -0.03  -0.05  -0.00
                     31                     32                     33
                        a                      a                      a 
 Frequencies --   339.7965               374.2524               389.1840
 Red. masses --    10.0041                10.3049                 9.5358
 Frc consts  --     0.0000                 0.0000                 0.0000
 IR Inten    --     0.5333                 5.6507                 1.0900
 Raman Activ --     0.0000                 0.0000                 0.0000
 Depolar     --     0.0000                 0.0000                 0.0000
 Atom AN      X      Y      Z        X      Y      Z        X      Y      Z
   1   6    -0.01  -0.01   0.01    -0.02   0.04   0.01     0.02  -0.00  -0.00
   2   6     0.00   0.01  -0.03    -0.02   0.03   0.03     0.00   0.00   0.01
   3   7    -0.00  -0.02   0.03    -0.08  -0.00  -0.00     0.01   0.01   0.01
   4   6    -0.00   0.01  -0.03    -0.02  -0.03  -0.03     0.01   0.02  -0.00
   5   6     0.01  -0.01   0.01    -0.02  -0.04  -0.01    -0.01   0.00   0.00
   6   6    -0.00   0.02  -0.05    -0.01  -0.06  -0.04     0.01   0.01  -0.00
   7   6    -0.00   0.02  -0.08    -0.05  -0.06  -0.05     0.05   0.00  -0.03
   8   7    -0.01  -0.00   0.04    -0.04  -0.09  -0.02    -0.05   0.03   0.01
   9   6     0.00  -0.04   0.08     0.09   0.00   0.00    -0.03  -0.01  -0.00
  10   6     0.00  -0.07   0.14     0.12   0.00   0.00    -0.03  -0.00  -0.00
  11   6    -0.05   0.00   0.05     0.12   0.10  -0.09    -0.03   0.34  -0.26
  12   6    -0.05   0.05  -0.14     0.11  -0.09   0.04    -0.03  -0.31   0.25
  13   6     0.00  -0.01  -0.13     0.05  -0.00  -0.00    -0.00   0.01   0.01
  14   7     0.00   0.00   0.06     0.00   0.00   0.00     0.01  -0.00  -0.03
  15   6     0.02   0.03   0.16    -0.12  -0.12   0.06     0.07   0.01  -0.10
  16   6     0.03   0.05   0.23    -0.01  -0.25   0.06     0.04   0.06  -0.01
  17   6     0.01  -0.04  -0.22     0.06  -0.25   0.05    -0.03   0.03  -0.01
  18   6     0.03   0.00  -0.00     0.06  -0.18   0.03    -0.04  -0.02  -0.01
  19   6     0.04   0.06   0.29    -0.07  -0.09   0.02     0.02  -0.03   0.03
  20   6     0.01  -0.01  -0.04    -0.13  -0.10   0.04     0.07  -0.01  -0.05
  21   6    -0.00  -0.05  -0.29    -0.22   0.00   0.00     0.09  -0.00   0.00
  22   6    -0.21  -0.08  -0.16     0.07  -0.05  -0.21    -0.02   0.03   0.08
  23   6     0.21  -0.08  -0.16     0.07   0.05   0.21    -0.02  -0.03  -0.08
  24   6    -0.01  -0.01  -0.04    -0.13   0.10  -0.04     0.06  -0.00   0.04
  25   6    -0.04   0.06   0.29    -0.07   0.09  -0.02     0.01   0.03  -0.00
  26   6    -0.03   0.00  -0.00     0.06   0.18  -0.03    -0.04  -0.00  -0.02
  27   6    -0.01  -0.04  -0.22     0.06   0.25  -0.05    -0.04  -0.03   0.02
  28   6    -0.03   0.05   0.23    -0.01   0.25  -0.07     0.03  -0.05   0.04
  29   6    -0.02   0.03   0.16    -0.12   0.12  -0.06     0.06  -0.01   0.06
  30   6     0.05   0.05  -0.14     0.11   0.09  -0.04    -0.04   0.33  -0.23
  31   6     0.06   0.00   0.05     0.12  -0.10   0.09    -0.04  -0.33   0.26
  32   6     0.00   0.02  -0.05    -0.01   0.06   0.04    -0.00  -0.02  -0.00
  33   6    -0.00   0.02  -0.08    -0.05   0.06   0.05     0.01  -0.03   0.03
  34   7     0.01  -0.00   0.04    -0.04   0.09   0.02    -0.03  -0.04  -0.01
  35   1    -0.01  -0.01   0.00    -0.01   0.01   0.00     0.01   0.00  -0.00
  36   1     0.00   0.00   0.01    -0.01   0.01   0.00     0.01  -0.00  -0.00
  37   1    -0.00  -0.00   0.01    -0.00   0.02   0.00     0.00  -0.01  -0.01
  38   1     0.00  -0.00   0.01    -0.00  -0.02  -0.00    -0.00  -0.01   0.00
  39   1    -0.00   0.00   0.01    -0.01  -0.01  -0.00    -0.01   0.00   0.00
  40   1     0.01  -0.01   0.00    -0.01  -0.01  -0.00    -0.01  -0.00   0.00
  41   1    -0.04   0.02   0.02     0.03   0.05  -0.04    -0.01   0.18  -0.13
  42   1    -0.03   0.03  -0.06     0.04  -0.04   0.03    -0.01  -0.18   0.14
  43   1     0.01   0.03   0.11    -0.01  -0.11   0.02     0.02   0.04   0.03
  44   1    -0.00  -0.03  -0.15     0.03  -0.08   0.01    -0.02   0.02   0.01
  45   1     0.01  -0.00  -0.02     0.04  -0.04  -0.00    -0.02  -0.01   0.01
  46   1     0.01   0.03   0.13    -0.02  -0.01  -0.01     0.01  -0.02   0.04
  47   1    -0.05  -0.02   0.00     0.03  -0.03  -0.12    -0.01   0.01   0.04
  48   1    -0.11  -0.03  -0.08     0.11  -0.01   0.00    -0.04   0.01  -0.00
  49   1    -0.07  -0.02  -0.01     0.02  -0.02  -0.13    -0.00   0.01   0.05
  50   1     0.11  -0.03  -0.08     0.11   0.00  -0.00    -0.04  -0.01   0.00
  51   1     0.07  -0.02  -0.01     0.02   0.02   0.13    -0.01  -0.01  -0.05
  52   1     0.05  -0.02   0.00     0.03   0.03   0.12    -0.01  -0.01  -0.04
  53   1    -0.01   0.03   0.13    -0.02   0.01   0.00     0.00   0.02  -0.02
  54   1    -0.01  -0.00  -0.02     0.04   0.04   0.00    -0.02   0.00  -0.02
  55   1     0.00  -0.03  -0.15     0.03   0.08  -0.01    -0.02  -0.02  -0.00
  56   1    -0.01   0.03   0.11    -0.01   0.11  -0.02     0.01  -0.03  -0.01
  57   1     0.04   0.03  -0.06     0.04   0.04  -0.03    -0.02   0.18  -0.13
  58   1     0.04   0.02   0.02     0.03  -0.05   0.04    -0.02  -0.18   0.13
                     34                     35                     36
                        a                      a                      a 
 Frequencies --   389.4527               392.6448               394.7748
 Red. masses --    10.6125                11.3815                11.4164
 Frc consts  --     0.0000                 0.0000                 0.0000
 IR Inten    --     0.4763                 1.9099                81.3706
 Raman Activ --     0.0000                 0.0000                 0.0000
 Depolar     --     0.0000                 0.0000                 0.0000
 Atom AN      X      Y      Z        X      Y      Z        X      Y      Z
   1   6     0.18   0.00   0.00    -0.25  -0.22  -0.09    -0.01   0.09   0.03
   2   6    -0.06   0.14   0.05    -0.14  -0.22  -0.10    -0.00   0.06   0.04
   3   7    -0.00   0.15   0.07     0.00  -0.17  -0.05    -0.11  -0.00  -0.00
   4   6     0.06   0.14   0.05     0.14  -0.22  -0.10    -0.00  -0.06  -0.04
   5   6    -0.18   0.00   0.00     0.25  -0.22  -0.09    -0.01  -0.09  -0.03
   6   6     0.07  -0.06  -0.02     0.13   0.11   0.06     0.01  -0.11  -0.07
   7   6     0.22  -0.13  -0.03     0.00   0.21   0.13    -0.06  -0.13  -0.08
   8   7    -0.09  -0.03  -0.01     0.13   0.23   0.03    -0.07  -0.16  -0.03
   9   6     0.00  -0.10  -0.06    -0.00   0.05   0.04     0.16   0.00   0.00
  10   6     0.00  -0.01  -0.05    -0.00  -0.06  -0.02     0.19  -0.00  -0.00
  11   6     0.06   0.01  -0.00     0.04  -0.00  -0.03     0.16   0.01  -0.07
  12   6     0.05   0.14   0.10     0.03   0.07   0.06     0.14  -0.07  -0.01
  13   6     0.00   0.08   0.16    -0.00   0.04   0.09     0.02   0.00   0.00
  14   7    -0.00  -0.03  -0.32     0.00  -0.01  -0.16    -0.08  -0.00  -0.00
  15   6     0.03  -0.02  -0.23     0.02  -0.01  -0.12    -0.10   0.06  -0.04
  16   6     0.07   0.06   0.12     0.04   0.04   0.06    -0.11   0.11  -0.02
  17   6     0.03   0.02   0.02     0.02   0.01   0.01     0.02   0.19  -0.05
  18   6     0.02  -0.09  -0.13     0.01  -0.05  -0.07     0.03   0.28  -0.05
  19   6     0.05  -0.04   0.18     0.03  -0.03   0.09     0.01   0.26  -0.03
  20   6     0.04  -0.06  -0.02     0.03  -0.04  -0.01    -0.11   0.14  -0.04
  21   6    -0.01  -0.03   0.04    -0.00  -0.02   0.02    -0.06  -0.00   0.00
  22   6     0.03   0.00   0.01     0.01   0.00   0.01     0.02   0.00  -0.05
  23   6    -0.02   0.01   0.02    -0.01   0.00   0.01     0.02  -0.00   0.05
  24   6    -0.05  -0.06  -0.03    -0.03  -0.04  -0.01    -0.11  -0.14   0.04
  25   6    -0.05  -0.04   0.18    -0.03  -0.03   0.09     0.01  -0.26   0.03
  26   6    -0.01  -0.09  -0.13    -0.01  -0.05  -0.07     0.03  -0.28   0.05
  27   6    -0.03   0.03   0.02    -0.02   0.02   0.01     0.02  -0.19   0.05
  28   6    -0.07   0.07   0.12    -0.04   0.04   0.06    -0.11  -0.11   0.02
  29   6    -0.04  -0.02  -0.24    -0.02  -0.01  -0.13    -0.10  -0.06   0.04
  30   6    -0.04   0.08   0.14    -0.03   0.07   0.06     0.14   0.07   0.02
  31   6    -0.06   0.07  -0.05    -0.04  -0.00  -0.03     0.16  -0.01   0.07
  32   6    -0.07  -0.06  -0.02    -0.13   0.11   0.06     0.01   0.11   0.07
  33   6    -0.22  -0.13  -0.03    -0.00   0.21   0.13    -0.06   0.13   0.08
  34   7     0.10  -0.02  -0.00    -0.13   0.23   0.03    -0.07   0.17   0.03
  35   1     0.10   0.01   0.01    -0.09  -0.07  -0.03    -0.01   0.03   0.01
  36   1     0.10   0.02   0.01    -0.09  -0.07  -0.03    -0.02   0.02   0.00
  37   1     0.03  -0.09  -0.03    -0.06  -0.03  -0.01     0.00   0.05   0.02
  38   1    -0.03  -0.09  -0.03     0.06  -0.03  -0.01     0.00  -0.05  -0.02
  39   1    -0.10   0.02   0.01     0.09  -0.07  -0.03    -0.02  -0.02  -0.00
  40   1    -0.10   0.02   0.01     0.09  -0.07  -0.03    -0.01  -0.03  -0.01
  41   1     0.04  -0.02   0.00     0.03  -0.00  -0.02     0.03   0.01  -0.02
  42   1     0.04   0.06   0.04     0.03   0.04   0.02     0.06  -0.02   0.01
  43   1     0.03   0.03   0.10     0.02   0.02   0.05    -0.03   0.02   0.01
  44   1    -0.00   0.02   0.03    -0.00   0.01   0.02     0.04   0.04  -0.01
  45   1    -0.01  -0.04  -0.08    -0.01  -0.02  -0.04     0.01   0.09  -0.01
  46   1     0.02   0.00   0.12     0.01  -0.00   0.06     0.00   0.10  -0.00
  47   1     0.01  -0.00  -0.01     0.00  -0.00  -0.00     0.01  -0.00  -0.03
  48   1     0.02   0.01   0.01     0.01   0.00   0.00     0.03   0.01   0.00
  49   1     0.01   0.00   0.00     0.01   0.00   0.00     0.01   0.00  -0.03
  50   1    -0.01   0.01   0.01    -0.01   0.00   0.00     0.03  -0.01  -0.00
  51   1    -0.01   0.01   0.01    -0.01   0.00   0.00     0.01  -0.00   0.03
  52   1    -0.01   0.00  -0.00    -0.00   0.00  -0.00     0.01   0.00   0.03
  53   1    -0.02  -0.00   0.12    -0.01  -0.00   0.06     0.00  -0.10   0.00
  54   1     0.01  -0.04  -0.08     0.01  -0.02  -0.04     0.01  -0.09   0.01
  55   1     0.00   0.02   0.03     0.00   0.01   0.02     0.04  -0.04   0.01
  56   1    -0.03   0.04   0.10    -0.01   0.02   0.05    -0.03  -0.02  -0.01
  57   1    -0.04   0.02   0.06    -0.03   0.03   0.02     0.06   0.02  -0.01
  58   1    -0.04   0.01  -0.02    -0.03   0.00  -0.02     0.03  -0.01   0.02
                     37                     38                     39
                        a                      a                      a 
 Frequencies --   404.3102               414.5216               444.8103
 Red. masses --    10.7222                11.0837                11.1436
 Frc consts  --     0.0000                 0.0000                 0.0000
 IR Inten    --     4.5842                 1.1535                 7.7845
 Raman Activ --     0.0000                 0.0000                 0.0000
 Depolar     --     0.0000                 0.0000                 0.0000
 Atom AN      X      Y      Z        X      Y      Z        X      Y      Z
   1   6    -0.02   0.09   0.02     0.00  -0.13  -0.04    -0.03  -0.07  -0.05
   2   6     0.10  -0.03   0.06    -0.14   0.01  -0.05    -0.09  -0.03   0.03
   3   7     0.00  -0.03  -0.05    -0.00   0.03   0.05     0.00  -0.02   0.04
   4   6    -0.10  -0.03   0.06     0.14   0.01  -0.05     0.09  -0.03   0.03
   5   6     0.02   0.09   0.02    -0.00  -0.13  -0.04     0.03  -0.07  -0.05
   6   6    -0.10  -0.00   0.02     0.14  -0.01  -0.01     0.07   0.01  -0.07
   7   6    -0.18  -0.01   0.11     0.26  -0.03  -0.04     0.22  -0.14   0.26
   8   7     0.02  -0.05  -0.07    -0.05   0.08   0.04    -0.08   0.06  -0.11
   9   6     0.00   0.14  -0.19     0.00  -0.10   0.08     0.00   0.17  -0.39
  10   6     0.00   0.03  -0.11     0.00   0.11   0.02    -0.00   0.26  -0.00
  11   6     0.06  -0.13   0.05    -0.06   0.14  -0.02    -0.05   0.01   0.18
  12   6     0.05   0.11   0.03    -0.06  -0.12   0.05    -0.06  -0.00  -0.03
  13   6    -0.00   0.30  -0.10     0.00  -0.13   0.02     0.00   0.19  -0.24
  14   7     0.00  -0.05  -0.17    -0.00  -0.10  -0.00    -0.00   0.06   0.01
  15   6    -0.19  -0.13  -0.05    -0.16  -0.12   0.04     0.02   0.06   0.13
  16   6    -0.10  -0.17   0.13    -0.17  -0.15   0.05     0.05   0.02  -0.03
  17   6     0.02  -0.14   0.04    -0.06  -0.10   0.02     0.04   0.01  -0.03
  18   6     0.03   0.01  -0.09    -0.05   0.15  -0.02     0.04  -0.06   0.06
  19   6    -0.09   0.12   0.08    -0.13   0.20  -0.03     0.04  -0.08  -0.04
  20   6    -0.16   0.05  -0.01    -0.16   0.14  -0.02     0.03  -0.05   0.05
  21   6    -0.00  -0.01  -0.03    -0.00   0.09  -0.03    -0.00  -0.06  -0.03
  22   6    -0.02   0.08  -0.03    -0.01   0.02  -0.01    -0.03   0.01  -0.02
  23   6     0.02   0.08  -0.03     0.01   0.02  -0.01     0.03   0.01  -0.02
  24   6     0.16   0.05  -0.01     0.16   0.14  -0.02    -0.03  -0.05   0.05
  25   6     0.09   0.12   0.08     0.13   0.20  -0.03    -0.04  -0.08  -0.05
  26   6    -0.03   0.01  -0.09     0.05   0.15  -0.02    -0.04  -0.06   0.07
  27   6    -0.02  -0.14   0.04     0.06  -0.10   0.02    -0.04   0.01  -0.03
  28   6     0.10  -0.17   0.13     0.17  -0.15   0.05    -0.04   0.02  -0.03
  29   6     0.19  -0.13  -0.05     0.16  -0.12   0.04    -0.02   0.07   0.13
  30   6    -0.05   0.11   0.03     0.06  -0.12   0.05     0.06  -0.00  -0.03
  31   6    -0.06  -0.13   0.05     0.06   0.14  -0.02     0.05   0.01   0.18
  32   6     0.10  -0.00   0.02    -0.14  -0.01  -0.01    -0.07   0.01  -0.08
  33   6     0.18  -0.01   0.11    -0.26  -0.03  -0.04    -0.22  -0.14   0.26
  34   7    -0.02  -0.05  -0.07     0.05   0.08   0.04     0.08   0.06  -0.11
  35   1    -0.02   0.04  -0.00     0.02  -0.04  -0.01     0.03   0.01  -0.01
  36   1    -0.05   0.00  -0.01     0.04  -0.02   0.00    -0.01  -0.03  -0.03
  37   1     0.01   0.08   0.01    -0.01  -0.10  -0.02    -0.02  -0.05  -0.04
  38   1    -0.01   0.08   0.01     0.02  -0.10  -0.02     0.02  -0.05  -0.04
  39   1     0.05   0.00  -0.01    -0.04  -0.02   0.00     0.01  -0.03  -0.03
  40   1     0.02   0.04  -0.00    -0.02  -0.04  -0.01    -0.03   0.01  -0.02
  41   1     0.04  -0.11   0.05    -0.04   0.06  -0.00    -0.05  -0.07   0.12
  42   1     0.04   0.01   0.04    -0.04  -0.06   0.02    -0.05  -0.07   0.02
  43   1    -0.03  -0.06   0.06    -0.05  -0.06   0.01     0.01  -0.00  -0.04
  44   1     0.04  -0.06   0.02     0.03  -0.06   0.00    -0.00   0.01  -0.04
  45   1     0.04   0.02  -0.06     0.03   0.06  -0.01     0.00  -0.02   0.02
  46   1    -0.02   0.07   0.05    -0.04   0.06  -0.01     0.01  -0.02  -0.05
  47   1    -0.03   0.04  -0.03    -0.01   0.01   0.00    -0.02   0.01  -0.01
  48   1    -0.01   0.03  -0.01    -0.01  -0.00  -0.01    -0.01   0.01  -0.01
  49   1     0.02   0.05   0.01    -0.00   0.01  -0.01    -0.00   0.01   0.01
  50   1     0.01   0.03  -0.01     0.01  -0.00  -0.01     0.01   0.01  -0.01
  51   1    -0.02   0.05   0.01     0.00   0.01  -0.01     0.00   0.01   0.01
  52   1     0.03   0.04  -0.03     0.01   0.01   0.00     0.02   0.01  -0.01
  53   1     0.02   0.07   0.05     0.04   0.06  -0.01    -0.01  -0.02  -0.05
  54   1    -0.04   0.02  -0.06    -0.03   0.06  -0.01    -0.00  -0.02   0.02
  55   1    -0.04  -0.06   0.02    -0.03  -0.06   0.01     0.00   0.00  -0.04
  56   1     0.03  -0.06   0.06     0.05  -0.06   0.01    -0.01  -0.01  -0.04
  57   1    -0.04   0.01   0.04     0.04  -0.06   0.02     0.05  -0.07   0.02
  58   1    -0.04  -0.11   0.05     0.04   0.06  -0.00     0.05  -0.07   0.12
                     40                     41                     42
                        a                      a                      a 
 Frequencies --   450.6511               459.5535               460.7797
 Red. masses --     9.5942                11.9504                10.7958
 Frc consts  --     0.0000                 0.0000                 0.0000
 IR Inten    --     4.2833                 4.2519                 2.7404
 Raman Activ --     0.0000                 0.0000                 0.0000
 Depolar     --     0.0000                 0.0000                 0.0000
 Atom AN      X      Y      Z        X      Y      Z        X      Y      Z
   1   6    -0.00  -0.00  -0.00    -0.03  -0.14  -0.05     0.01  -0.00   0.04
   2   6    -0.00  -0.01   0.00    -0.07  -0.03  -0.07     0.01   0.19  -0.46
   3   7     0.01   0.00   0.00    -0.03   0.00  -0.00     0.00  -0.00   0.00
   4   6     0.00   0.01  -0.00    -0.07   0.03   0.07     0.01  -0.19   0.46
   5   6    -0.00   0.00   0.00    -0.03   0.14   0.05     0.01   0.00  -0.04
   6   6    -0.00  -0.00  -0.01    -0.05   0.15   0.07     0.01  -0.04   0.08
   7   6     0.00  -0.01   0.00    -0.27   0.35   0.15    -0.02   0.11  -0.38
   8   7    -0.01  -0.00  -0.00     0.21   0.24   0.04     0.01  -0.05   0.16
   9   6    -0.00   0.00  -0.00    -0.04  -0.00   0.00     0.01  -0.00   0.00
  10   6     0.00   0.00   0.00     0.04  -0.00  -0.00    -0.00  -0.00   0.00
  11   6     0.00   0.03  -0.01     0.13   0.07  -0.01    -0.01  -0.01  -0.00
  12   6     0.01  -0.04   0.04     0.15  -0.01   0.03    -0.01   0.00  -0.00
  13   6     0.01   0.00  -0.00     0.12   0.00   0.00    -0.01  -0.00   0.00
  14   7     0.02   0.00  -0.00     0.07   0.00  -0.00    -0.00  -0.00   0.00
  15   6     0.02   0.10   0.44    -0.03  -0.02  -0.00     0.00   0.00   0.01
  16   6    -0.04  -0.02  -0.14    -0.07   0.01   0.01     0.01  -0.00  -0.00
  17   6    -0.02   0.01  -0.05     0.00   0.05  -0.02    -0.00  -0.00   0.00
  18   6    -0.00   0.07   0.18     0.01   0.09  -0.01    -0.00  -0.01   0.00
  19   6    -0.01  -0.03  -0.26     0.02   0.07  -0.01    -0.00  -0.01  -0.00
  20   6     0.02   0.06   0.21    -0.06   0.01  -0.02     0.00  -0.00   0.00
  21   6     0.04  -0.00  -0.00    -0.11  -0.00   0.00     0.01   0.00   0.00
  22   6     0.01  -0.01   0.03    -0.02  -0.01  -0.08     0.00  -0.00   0.01
  23   6     0.01   0.01  -0.03    -0.02   0.01   0.08     0.00  -0.00  -0.01
  24   6     0.02  -0.06  -0.21    -0.06  -0.01   0.02     0.00   0.00  -0.01
  25   6    -0.01   0.03   0.26     0.02  -0.07   0.01    -0.00   0.01   0.00
  26   6    -0.00  -0.07  -0.18     0.01  -0.09   0.01    -0.00   0.01  -0.00
  27   6    -0.02  -0.01   0.05     0.00  -0.05   0.02    -0.00   0.00  -0.00
  28   6    -0.04   0.02   0.14    -0.07  -0.01  -0.01     0.01   0.00   0.00
  29   6     0.02  -0.09  -0.44    -0.03   0.02   0.00     0.00  -0.00  -0.01
  30   6     0.01   0.04  -0.04     0.15   0.01  -0.03    -0.01  -0.00   0.00
  31   6     0.01  -0.03   0.01     0.13  -0.07   0.01    -0.01   0.01   0.00
  32   6    -0.00   0.00   0.00    -0.05  -0.15  -0.07     0.01   0.04  -0.08
  33   6    -0.00   0.00  -0.00    -0.26  -0.35  -0.16    -0.02  -0.11   0.38
  34   7    -0.00   0.00   0.00     0.21  -0.24  -0.04     0.01   0.05  -0.16
  35   1     0.00   0.00  -0.00    -0.00  -0.05  -0.01    -0.09  -0.12   0.02
  36   1    -0.00  -0.00  -0.00     0.02  -0.03  -0.00     0.10   0.08   0.10
  37   1    -0.00  -0.00  -0.00    -0.02  -0.08  -0.02     0.00  -0.03   0.09
  38   1    -0.00   0.00   0.00    -0.02   0.08   0.02     0.00   0.03  -0.09
  39   1    -0.00   0.00   0.00     0.02   0.03   0.00     0.10  -0.08  -0.10
  40   1     0.00  -0.00   0.00    -0.00   0.05   0.01    -0.09   0.12  -0.02
  41   1     0.00   0.01  -0.01     0.05   0.01  -0.00    -0.00  -0.01   0.00
  42   1     0.00  -0.02   0.02     0.04  -0.02   0.02    -0.00   0.00  -0.00
  43   1    -0.03  -0.05  -0.19    -0.02  -0.01   0.01     0.00  -0.00  -0.00
  44   1    -0.01  -0.02  -0.10     0.02   0.00  -0.01    -0.00  -0.00  -0.00
  45   1    -0.00   0.02   0.07     0.00   0.03   0.00    -0.00  -0.00   0.00
  46   1    -0.01  -0.04  -0.22     0.00   0.03  -0.00    -0.00  -0.00  -0.00
  47   1     0.00   0.00   0.04    -0.00  -0.01  -0.05     0.00   0.00   0.00
  48   1    -0.01  -0.03   0.01     0.03   0.00  -0.00    -0.00  -0.00   0.00
  49   1     0.00  -0.01  -0.01    -0.00  -0.00  -0.04     0.00  -0.00   0.00
  50   1    -0.01   0.03  -0.01     0.03  -0.00   0.00    -0.00   0.00  -0.00
  51   1     0.00   0.01   0.01    -0.00   0.00   0.04     0.00  -0.00  -0.00
  52   1     0.00  -0.00  -0.04    -0.00   0.01   0.05     0.00  -0.00  -0.00
  53   1    -0.01   0.04   0.22     0.00  -0.03   0.00    -0.00   0.00   0.00
  54   1    -0.00  -0.02  -0.07     0.00  -0.03  -0.00    -0.00   0.00  -0.00
  55   1    -0.01   0.02   0.10     0.02  -0.00   0.01    -0.00   0.00   0.00
  56   1    -0.03   0.05   0.19    -0.02   0.01  -0.01     0.00   0.00   0.00
  57   1     0.00   0.02  -0.02     0.04   0.02  -0.02    -0.00  -0.00   0.00
  58   1     0.00  -0.01   0.01     0.05  -0.01   0.00    -0.00   0.01  -0.00
                     43                     44                     45
                        a                      a                      a 
 Frequencies --   478.9564               497.7372               505.4956
 Red. masses --    11.2036                 9.6932                11.1203
 Frc consts  --     0.0000                 0.0000                 0.0000
 IR Inten    --     1.7800                 0.0292                 0.4134
 Raman Activ --     0.0000                 0.0000                 0.0000
 Depolar     --     0.0000                 0.0000                 0.0000
 Atom AN      X      Y      Z        X      Y      Z        X      Y      Z
   1   6    -0.03  -0.05  -0.00    -0.01  -0.02  -0.01     0.01   0.03   0.01
   2   6    -0.03  -0.07   0.12    -0.01  -0.01  -0.01     0.03   0.14  -0.33
   3   7     0.00   0.09  -0.23     0.01   0.00  -0.00    -0.00  -0.16   0.33
   4   6     0.03  -0.07   0.12    -0.01   0.01   0.01    -0.03   0.14  -0.33
   5   6     0.03  -0.05  -0.00    -0.01   0.02   0.01    -0.02   0.03   0.02
   6   6     0.03  -0.06   0.19    -0.01   0.00   0.00    -0.03   0.04  -0.10
   7   6     0.06   0.11  -0.38     0.07  -0.03  -0.01    -0.03  -0.03   0.14
   8   7    -0.02  -0.00   0.15    -0.02  -0.00   0.00     0.00   0.00  -0.05
   9   6    -0.00  -0.05   0.17    -0.03  -0.00   0.00    -0.00  -0.18   0.44
  10   6    -0.00   0.27  -0.20    -0.03   0.00  -0.00    -0.00   0.12  -0.15
  11   6     0.01  -0.01   0.02    -0.01  -0.00   0.02     0.03   0.01  -0.07
  12   6     0.01  -0.06   0.07    -0.00   0.03  -0.01     0.05  -0.08   0.07
  13   6    -0.00   0.29  -0.21     0.02   0.00   0.00     0.00   0.22  -0.15
  14   7    -0.00   0.09  -0.05     0.03   0.00  -0.00     0.00   0.08  -0.03
  15   6    -0.03   0.05   0.05     0.01   0.00   0.05    -0.04   0.04   0.02
  16   6     0.03   0.01  -0.01     0.01   0.05   0.23     0.02   0.00  -0.01
  17   6     0.05   0.00  -0.01    -0.02  -0.06  -0.31     0.04   0.00  -0.01
  18   6     0.05  -0.07   0.03     0.03   0.05   0.25     0.04  -0.06   0.02
  19   6     0.01  -0.06  -0.01     0.02  -0.03  -0.13    -0.00  -0.03   0.00
  20   6    -0.02  -0.05   0.04    -0.01  -0.08  -0.35    -0.03  -0.04   0.02
  21   6     0.00  -0.07  -0.01    -0.05  -0.00  -0.00    -0.00  -0.07   0.00
  22   6    -0.01   0.02  -0.01    -0.02   0.08  -0.06    -0.01   0.02  -0.01
  23   6     0.01   0.02  -0.02    -0.02  -0.08   0.06     0.01   0.02  -0.01
[...]
   2   6    -0.00   0.00  -0.00    -0.00  -0.00  -0.00     0.00   0.00   0.00
   3   7     0.00  -0.00   0.00     0.00   0.00   0.00    -0.00   0.00   0.00
   4   6     0.00   0.00  -0.00    -0.00   0.00   0.00     0.00  -0.00  -0.00
   5   6    -0.00  -0.00  -0.00     0.00   0.00   0.00    -0.00  -0.00  -0.00
   6   6     0.00  -0.00  -0.00    -0.00   0.00   0.00     0.00   0.00   0.00
   7   6    -0.00  -0.00  -0.00     0.00   0.00   0.00    -0.00  -0.00  -0.00
   8   7    -0.00   0.00  -0.00     0.00  -0.00  -0.00     0.00   0.00   0.00
   9   6     0.00  -0.00  -0.00     0.00   0.00   0.00    -0.00  -0.00   0.00
  10   6     0.00   0.00   0.00     0.00  -0.00  -0.00    -0.00  -0.00  -0.00
  11   6     0.02   0.02   0.03     0.02   0.02   0.03     0.00   0.00   0.00
  12   6     0.10  -0.09  -0.13     0.09  -0.09  -0.13     0.00  -0.00   0.00
  13   6     0.00  -0.00  -0.00     0.01   0.00   0.00     0.00  -0.00  -0.00
  14   7     0.00  -0.00   0.00     0.00   0.00  -0.00    -0.00  -0.00   0.00
  15   6    -0.00   0.00  -0.00    -0.00   0.00  -0.00     0.00   0.00  -0.00
  16   6     0.00  -0.00   0.00     0.01  -0.00  -0.00     0.01  -0.00  -0.00
  17   6    -0.00  -0.00   0.00    -0.00  -0.00   0.00    -0.03  -0.05   0.01
  18   6     0.00  -0.00   0.00    -0.00   0.00  -0.00    -0.02   0.05  -0.01
  19   6     0.00   0.00  -0.00    -0.00   0.00   0.00     0.02  -0.00  -0.00
  20   6    -0.00   0.00  -0.00     0.00   0.00  -0.00     0.00   0.00  -0.00
  21   6     0.00   0.00   0.00     0.00  -0.00   0.00    -0.00  -0.00   0.00
  22   6     0.00  -0.00   0.00     0.00  -0.00   0.00    -0.00  -0.01   0.00
  23   6    -0.00  -0.00   0.00     0.00   0.00  -0.00    -0.00  -0.01   0.00
  24   6     0.00   0.00  -0.00     0.00  -0.00   0.00    -0.00   0.00  -0.00
  25   6    -0.00   0.00  -0.00    -0.00  -0.00  -0.00    -0.05  -0.00  -0.00
  26   6    -0.00  -0.00   0.00    -0.00  -0.00   0.00     0.08   0.14  -0.02
  27   6     0.00  -0.00   0.00    -0.00   0.00  -0.00     0.10  -0.15   0.04
  28   6    -0.00  -0.00   0.00     0.01   0.00   0.00    -0.04  -0.00  -0.00
  29   6     0.00   0.00  -0.00    -0.00  -0.00   0.00    -0.00   0.00  -0.00
  30   6    -0.10  -0.09  -0.13     0.09   0.09   0.13     0.00   0.00   0.00
  31   6    -0.02   0.02   0.03     0.02  -0.02  -0.03    -0.00   0.00   0.00
  32   6    -0.00  -0.00  -0.00    -0.00  -0.00  -0.00     0.00  -0.00  -0.00
  33   6     0.00  -0.00  -0.00     0.00  -0.00  -0.00    -0.00   0.00   0.00
  34   7     0.00   0.00  -0.00     0.00   0.00   0.00     0.00  -0.00  -0.00
  35   1    -0.00   0.00   0.00    -0.00   0.00   0.00     0.00  -0.00  -0.00
  36   1    -0.00   0.00  -0.00    -0.00   0.00  -0.00     0.00  -0.00   0.00
  37   1    -0.00   0.00   0.00     0.00  -0.00  -0.00    -0.00   0.00   0.00
  38   1     0.00   0.00   0.00     0.00   0.00   0.00    -0.00  -0.00  -0.00
  39   1     0.00   0.00  -0.00    -0.00  -0.00   0.00     0.00   0.00  -0.00
  40   1    -0.00   0.00   0.00    -0.00  -0.00  -0.00     0.00   0.00   0.00
  41   1    -0.08  -0.08  -0.12    -0.08  -0.08  -0.12    -0.00  -0.00  -0.00
  42   1    -0.33   0.34   0.47    -0.33   0.33   0.46    -0.00   0.00   0.00
  43   1    -0.01   0.00  -0.00    -0.02   0.00   0.00    -0.05   0.00   0.00
  44   1     0.00   0.00  -0.00     0.00   0.00  -0.00     0.11   0.17  -0.05
  45   1    -0.00   0.00  -0.00     0.00  -0.00   0.00     0.09  -0.17   0.03
  46   1    -0.00   0.00   0.00     0.00  -0.00  -0.00    -0.07   0.00   0.00
  47   1    -0.00  -0.00   0.00    -0.01  -0.01   0.00     0.01   0.02  -0.00
  48   1     0.00  -0.00  -0.00     0.00  -0.00  -0.00    -0.00  -0.00   0.00
  49   1    -0.00   0.00  -0.00    -0.01   0.01  -0.00    -0.00   0.00  -0.00
  50   1    -0.00  -0.00  -0.00     0.00   0.00   0.00    -0.00  -0.00  -0.00
  51   1     0.00   0.00  -0.00    -0.01  -0.01   0.00     0.01   0.02  -0.00
  52   1     0.00  -0.00   0.00    -0.01   0.01  -0.00    -0.00   0.00  -0.00
  53   1     0.00   0.00   0.00     0.00   0.00   0.00     0.20   0.01   0.01
  54   1     0.00   0.00  -0.00     0.00   0.00  -0.00    -0.28  -0.52   0.08
  55   1    -0.00   0.00  -0.00     0.00  -0.00   0.00    -0.35   0.53  -0.14
  56   1     0.01   0.00  -0.00    -0.02  -0.00  -0.00     0.15   0.01   0.01
  57   1     0.33   0.33   0.46    -0.33  -0.34  -0.47    -0.00  -0.00  -0.00
  58   1     0.08  -0.08  -0.11    -0.08   0.08   0.12     0.00  -0.00  -0.00
                    160                    161                    162
                        a                      a                      a 
 Frequencies --  3092.5690              3099.4336              3099.5019
 Red. masses --     1.7692                 1.8206                 1.8217
 Frc consts  --     0.0000                 0.0000                 0.0000
 IR Inten    --     2.6734                 9.7769                36.2516
 Raman Activ --     0.0000                 0.0000                 0.0000
 Depolar     --     0.0000                 0.0000                 0.0000
 Atom AN      X      Y      Z        X      Y      Z        X      Y      Z
   1   6    -0.00  -0.00  -0.00    -0.00  -0.00  -0.00     0.00   0.00   0.00
   2   6    -0.00  -0.00  -0.00    -0.00  -0.00  -0.00     0.00   0.00   0.00
   3   7     0.00   0.00   0.00     0.00  -0.00  -0.00    -0.00  -0.00  -0.00
   4   6    -0.00   0.00   0.00    -0.00   0.00   0.00     0.00   0.00  -0.00
   5   6    -0.00   0.00   0.00    -0.00   0.00   0.00     0.00  -0.00   0.00
   6   6    -0.00  -0.00  -0.00    -0.00  -0.00  -0.00     0.00   0.00   0.00
   7   6     0.00   0.00   0.00     0.00   0.00   0.00     0.00   0.00   0.00
   8   7    -0.00  -0.00  -0.00    -0.00  -0.00  -0.00    -0.00  -0.00   0.00
   9   6     0.00  -0.00  -0.00     0.00   0.00   0.00    -0.00   0.00   0.00
  10   6     0.00  -0.00  -0.00    -0.00   0.00   0.00     0.00   0.00   0.00
  11   6     0.00   0.00   0.00    -0.00  -0.00  -0.00    -0.00  -0.00  -0.00
  12   6    -0.00   0.00   0.00    -0.00   0.00   0.00     0.00  -0.00  -0.00
  13   6    -0.00  -0.00  -0.00    -0.00   0.00  -0.00     0.00   0.00  -0.00
  14   7     0.00  -0.00   0.00    -0.00   0.00  -0.00     0.00   0.00  -0.00
  15   6     0.00  -0.00  -0.00     0.00  -0.00  -0.00    -0.00  -0.00   0.00
  16   6     0.04  -0.00  -0.00     0.02  -0.00  -0.00    -0.05   0.00   0.01
  17   6    -0.10  -0.15   0.04    -0.03  -0.05   0.01     0.08   0.12  -0.03
  18   6    -0.08   0.14  -0.02     0.02  -0.04   0.01    -0.06   0.11  -0.02
  19   6     0.05  -0.00  -0.00    -0.06   0.00   0.00     0.15  -0.01  -0.00
  20   6     0.00   0.00  -0.00    -0.00  -0.00   0.00     0.00   0.00  -0.00
  21   6     0.00  -0.00   0.00    -0.00  -0.00   0.00     0.00  -0.00   0.00
  22   6     0.00  -0.00   0.00    -0.01  -0.00  -0.00     0.00  -0.01   0.00
  23   6     0.00  -0.00  -0.00    -0.01  -0.00   0.00     0.00  -0.01   0.00
  24   6     0.00  -0.00   0.00    -0.00   0.00  -0.00    -0.00   0.00  -0.00
  25   6     0.02   0.00   0.00    -0.15  -0.01  -0.00    -0.06  -0.00  -0.00
  26   6    -0.03  -0.05   0.01     0.06   0.11  -0.02     0.02   0.04  -0.01
  27   6    -0.03   0.05  -0.01    -0.08   0.12  -0.03    -0.03   0.05  -0.01
  28   6     0.01   0.00   0.00     0.05   0.00   0.01     0.02   0.00   0.00
  29   6     0.00   0.00   0.00     0.00  -0.00   0.00     0.00  -0.00   0.00
  30   6    -0.00  -0.00  -0.00    -0.00  -0.00  -0.00    -0.00  -0.00  -0.00
  31   6    -0.00   0.00   0.00    -0.00   0.00   0.00     0.00  -0.00  -0.00
  32   6    -0.00   0.00   0.00    -0.00   0.00   0.00     0.00  -0.00  -0.00
  33   6     0.00  -0.00  -0.00    -0.00  -0.00  -0.00    -0.00   0.00   0.00
  34   7    -0.00   0.00   0.00    -0.00   0.00   0.00     0.00  -0.00   0.00
  35   1    -0.00   0.00   0.00    -0.00   0.00   0.00     0.00  -0.00  -0.00
  36   1    -0.00   0.00  -0.00    -0.00   0.00  -0.00     0.00  -0.00   0.00
  37   1     0.00  -0.00  -0.00     0.00  -0.00  -0.00    -0.00   0.00   0.00
  38   1     0.00   0.00   0.00     0.00   0.00   0.00    -0.00  -0.00  -0.00
  39   1    -0.00  -0.00   0.00    -0.00  -0.00   0.00     0.00   0.00  -0.00
  40   1    -0.00  -0.00  -0.00    -0.00  -0.00  -0.00     0.00   0.00   0.00
  41   1     0.00   0.00  -0.00     0.00   0.01   0.01     0.00   0.00   0.00
  42   1     0.00  -0.00  -0.01     0.00  -0.00  -0.00    -0.00   0.00   0.01
  43   1    -0.15   0.01   0.01    -0.09   0.00   0.01     0.21  -0.01  -0.02
  44   1     0.35   0.53  -0.14     0.11   0.17  -0.05    -0.28  -0.43   0.11
  45   1     0.28  -0.52   0.08    -0.08   0.16  -0.02     0.21  -0.38   0.06
  46   1    -0.20   0.01   0.01     0.21  -0.01  -0.01    -0.53   0.03   0.02
  47   1    -0.00  -0.01   0.00     0.02   0.03  -0.00     0.01   0.01  -0.00
  48   1     0.00  -0.00  -0.00    -0.00  -0.00   0.00     0.00  -0.00  -0.00
  49   1    -0.01   0.02  -0.00     0.01  -0.01   0.00    -0.02   0.03  -0.00
  50   1     0.00  -0.00   0.00    -0.00  -0.00  -0.00     0.00  -0.00   0.00
  51   1    -0.00  -0.01   0.00     0.02   0.03  -0.00     0.01   0.01  -0.00
  52   1    -0.01   0.02  -0.00     0.01  -0.01   0.00    -0.02   0.03  -0.00
  53   1    -0.06  -0.00  -0.00     0.53   0.03   0.02     0.22   0.01   0.01
  54   1     0.09   0.17  -0.03    -0.21  -0.38   0.06    -0.08  -0.15   0.02
  55   1     0.11  -0.17   0.04     0.28  -0.43   0.11     0.11  -0.17   0.04
  56   1    -0.05  -0.00  -0.00    -0.21  -0.01  -0.02    -0.08  -0.00  -0.01
  57   1     0.00   0.00   0.00     0.00   0.00   0.01     0.00   0.00   0.00
  58   1     0.00  -0.00  -0.00     0.00  -0.00  -0.00    -0.00   0.00   0.01
                    163                    164                    165
                        a                      a                      a 
 Frequencies --  3100.3624              3102.6736              3107.9091
 Red. masses --     1.8397                 1.8409                 1.8803
 Frc consts  --     0.0000                 0.0000                 0.0000
 IR Inten    --    78.2076                41.1476                68.9590
 Raman Activ --     0.0000                 0.0000                 0.0000
 Depolar     --     0.0000                 0.0000                 0.0000
 Atom AN      X      Y      Z        X      Y      Z        X      Y      Z
   1   6     0.00  -0.00   0.00    -0.00  -0.00  -0.00     0.00   0.00  -0.00
   2   6     0.00  -0.00  -0.00    -0.00  -0.00  -0.00     0.00   0.00  -0.00
   3   7     0.00   0.00   0.00     0.00   0.00   0.00    -0.00   0.00   0.00
   4   6    -0.00  -0.00  -0.00    -0.00   0.00   0.00     0.00  -0.00  -0.00
   5   6    -0.00  -0.00   0.00    -0.00   0.00   0.00     0.00  -0.00  -0.00
   6   6     0.00   0.00   0.00     0.00  -0.00  -0.00     0.00   0.00   0.00
   7   6    -0.00   0.00   0.00     0.00  -0.00  -0.00    -0.00  -0.00  -0.00
   8   7     0.00  -0.00   0.00    -0.00   0.00  -0.00     0.00   0.00   0.00
   9   6     0.00  -0.00  -0.00    -0.00  -0.00   0.00    -0.00  -0.00  -0.00
  10   6     0.00  -0.00  -0.00    -0.01  -0.00  -0.00     0.00  -0.00  -0.00
  11   6    -0.09  -0.09  -0.13    -0.09  -0.09  -0.14     0.00   0.00   0.00
  12   6     0.02  -0.03  -0.04     0.03  -0.03  -0.04    -0.00   0.00   0.00
  13   6    -0.00   0.00   0.00     0.00   0.00   0.00     0.00  -0.00   0.00
  14   7     0.00  -0.00  -0.00    -0.00  -0.00  -0.00    -0.00   0.00  -0.00
  15   6     0.00   0.00  -0.00    -0.00  -0.00   0.00     0.00  -0.00   0.00
  16   6     0.00   0.00   0.00     0.00  -0.00  -0.00     0.04  -0.00  -0.00
  17   6    -0.00  -0.00   0.00     0.00   0.00  -0.00    -0.02  -0.03   0.01
  18   6     0.00  -0.00   0.00    -0.00   0.01  -0.00     0.05  -0.09   0.01
  19   6    -0.00   0.00   0.00    -0.01   0.00   0.00     0.14  -0.01  -0.00
  20   6    -0.00  -0.00  -0.00     0.00  -0.00   0.00     0.00   0.00  -0.00
  21   6     0.00   0.00   0.00    -0.00  -0.00   0.00    -0.00  -0.00   0.00
  22   6     0.00   0.00   0.00     0.00   0.00   0.00    -0.00  -0.01   0.00
  23   6    -0.00   0.00   0.00     0.00  -0.00  -0.00    -0.00  -0.01   0.00
  24   6     0.00  -0.00  -0.00     0.00   0.00  -0.00    -0.00   0.00  -0.00
  25   6     0.00   0.00   0.00    -0.01  -0.00  -0.00    -0.16  -0.01  -0.01
  26   6    -0.00  -0.00   0.00    -0.00  -0.01   0.00    -0.06  -0.11   0.02
  27   6     0.00  -0.00   0.00     0.00  -0.00   0.00     0.03  -0.04   0.01
  28   6    -0.00   0.00   0.00     0.00   0.00   0.00    -0.05  -0.00  -0.00
  29   6    -0.00   0.00  -0.00    -0.00   0.00  -0.00    -0.00  -0.00   0.00
  30   6    -0.02  -0.03  -0.04     0.03   0.03   0.04     0.00   0.00   0.00
  31   6     0.10  -0.09  -0.13    -0.09   0.09   0.13     0.00  -0.00  -0.00
  32   6    -0.00   0.00   0.00     0.00   0.00   0.00    -0.00  -0.00  -0.00
  33   6     0.00   0.00   0.00     0.00   0.00   0.00     0.00   0.00   0.00
  34   7    -0.00  -0.00   0.00    -0.00  -0.00   0.00     0.00  -0.00  -0.00
  35   1     0.00  -0.00  -0.00    -0.00   0.00   0.00     0.00  -0.00  -0.00
  36   1     0.00   0.00  -0.00    -0.00   0.00  -0.00     0.00  -0.00   0.00
  37   1    -0.00   0.00   0.00     0.00  -0.00  -0.00    -0.00   0.00   0.00
  38   1     0.00   0.00   0.00     0.00   0.00   0.00    -0.00  -0.00  -0.00
  39   1    -0.00   0.00  -0.00    -0.00  -0.00   0.00     0.00   0.00  -0.00
  40   1    -0.00  -0.00  -0.00    -0.00  -0.00  -0.00     0.00   0.00   0.00
  41   1     0.32   0.33   0.47     0.32   0.33   0.48    -0.00  -0.00  -0.00
  42   1    -0.08   0.08   0.11    -0.08   0.08   0.11     0.00  -0.00  -0.00
  43   1    -0.00   0.00  -0.00    -0.01   0.00   0.00    -0.15   0.01   0.01
  44   1     0.00   0.00  -0.00    -0.01  -0.01   0.00     0.07   0.11  -0.03
  45   1    -0.00   0.00  -0.00     0.01  -0.02   0.00    -0.16   0.30  -0.05
  46   1     0.00  -0.00  -0.00     0.02  -0.00  -0.00    -0.47   0.03   0.02
  47   1    -0.00  -0.00   0.00    -0.00  -0.00   0.00     0.02   0.03  -0.00
  48   1     0.00  -0.00  -0.00     0.00  -0.00  -0.00    -0.00  -0.00   0.00
  49   1    -0.00   0.00  -0.00    -0.00   0.00  -0.00    -0.02   0.02  -0.00
  50   1    -0.00  -0.00  -0.00     0.00   0.00   0.00    -0.00  -0.00  -0.00
  51   1     0.00   0.00  -0.00    -0.00  -0.00   0.00     0.02   0.02  -0.00
  52   1     0.00  -0.00   0.00    -0.00   0.00  -0.00    -0.02   0.02  -0.00
  53   1    -0.00  -0.00  -0.00     0.02   0.00   0.00     0.56   0.03   0.02
  54   1     0.00   0.00  -0.00     0.01   0.02  -0.00     0.19   0.36  -0.05
  55   1    -0.00   0.00  -0.00    -0.01   0.01  -0.00    -0.09   0.13  -0.03
  56   1     0.00   0.00  -0.00    -0.01  -0.00  -0.00     0.17   0.01   0.01
  57   1     0.08   0.08   0.11    -0.08  -0.08  -0.11    -0.00  -0.00  -0.00
  58   1    -0.33   0.33   0.48     0.32  -0.33  -0.47    -0.00   0.00   0.00
                    166                    167                    168
                        a                      a                      a 
 Frequencies --  3108.1637              3115.6999              3116.0260
 Red. masses --     1.8784                 1.8643                 1.8652
 Frc consts  --     0.0000                 0.0000                 0.0000
 IR Inten    --   248.6284                39.3841                39.9281
 Raman Activ --     0.0000                 0.0000                 0.0000
 Depolar     --     0.0000                 0.0000                 0.0000
 Atom AN      X      Y      Z        X      Y      Z        X      Y      Z
   1   6    -0.00  -0.00  -0.00     0.00  -0.00   0.00    -0.00  -0.00  -0.00
   2   6    -0.00  -0.00  -0.00     0.00  -0.00  -0.00    -0.00  -0.00  -0.00
   3   7     0.00   0.00   0.00    -0.00   0.00   0.00     0.00   0.00   0.00
   4   6    -0.00   0.00   0.00    -0.00  -0.00  -0.00    -0.00   0.00   0.00
   5   6    -0.00   0.00   0.00    -0.00  -0.00   0.00    -0.00   0.00   0.00
   6   6    -0.00  -0.00  -0.00     0.00   0.00   0.00    -0.00  -0.00   0.00
   7   6     0.00   0.00   0.00    -0.00  -0.00  -0.00     0.00   0.00   0.00
   8   7    -0.00  -0.00  -0.00     0.00   0.00   0.00    -0.00  -0.00  -0.00
   9   6     0.00  -0.00  -0.00    -0.00  -0.00  -0.00     0.00  -0.00  -0.00
  10   6    -0.00  -0.00  -0.00     0.00  -0.00  -0.00    -0.00  -0.00  -0.00
  11   6    -0.00  -0.00  -0.01     0.00   0.00   0.00    -0.00  -0.00  -0.00
  12   6     0.00  -0.00  -0.00    -0.00   0.00   0.00     0.00  -0.00  -0.01
  13   6    -0.00  -0.00   0.00    -0.00  -0.00   0.00     0.00  -0.00   0.00
  14   7     0.00   0.00  -0.00     0.00  -0.00   0.00    -0.00  -0.00   0.00
  15   6     0.00  -0.00   0.00     0.00  -0.00   0.00    -0.00   0.00  -0.00
  16   6     0.05  -0.00  -0.00     0.19  -0.01  -0.02    -0.16   0.01   0.01
  17   6    -0.03  -0.04   0.01     0.04   0.06  -0.02    -0.03  -0.05   0.01
  18   6     0.06  -0.11   0.02    -0.02   0.03  -0.00     0.02  -0.03   0.00
  19   6     0.16  -0.01  -0.01    -0.02   0.00   0.00     0.02  -0.00  -0.00
  20   6     0.00   0.00  -0.00    -0.00  -0.00  -0.00     0.00  -0.00   0.00
  21   6     0.00  -0.00   0.00    -0.00  -0.00   0.00     0.00  -0.00   0.00
  22   6     0.01  -0.00   0.00     0.00   0.00  -0.00     0.00  -0.00  -0.00
  23   6     0.01  -0.00  -0.00    -0.00   0.00  -0.00     0.00   0.00   0.00
  24   6     0.00  -0.00   0.00     0.00  -0.00  -0.00     0.00   0.00  -0.00
  25   6     0.14   0.01   0.00     0.02   0.00   0.00     0.02   0.00   0.00
  26   6     0.05   0.09  -0.01     0.02   0.02  -0.00     0.02   0.03  -0.00
  27   6    -0.02   0.03  -0.01    -0.03   0.05  -0.01    -0.04   0.06  -0.02
  28   6     0.04   0.00   0.00    -0.16  -0.01  -0.01    -0.19  -0.01  -0.02
  29   6     0.00   0.00  -0.00    -0.00  -0.00   0.00    -0.00  -0.00   0.00
  30   6     0.00   0.00   0.00     0.00   0.00   0.00     0.00   0.00   0.01
  31   6    -0.00   0.00   0.01     0.00  -0.00  -0.00    -0.00   0.00   0.00
  32   6    -0.00   0.00   0.00    -0.00   0.00   0.00    -0.00   0.00  -0.00
  33   6     0.00  -0.00  -0.00     0.00  -0.00  -0.00     0.00  -0.00  -0.00
  34   7    -0.00   0.00   0.00    -0.00   0.00   0.00    -0.00   0.00   0.00
  35   1    -0.00   0.00   0.00     0.00  -0.00  -0.00    -0.00   0.00   0.00
  36   1    -0.00   0.00  -0.00     0.00  -0.00   0.00    -0.00   0.00  -0.00
  37   1     0.00  -0.00  -0.00    -0.00   0.00   0.00     0.00  -0.00  -0.00
  38   1     0.00   0.00   0.00     0.00   0.00   0.00     0.00   0.00   0.00
  39   1    -0.00  -0.00   0.00     0.00   0.00  -0.00    -0.00  -0.00   0.00
  40   1    -0.00  -0.00  -0.00     0.00   0.00   0.00    -0.00  -0.00  -0.00
  41   1     0.01   0.01   0.02    -0.00  -0.00  -0.00     0.01   0.01   0.01
  42   1    -0.00   0.00   0.00     0.01  -0.01  -0.01    -0.01   0.01   0.02
  43   1    -0.18   0.01   0.02    -0.68   0.03   0.06     0.57  -0.03  -0.05
  44   1     0.09   0.13  -0.03    -0.13  -0.20   0.05     0.11   0.17  -0.04
  45   1    -0.19   0.35  -0.05     0.05  -0.10   0.01    -0.05   0.08  -0.01
  46   1    -0.56   0.03   0.02     0.06  -0.00  -0.00    -0.05   0.00   0.00
  47   1    -0.02  -0.02   0.00    -0.00  -0.00   0.00    -0.00  -0.00   0.00
  48   1     0.00  -0.00  -0.01     0.00  -0.00  -0.00    -0.00   0.00   0.00
  49   1    -0.02   0.03  -0.00     0.00  -0.00   0.00    -0.00   0.00  -0.00
  50   1     0.00   0.00   0.01    -0.00  -0.00  -0.00    -0.00  -0.00  -0.00
  51   1    -0.02  -0.02   0.00    -0.00  -0.00  -0.00    -0.00  -0.00   0.00
  52   1    -0.02   0.03  -0.00     0.00  -0.00   0.00    -0.00   0.00  -0.00
  53   1    -0.47  -0.03  -0.01    -0.05  -0.00  -0.00    -0.06  -0.00  -0.00
  54   1    -0.16  -0.29   0.05    -0.04  -0.08   0.01    -0.05  -0.10   0.01
  55   1     0.07  -0.11   0.03     0.11  -0.16   0.04     0.13  -0.20   0.05
  56   1    -0.15  -0.01  -0.01     0.57   0.03   0.05     0.68   0.03   0.06
  57   1    -0.00  -0.00  -0.00    -0.00  -0.00  -0.00    -0.01  -0.01  -0.02
  58   1     0.01  -0.01  -0.02    -0.00   0.00   0.00     0.01  -0.01  -0.01
