$hessian                                                                        
        0.5213153768   0.0180663584  -0.0136744870  -0.0784954097   0.0338015226
       -0.0183069827  -0.0148231915   0.0256228553  -0.0140832576  -0.0034258373
       -0.0002227608   0.0008370426  -0.0012893730   0.0014471366  -0.0005734278
        0.0005036805   0.0004276594   0.0001807821   0.0000033815  -0.0001743796
       -0.0000179879   0.0000721618   0.0000189015   0.0000301763  -0.0000470166
       -0.0000494096  -0.0000236744   0.0000229383   0.0000761433   0.0000412276
       -0.0001750505   0.0000269941  -0.0000054648  -0.0002282766   0.0001089414
        0.0000441167  -0.0000363567  -0.0000923700  -0.0000215720  -0.0000143494
        0.0000566854   0.0000186275   0.0000740113  -0.0000453944  -0.0000036874
        0.0000356368   0.0001452240   0.0000713059  -0.0000238203  -0.0004595080
       -0.0003052169  -0.0003639964   0.0005676329  -0.0002582620  -0.0022121345
       -0.0026762695   0.0023427442   0.0059569798  -0.0132772571   0.0076966539
       -0.0000813085  -0.0012234551   0.0003795704  -0.0001615092  -0.0003756844
        0.0003614684   0.0001689749  -0.0000585082   0.0001052033   0.0001571989
       -0.0000387782  -0.0000051486  -0.0001680468   0.0000016808  -0.0000099305
        0.0000111572  -0.0000718981  -0.0000437908   0.0000407172   0.0000327606
        0.0000216722   0.0000014151  -0.0000080325   0.0000064396   0.0000319021
        0.0000350629   0.0000122814  -0.0000113915  -0.0000679534  -0.0000152937
       -0.0000285925   0.0000633333   0.0000271502  -0.0000817864  -0.0000356066
       -0.0000050096   0.0000292199   0.0001264969  -0.0000002881   0.0000078089
       -0.0001016009  -0.0000111859  -0.0000575045  -0.0000063275   0.0000538384
        0.0000375406   0.0000102943  -0.0000146858  -0.0000150443   0.0000045856
       -0.0000078941   0.0000042367   0.0000101924   0.0000082860  -0.0000024485
       -0.0000077608  -0.0000061952   0.0000075245  -0.0000016559  -0.0000008778
       -0.0000023680   0.0000005571   0.0000028204   0.0000030751  -0.0000021006
        0.0000002023   0.0000107339   0.0000107998  -0.0000081486   0.0000136923
       -0.0000031294  -0.0000051516  -0.0000093955   0.0000004084   0.0000010854
       -0.0000094387   0.0000058298   0.0000013137  -0.0000156702  -0.0000009948
        0.0000073826   0.0000022724   0.0000003160   0.0000012541  -0.0000022532
        0.0000027757   0.0000069339  -0.0000063036  -0.0000021484  -0.0000035750
       -0.0000159876   0.0000083686   0.0000014747  -0.0000093356  -0.0000021835
        0.0000051913  -0.0000078428   0.0000022251   0.0000018178   0.0000122730
       -0.0000023556  -0.0000028077   0.0000104446  -0.0000140974   0.0000043253
        0.0000042396   0.0000019459  -0.0000033796   0.0000018505   0.0000014802
        0.0000064374  -0.0000029165  -0.0000064948  -0.0000155439   0.0000386087
       -0.0000045248  -0.0000251272  -0.0000001339  -0.0000637666  -0.0000261970
        0.0001015514   0.0001167993   0.0000594331   0.0000842174  -0.0000130506
       -0.0000549027   0.0000183251  -0.0005421527  -0.0000247405  -0.0001134906
        0.0000657069  -0.0001681112  -0.1327377065   0.0751428227   0.0882608589
       -0.1957610405  -0.1077264208   0.0454677543  -0.0993433097  -0.0290869500
       -0.0978350459   0.0008998957   0.0014058206  -0.0010528401  -0.0000278672
        0.0001209868   0.0000004141  -0.0000225191  -0.0000244841  -0.0000212681
       -0.0000147284  -0.0000014899  -0.0000082856  -0.0000149774  -0.0000045444
       -0.0000050405  -0.0000200008   0.0000138834   0.0000010320  -0.0000088230
        0.0000063908  -0.0000015526  -0.0000093250   0.0000151563   0.0000026333
       -0.0000505490  -0.0000412720  -0.0000255198   0.0001007653  -0.0000173034
       -0.0001371656   0.0001759727  -0.0010456590   0.0005210562  -0.0000848898
        0.0000239744   0.0000866945   0.0000031440   0.0000304876  -0.0000047955
       -0.0000162413  -0.0000081994  -0.0000205675  -0.0000057983  -0.0000028191
       -0.0000034886  -0.0000057358  -0.0000000176  -0.0000015873  -0.0000052022
       -0.0000002179  -0.0000007410   0.0000026917  -0.0000032728  -0.0000106208
       -0.0000004561   0.0000010209   0.0000005854  -0.0000021945  -0.0000015486
       -0.0000016203  -0.0000046165   0.0000021251   0.0000005030  -0.0000024670
       -0.0000031290   0.0000023301   0.0000039838  -0.0000061390   0.0000000444
        0.0000025570  -0.0000017018  -0.0000003920   0.0000014425  -0.0000052885
        0.0000010918   0.0000017896   0.0000027336  -0.0000029005  -0.0000033092
        0.0000028358  -0.0000001843   0.0000023305   0.0000033764  -0.0000015927
       -0.0000020465  -0.0000005643   0.0000021570   0.0000025870  -0.0000047238
        0.0000000413   0.0000026608   0.0000000504  -0.0000011130   0.0000041525
        0.0000059087  -0.0000047352  -0.0000015611   0.0000025329  -0.0000004887
       -0.0000043346  -0.0000011900   0.0000024061   0.0000003621   0.0000012722
        0.0000010847   0.0000044760   0.0000011781   0.0000021877  -0.0000055369
        0.0000017700   0.0000006500  -0.0000029944   0.0000010976   0.0000130818
       -0.0000027121   0.0000120162   0.0000102126   0.0000211262   0.0000095009
        0.0000358505   0.0000252211  -0.0000726481   0.0001186522   0.0000602185
        0.0000365775   0.0000039705
        0.0180663584   0.4825162236   0.0050703189   0.0401290321  -0.1707214477
        0.0619250782   0.0090154568  -0.0105841107   0.0068824090   0.0010232440
        0.0025248546   0.0027886453   0.0002688848  -0.0004134051   0.0001257795
       -0.0002624723  -0.0001843366  -0.0001453648  -0.0000065952   0.0000564716
        0.0000429509  -0.0000427482   0.0000043826  -0.0000084096   0.0000210922
        0.0000448873   0.0000209078  -0.0000144349  -0.0000731299  -0.0000270243
        0.0000990931   0.0000455077   0.0000240831   0.0000677753  -0.0000893959
       -0.0000305401   0.0000373663   0.0000729729   0.0000266634  -0.0000019011
       -0.0000519923  -0.0000162302  -0.0000329482   0.0000387550   0.0000027256
       -0.0000615867  -0.0000849571  -0.0000643941  -0.0000691949   0.0002552119
        0.0001355306   0.0005190458  -0.0004686749   0.0000588937  -0.0030635256
        0.0008847022   0.0033748614   0.0007291380  -0.0230903314   0.0138259429
        0.0009273192  -0.0004395522  -0.0009273117  -0.0002203057  -0.0000266948
        0.0000523583   0.0000286777  -0.0001413719   0.0000466916  -0.0000286819
        0.0000091364   0.0000663373   0.0000000721   0.0000870388  -0.0000231765
        0.0000393222  -0.0000621697   0.0000020990  -0.0000446591  -0.0000008990
       -0.0000270395   0.0000060983   0.0000007067  -0.0000067562  -0.0000278556
       -0.0000147601  -0.0000105417   0.0000142325   0.0000263498   0.0000057888
       -0.0000181799  -0.0000218871  -0.0000153768   0.0000439287   0.0000174185
        0.0000061522  -0.0000120454  -0.0000567377  -0.0000030857  -0.0000143190
        0.0000441303   0.0000000336   0.0000212512   0.0000230050  -0.0000047584
       -0.0000095374  -0.0000234220  -0.0000192468   0.0000217938  -0.0000066572
       -0.0000038937  -0.0000079276  -0.0000043768  -0.0000060221   0.0000052186
        0.0000026565  -0.0000035281   0.0000039210  -0.0000015142  -0.0000037819
        0.0000036979   0.0000034699  -0.0000036978  -0.0000159965   0.0000245617
       -0.0000002087  -0.0000076318  -0.0000148134   0.0000110322  -0.0000102828
        0.0000088416   0.0000015959   0.0000051691   0.0000024158  -0.0000083996
        0.0000011362  -0.0000013791   0.0000002378   0.0000260255   0.0000024832
       -0.0000120599  -0.0000101739   0.0000021437   0.0000027726   0.0000004204
       -0.0000005307  -0.0000029483   0.0000019245   0.0000012704   0.0000022471
        0.0000273092  -0.0000119135  -0.0000063686   0.0000014253  -0.0000012418
       -0.0000034932   0.0000067349  -0.0000035259  -0.0000013093  -0.0000087294
       -0.0000031478   0.0000072330  -0.0000059396   0.0000188756  -0.0000072787
       -0.0000200156  -0.0000211740   0.0000226520   0.0000080425  -0.0000025788
       -0.0000027779  -0.0000033035   0.0000101864   0.0000168217  -0.0000112255
        0.0000185415   0.0000141182   0.0000056806   0.0000175113   0.0000013506
       -0.0000454999  -0.0000225413   0.0000006680   0.0000661560  -0.0000867848
       -0.0000640750   0.0003561254  -0.0001222508  -0.0000642026   0.0000366731
       -0.0001444401  -0.0000524345   0.0738311237  -0.1056584573  -0.0727215831
       -0.1082386589  -0.1203846990   0.0307085978  -0.0317747309  -0.0529862198
       -0.0494146501  -0.0015705454   0.0004214221  -0.0013568926   0.0000632699
       -0.0000452171  -0.0000226031   0.0000216505   0.0000144858   0.0000078872
        0.0000032150   0.0000011358   0.0000027403   0.0000117003   0.0000077442
        0.0000039235   0.0000135847  -0.0000089543  -0.0000021582   0.0000119804
       -0.0000010184   0.0000032221   0.0000095756  -0.0000113164  -0.0000021648
        0.0000496662   0.0000312602   0.0000332172  -0.0000490590  -0.0003111765
       -0.0006341018   0.0002642352  -0.0008640748   0.0004183162  -0.0000733813
       -0.0000331168   0.0000406515  -0.0000754094  -0.0000311406  -0.0000195200
        0.0000361860  -0.0000166599   0.0000208200  -0.0000013412   0.0000133225
        0.0000077367   0.0000019875   0.0000072228   0.0000043305   0.0000019566
        0.0000037856   0.0000043435  -0.0000053197  -0.0000002452   0.0000045218
        0.0000035298  -0.0000000611   0.0000008017  -0.0000029547  -0.0000014486
       -0.0000010851   0.0000007454   0.0000000824   0.0000004074  -0.0000001653
        0.0000022367  -0.0000006462   0.0000006185  -0.0000008891   0.0000023238
        0.0000003136   0.0000020138  -0.0000007786   0.0000012096   0.0000018797
        0.0000003545   0.0000010409  -0.0000001822   0.0000009117  -0.0000000523
       -0.0000034356  -0.0000015289   0.0000000244  -0.0000009463  -0.0000005781
        0.0000013890   0.0000021258   0.0000010146  -0.0000006758   0.0000009022
        0.0000007529  -0.0000002416  -0.0000010042   0.0000007406   0.0000012823
       -0.0000000934  -0.0000008225  -0.0000001730   0.0000001491   0.0000001131
        0.0000002061  -0.0000005666   0.0000003995  -0.0000000917   0.0000017105
        0.0000038012   0.0000008554  -0.0000021971  -0.0000024460   0.0000004680
        0.0000006883   0.0000025053   0.0000100934  -0.0000016723   0.0000036656
       -0.0000255942  -0.0000161372   0.0000131014   0.0000051473   0.0000337191
        0.0000137679  -0.0000773232   0.0000719525  -0.0000567990  -0.0000084630
       -0.0000034750  -0.0000558552
       -0.0136744870   0.0050703189   0.4840690343  -0.0205127449   0.0602991399
       -0.0933916511  -0.0045176895   0.0055777220  -0.0002662007   0.0009998018
        0.0029730658   0.0063469878  -0.0005766065   0.0001403646  -0.0002060297
        0.0001964067   0.0001879449   0.0000312832   0.0000449230  -0.0001024155
       -0.0000612757   0.0000455398   0.0000364295   0.0000063331  -0.0000422513
       -0.0000054345  -0.0000019589  -0.0000100442   0.0000135988   0.0000102707
       -0.0000461023   0.0000322739  -0.0000040224  -0.0000718972  -0.0000001109
       -0.0000115601  -0.0000091745  -0.0000160703  -0.0000027746  -0.0000158038
        0.0000223583   0.0000097732   0.0000428601  -0.0000248842  -0.0000151140
        0.0000118570   0.0000467076   0.0000406797   0.0000809413  -0.0002041729
       -0.0001006463  -0.0004959067   0.0001166722  -0.0001292419   0.0023691001
        0.0032774732   0.0043613761  -0.0009754721   0.0145677635  -0.0075216327
       -0.0005730728  -0.0009369345  -0.0017297954  -0.0003892809   0.0002763717
       -0.0000974282  -0.0001223327  -0.0000055474  -0.0000395953   0.0000107491
       -0.0000353511  -0.0000715796   0.0000128179  -0.0000725265   0.0000037796
       -0.0000499099   0.0000665517   0.0000096673   0.0000628742   0.0000114143
        0.0000320204  -0.0000029129  -0.0000078943   0.0000029428   0.0000152351
        0.0000115480   0.0000043615  -0.0000191713  -0.0000133805  -0.0000069642
        0.0000273426   0.0000164913   0.0000120357  -0.0000463559  -0.0000203964
       -0.0000104230   0.0000228388   0.0000645546   0.0000081306  -0.0000076506
       -0.0000539833  -0.0000031290  -0.0000118676   0.0000406072   0.0000522728
        0.0000163798  -0.0000496583  -0.0000464354  -0.0000162044  -0.0000000512
       -0.0000051663   0.0000028840   0.0000092182   0.0000098797  -0.0000045291
       -0.0000038317  -0.0000010644   0.0000008698   0.0000018071   0.0000038168
       -0.0000017527  -0.0000028147   0.0000012061   0.0000091703  -0.0000130549
        0.0000005919   0.0000045718   0.0000099395  -0.0000077645   0.0000033870
       -0.0000057700  -0.0000015427  -0.0000020710  -0.0000035446   0.0000027026
       -0.0000005449   0.0000003675  -0.0000004698  -0.0000168801  -0.0000001241
        0.0000067806   0.0000075875  -0.0000000683  -0.0000013040  -0.0000006962
        0.0000014277   0.0000018427  -0.0000020029  -0.0000007186  -0.0000009892
       -0.0000178221   0.0000060746   0.0000043348   0.0000014642  -0.0000011750
        0.0000019953  -0.0000033270   0.0000062060  -0.0000018218   0.0000000727
        0.0000025879  -0.0000017643   0.0000045706  -0.0000128528   0.0000052035
        0.0000121042   0.0000128579  -0.0000132122  -0.0000088535   0.0000012193
        0.0000037860  -0.0000014536  -0.0000056743  -0.0000088284   0.0000171193
       -0.0000074662  -0.0000086439  -0.0000040086  -0.0000169116  -0.0000094449
        0.0000462736   0.0000247482   0.0000077407   0.0001251028   0.0000472180
       -0.0000830864   0.0002331240  -0.0001375376   0.0000768487  -0.0001870334
       -0.0001003843   0.0001677465   0.0900713530  -0.0744384700  -0.1239948531
        0.0456259442   0.0311249354  -0.0570315802  -0.0981239316  -0.0459006454
       -0.2070048995   0.0005274822  -0.0018166083  -0.0016467190  -0.0000010311
        0.0000333796   0.0000614642  -0.0000004098  -0.0000036041  -0.0000015874
       -0.0000140680   0.0000015424   0.0000018113  -0.0000122179   0.0000003242
        0.0000001197  -0.0000083379   0.0000027294   0.0000002839  -0.0000054564
        0.0000015176   0.0000033227  -0.0000037424   0.0000099983   0.0000028693
       -0.0000046373  -0.0000257357  -0.0000297640  -0.0000816408  -0.0007219204
       -0.0011700905  -0.0001646449   0.0004640343  -0.0004012469   0.0000069566
        0.0000053241  -0.0000043418  -0.0000131604   0.0000404407  -0.0000172788
       -0.0000227787  -0.0000014969  -0.0000318896   0.0000004002  -0.0000140249
       -0.0000065483  -0.0000053348  -0.0000033572  -0.0000026957  -0.0000045685
       -0.0000030153   0.0000016864   0.0000045969  -0.0000035425   0.0000013733
        0.0000001153   0.0000006063   0.0000004878  -0.0000005771   0.0000001478
        0.0000002562  -0.0000006660   0.0000001715  -0.0000001494   0.0000004237
       -0.0000013632   0.0000000999   0.0000001347  -0.0000008017   0.0000024662
       -0.0000005094  -0.0000008319   0.0000002729   0.0000010432  -0.0000012817
       -0.0000006858   0.0000002376   0.0000009414  -0.0000007515  -0.0000003871
       -0.0000018609   0.0000002007   0.0000000876   0.0000008751  -0.0000000355
       -0.0000007323   0.0000017686  -0.0000002356   0.0000006997  -0.0000012346
        0.0000017316  -0.0000006323   0.0000007424  -0.0000000935  -0.0000001465
        0.0000006181   0.0000000744   0.0000006666  -0.0000002880  -0.0000000033
       -0.0000006907   0.0000006045  -0.0000002272  -0.0000005940  -0.0000002408
       -0.0000019727   0.0000001163   0.0000007329  -0.0000007099  -0.0000048398
       -0.0000000606  -0.0000008925  -0.0000029461   0.0000001472   0.0000015492
        0.0000621999   0.0000255875  -0.0000187242   0.0000455744   0.0000393636
       -0.0000282343   0.0000667155   0.0001018048  -0.0001544510   0.0000738794
       -0.0000302571   0.0000377281
       -0.0784954097   0.0401290321  -0.0205127449   0.6524163022  -0.0224086677
       -0.0257662397  -0.3134810439   0.0193468594   0.0089567560  -0.0114692421
        0.0788360107  -0.0463324655   0.0034939981   0.0000177287   0.0018397326
       -0.0005776896  -0.0005736324   0.0002533740   0.0004880281   0.0001891709
        0.0000289753  -0.0002306709  -0.0002004635   0.0000175387   0.0001973457
       -0.0001942090  -0.0000632236   0.0000947550   0.0002412524   0.0000626399
       -0.0001029482  -0.0003020798   0.0000166828   0.0002995921   0.0002725221
        0.0001577838  -0.0001226321  -0.0000203765   0.0000300255   0.0000090298
        0.0000264596  -0.0000218805  -0.0000596104  -0.0000061654   0.0002111106
       -0.0001446825  -0.0001470553  -0.0001645940  -0.0009522111   0.0014268197
       -0.0003085138  -0.0576270623  -0.0150605139   0.0128550853   0.0522639019
       -0.0483445063   0.0246955731  -0.1780071284  -0.0560347782   0.0408890857
       -0.0321314054  -0.0145820584   0.0106877560  -0.0007004737   0.0004822478
        0.0018681052  -0.0003333168   0.0011971104  -0.0008332823   0.0005247135
       -0.0000401886   0.0000644720  -0.0002236936  -0.0001752755   0.0000861415
        0.0001158307  -0.0001105473  -0.0000230019  -0.0000318149   0.0000187654
       -0.0000168929   0.0000244948  -0.0000021397   0.0000050762  -0.0000266059
        0.0000044506  -0.0000004320   0.0000037019  -0.0000035139   0.0000023097
       -0.0000236610  -0.0000175648  -0.0000192877   0.0000054435   0.0000343981
        0.0000105099  -0.0000065491  -0.0000319347  -0.0000149297   0.0000132669
        0.0000140968   0.0000094815  -0.0000393954   0.0000602492   0.0000743665
        0.0000148031  -0.0000629490  -0.0000703940   0.0000477829  -0.0000128236
       -0.0000126284  -0.0000114113  -0.0000073828  -0.0000008661   0.0000029046
       -0.0000061116  -0.0000071246  -0.0000153719   0.0000017983   0.0000042276
       -0.0000172741   0.0000049498   0.0000042082   0.0000108554  -0.0000174642
        0.0000035500   0.0000020123   0.0000066095   0.0000043196   0.0000244137
        0.0000026086   0.0000060720  -0.0000053734   0.0000029827   0.0000066173
       -0.0000068686   0.0000083206  -0.0000006036  -0.0000097137  -0.0000075303
        0.0000062146  -0.0000000035  -0.0000058480  -0.0000052873   0.0000045707
       -0.0000032384  -0.0000009888   0.0000063111  -0.0000005355   0.0000017455
       -0.0000097846   0.0000029212   0.0000047884  -0.0000067833  -0.0000053989
       -0.0000009253   0.0000050297  -0.0000023004   0.0000029787   0.0000262325
       -0.0000012642  -0.0000087829   0.0000030291  -0.0000084065  -0.0000035936
        0.0000108316   0.0000170863  -0.0000067015   0.0000075478   0.0000050565
        0.0000055356  -0.0000128749   0.0000197561   0.0000259764  -0.0000304133
       -0.0000003671   0.0000035222   0.0000051138  -0.0000015645   0.0000186568
        0.0000169235   0.0000325950   0.0000569944  -0.0006186716   0.0014355838
       -0.0002870978  -0.0014252152  -0.0008173579  -0.0014271676   0.0000395585
       -0.0004955612  -0.0000445742  -0.0087351286   0.0187208321  -0.0082414272
        0.0056031626  -0.0196787196   0.0109107964  -0.0064136617   0.0138203642
       -0.0103277165  -0.0233031364   0.0016819722   0.0009890510  -0.0003669896
       -0.0002727242  -0.0003389533   0.0000148362   0.0000510911   0.0000343341
        0.0000372149   0.0000175488  -0.0000213974   0.0000388593  -0.0000049412
       -0.0000154935   0.0000229475   0.0000000899   0.0000140278   0.0000108116
        0.0000013199  -0.0000560064  -0.0000295682  -0.0000357314  -0.0000075512
       -0.0001039088  -0.0000472269  -0.0001414639  -0.0005051994  -0.0003390214
        0.0003263099   0.0003087115   0.0023237033  -0.0006311361   0.0000540166
       -0.0005433353   0.0000410789  -0.0000717804   0.0000458963   0.0000083089
        0.0000157514  -0.0000099878   0.0000099447  -0.0000037080   0.0000009231
        0.0000048632   0.0000041487  -0.0000012324   0.0000052435   0.0000065485
        0.0000016941  -0.0000180545   0.0000025037   0.0000017895  -0.0000234715
       -0.0000011533   0.0000047066   0.0000061879   0.0000034617   0.0000004737
        0.0000001344   0.0000076781  -0.0000010467  -0.0000005740  -0.0000011729
       -0.0000022881   0.0000051412  -0.0000015434   0.0000067225  -0.0000229760
        0.0000054521  -0.0000009045   0.0000010315  -0.0000234859   0.0000006012
        0.0000017107   0.0000007566  -0.0000032515   0.0000022757   0.0000019760
        0.0000238682   0.0000037843   0.0000007437  -0.0000015781   0.0000032139
        0.0000005194  -0.0000252006  -0.0000006179   0.0000005460   0.0000019854
       -0.0000223138   0.0000056148  -0.0000022610  -0.0000003389  -0.0000008255
       -0.0000043636   0.0000025475  -0.0000011168   0.0000039821  -0.0000016458
        0.0000072717  -0.0000016780  -0.0000012638   0.0000031755  -0.0000012547
       -0.0000024797  -0.0000038295  -0.0000037247  -0.0000052234   0.0000002949
        0.0000037725   0.0000029179   0.0000044686   0.0000067598   0.0000037721
       -0.0001185088  -0.0000011979  -0.0000054530   0.0001182152  -0.0000702003
       -0.0001139607   0.0000504698   0.0002748235   0.0004212732   0.0001332423
       -0.0000687172   0.0001778048
        0.0338015226  -0.1707214477   0.0602991399  -0.0224086677   0.4982821149
       -0.2032095896   0.0867838339  -0.0919497787   0.0199141176   0.0283210888
       -0.0016328580  -0.0028740322   0.0017153387  -0.0027409744   0.0048846158
        0.0009294238   0.0001396210   0.0003806519  -0.0002439664  -0.0002692141
       -0.0002702650   0.0000994153   0.0000535508   0.0000290568  -0.0000426174
       -0.0000770991  -0.0000152328   0.0000773232   0.0001393833   0.0000259176
       -0.0000731328  -0.0000500900  -0.0001130885  -0.0000241658   0.0001421897
       -0.0001426533  -0.0000057113  -0.0001260336  -0.0001571676   0.0000294828
        0.0000850487   0.0000425678   0.0000764459  -0.0000193593  -0.0000470084
        0.0000046850   0.0002389335   0.0000843044   0.0004964812  -0.0008120521
        0.0007128676  -0.0162769109  -0.0010815028  -0.0006669214   0.0008705931
       -0.0438971749   0.0260315668  -0.1147588575  -0.1555385593   0.0693017035
       -0.0029409890   0.0052068923  -0.0018879414   0.0010281717  -0.0005046418
        0.0004031770   0.0001620746  -0.0003800236   0.0002625603  -0.0001268054
        0.0000661482   0.0000056575   0.0001888810  -0.0001605351  -0.0000141186
       -0.0001330103   0.0001916560   0.0000373960   0.0001333657  -0.0000342765
        0.0000626138  -0.0000302202   0.0000395216   0.0000194973   0.0000571905
        0.0000524096   0.0000211529  -0.0000436520  -0.0000755312  -0.0000277215
        0.0000605545   0.0000947768   0.0000486108  -0.0001209558  -0.0001045626
       -0.0000137272   0.0000499285   0.0001485541  -0.0000039630   0.0000687812
       -0.0001046024   0.0000038630  -0.0000977858  -0.0000639656   0.0000437477
        0.0000558820   0.0000707279   0.0000296507  -0.0000301296   0.0000160532
        0.0000010834   0.0000093120  -0.0000012263  -0.0000063694  -0.0000123001
       -0.0000206102  -0.0000154132   0.0000025444  -0.0000010744   0.0000006314
       -0.0000076575  -0.0000063403   0.0000077753   0.0000158896  -0.0000127604
        0.0000028523   0.0000326098   0.0000301186  -0.0000293292   0.0000483825
       -0.0000052971  -0.0000187558  -0.0000251146   0.0000051649   0.0000100315
       -0.0000259283   0.0000130236   0.0000043493  -0.0000592008  -0.0000143625
        0.0000326873   0.0000210376  -0.0000034644  -0.0000072675   0.0000015390
        0.0000068598   0.0000140143  -0.0000096681  -0.0000053231  -0.0000119120
       -0.0000602052   0.0000378335   0.0000092090  -0.0000251191  -0.0000013963
        0.0000126528  -0.0000245461   0.0000042603   0.0000077693   0.0000436829
       -0.0000110775  -0.0000152965   0.0000300752  -0.0000441065   0.0000095528
        0.0000232862   0.0000176303  -0.0000208943   0.0000041775   0.0000165006
        0.0000245026   0.0000113860  -0.0000051903  -0.0000174950   0.0000168886
       -0.0000426181  -0.0000532306   0.0000042813  -0.0000453707  -0.0000025569
        0.0001184389   0.0000586008  -0.0000358645  -0.0000050048  -0.0004649494
       -0.0000149733   0.0015823611  -0.0013215353  -0.0000689446   0.0003754246
       -0.0001332374  -0.0000705190   0.0113187608  -0.0182137013   0.0072605012
        0.0015369979  -0.0188912657   0.0112862825   0.0036002670   0.0029708087
        0.0030473388  -0.0173416392   0.0026731739   0.0006087720  -0.0000489571
        0.0002264334   0.0000724394  -0.0000337284  -0.0000342163  -0.0000361297
       -0.0000243157  -0.0000075327  -0.0000028944  -0.0000205202   0.0000041000
       -0.0000067517  -0.0000224671   0.0000052933  -0.0000113135  -0.0000212999
        0.0000066497   0.0000093097  -0.0000086458   0.0000197858   0.0000138599
       -0.0000073487  -0.0001262508  -0.0000082302  -0.0002524695   0.0004095790
       -0.0003681020   0.0015678129  -0.0021950090   0.0056412767  -0.0001154507
        0.0003227424  -0.0001523756   0.0001547673   0.0000610782   0.0000176757
       -0.0000396700   0.0000018473  -0.0000547796  -0.0000054978  -0.0000389358
       -0.0000180988  -0.0000015100  -0.0000118487  -0.0000084494  -0.0000043692
       -0.0000025320   0.0000011766   0.0000079667   0.0000054809  -0.0000072436
       -0.0000057728   0.0000027904   0.0000022773   0.0000096215   0.0000032943
        0.0000009944  -0.0000036008   0.0000023500  -0.0000017677  -0.0000041211
       -0.0000100631   0.0000056983   0.0000058263  -0.0000110882   0.0000070483
        0.0000091364  -0.0000056630  -0.0000020934   0.0000080922  -0.0000107656
       -0.0000009647   0.0000035917   0.0000055168  -0.0000078744  -0.0000032270
       -0.0000022824   0.0000022640   0.0000057014   0.0000074711  -0.0000035041
       -0.0000044404   0.0000040530  -0.0000004811   0.0000064135  -0.0000083363
        0.0000079359   0.0000094242   0.0000012999  -0.0000052695   0.0000053173
        0.0000084144  -0.0000067785  -0.0000023764   0.0000077350  -0.0000032480
       -0.0000021394  -0.0000017346   0.0000009505   0.0000033074  -0.0000052948
       -0.0000083860  -0.0000029368   0.0000026877   0.0000006722  -0.0000005062
        0.0000024309  -0.0000039413  -0.0000176956  -0.0000045030   0.0000031556
        0.0001643979   0.0000894408  -0.0000802978   0.0001186129  -0.0000811108
       -0.0000554738  -0.0001292345   0.0003610648  -0.0003848596  -0.0001515339
       -0.0002167387   0.0003003847
       -0.0183069827   0.0619250782  -0.0933916511  -0.0257662397  -0.2032095896
        0.2647365674  -0.0295562511   0.0255005155  -0.0587069931  -0.0169091034
       -0.0070309349   0.0023406722   0.0015618966   0.0058309495   0.0041679815
       -0.0000248835  -0.0010063245   0.0001365569  -0.0001789513   0.0002741374
        0.0000959345  -0.0000889534  -0.0000044430  -0.0001329247   0.0000011229
        0.0000992646   0.0000428958  -0.0000248751  -0.0001919761  -0.0001217844
        0.0004920251   0.0000747052  -0.0000418412   0.0000609182   0.0003558937
        0.0001067134  -0.0000969314   0.0000812131   0.0000047542   0.0000354433
       -0.0000809666  -0.0000169646  -0.0000812782   0.0000742913  -0.0000315440
       -0.0000704394  -0.0002939003  -0.0001034809  -0.0016896086   0.0008124329
        0.0001152557   0.0138123033  -0.0006290811  -0.0048262145  -0.0042414860
        0.0295902577  -0.0155701607   0.0747208382   0.0647203329  -0.0934880093
        0.0048622159  -0.0010945854   0.0022876317  -0.0012821390   0.0013099368
       -0.0011328872   0.0001784475   0.0001406626  -0.0002364261  -0.0000868292
        0.0000101769   0.0000939506  -0.0000087367   0.0000884407  -0.0000097044
        0.0000659730  -0.0000973511  -0.0000016436  -0.0000928157   0.0000174281
       -0.0000485989   0.0000197267  -0.0000259783  -0.0000186353  -0.0000328075
       -0.0000381343  -0.0000131950   0.0000292895   0.0000522312   0.0000166110
       -0.0000226707  -0.0000560814  -0.0000303459   0.0000738913   0.0000532713
       -0.0000134287  -0.0000174513  -0.0000879196   0.0000289381  -0.0000836241
        0.0000654547  -0.0000162515   0.0001301785   0.0000651372  -0.0000565491
       -0.0000558734  -0.0000732942  -0.0000204842  -0.0000075130  -0.0000129996
        0.0000061297   0.0000021571   0.0000074132   0.0000103479   0.0000033339
        0.0000166181   0.0000133229   0.0000038683   0.0000010546  -0.0000005153
        0.0000086851   0.0000030716  -0.0000057082  -0.0000132823   0.0000146168
       -0.0000024182  -0.0000249400  -0.0000230751   0.0000207433  -0.0000388814
        0.0000038724   0.0000126555   0.0000197798  -0.0000048428  -0.0000088258
        0.0000199310  -0.0000100834  -0.0000036260   0.0000450795   0.0000113526
       -0.0000246254  -0.0000149028   0.0000035745   0.0000055731  -0.0000016274
       -0.0000041298  -0.0000102412   0.0000062287   0.0000040251   0.0000087052
        0.0000456359  -0.0000280249  -0.0000071462   0.0000203456   0.0000001194
       -0.0000089626   0.0000182171  -0.0000012384  -0.0000073725  -0.0000373065
        0.0000085002   0.0000129208  -0.0000230426   0.0000334623  -0.0000060175
       -0.0000187217  -0.0000163556   0.0000162835  -0.0000141840  -0.0000124370
       -0.0000186749  -0.0000027021  -0.0000030291   0.0000078850  -0.0000014881
        0.0000307242   0.0000540227  -0.0000101268   0.0000348880  -0.0000000510
       -0.0001017444  -0.0000479944  -0.0000011989   0.0000729492   0.0000513944
        0.0001299669  -0.0006784191  -0.0004275226   0.0000395270   0.0002593860
       -0.0001560157   0.0000760085   0.0025683235  -0.0120286622   0.0084100911
       -0.0000624056   0.0087675580  -0.0049574248  -0.0114214003   0.0227063071
       -0.0151746997   0.0121207421  -0.0012290921   0.0006751161   0.0000144900
       -0.0001221421   0.0000611581   0.0000201848   0.0000236876   0.0000188793