 Entering Gaussian System
 *********************************************
 Gaussian 98:
 frequency output generated by the xtb code
 *********************************************
                         Standard orientation:
 --------------------------------------------------------------------
  Center     Atomic     Atomic              Coordinates (Angstroms)
  Number     Number      Type              X           Y           Z
 --------------------------------------------------------------------
    1          6             0       -9.006933    1.365217   -3.086635
    2          6             0       -8.448934   -0.061239   -3.068543
    3          6             0       -9.542252   -0.995265   -2.526735
    4          6             0       -8.096505   -0.455569   -4.511299
    5          6             0       -7.209022   -0.195249   -2.199474
    6          6             0       -6.590641   -1.448464   -2.085955
    7          6             0       -5.466662   -1.663074   -1.313996
    8          6             0       -4.942394   -0.584411   -0.612232
    9          6             0       -5.529239    0.696500   -0.733775
   10          6             0       -6.654288    0.884713   -1.517739
   11          6             0       -4.720626    1.588533    0.060516
   12          6             0       -4.799051    2.942700    0.337802
   13          6             0       -3.859116    3.530163    1.180234
   14          6             0       -3.880479    5.011549    1.520480
   15          6             0       -4.082133    5.173496    3.035259
   16          6             0       -2.542308    5.642022    1.104611
   17          6             0       -5.005127    5.766164    0.805126
   18          6             0       -2.865627    2.717862    1.744851
   19          6             0       -2.764396    1.366108    1.484693
   20          6             0       -3.688317    0.798248    0.616064
   21          7             0       -3.834449   -0.508606    0.202477
   22          6             0       -3.000952   -1.574418    0.561104
   23          6             0       -3.592999   -2.779104    1.027761
   24          6             0       -2.774207   -3.830726    1.410810
   25          6             0       -1.412674   -3.691396    1.334795
   26          6             0       -0.788973   -2.485831    0.877506
   27          6             0       -1.633621   -1.430792    0.484052
   28          6             0        0.620493   -2.520757    0.893376
   29          6             0        1.524891   -1.509954    0.517207
   30          6             0        2.881449   -1.720552    0.625598
   31          7             0        3.775163   -0.698719    0.285142
   32          6             0        3.681610    0.616835    0.688066
   33          6             0        2.763347    1.235709    1.524361
   34          6             0        2.917603    2.586626    1.781106
   35          6             0        3.963565    3.341804    1.242835
   36          6             0        4.125150    4.828045    1.518829
   37          6             0        4.113177    5.588420    0.183264
   38          6             0        5.464705    5.058495    2.235694
   39          6             0        3.007678    5.396353    2.398417
   40          6             0        4.901075    2.698912    0.432128
   41          6             0        4.768450    1.351680    0.157483
   42          6             0        5.553755    0.415191   -0.608933
   43          6             0        6.707083    0.542866   -1.363100
   44          6             0        7.225469   -0.567142   -2.024711
   45          6             0        8.492482   -0.499953   -2.861688
   46          6             0        8.156823   -0.881045   -4.312006
   47          6             0        9.522781   -1.486533   -2.290283
   48          6             0        9.122988    0.896067   -2.868797
   49          6             0        6.542120   -1.787374   -1.922533
   50          6             0        5.388493   -1.941380   -1.180807
   51          6             0        4.900096   -0.834002   -0.497671
   52          6             0        3.402275   -2.951765    1.108454
   53          6             0        2.524075   -3.961102    1.473047
   54          6             0        1.173184   -3.755084    1.365444
   55         16             0       -0.152553   -4.862623    1.759606
   56          8             0       -0.170411   -6.026848    0.879915
   57          8             0       -0.177385   -5.196091    3.179926
   58          1             0       -9.292503    1.687069   -2.087809
   59          1             0       -9.894937    1.396649   -3.714623
   60          1             0       -8.282394    2.064638   -3.497160
   61          1             0      -10.444922   -0.898651   -3.126156
   62          1             0       -9.227730   -2.034787   -2.552537
   63          1             0       -9.782387   -0.737088   -1.497140
   64          1             0       -8.967871   -0.339145   -5.152141
   65          1             0       -7.299984    0.180745   -4.892006
   66          1             0       -7.765991   -1.488585   -4.572834
   67          1             0       -6.997154   -2.289625   -2.625256
   68          1             0       -5.004697   -2.637251   -1.267567
   69          1             0       -7.080072    1.870940   -1.589347
   70          1             0       -5.595072    3.518417   -0.102540
   71          1             0       -4.119379    6.229298    3.294810
   72          1             0       -5.017235    4.709469    3.342853
   73          1             0       -3.273625    4.713425    3.596385
   74          1             0       -2.377247    5.505687    0.037668
   75          1             0       -2.551528    6.708404    1.319220
   76          1             0       -1.709217    5.195544    1.639466
   77          1             0       -4.961381    6.819289    1.075311
   78          1             0       -4.901002    5.692879   -0.275046
   79          1             0       -5.981301    5.387262    1.098820
   80          1             0       -2.145998    3.154589    2.419245
   81          1             0       -1.998830    0.768050    1.954375
   82          1             0       -4.663396   -2.845732    1.128178
   83          1             0       -3.196669   -4.756179    1.774594
   84          1             0       -1.209120   -0.517810    0.096344
   85          1             0        1.154529   -0.579006    0.117022
   86          1             0        1.956581    0.679258    1.975924
   87          1             0        2.195785    3.054751    2.428674
   88          1             0        4.205113    6.657242    0.363652
   89          1             0        3.179310    5.406441   -0.344808
   90          1             0        4.933853    5.281489   -0.458648
   91          1             0        5.589747    6.115726    2.459495
   92          1             0        5.492240    4.502258    3.170712
   93          1             0        6.303844    4.738818    1.624339
   94          1             0        3.172444    6.461669    2.546590
   95          1             0        2.036284    5.270000    1.926227
   96          1             0        2.996996    4.921570    3.376865
   97          1             0        5.736278    3.240019    0.017136
   98          1             0        7.183006    1.506378   -1.427724
   99          1             0        9.049061   -0.811948   -4.930486
  100          1             0        7.404091   -0.206061   -4.714614
  101          1             0        7.775275   -1.895935   -4.379593
  102          1             0        9.751693   -1.235896   -1.256276
  103          1             0        9.155623   -2.508540   -2.319564
  104          1             0       10.443106   -1.439790   -2.868507
  105          1             0        8.446898    1.629707   -3.301675
  106          1             0       10.028431    0.879410   -3.471961
  107          1             0        9.396846    1.207411   -1.863344
  108          1             0        6.920229   -2.650692   -2.447278
  109          1             0        4.876917   -2.890820   -1.143981
  110          1             0        4.465331   -3.070265    1.235506
  111          1             0        2.891923   -4.905368    1.847705
 --------------------------------------------------------------------
     1 basis functions        1 primitive gaussians
     1 alpha electrons        1 beta electrons
 
 Harmonic frequencies (cm**-1), IR intensities (km*mol⁻¹),
 Raman scattering activities (A**4/amu), Raman depolarization ratios,
 reduced masses (AMU), force constants (mDyne/A) and normal coordinates:
                      1                      2                      3
                        a                      a                      a 
 Frequencies --     7.6842                 8.7712                16.5313
 Red. masses --    10.3285                10.9446                10.6390
 Frc consts  --     0.0000                 0.0000                 0.0000
 IR Inten    --     1.0219                 1.1462                 0.2694
 Raman Activ --     0.0000                 0.0000                 0.0000
 Depolar     --     0.0000                 0.0000                 0.0000
 Atom AN      X      Y      Z        X      Y      Z        X      Y      Z
   1   6     0.08   0.07  -0.06     0.16   0.00  -0.19     0.10   0.11  -0.02
   2   6     0.08   0.07  -0.09     0.15  -0.00  -0.16     0.05   0.09   0.00
   3   6     0.07   0.05  -0.15     0.12   0.00  -0.22     0.00   0.14   0.00
   4   6     0.12   0.12  -0.09     0.22   0.00  -0.14     0.05   0.06   0.01
   5   6     0.06   0.05  -0.05     0.11  -0.00  -0.10     0.03   0.06   0.02
   6   6     0.06   0.05  -0.08     0.10  -0.00  -0.07    -0.02   0.03   0.04
   7   6     0.04   0.03  -0.06     0.06  -0.01  -0.02    -0.03   0.00   0.05
   8   6     0.02   0.02  -0.01     0.04  -0.00   0.00     0.01  -0.01   0.04
   9   6     0.02   0.02   0.02     0.04  -0.00  -0.02     0.06   0.01   0.02
  10   6     0.03   0.03  -0.01     0.08  -0.00  -0.07     0.07   0.04   0.01
  11   6    -0.01  -0.00   0.06     0.01  -0.00   0.00     0.08  -0.01   0.01
  12   6    -0.03  -0.02   0.11     0.01  -0.00  -0.00     0.14   0.00  -0.02
  13   6    -0.05  -0.04   0.15    -0.02  -0.00   0.03     0.16  -0.02  -0.02
  14   6    -0.07  -0.05   0.21    -0.02   0.00   0.02     0.22  -0.01  -0.06
  15   6    -0.11  -0.12   0.21    -0.06   0.01   0.01     0.20   0.03  -0.07
  16   6    -0.07  -0.02   0.27    -0.01  -0.01   0.05     0.25  -0.08  -0.05
  17   6    -0.07  -0.04   0.22    -0.00  -0.00  -0.01     0.26   0.02  -0.09
  18   6    -0.05  -0.05   0.14    -0.04  -0.00   0.06     0.12  -0.05  -0.00
  19   6    -0.03  -0.04   0.09    -0.03  -0.00   0.07     0.07  -0.06   0.02
  20   6    -0.01  -0.02   0.06    -0.01  -0.00   0.04     0.05  -0.04   0.02
  21   7     0.00  -0.00   0.01     0.01  -0.00   0.05     0.01  -0.04   0.04
  22   6     0.00  -0.01  -0.00     0.00  -0.00   0.06    -0.00  -0.05   0.03
  23   6     0.00  -0.02  -0.03    -0.00  -0.00   0.05    -0.00  -0.05   0.03
  24   6     0.00  -0.01  -0.02    -0.00  -0.00   0.06    -0.00  -0.05   0.02
  25   6     0.01  -0.01  -0.00    -0.00   0.00   0.08    -0.00  -0.06   0.01
  26   6     0.00  -0.00   0.01    -0.00   0.00   0.09    -0.00  -0.06   0.01
  27   6     0.00  -0.00   0.01     0.00   0.00   0.08    -0.00  -0.06   0.02
  28   6     0.00   0.00   0.01    -0.00   0.00   0.09    -0.00  -0.06   0.01
  29   6     0.00   0.00   0.01    -0.00   0.00   0.08    -0.01  -0.05   0.01
  30   6     0.00   0.01   0.02    -0.00  -0.01   0.06    -0.01  -0.04   0.02
  31   7     0.00   0.00  -0.00    -0.01  -0.01   0.05    -0.02  -0.03   0.03
  32   6    -0.01   0.01  -0.05     0.01  -0.01   0.06    -0.06  -0.02   0.01
  33   6    -0.02   0.04  -0.08     0.04  -0.02   0.09    -0.08  -0.04   0.01
  34   6    -0.04   0.05  -0.13     0.05  -0.02   0.10    -0.13  -0.03  -0.02
  35   6    -0.04   0.04  -0.15     0.03  -0.01   0.06    -0.15  -0.00  -0.03
  36   6    -0.06   0.05  -0.20     0.04  -0.02   0.07    -0.20   0.01  -0.06
  37   6    -0.05  -0.00  -0.23    -0.02  -0.00   0.08    -0.25  -0.02  -0.07
  38   6    -0.07   0.09  -0.19     0.06  -0.02   0.02    -0.20   0.07  -0.08
  39   6    -0.08   0.08  -0.24     0.07  -0.02   0.12    -0.21  -0.02  -0.06
  40   6    -0.03   0.02  -0.11    -0.01  -0.01   0.02    -0.13   0.01  -0.02
  41   6    -0.01   0.00  -0.06    -0.01  -0.00   0.02    -0.09   0.00  -0.00
  42   6     0.00  -0.02  -0.02    -0.05   0.00  -0.02    -0.06   0.02   0.01
  43   6     0.01  -0.03  -0.01    -0.09   0.01  -0.08    -0.07   0.05   0.01
  44   6     0.03  -0.05   0.03    -0.12   0.02  -0.12    -0.03   0.06   0.02
  45   6     0.04  -0.07   0.04    -0.16   0.03  -0.18    -0.04   0.09   0.01
  46   6     0.05  -0.11   0.05    -0.23   0.03  -0.17    -0.03   0.06   0.02
  47   6     0.03  -0.05   0.08    -0.13   0.03  -0.24    -0.00   0.14   0.02
  48   6     0.03  -0.07   0.02    -0.17   0.03  -0.21    -0.09   0.11  -0.01
  49   6     0.03  -0.05   0.06    -0.10   0.01  -0.09     0.01   0.04   0.04
  50   6     0.02  -0.03   0.05    -0.07   0.00  -0.03     0.02   0.01   0.04
  51   6     0.01  -0.02   0.01    -0.04  -0.00  -0.00    -0.02  -0.00   0.03
  52   6     0.00   0.02   0.04    -0.00  -0.01   0.04    -0.00  -0.04   0.03
  53   6     0.01   0.01   0.04    -0.00  -0.01   0.05     0.00  -0.04   0.02
  54   6     0.01   0.01   0.03    -0.00  -0.00   0.08     0.00  -0.05   0.01
  55  16     0.01   0.00   0.02    -0.00   0.01   0.14     0.00  -0.10   0.01
  56   8     0.03  -0.00   0.02    -0.01  -0.00   0.11     0.00  -0.06  -0.01
  57   8    -0.01   0.00   0.02     0.00   0.02   0.10     0.00  -0.08   0.00
  58   1     0.01   0.01  -0.02     0.03   0.00  -0.06     0.03   0.04  -0.01
  59   1     0.03   0.02  -0.02     0.05   0.00  -0.07     0.03   0.04  -0.01
  60   1     0.02   0.02  -0.00     0.05  -0.00  -0.04     0.04   0.02  -0.00
  61   1     0.03   0.02  -0.05     0.04   0.00  -0.08     0.00   0.05  -0.00
  62   1     0.02   0.02  -0.05     0.03   0.00  -0.06    -0.01   0.04   0.00
  63   1     0.01   0.01  -0.04     0.02  -0.00  -0.07     0.00   0.05  -0.00
  64   1     0.04   0.04  -0.03     0.07  -0.00  -0.05     0.02   0.02   0.00
  65   1     0.04   0.04  -0.01     0.07   0.00  -0.03     0.02   0.01   0.00
  66   1     0.04   0.04  -0.03     0.07   0.00  -0.04     0.00   0.02   0.01
  67   1     0.02   0.02  -0.03     0.04  -0.00  -0.02    -0.01   0.01   0.01
  68   1     0.01   0.01  -0.02     0.02  -0.00   0.00    -0.02  -0.00   0.02
  69   1     0.01   0.01   0.00     0.02  -0.00  -0.03     0.03   0.02  -0.00
  70   1    -0.01  -0.00   0.03     0.01  -0.00  -0.01     0.05   0.01  -0.01
  71   1    -0.04  -0.04   0.07    -0.02   0.00   0.00     0.07   0.01  -0.03
  72   1    -0.03  -0.04   0.05    -0.02   0.00  -0.00     0.05   0.03  -0.02
  73   1    -0.04  -0.04   0.06    -0.02   0.00   0.01     0.05   0.00  -0.01
  74   1    -0.01   0.01   0.08     0.00  -0.00   0.01     0.08  -0.04  -0.01
  75   1    -0.03  -0.01   0.09    -0.00  -0.00   0.01     0.09  -0.02  -0.02
  76   1    -0.02  -0.01   0.08    -0.01  -0.00   0.02     0.06  -0.03  -0.01
  77   1    -0.02  -0.01   0.08    -0.00   0.00  -0.00     0.09   0.01  -0.04
  78   1    -0.01   0.00   0.06     0.01  -0.00  -0.00     0.08  -0.00  -0.03
  79   1    -0.02  -0.02   0.05    -0.00   0.00  -0.01     0.07   0.02  -0.03
  80   1    -0.02  -0.02   0.05    -0.02   0.00   0.02     0.04  -0.02  -0.00
  81   1    -0.01  -0.01   0.02    -0.01  -0.00   0.03     0.01  -0.02   0.01
  82   1     0.00  -0.01  -0.01    -0.00  -0.00   0.01    -0.00  -0.01   0.01
  83   1     0.00  -0.01  -0.01    -0.00  -0.00   0.02    -0.00  -0.02   0.01
  84   1     0.00   0.00   0.01     0.00   0.00   0.03     0.00  -0.02   0.00
  85   1     0.00  -0.00  -0.00    -0.00   0.00   0.03    -0.00  -0.02   0.00
  86   1    -0.01   0.01  -0.02     0.02  -0.01   0.03    -0.02  -0.02   0.01
  87   1    -0.01   0.02  -0.04     0.02  -0.01   0.04    -0.04  -0.01  -0.01
  88   1    -0.02   0.00  -0.08    -0.00  -0.00   0.02    -0.08  -0.00  -0.03
  89   1    -0.01  -0.01  -0.07    -0.01  -0.00   0.03    -0.07  -0.02  -0.02
  90   1    -0.01  -0.01  -0.06    -0.01   0.00   0.01    -0.07  -0.00  -0.02
  91   1    -0.02   0.03  -0.07     0.02  -0.01   0.01    -0.07   0.02  -0.03
  92   1    -0.02   0.04  -0.05     0.03  -0.01   0.00    -0.05   0.02  -0.02
  93   1    -0.02   0.02  -0.05     0.01  -0.01  -0.00    -0.06   0.03  -0.02
  94   1    -0.03   0.02  -0.08     0.02  -0.01   0.04    -0.07  -0.00  -0.02
  95   1    -0.02   0.01  -0.07     0.01  -0.01   0.05    -0.06  -0.02  -0.01
  96   1    -0.03   0.03  -0.07     0.03  -0.01   0.03    -0.05  -0.00  -0.01
  97   1    -0.01   0.00  -0.04    -0.01  -0.00  -0.00    -0.04   0.01  -0.01
  98   1     0.00  -0.01  -0.01    -0.03   0.00  -0.03    -0.03   0.02  -0.00
  99   1     0.02  -0.04   0.02    -0.08   0.01  -0.06    -0.01   0.02   0.00
 100   1     0.02  -0.03   0.01    -0.07   0.01  -0.04    -0.02   0.01   0.00
 101   1     0.02  -0.03   0.02    -0.07   0.01  -0.04     0.00   0.01   0.01
 102   1     0.00  -0.01   0.02    -0.02   0.01  -0.07    -0.00   0.05   0.00
 103   1     0.01  -0.02   0.03    -0.03   0.01  -0.07     0.01   0.04   0.01
 104   1     0.01  -0.02   0.03    -0.04   0.01  -0.08    -0.00   0.05   0.00
 105   1     0.01  -0.02  -0.00    -0.06   0.01  -0.05    -0.03   0.02  -0.00
 106   1     0.01  -0.02   0.01    -0.06   0.01  -0.07    -0.03   0.04  -0.00
 107   1     0.01  -0.01   0.00    -0.03   0.01  -0.06    -0.03   0.04  -0.00
 108   1     0.01  -0.02   0.03    -0.04   0.00  -0.03     0.01   0.01   0.01
 109   1     0.01  -0.01   0.02    -0.02   0.00  -0.00     0.01  -0.00   0.02
 110   1     0.00   0.01   0.02     0.00  -0.01   0.01    -0.00  -0.01   0.01
 111   1     0.00   0.01   0.02     0.00  -0.00   0.01     0.00  -0.01   0.01
                      4                      5                      6
                        a                      a                      a 
 Frequencies --    24.1054                25.2221                27.3141
 Red. masses --    10.9146                10.8144                15.4781
 Frc consts  --     0.0000                 0.0000                 0.0000
 IR Inten    --     0.5365                 1.4251                 3.9428
 Raman Activ --     0.0000                 0.0000                 0.0000
 Depolar     --     0.0000                 0.0000                 0.0000
 Atom AN      X      Y      Z        X      Y      Z        X      Y      Z
   1   6    -0.12   0.04   0.13    -0.05  -0.06   0.08     0.02  -0.07  -0.00
   2   6    -0.11   0.04   0.05     0.00  -0.04   0.05     0.05  -0.06   0.01
   3   6    -0.06   0.02   0.09     0.06  -0.08   0.10     0.05  -0.07  -0.01
   4   6    -0.20   0.09   0.01    -0.04  -0.02   0.04     0.09  -0.06   0.02
   5   6    -0.05   0.03  -0.03     0.04   0.01   0.00     0.03  -0.03   0.04
   6   6    -0.04   0.03  -0.10     0.09   0.03  -0.02     0.05  -0.02   0.06
   7   6    -0.01   0.01  -0.15     0.12   0.06  -0.05     0.04  -0.00   0.08
   8   6     0.02  -0.01  -0.13     0.09   0.07  -0.05     0.01   0.01   0.08
   9   6     0.01  -0.01  -0.08     0.05   0.06  -0.04    -0.00   0.00   0.06
  10   6    -0.02   0.01  -0.03     0.03   0.02  -0.01     0.01  -0.02   0.04
  11   6     0.03  -0.03  -0.07     0.04   0.08  -0.05    -0.02   0.02   0.05
  12   6     0.03  -0.04  -0.03    -0.01   0.07  -0.02    -0.03   0.03   0.02
  13   6     0.05  -0.07  -0.03    -0.03   0.09  -0.02    -0.03   0.05   0.00
  14   6     0.05  -0.08   0.02    -0.11   0.08   0.02    -0.03   0.07  -0.06
  15   6     0.08  -0.13   0.03    -0.08   0.02   0.04    -0.02   0.13  -0.06
  16   6     0.04  -0.06   0.02    -0.16   0.18   0.01    -0.02   0.04  -0.09
  17   6     0.04  -0.06   0.07    -0.17   0.04   0.08    -0.03   0.04  -0.08
  18   6     0.05  -0.09  -0.07     0.02   0.13  -0.07    -0.04   0.07   0.04
  19   6     0.05  -0.08  -0.11     0.07   0.13  -0.09    -0.03   0.06   0.08
  20   6     0.04  -0.05  -0.12     0.07   0.11  -0.07    -0.02   0.04   0.08
  21   7     0.04  -0.04  -0.17     0.11   0.11  -0.07    -0.00   0.03   0.11
  22   6     0.03  -0.04  -0.16     0.08   0.09  -0.04     0.00   0.03   0.09
  23   6     0.02  -0.06  -0.19     0.04   0.12  -0.02     0.00   0.01   0.04
  24   6     0.01  -0.04  -0.16    -0.01   0.09  -0.01     0.00  -0.02  -0.04
  25   6     0.02  -0.02  -0.08    -0.00   0.05  -0.00     0.00  -0.02  -0.05
  26   6     0.02  -0.02  -0.05     0.04   0.02  -0.01     0.00   0.01   0.04
  27   6     0.03  -0.03  -0.10     0.08   0.05  -0.02     0.00   0.04   0.10
  28   6     0.02   0.01   0.04     0.04  -0.03   0.00     0.00   0.01   0.04
  29   6     0.03   0.03   0.09     0.08  -0.07   0.01     0.01   0.03   0.11
  30   6     0.02   0.04   0.15     0.07  -0.11   0.03     0.00   0.03   0.11
  31   7     0.03   0.04   0.16     0.10  -0.12   0.06     0.02   0.02   0.13
  32   6     0.04   0.05   0.11     0.05  -0.12   0.06     0.03   0.03   0.09
  33   6     0.05   0.07   0.11     0.05  -0.15   0.08     0.04   0.05   0.09
  34   6     0.05   0.08   0.07    -0.01  -0.14   0.06     0.04   0.06   0.05
  35   6     0.04   0.06   0.03    -0.06  -0.10   0.02     0.03   0.05   0.01
  36   6     0.05   0.07  -0.02    -0.13  -0.08  -0.02     0.02   0.06  -0.06
  37   6    -0.00   0.03  -0.04    -0.24  -0.12  -0.04    -0.05   0.00  -0.10
  38   6     0.08   0.09  -0.07    -0.12   0.02  -0.08     0.05   0.12  -0.13
  39   6     0.08   0.09   0.01    -0.13  -0.13   0.01     0.05   0.08  -0.04
  40   6     0.03   0.04   0.02    -0.04  -0.07   0.01     0.02   0.02   0.01
  41   6     0.02   0.03   0.07     0.02  -0.08   0.03     0.02   0.01   0.06
  42   6     0.00   0.01   0.07     0.04  -0.06   0.03     0.00  -0.00   0.06
  43   6    -0.03  -0.00   0.01     0.01  -0.01  -0.00    -0.01  -0.02   0.04
  44   6    -0.06  -0.02   0.02     0.04   0.00  -0.01    -0.03  -0.04   0.04
  45   6    -0.10  -0.03  -0.05     0.01   0.05  -0.05    -0.05  -0.06   0.01
  46   6    -0.18  -0.08  -0.02    -0.01   0.02  -0.03    -0.09  -0.08   0.02
  47   6    -0.06  -0.01  -0.08     0.08   0.11  -0.07    -0.05  -0.05   0.00
  48   6    -0.12  -0.03  -0.13    -0.06   0.08  -0.09    -0.05  -0.06  -0.03
  49   6    -0.04  -0.02   0.09     0.10  -0.02   0.02    -0.04  -0.03   0.07
  50   6    -0.01  -0.01   0.15     0.12  -0.07   0.05    -0.02  -0.01   0.10
  51   6     0.01   0.01   0.13     0.08  -0.08   0.05    -0.00   0.00   0.10
  52   6     0.02   0.06   0.20     0.03  -0.13   0.02    -0.00   0.01   0.06
  53   6     0.01   0.05   0.16    -0.01  -0.10   0.01    -0.00  -0.02  -0.02
  54   6     0.02   0.03   0.09    -0.00  -0.05   0.01    -0.00  -0.02  -0.04
  55  16     0.02   0.01   0.02    -0.07   0.00   0.02    -0.00  -0.13  -0.33
  56   8     0.11  -0.01   0.02    -0.10  -0.01   0.02     0.01   0.06  -0.44
  57   8    -0.09   0.02   0.01    -0.07   0.02   0.01    -0.01  -0.34  -0.29
  58   1    -0.02   0.00   0.05    -0.01  -0.02   0.03     0.00  -0.02  -0.00
  59   1    -0.05   0.02   0.05    -0.02  -0.03   0.04     0.01  -0.02  -0.01
  60   1    -0.04   0.02   0.03    -0.03  -0.01   0.02     0.01  -0.02   0.00
  61   1    -0.03   0.01   0.04     0.01  -0.03   0.04     0.02  -0.03  -0.01
  62   1    -0.02   0.01   0.01     0.03  -0.02   0.02     0.02  -0.02   0.00
  63   1    -0.00  -0.00   0.03     0.03  -0.03   0.03     0.01  -0.02  -0.00
  64   1    -0.07   0.03   0.02    -0.02  -0.01   0.02     0.03  -0.02   0.00
  65   1    -0.06   0.03  -0.00    -0.02   0.00   0.00     0.02  -0.01   0.01
  66   1    -0.06   0.03  -0.01    -0.00  -0.00   0.01     0.03  -0.02   0.01
  67   1    -0.02   0.01  -0.03     0.03   0.01  -0.01     0.02  -0.01   0.02
  68   1     0.00   0.00  -0.06     0.04   0.02  -0.02     0.01   0.00   0.03
  69   1    -0.01   0.00   0.01    -0.00   0.00   0.00    -0.00  -0.01   0.01
  70   1     0.01  -0.01   0.00    -0.01   0.01   0.00    -0.01   0.00  -0.00
  71   1     0.02  -0.04   0.02    -0.04   0.00   0.02    -0.00   0.04  -0.03
  72   1     0.02  -0.04   0.01    -0.01  -0.02   0.01    -0.00   0.04  -0.01
  73   1     0.03  -0.04   0.00    -0.01   0.01  -0.00    -0.00   0.05  -0.01
  74   1     0.01  -0.01   0.00    -0.05   0.07   0.00    -0.01  -0.00  -0.02
  75   1     0.01  -0.02   0.02    -0.06   0.05   0.01    -0.00   0.01  -0.04
  76   1     0.01  -0.02  -0.00    -0.03   0.06  -0.01    -0.01   0.02  -0.02
  77   1     0.01  -0.02   0.03    -0.07   0.01   0.03    -0.01   0.01  -0.04
  78   1     0.00  -0.01   0.02    -0.06   0.02   0.02    -0.01  -0.00  -0.02
  79   1     0.01  -0.02   0.02    -0.04  -0.01   0.03    -0.01   0.02  -0.02
  80   1     0.02  -0.03  -0.02     0.01   0.04  -0.02    -0.01   0.03   0.01
  81   1     0.02  -0.03  -0.04     0.03   0.05  -0.03    -0.01   0.02   0.03
  82   1     0.00  -0.02  -0.07     0.01   0.05  -0.01     0.00   0.00   0.02
  83   1     0.00  -0.01  -0.05    -0.01   0.03   0.00     0.00  -0.01  -0.03
  84   1     0.01  -0.01  -0.03     0.03   0.01  -0.01     0.00   0.02   0.04
  85   1     0.01   0.01   0.02     0.03  -0.02   0.00     0.00   0.01   0.04
  86   1     0.02   0.02   0.04     0.02  -0.05   0.03     0.01   0.02   0.04
  87   1     0.02   0.03   0.02    -0.00  -0.05   0.02     0.02   0.02   0.01
  88   1     0.00   0.01  -0.02    -0.08  -0.03  -0.02    -0.01   0.00  -0.04
  89   1    -0.01   0.01   0.00    -0.07  -0.05   0.00    -0.02  -0.01  -0.01
  90   1    -0.01   0.00  -0.02    -0.07  -0.03  -0.02    -0.02  -0.01  -0.04
  91   1     0.02   0.03  -0.03    -0.05   0.01  -0.03     0.01   0.04  -0.05
  92   1     0.03   0.03  -0.02    -0.01   0.01  -0.02     0.03   0.04  -0.03
  93   1     0.02   0.02  -0.03    -0.04   0.02  -0.03     0.01   0.03  -0.05
  94   1     0.03   0.03  -0.01    -0.05  -0.03  -0.01     0.01   0.03  -0.02
  95   1     0.02   0.02   0.01    -0.04  -0.06   0.01     0.01   0.02   0.00
  96   1     0.03   0.03   0.01    -0.02  -0.03   0.01     0.03   0.03  -0.01
  97   1     0.00   0.01  -0.00    -0.02  -0.01  -0.00     0.00   0.00  -0.01
  98   1    -0.01  -0.00  -0.01    -0.01   0.00  -0.01    -0.00  -0.01   0.00
  99   1    -0.06  -0.03  -0.02    -0.01   0.02  -0.02    -0.03  -0.03   0.00
 100   1    -0.06  -0.03   0.00    -0.02  -0.01  -0.01    -0.03  -0.02   0.01
 101   1    -0.05  -0.02   0.01     0.01  -0.00  -0.00    -0.03  -0.02   0.01
 102   1    -0.00   0.01  -0.03     0.03   0.04  -0.02    -0.01  -0.01  -0.00
 103   1    -0.02  -0.00  -0.01     0.04   0.03  -0.01    -0.02  -0.02   0.01
 104   1    -0.03  -0.00  -0.04     0.02   0.04  -0.03    -0.02  -0.02  -0.01
 105   1    -0.04  -0.01  -0.03    -0.03   0.01  -0.02    -0.02  -0.02  -0.01
 106   1    -0.04  -0.01  -0.05    -0.02   0.04  -0.03    -0.02  -0.02  -0.01
 107   1    -0.02   0.00  -0.05    -0.01   0.03  -0.03    -0.01  -0.01  -0.01
 108   1    -0.02  -0.01   0.03     0.03  -0.00   0.01    -0.02  -0.01   0.02
 109   1     0.00  -0.00   0.06     0.05  -0.03   0.02    -0.01  -0.00   0.04
 110   1     0.00   0.02   0.07     0.01  -0.05   0.01    -0.00   0.00   0.02
 111   1     0.00   0.02   0.06    -0.01  -0.03   0.00    -0.00  -0.01  -0.02
                      7                      8                      9
                        a                      a                      a 
 Frequencies --    32.2344                32.9791                35.4513
 Red. masses --     8.7965                 8.6389                 8.6129
 Frc consts  --     0.0000                 0.0000                 0.0000
 IR Inten    --     0.4364                 0.4982                 1.2678
 Raman Activ --     0.0000                 0.0000                 0.0000
 Depolar     --     0.0000                 0.0000                 0.0000
 Atom AN      X      Y      Z        X      Y      Z        X      Y      Z
   1   6     0.06   0.01  -0.07     0.09   0.04  -0.15     0.24   0.09  -0.33
   2   6    -0.01  -0.02   0.03    -0.02  -0.00   0.01     0.03   0.02  -0.04
   3   6    -0.02   0.08   0.18    -0.06   0.14   0.18    -0.08   0.28   0.20
   4   6    -0.10  -0.17   0.05    -0.13  -0.20   0.04    -0.09  -0.33   0.02
   5   6     0.02  -0.00  -0.01     0.00   0.00  -0.02     0.02   0.01  -0.04
   6   6     0.01  -0.00   0.02    -0.02  -0.01   0.01    -0.02  -0.01   0.02
   7   6     0.02   0.00   0.01    -0.02  -0.01   0.01    -0.03  -0.01   0.03
   8   6     0.03   0.01  -0.02    -0.00   0.00  -0.02    -0.00  -0.00  -0.00
   9   6     0.04   0.02  -0.04     0.02   0.01  -0.04     0.01   0.00  -0.02
  10   6     0.04   0.01  -0.04     0.02   0.01  -0.05     0.03   0.01  -0.04
  11   6     0.04   0.02  -0.04     0.02   0.01  -0.04     0.01  -0.00  -0.01
  12   6     0.04   0.02  -0.05     0.02   0.01  -0.04    -0.00  -0.01   0.01
  13   6     0.01   0.02  -0.02     0.00  -0.00  -0.01    -0.01  -0.01   0.02
  14   6    -0.02   0.01   0.01    -0.02  -0.01   0.02    -0.03  -0.02   0.05
  15   6    -0.29  -0.04  -0.02    -0.29  -0.07  -0.01     0.24  -0.03   0.09
  16   6     0.06   0.02   0.28     0.06  -0.01   0.29    -0.13   0.04  -0.20
  17   6     0.12   0.05  -0.17     0.12   0.03  -0.16    -0.20  -0.06   0.27
  18   6    -0.01   0.02   0.01    -0.03  -0.01   0.02     0.01  -0.01  -0.01
  19   6     0.00   0.02   0.00    -0.02  -0.01   0.01     0.02  -0.00  -0.03
  20   6     0.03   0.02  -0.02    -0.00  -0.00  -0.02     0.01  -0.00  -0.01
  21   7     0.03   0.02  -0.01    -0.01  -0.00  -0.01     0.00  -0.01  -0.01
  22   6     0.02   0.02   0.00    -0.01  -0.00  -0.00    -0.00  -0.01  -0.00
  23   6     0.01   0.02   0.00    -0.00  -0.00   0.00     0.00  -0.00   0.01
  24   6     0.00   0.01  -0.00     0.00   0.00   0.00     0.00  -0.00   0.01
  25   6     0.01   0.00  -0.01    -0.00   0.01  -0.00     0.00  -0.00  -0.00
  26   6     0.01   0.00   0.00    -0.00   0.01  -0.00     0.00  -0.01  -0.01
  27   6     0.02   0.01   0.01    -0.01   0.00  -0.00    -0.00  -0.01  -0.01
  28   6     0.01  -0.00   0.01    -0.00   0.01  -0.01     0.00  -0.00  -0.00
  29   6     0.02  -0.01   0.02    -0.00   0.01  -0.01    -0.00   0.00   0.00
  30   6     0.02  -0.01   0.03    -0.00   0.01  -0.02    -0.00   0.01   0.01
  31   7     0.02  -0.01   0.04    -0.00   0.01  -0.02    -0.00   0.01   0.01
  32   6     0.01  -0.01   0.03     0.00   0.01  -0.01    -0.00   0.01   0.01
  33   6    -0.00  -0.00   0.00     0.02  -0.00   0.01    -0.00   0.01   0.00
  34   6    -0.02   0.01  -0.02     0.04  -0.01   0.03    -0.00   0.01  -0.00
  35   6    -0.01   0.00  -0.01     0.03  -0.00   0.02    -0.00   0.01  -0.00
  36   6    -0.01   0.00  -0.01     0.02  -0.00   0.01     0.00   0.01  -0.00
  37   6     0.31  -0.00  -0.02    -0.29  -0.00   0.01     0.04   0.01  -0.00
  38   6    -0.16  -0.06   0.27     0.16   0.07  -0.26    -0.01   0.00   0.03
  39   6    -0.18   0.06  -0.27     0.18  -0.06   0.25    -0.01   0.02  -0.03
  40   6     0.02  -0.01   0.03    -0.00   0.01  -0.02     0.00   0.01   0.00
  41   6     0.02  -0.01   0.04    -0.00   0.01  -0.02    -0.00   0.01   0.01
  42   6     0.02  -0.01   0.04    -0.01   0.01  -0.03    -0.00   0.00   0.01
  43   6     0.01  -0.01   0.02    -0.00   0.01  -0.02    -0.00   0.00   0.01
  44   6    -0.00  -0.00   0.00     0.01   0.00  -0.01    -0.01   0.00   0.01
  45   6    -0.04   0.01  -0.05     0.03  -0.01   0.03    -0.01  -0.00  -0.00
  46   6    -0.10   0.04  -0.04     0.08  -0.04   0.03    -0.02  -0.01   0.00
  47   6    -0.01  -0.00  -0.11     0.01   0.00   0.08    -0.00   0.01  -0.00
  48   6    -0.03   0.01  -0.05     0.03  -0.01   0.03    -0.02   0.00  -0.01
  49   6     0.00  -0.01   0.01     0.00   0.00  -0.01    -0.00   0.00   0.01
  50   6     0.02  -0.01   0.03    -0.01   0.01  -0.03    -0.00   0.00   0.02
  51   6     0.02  -0.01   0.04    -0.01   0.01  -0.03    -0.00   0.00   0.01
  52   6     0.01  -0.01   0.03    -0.00   0.01  -0.03     0.00   0.01   0.02
  53   6     0.00  -0.01   0.01     0.00   0.01  -0.02     0.00   0.01   0.01
  54   6     0.00  -0.01   0.00    -0.00   0.01  -0.01     0.00  -0.00  -0.00
  55  16    -0.00  -0.02  -0.04     0.00   0.01  -0.01     0.01  -0.01  -0.02
  56   8    -0.00   0.01  -0.06    -0.00   0.01  -0.00     0.01   0.00  -0.03
  57   8    -0.01  -0.05  -0.04     0.01   0.01  -0.00     0.00  -0.03  -0.02
  58   1     0.03   0.03  -0.03     0.03   0.05  -0.05     0.06   0.09  -0.12
  59   1     0.02  -0.00  -0.02     0.03   0.01  -0.04     0.08   0.03  -0.11
  60   1     0.03  -0.02  -0.04     0.04  -0.02  -0.06     0.11  -0.03  -0.12
  61   1    -0.01   0.02   0.06    -0.02   0.04   0.06    -0.02   0.07   0.06
  62   1    -0.02   0.02   0.08    -0.04   0.04   0.09    -0.06   0.07   0.13
  63   1     0.01   0.06   0.05     0.00   0.09   0.04    -0.01   0.16   0.04
  64   1    -0.04  -0.05   0.02    -0.04  -0.06   0.02    -0.03  -0.09   0.01
  65   1    -0.03  -0.07  -0.01    -0.03  -0.09  -0.02    -0.00  -0.15  -0.04
  66   1    -0.05  -0.06   0.04    -0.06  -0.07   0.04    -0.08  -0.12   0.06
  67   1    -0.00  -0.00   0.01    -0.01  -0.00   0.01    -0.02  -0.00   0.02
  68   1     0.00   0.00   0.01    -0.01  -0.00   0.01    -0.02  -0.01   0.02
  69   1     0.01   0.00  -0.02     0.01   0.00  -0.02     0.02   0.01  -0.02
  70   1     0.01   0.01  -0.02     0.01   0.00  -0.02    -0.00  -0.00   0.01
  71   1    -0.08  -0.02   0.01    -0.08  -0.02   0.01     0.05  -0.01   0.02
  72   1    -0.11  -0.00  -0.06    -0.11  -0.01  -0.06     0.10  -0.04   0.08
  73   1    -0.12  -0.04   0.03    -0.12  -0.04   0.03     0.12   0.02  -0.02
  74   1     0.08   0.00   0.09     0.08  -0.00   0.09    -0.10   0.03  -0.07
  75   1     0.00   0.01   0.08     0.01  -0.00   0.08    -0.03   0.01  -0.04
  76   1    -0.01   0.01   0.13    -0.01  -0.00   0.13    -0.00   0.00  -0.12
  77   1     0.03   0.01  -0.05     0.04   0.01  -0.05    -0.07  -0.02   0.09
  78   1     0.08   0.01  -0.05     0.08   0.00  -0.04    -0.10   0.00   0.07
  79   1     0.02   0.03  -0.09     0.02   0.02  -0.09    -0.03  -0.05   0.11
  80   1    -0.01   0.00   0.01    -0.02  -0.01   0.02     0.01  -0.00  -0.01
  81   1    -0.00   0.00   0.01    -0.01  -0.01   0.01     0.01  -0.00  -0.01
  82   1     0.00   0.01   0.00    -0.00  -0.00   0.00     0.00   0.00   0.01
  83   1    -0.00   0.00  -0.00     0.00   0.00   0.00     0.00  -0.00   0.00
  84   1     0.01   0.00   0.00    -0.00   0.00  -0.00    -0.00  -0.00  -0.01
  85   1     0.01  -0.00   0.01    -0.00   0.00  -0.00    -0.00  -0.00  -0.00
  86   1    -0.00   0.00  -0.00     0.01  -0.00   0.01    -0.00   0.00   0.00
  87   1    -0.01   0.00  -0.01     0.02  -0.00   0.02    -0.00   0.00  -0.00
  88   1     0.08  -0.00   0.00    -0.07  -0.00  -0.00     0.01   0.00   0.00
  89   1     0.13  -0.00  -0.07    -0.12  -0.00   0.07     0.01   0.00  -0.01
  90   1     0.14   0.00   0.05    -0.13  -0.00  -0.05     0.02   0.00   0.01
  91   1    -0.04  -0.02   0.07     0.04   0.02  -0.07    -0.00   0.00   0.01
  92   1    -0.12  -0.01   0.09     0.11   0.01  -0.08    -0.01   0.00   0.01
  93   1    -0.01  -0.04   0.14     0.02   0.04  -0.13    -0.00  -0.00   0.01
  94   1    -0.06   0.02  -0.09     0.06  -0.02   0.08    -0.00   0.01  -0.01
  95   1    -0.03   0.01  -0.13     0.03  -0.01   0.12    -0.00   0.01  -0.01
  96   1    -0.11   0.04  -0.07     0.11  -0.03   0.06    -0.01   0.01  -0.01
  97   1     0.01  -0.00   0.02    -0.01   0.00  -0.01     0.00   0.00   0.00
  98   1     0.00  -0.00   0.00     0.00   0.00  -0.00    -0.00   0.00   0.00
  99   1    -0.04   0.01  -0.02     0.03  -0.01   0.02    -0.01  -0.00  -0.00
 100   1    -0.03   0.02   0.00     0.03  -0.01  -0.00    -0.01  -0.01   0.00
 101   1    -0.03   0.01  -0.01     0.03  -0.01   0.01    -0.00  -0.00   0.00
 102   1     0.01  -0.01  -0.03    -0.01   0.01   0.02     0.00   0.00  -0.00
 103   1    -0.00  -0.00  -0.04     0.00   0.00   0.03    -0.00   0.00   0.00
 104   1    -0.01   0.00  -0.04     0.01  -0.00   0.03    -0.00   0.00  -0.00
 105   1    -0.01   0.01  -0.00     0.01  -0.00  -0.00    -0.01  -0.00  -0.00
 106   1    -0.02   0.01  -0.02     0.01  -0.00   0.01    -0.01   0.00  -0.01
 107   1     0.00  -0.00  -0.01     0.00   0.00   0.01    -0.00   0.00  -0.01
 108   1    -0.00  -0.00  -0.00     0.00   0.00  -0.00    -0.00  -0.00   0.00
 109   1     0.01  -0.00   0.01    -0.00   0.00  -0.01    -0.00   0.00   0.01
 110   1     0.00  -0.00   0.01    -0.00   0.00  -0.01    -0.00   0.00   0.01
 111   1    -0.00  -0.00   0.00     0.00   0.00  -0.01     0.00   0.00   0.00
                     10                     11                     12
                        a                      a                      a 
 Frequencies --    37.5305                56.2253                57.4087
 Red. masses --     8.7046                10.0721                10.8288
 Frc consts  --     0.0000                 0.0000                 0.0000
 IR Inten    --     0.1014                 0.2195                 0.5490
 Raman Activ --     0.0000                 0.0000                 0.0000
 Depolar     --     0.0000                 0.0000                 0.0000
 Atom AN      X      Y      Z        X      Y      Z        X      Y      Z
   1   6     0.00   0.00  -0.00     0.05   0.07  -0.05     0.03   0.09  -0.08
   2   6    -0.00  -0.00   0.00    -0.01   0.05  -0.02    -0.04   0.06  -0.03
   3   6     0.00   0.00   0.01    -0.14   0.07  -0.24    -0.11   0.13  -0.07
   4   6    -0.01  -0.01   0.00     0.21   0.09   0.02     0.00   0.03  -0.01
   5   6     0.00  -0.00  -0.01    -0.12  -0.02   0.12    -0.09   0.02   0.03
   6   6     0.00  -0.00  -0.01    -0.22  -0.06   0.23    -0.09   0.01   0.01
   7   6     0.01  -0.00  -0.01    -0.21  -0.07   0.22    -0.10  -0.01   0.01
   8   6     0.01  -0.00  -0.01    -0.10  -0.05   0.10    -0.09  -0.03   0.04
   9   6     0.01  -0.00  -0.01    -0.05  -0.03   0.05    -0.12  -0.04   0.09
  10   6     0.01  -0.00  -0.01    -0.06  -0.02   0.07    -0.11  -0.01   0.08
  11   6     0.01  -0.00  -0.01     0.02  -0.01  -0.05    -0.13  -0.05   0.11
  12   6     0.01  -0.00  -0.01     0.03  -0.01  -0.06    -0.13  -0.04   0.10
  13   6     0.01  -0.00  -0.01     0.07   0.01  -0.12    -0.11  -0.04   0.07
  14   6     0.01  -0.00  -0.00    -0.03  -0.02  -0.01    -0.03  -0.01  -0.05
  15   6     0.02  -0.01   0.00    -0.11  -0.20   0.01    -0.04   0.14  -0.06
  16   6    -0.00   0.00  -0.01    -0.07   0.14   0.12     0.01  -0.13  -0.09
  17   6    -0.00  -0.01   0.01    -0.07  -0.03   0.03     0.02  -0.00  -0.13
  18   6     0.01  -0.00  -0.01     0.15   0.04  -0.23    -0.13  -0.04   0.10
  19   6     0.01  -0.00  -0.01     0.15   0.04  -0.22    -0.13  -0.04   0.10
  20   6     0.01  -0.00  -0.01     0.06   0.00  -0.11    -0.11  -0.04   0.08
  21   7     0.01  -0.00  -0.01    -0.01  -0.03  -0.01    -0.09  -0.03   0.03
  22   6     0.01  -0.00  -0.01    -0.00  -0.02  -0.00    -0.03  -0.02  -0.02
  23   6     0.00  -0.00  -0.01     0.01   0.02   0.11    -0.01  -0.05  -0.07
  24   6     0.00  -0.00  -0.00     0.01   0.03   0.11     0.01  -0.03  -0.09
  25   6     0.00  -0.00   0.01     0.01   0.01   0.02     0.01   0.01  -0.07
  26   6     0.00  -0.00   0.00     0.01  -0.02  -0.05    -0.00   0.03  -0.05
  27   6     0.01  -0.00  -0.00    -0.00  -0.04  -0.09    -0.03   0.02  -0.01
  28   6     0.00  -0.00   0.01     0.01  -0.01  -0.05     0.01   0.02  -0.05
  29   6     0.00   0.00   0.01     0.01  -0.02  -0.05     0.04   0.01  -0.02
  30   6     0.00  -0.00   0.01     0.01   0.00   0.00     0.04  -0.03  -0.02
  31   7     0.01  -0.00   0.02     0.02  -0.00   0.02     0.09  -0.05   0.04
  32   6     0.02  -0.01   0.04     0.01   0.00   0.00     0.10  -0.05   0.07
  33   6     0.01  -0.00   0.02    -0.01   0.01  -0.03     0.10  -0.05   0.06
  34   6    -0.00   0.00   0.01    -0.01   0.01  -0.02     0.09  -0.04   0.05
  35   6    -0.00   0.00   0.01     0.01   0.00  -0.00     0.09  -0.04   0.05
  36   6    -0.04   0.02  -0.05     0.02   0.00   0.00     0.03  -0.02  -0.05
  37   6    -0.11  -0.04  -0.08    -0.01   0.00   0.00    -0.00  -0.13  -0.11
  38   6    -0.03   0.10  -0.10     0.03   0.00  -0.02     0.02   0.10  -0.07
  39   6    -0.03   0.01  -0.04     0.03   0.00   0.02     0.01  -0.00  -0.10
  40   6     0.02  -0.01   0.04     0.02  -0.00   0.02     0.12  -0.06   0.10
  41   6     0.03  -0.01   0.05     0.02  -0.00   0.02     0.12  -0.06   0.11
  42   6     0.03  -0.01   0.06     0.03  -0.01   0.04     0.13  -0.05   0.11
  43   6     0.05  -0.02   0.08     0.03  -0.01   0.03     0.12  -0.02   0.10
  44   6     0.02  -0.01   0.04     0.03  -0.01   0.04     0.10   0.01   0.04
  45   6     0.00  -0.01   0.02    -0.00   0.01  -0.01     0.05   0.07  -0.04
  46   6    -0.15   0.42  -0.06    -0.07   0.01   0.00    -0.04   0.04  -0.02
  47   6    -0.12  -0.32  -0.31     0.04   0.02  -0.07     0.14   0.13  -0.11
  48   6     0.24  -0.11   0.36    -0.02   0.02  -0.04    -0.04   0.11  -0.10
  49   6    -0.03   0.01  -0.03     0.05  -0.02   0.07     0.12  -0.00   0.04
  50   6    -0.03   0.01  -0.03     0.06  -0.02   0.07     0.13  -0.03   0.05
  51   6     0.01  -0.00   0.02     0.04  -0.01   0.04     0.11  -0.05   0.07
  52   6     0.00  -0.01  -0.01     0.01   0.02   0.06     0.01  -0.05  -0.05
  53   6     0.00  -0.01  -0.01     0.01   0.02   0.05    -0.01  -0.03  -0.07
  54   6     0.00  -0.00   0.00     0.01   0.00  -0.00    -0.01   0.01  -0.06
  55  16     0.00   0.00   0.03     0.02  -0.01  -0.02    -0.00   0.05   0.00
  56   8    -0.00  -0.01   0.04     0.00   0.03  -0.06    -0.00  -0.05   0.12
  57   8     0.00   0.02   0.02     0.04  -0.06  -0.03    -0.01   0.18   0.04
  58   1     0.00   0.00  -0.00    -0.01   0.02  -0.02    -0.01   0.03  -0.03
  59   1    -0.00   0.00   0.00     0.03   0.03  -0.04     0.02   0.04  -0.04
  60   1     0.00  -0.00  -0.00     0.03   0.01   0.01     0.03   0.01  -0.01
  61   1    -0.00   0.00   0.01    -0.01   0.04  -0.11    -0.02   0.04  -0.04
  62   1    -0.00   0.00   0.00    -0.05   0.02  -0.07    -0.04   0.03  -0.01
  63   1     0.00   0.00   0.00    -0.08   0.01  -0.08    -0.05   0.05  -0.03
  64   1    -0.00  -0.00   0.00     0.09   0.03  -0.03     0.01   0.02  -0.02
  65   1    -0.00  -0.00  -0.00     0.08   0.03   0.05     0.02  -0.01   0.01
  66   1    -0.00  -0.00   0.00     0.06   0.03   0.01    -0.02   0.00   0.00
  67   1     0.00  -0.00  -0.00    -0.08  -0.02   0.09    -0.03   0.01  -0.00
  68   1     0.00  -0.00  -0.00    -0.08  -0.03   0.08    -0.03  -0.00  -0.01
  69   1     0.00  -0.00  -0.00     0.00   0.00   0.00    -0.03  -0.00   0.03
  70   1     0.00  -0.00  -0.00    -0.01  -0.01  -0.00    -0.04  -0.01   0.03
  71   1     0.00  -0.00   0.00    -0.05  -0.07   0.04     0.01   0.05  -0.05
  72   1     0.01  -0.00   0.00    -0.03  -0.09  -0.02    -0.02   0.07  -0.01
  73   1     0.01  -0.00  -0.00    -0.03  -0.06  -0.00    -0.02   0.04  -0.00
  74   1    -0.00   0.00  -0.00    -0.00   0.07   0.03     0.00  -0.07  -0.02
  75   1     0.00  -0.00  -0.00    -0.05   0.03   0.06     0.02  -0.03  -0.06
  76   1     0.00  -0.00  -0.01    -0.02   0.05   0.03    -0.01  -0.03  -0.01
  77   1    -0.00  -0.00   0.00    -0.04  -0.01   0.03     0.02   0.01  -0.06
  78   1    -0.00   0.00   0.00    -0.01   0.01   0.01     0.01  -0.03  -0.03
  79   1     0.00  -0.00   0.00    -0.01  -0.03  -0.00    -0.00   0.02  -0.03
  80   1     0.00  -0.00  -0.00     0.06   0.02  -0.09    -0.04  -0.01   0.03
  81   1     0.00  -0.00  -0.00     0.06   0.02  -0.08    -0.04  -0.01   0.03
  82   1     0.00  -0.00  -0.00     0.00   0.01   0.06    -0.00  -0.02  -0.02
  83   1     0.00   0.00  -0.00     0.01   0.02   0.05     0.01  -0.01  -0.03
  84   1     0.00  -0.00  -0.00    -0.00  -0.02  -0.05    -0.02   0.01   0.01
  85   1     0.00   0.00   0.01     0.00  -0.01  -0.02     0.02   0.01   0.00
  86   1     0.00  -0.00   0.00    -0.01   0.00  -0.01     0.02  -0.01   0.01
  87   1    -0.00   0.00  -0.00    -0.01   0.00  -0.01     0.02  -0.01   0.01
  88   1    -0.04  -0.01  -0.04     0.00   0.00   0.00    -0.02  -0.03  -0.06
  89   1    -0.04  -0.03  -0.01    -0.01   0.00   0.01     0.00  -0.06  -0.03
  90   1    -0.04  -0.02  -0.03    -0.01  -0.00  -0.00     0.00  -0.04  -0.02
  91   1    -0.02   0.03  -0.04     0.01   0.00  -0.00    -0.01   0.04  -0.04
  92   1     0.01   0.04  -0.02     0.01  -0.00  -0.01     0.01   0.05  -0.01
  93   1    -0.01   0.03  -0.03     0.01   0.00  -0.01     0.01   0.03  -0.01
  94   1    -0.02   0.01  -0.02     0.01  -0.00   0.01    -0.01   0.00  -0.05
  95   1    -0.01  -0.01  -0.00     0.01   0.00   0.01     0.00  -0.02  -0.03
  96   1     0.00   0.01  -0.01     0.01  -0.00   0.00     0.00   0.02  -0.02
  97   1     0.01  -0.00   0.01     0.01  -0.00   0.01     0.04  -0.02   0.03
  98   1     0.02  -0.01   0.03     0.01  -0.00   0.01     0.03  -0.00   0.04
  99   1    -0.05   0.11  -0.03    -0.03   0.01  -0.01    -0.03   0.03  -0.02
 100   1    -0.01   0.20   0.04    -0.03   0.00   0.01    -0.03  -0.00   0.01
 101   1    -0.11   0.15  -0.08    -0.02   0.00   0.00     0.01   0.00   0.00
 102   1    -0.01  -0.19  -0.07     0.02   0.00  -0.02     0.06   0.05  -0.04
 103   1    -0.07  -0.08  -0.17     0.01   0.00  -0.02     0.05   0.03  -0.02
 104   1    -0.04  -0.08  -0.10     0.00   0.01  -0.03     0.03   0.05  -0.05
 105   1     0.11   0.03   0.14    -0.01   0.00  -0.00    -0.04   0.02  -0.01
 106   1     0.08  -0.04   0.12    -0.01   0.01  -0.02    -0.03   0.05  -0.05
 107   1     0.07  -0.11   0.13     0.01   0.00  -0.01     0.01   0.04  -0.04
 108   1    -0.02   0.01  -0.03     0.02  -0.01   0.02     0.04   0.00   0.01
 109   1    -0.02   0.01  -0.02     0.02  -0.01   0.03     0.04  -0.01   0.01
 110   1     0.00  -0.00  -0.01     0.00   0.01   0.03     0.00  -0.02  -0.02
 111   1     0.00  -0.00  -0.00     0.00   0.01   0.03    -0.01  -0.01  -0.02
                     13                     14                     15
                        a                      a                      a 
 Frequencies --    62.6210                70.7040                73.1355
 Red. masses --    10.0663                10.9389                11.1087
 Frc consts  --     0.0000                 0.0000                 0.0000
 IR Inten    --     2.1593                 0.6989                 0.8293
 Raman Activ --     0.0000                 0.0000                 0.0000
 Depolar     --     0.0000                 0.0000                 0.0000
 Atom AN      X      Y      Z        X      Y      Z        X      Y      Z
   1   6    -0.00  -0.03  -0.01     0.10   0.16   0.04    -0.01  -0.14  -0.11
   2   6     0.01  -0.02  -0.00     0.01   0.13   0.03     0.03  -0.12  -0.02
   3   6     0.03  -0.02   0.03    -0.06   0.19   0.00     0.04  -0.14  -0.03
   4   6    -0.02  -0.04  -0.00     0.01   0.13   0.04     0.11  -0.18   0.02
   5   6     0.02  -0.00  -0.01    -0.01   0.05   0.05    -0.00  -0.05   0.04
   6   6     0.04   0.01  -0.04    -0.02   0.04   0.01     0.04  -0.03   0.04
   7   6     0.04   0.02  -0.03    -0.01   0.01  -0.00     0.04   0.02   0.04
   8   6     0.01   0.02  -0.00     0.01  -0.03   0.04    -0.01   0.04   0.04
   9   6    -0.01   0.01   0.01    -0.01  -0.04   0.09    -0.05   0.03   0.07
  10   6    -0.01   0.00   0.01    -0.01   0.01   0.11    -0.06  -0.03   0.06
  11   6    -0.03   0.01   0.04    -0.02  -0.04   0.08    -0.05   0.04   0.07
  12   6    -0.03   0.01   0.04    -0.07  -0.04   0.05    -0.02   0.04   0.09
  13   6    -0.03   0.00   0.05    -0.07   0.01   0.00     0.03   0.03   0.05
  14   6     0.00   0.01   0.01    -0.12   0.03  -0.09     0.09   0.03   0.06
  15   6     0.01   0.08  -0.00    -0.16   0.13  -0.10     0.09   0.03   0.06
  16   6     0.02  -0.04  -0.02    -0.13   0.04  -0.11     0.12  -0.03   0.07
  17   6     0.02   0.02  -0.02    -0.12  -0.05  -0.17     0.12   0.08   0.06
  18   6    -0.05  -0.00   0.07    -0.04   0.04   0.00     0.04   0.02   0.01
  19   6    -0.05  -0.00   0.06     0.00   0.04   0.02     0.03   0.02  -0.01
  20   6    -0.03   0.01   0.04     0.01  -0.02   0.04    -0.01   0.04   0.02
  21   7    -0.01   0.02   0.01     0.04  -0.02   0.02     0.01   0.06   0.00
  22   6    -0.00   0.01   0.00     0.06  -0.02  -0.03     0.02   0.05  -0.06
  23   6    -0.01   0.02   0.01     0.07  -0.07  -0.13     0.02   0.05  -0.04
  24   6    -0.01   0.02   0.01     0.08  -0.07  -0.15     0.02   0.04  -0.08
  25   6    -0.01   0.00  -0.01     0.08  -0.05  -0.08     0.01   0.02  -0.15
  26   6    -0.01  -0.01  -0.03     0.07  -0.01  -0.01     0.01   0.01  -0.18
  27   6    -0.00   0.00  -0.02     0.06  -0.00   0.02     0.01   0.03  -0.14
  28   6    -0.01  -0.01  -0.03     0.07   0.01   0.04     0.01   0.01  -0.17
  29   6     0.00  -0.04  -0.08     0.06  -0.00   0.02     0.01   0.02  -0.15
  30   6     0.00  -0.02   0.00     0.06   0.01   0.05    -0.00   0.05  -0.06
  31   7    -0.00  -0.03  -0.03     0.05   0.00  -0.01     0.01   0.06  -0.01
  32   6    -0.08   0.01  -0.14     0.02   0.00  -0.04     0.01   0.04  -0.00
  33   6    -0.16   0.04  -0.24     0.03  -0.05   0.01    -0.04   0.02  -0.04
  34   6    -0.15   0.04  -0.24    -0.02  -0.05   0.02    -0.06   0.01  -0.01
  35   6    -0.08   0.01  -0.13    -0.07  -0.01  -0.02    -0.04   0.02   0.05
  36   6     0.03  -0.03   0.01    -0.10  -0.02   0.06    -0.11   0.02   0.08
  37   6     0.03   0.12   0.10    -0.09   0.07   0.12    -0.15   0.04   0.09
  38   6     0.09  -0.22  -0.02    -0.12  -0.06   0.11    -0.13   0.09   0.09
  39   6     0.13  -0.05   0.14    -0.13  -0.10   0.09    -0.14  -0.04   0.09
  40   6    -0.06   0.00  -0.11    -0.08   0.04  -0.09     0.01   0.04   0.09
  41   6    -0.06   0.00  -0.11    -0.03   0.04  -0.10     0.04   0.04   0.05
  42   6     0.01  -0.02   0.00    -0.03   0.03  -0.11     0.05   0.03   0.05
  43   6     0.02  -0.01   0.02    -0.03   0.00  -0.13     0.06  -0.03   0.04
  44   6     0.10  -0.02   0.11    -0.02  -0.03  -0.06     0.00  -0.06   0.03
  45   6     0.02   0.04  -0.01     0.01  -0.10  -0.02    -0.03  -0.15  -0.03
  46   6    -0.17   0.12   0.01     0.04  -0.09  -0.03    -0.12  -0.21   0.01
  47   6     0.12   0.04  -0.21    -0.06  -0.16   0.01    -0.05  -0.17  -0.03
  48   6    -0.01   0.06  -0.01     0.09  -0.14  -0.00     0.02  -0.17  -0.13
  49   6     0.20  -0.07   0.23    -0.01  -0.03  -0.02    -0.03  -0.04   0.04
  50   6     0.19  -0.08   0.21     0.00  -0.01  -0.00    -0.03   0.01   0.05
  51   6     0.07  -0.05   0.07     0.01   0.02  -0.04     0.02   0.04   0.03
  52   6    -0.01   0.03   0.13     0.07   0.04   0.12     0.00   0.07  -0.01
  53   6    -0.02   0.04   0.15     0.08   0.05   0.14     0.00   0.06  -0.04
  54   6    -0.01   0.01   0.06     0.08   0.03   0.09     0.01   0.03  -0.13
  55  16    -0.04  -0.00  -0.01     0.14  -0.02   0.01     0.02   0.10  -0.09
  56   8     0.01   0.04  -0.06     0.24  -0.01   0.01     0.03  -0.04   0.09
  57   8    -0.08  -0.06  -0.02    -0.01  -0.01   0.00     0.00   0.26  -0.02
  58   1    -0.00  -0.01  -0.00     0.02   0.05   0.01    -0.02  -0.03  -0.04
  59   1    -0.00  -0.01  -0.00     0.04   0.07   0.00     0.01  -0.06  -0.05
  60   1    -0.00  -0.01  -0.01     0.05   0.04   0.02    -0.00  -0.04  -0.03
  61   1     0.00  -0.01   0.01    -0.01   0.07  -0.01     0.02  -0.06  -0.02
  62   1     0.01  -0.01   0.01    -0.03   0.05   0.01     0.02  -0.04   0.01
  63   1     0.01  -0.00   0.01    -0.02   0.06  -0.00    -0.01  -0.03  -0.02
  64   1    -0.01  -0.01   0.00     0.01   0.06   0.01     0.04  -0.06  -0.01
  65   1    -0.01  -0.01  -0.01     0.02   0.02   0.02     0.04  -0.05   0.01
  66   1    -0.01  -0.01   0.00    -0.02   0.03   0.01     0.04  -0.05   0.02
  67   1     0.02   0.00  -0.02    -0.01   0.02  -0.00     0.02  -0.01   0.01
  68   1     0.02   0.01  -0.01    -0.00  -0.00  -0.02     0.03   0.01   0.01
  69   1    -0.01  -0.00   0.01    -0.00   0.00   0.05    -0.03  -0.01   0.02
  70   1    -0.01   0.00   0.01    -0.03  -0.03   0.02    -0.01   0.02   0.04
  71   1     0.01   0.03  -0.01    -0.05   0.04  -0.05     0.05   0.01   0.02
  72   1    -0.00   0.04   0.01    -0.05   0.04  -0.03     0.02   0.03   0.02
  73   1    -0.00   0.02   0.00    -0.05   0.05  -0.02     0.02  -0.01   0.02
  74   1     0.00  -0.02  -0.00    -0.03  -0.01  -0.03     0.04  -0.02   0.02
  75   1     0.02  -0.01  -0.02    -0.05   0.02  -0.06     0.04  -0.01   0.01
  76   1     0.00  -0.01  -0.00    -0.04   0.03  -0.01     0.03  -0.01   0.03
  77   1     0.01   0.01  -0.01    -0.04  -0.01  -0.07     0.05   0.02   0.01
  78   1     0.01  -0.00  -0.00    -0.03  -0.04  -0.05     0.03   0.02   0.02
  79   1     0.00   0.02  -0.00    -0.04  -0.01  -0.04     0.03   0.04   0.02
  80   1    -0.02  -0.00   0.02    -0.01   0.02  -0.01     0.02   0.00  -0.00
  81   1    -0.02  -0.00   0.02     0.01   0.02   0.01     0.01   0.00  -0.02
  82   1    -0.00   0.01   0.01     0.02  -0.03  -0.05     0.01   0.02   0.01
  83   1    -0.00   0.01   0.01     0.02  -0.03  -0.06     0.01   0.01  -0.01
  84   1    -0.00   0.00  -0.01     0.02   0.01   0.03     0.00   0.01  -0.04
  85   1     0.00  -0.02  -0.05     0.02  -0.01  -0.01     0.00   0.00  -0.05
  86   1    -0.06   0.02  -0.09     0.02  -0.03   0.01    -0.01  -0.00  -0.03
  87   1    -0.06   0.01  -0.09    -0.00  -0.03   0.02    -0.03  -0.00  -0.01
  88   1     0.05   0.03   0.06    -0.03   0.02   0.06    -0.06   0.01   0.03
  89   1    -0.01   0.08   0.04    -0.02   0.03   0.03    -0.04   0.00   0.03
  90   1    -0.02   0.03   0.00    -0.02   0.04   0.03    -0.04   0.02   0.02
  91   1     0.04  -0.07   0.04    -0.04  -0.02   0.05    -0.05   0.03   0.03
  92   1     0.03  -0.11  -0.03    -0.04  -0.03   0.02    -0.03   0.02   0.02
  93   1     0.01  -0.05  -0.03    -0.03  -0.00   0.03    -0.03   0.04   0.03
  94   1     0.07  -0.03   0.08    -0.05  -0.03   0.04    -0.05  -0.01   0.04
  95   1     0.03   0.03   0.05    -0.03  -0.03   0.02    -0.04  -0.02   0.02
  96   1     0.04  -0.06   0.02    -0.03  -0.04   0.02    -0.04  -0.02   0.02
  97   1    -0.01  -0.00  -0.02    -0.04   0.03  -0.03     0.01   0.02   0.04
  98   1    -0.01   0.01  -0.01    -0.01   0.00  -0.05     0.03  -0.02   0.01
  99   1    -0.07   0.04  -0.03     0.02  -0.05   0.00    -0.04  -0.07  -0.01
 100   1    -0.06   0.04   0.04     0.03  -0.01  -0.02    -0.04  -0.06   0.01
 101   1    -0.05   0.04   0.01    -0.01  -0.02  -0.01    -0.04  -0.06   0.02
 102   1     0.07  -0.01  -0.06    -0.03  -0.05   0.01     0.00  -0.04  -0.02
 103   1     0.05   0.01  -0.07    -0.03  -0.04  -0.01    -0.03  -0.04   0.01
 104   1     0.02   0.04  -0.09    -0.01  -0.05   0.02    -0.02  -0.07  -0.02
 105   1    -0.02   0.02   0.02     0.05  -0.03  -0.02     0.00  -0.05  -0.03
 106   1    -0.01   0.03  -0.02     0.04  -0.06   0.02    -0.01  -0.07  -0.05
 107   1     0.01   0.01  -0.00     0.01  -0.04   0.00     0.03  -0.04  -0.05
 108   1     0.08  -0.03   0.09    -0.00  -0.01   0.00    -0.02  -0.02   0.01
 109   1     0.07  -0.03   0.08     0.00  -0.00   0.02    -0.02   0.01   0.02
 110   1    -0.00   0.02   0.06     0.02   0.02   0.04    -0.00   0.03   0.02
 111   1    -0.01   0.02   0.06     0.02   0.02   0.05    -0.00   0.02   0.00
                     16                     17                     18
                        a                      a                      a 
 Frequencies --    78.1887                80.6399                97.3183
 Red. masses --    12.4647                10.8909                10.9310
 Frc consts  --     0.0000                 0.0000                 0.0000
 IR Inten    --     1.5132                 1.3013                 0.9982
 Raman Activ --     0.0000                 0.0000                 0.0000
 Depolar     --     0.0000                 0.0000                 0.0000
 Atom AN      X      Y      Z        X      Y      Z        X      Y      Z
   1   6     0.07   0.02   0.04    -0.01  -0.10  -0.14    -0.04  -0.00  -0.01
   2   6     0.06   0.01   0.05    -0.00  -0.10  -0.02    -0.04  -0.00  -0.02
   3   6     0.06   0.02   0.05    -0.04  -0.09  -0.07    -0.05  -0.00  -0.04
   4   6     0.07   0.01   0.05     0.13  -0.16   0.03    -0.02   0.01  -0.02
   5   6     0.06   0.01   0.05    -0.06  -0.05   0.08    -0.04  -0.01  -0.01
   6   6     0.06   0.01   0.05    -0.02  -0.02   0.05    -0.08  -0.02   0.04
   7   6     0.06   0.01   0.05     0.00   0.02   0.03    -0.08  -0.02   0.03
   8   6     0.05   0.01   0.06    -0.04   0.03   0.03    -0.02  -0.01  -0.02
   9   6     0.04   0.00   0.06    -0.10   0.01   0.11     0.01   0.00  -0.07
  10   6     0.05   0.00   0.06    -0.13  -0.04   0.13     0.01   0.00  -0.07
  11   6     0.05   0.01   0.04    -0.08   0.02   0.09     0.01   0.01  -0.07
  12   6     0.03   0.01   0.01    -0.07   0.02   0.12     0.02   0.01  -0.07
  13   6     0.03   0.05  -0.03     0.01   0.02   0.04    -0.02  -0.02  -0.00
  14   6    -0.05   0.05  -0.03     0.07   0.02   0.04     0.01  -0.03   0.01
  15   6    -0.09   0.03  -0.04     0.07   0.01   0.05     0.04  -0.03   0.02
  16   6    -0.08   0.14  -0.01     0.10  -0.03   0.07     0.02  -0.06   0.00
  17   6    -0.08  -0.01  -0.05     0.12   0.07   0.03     0.02   0.00   0.04
  18   6     0.07   0.08  -0.05     0.06   0.02  -0.05    -0.06  -0.04   0.05
  19   6     0.08   0.07  -0.01     0.05   0.03  -0.07    -0.06  -0.04   0.03
  20   6     0.07   0.02   0.03    -0.01   0.04  -0.01    -0.03  -0.01  -0.03
  21   7     0.05   0.01   0.07     0.01   0.05  -0.04    -0.03  -0.01  -0.02
  22   6     0.03  -0.02   0.00     0.02   0.04  -0.09    -0.01   0.02   0.02
  23   6     0.01  -0.07  -0.13    -0.01   0.03  -0.15     0.01   0.02   0.03
  24   6    -0.02  -0.12  -0.22    -0.03   0.01  -0.17     0.02   0.04   0.04
  25   6    -0.01  -0.14  -0.18    -0.03   0.01  -0.11     0.02   0.06   0.04
  26   6    -0.00  -0.11  -0.07    -0.00   0.02  -0.04     0.02   0.06   0.05
  27   6     0.03  -0.05   0.03     0.02   0.03  -0.05    -0.00   0.05   0.05
  28   6    -0.01  -0.10  -0.06    -0.00   0.01   0.05     0.02   0.04   0.00
  29   6    -0.04  -0.05   0.03     0.03  -0.01   0.07     0.05   0.06   0.12
  30   6    -0.04  -0.02   0.01     0.02  -0.03   0.09     0.06  -0.00   0.06
  31   7    -0.06   0.01   0.06     0.03  -0.05   0.05     0.08  -0.01   0.12
  32   6    -0.08   0.02   0.02     0.01  -0.04   0.03     0.04   0.01   0.04
  33   6    -0.08   0.08  -0.02     0.09  -0.05   0.12     0.14  -0.03   0.19
  34   6    -0.06   0.09  -0.06     0.09  -0.04   0.09     0.10  -0.01   0.14
  35   6    -0.02   0.05  -0.04     0.01  -0.02  -0.04    -0.05   0.05  -0.07
  36   6     0.07   0.04  -0.04     0.05  -0.03  -0.05    -0.03   0.03  -0.00
  37   6     0.10   0.05  -0.04     0.10  -0.01  -0.04     0.02   0.14   0.06
  38   6     0.11  -0.05  -0.07     0.05  -0.10  -0.03    -0.03  -0.07   0.04
  39   6     0.13   0.11  -0.01     0.05   0.01  -0.06    -0.03   0.01   0.01
  40   6    -0.03   0.01  -0.01    -0.07  -0.01  -0.14    -0.15   0.09  -0.23
  41   6    -0.07   0.01   0.02    -0.07  -0.01  -0.10    -0.09   0.06  -0.15
  42   6    -0.06   0.00   0.05    -0.09   0.00  -0.13    -0.07   0.05  -0.12
  43   6    -0.06   0.01   0.05    -0.12   0.04  -0.15    -0.10   0.05  -0.17
  44   6    -0.05   0.02   0.06    -0.05   0.05  -0.09     0.02  -0.01   0.02
  45   6    -0.06   0.04   0.05     0.02   0.08   0.01     0.01  -0.04   0.01
  46   6    -0.07   0.04   0.05     0.15   0.15  -0.03    -0.05  -0.02   0.02
  47   6    -0.05   0.05   0.04    -0.03   0.06   0.07     0.01  -0.08  -0.03
  48   6    -0.08   0.04   0.06     0.02   0.08   0.14     0.06  -0.07   0.02
  49   6    -0.05   0.01   0.06    -0.00   0.02  -0.06     0.12  -0.05   0.19
  50   6    -0.05   0.01   0.05     0.02  -0.02  -0.03     0.13  -0.04   0.20
  51   6    -0.05   0.00   0.06    -0.02  -0.03  -0.04     0.04   0.01   0.06
  52   6    -0.02  -0.07  -0.11    -0.01  -0.03   0.14     0.03  -0.09  -0.13
  53   6     0.00  -0.12  -0.19    -0.04   0.00   0.16     0.00  -0.11  -0.25
  54   6    -0.00  -0.14  -0.17    -0.04   0.02   0.11     0.01  -0.04  -0.18
  55  16    -0.01  -0.15  -0.04    -0.11   0.02  -0.01     0.01   0.04  -0.06
  56   8    -0.01  -0.32   0.26     0.04   0.01  -0.00    -0.21  -0.03   0.05
  57   8    -0.02   0.24   0.06    -0.27   0.02  -0.01     0.20   0.13  -0.01
  58   1     0.02   0.01   0.01    -0.04  -0.02  -0.05    -0.01  -0.00  -0.00
  59   1     0.02   0.01   0.01     0.02  -0.04  -0.07    -0.02  -0.00   0.00
  60   1     0.02   0.00   0.01     0.01  -0.03  -0.02    -0.01  -0.00  -0.01
  61   1     0.02   0.00   0.01     0.01  -0.05  -0.05    -0.01   0.01  -0.01
  62   1     0.02   0.01   0.02    -0.00  -0.02   0.01    -0.02  -0.00  -0.02
  63   1     0.01   0.01   0.01    -0.05  -0.01  -0.03    -0.02  -0.01  -0.01
  64   1     0.02   0.00   0.01     0.05  -0.05  -0.02    -0.01  -0.00  -0.01
  65   1     0.02  -0.00   0.02     0.05  -0.06   0.02    -0.01   0.01  -0.00
  66   1     0.02   0.00   0.02     0.03  -0.05   0.03    -0.00   0.00  -0.00
  67   1     0.02   0.00   0.01     0.01  -0.01   0.01    -0.04  -0.01   0.03
  68   1     0.02   0.00   0.01     0.02   0.01  -0.00    -0.03  -0.01   0.02
  69   1     0.01   0.00   0.02    -0.06  -0.02   0.04     0.01   0.00  -0.03
  70   1     0.00  -0.01   0.00    -0.03   0.01   0.06     0.02   0.01  -0.03
  71   1    -0.04   0.01  -0.01     0.04   0.00   0.02     0.01  -0.01   0.01
  72   1    -0.02  -0.01  -0.02     0.01   0.03   0.01     0.01  -0.01   0.01
  73   1    -0.02   0.02  -0.01     0.01  -0.02   0.01     0.01  -0.01   0.00
  74   1    -0.02   0.05  -0.00     0.04  -0.02   0.02    -0.00  -0.01  -0.00
  75   1    -0.04   0.04   0.00     0.04  -0.01   0.01     0.02  -0.02   0.01
  76   1    -0.02   0.05  -0.00     0.02  -0.01   0.03     0.01  -0.03  -0.01
  77   1    -0.04  -0.00  -0.02     0.05   0.02   0.00     0.01  -0.00   0.02
  78   1    -0.02  -0.00  -0.01     0.03   0.01   0.01     0.01   0.01   0.01
  79   1    -0.02  -0.01  -0.01     0.03   0.04   0.01     0.01  -0.00   0.01
  80   1     0.02   0.03  -0.02     0.03   0.01  -0.03    -0.03  -0.02   0.03
  81   1     0.03   0.03  -0.00     0.03   0.01  -0.04    -0.03  -0.02   0.02
  82   1     0.00  -0.02  -0.04    -0.00   0.01  -0.05     0.00   0.00   0.01
  83   1    -0.01  -0.04  -0.09    -0.01  -0.00  -0.06     0.01   0.01   0.01
  84   1     0.02  -0.01   0.04     0.01   0.01  -0.00    -0.01   0.01   0.01
  85   1    -0.02  -0.01   0.03     0.02  -0.00   0.01     0.02   0.04   0.08
  86   1    -0.03   0.04  -0.01     0.04  -0.02   0.06     0.07  -0.02   0.10
  87   1    -0.02   0.04  -0.03     0.04  -0.02   0.05     0.06  -0.02   0.08
  88   1     0.06   0.01  -0.01     0.03  -0.00  -0.01     0.01   0.04   0.05
  89   1     0.02   0.04  -0.00     0.03   0.00  -0.02     0.01   0.06   0.00
  90   1     0.02  -0.00  -0.02     0.03   0.00  -0.00     0.01   0.06   0.02
  91   1     0.05  -0.02  -0.01     0.03  -0.03  -0.01     0.01  -0.03   0.03
  92   1     0.03  -0.02  -0.02     0.00  -0.03  -0.01    -0.02  -0.04   0.00
  93   1     0.02  -0.02  -0.03     0.01  -0.04  -0.01    -0.01  -0.03   0.01
  94   1     0.06   0.03   0.00     0.02   0.00  -0.03    -0.02   0.00  -0.00
  95   1     0.03   0.05   0.00     0.02  -0.00  -0.02    -0.01  -0.01   0.01
  96   1     0.03   0.03  -0.01     0.02   0.01  -0.01     0.00   0.01   0.01
  97   1    -0.00  -0.01  -0.01    -0.04   0.00  -0.07    -0.07   0.04  -0.11
  98   1    -0.02   0.01   0.01    -0.05   0.02  -0.05    -0.05   0.02  -0.09
  99   1    -0.02   0.02   0.01     0.06   0.04   0.02    -0.02  -0.03  -0.00
 100   1    -0.02   0.01   0.02     0.06   0.06  -0.03     0.00   0.01   0.01
 101   1    -0.02   0.01   0.01     0.03   0.05  -0.03    -0.04   0.00   0.01
 102   1    -0.01   0.01   0.01    -0.04   0.00   0.03     0.00  -0.04  -0.01
 103   1    -0.01   0.01   0.01    -0.00   0.02  -0.01     0.00  -0.02  -0.03
 104   1    -0.01   0.02   0.01     0.01   0.03   0.05     0.00  -0.01  -0.01
 105   1    -0.03   0.01   0.02     0.02   0.03   0.02     0.03  -0.01  -0.01
 106   1    -0.02   0.02   0.02     0.03   0.03   0.07     0.03  -0.03   0.02
 107   1    -0.02   0.01   0.02    -0.03   0.01   0.05     0.00  -0.02   0.01
 108   1    -0.01   0.00   0.01     0.01   0.01  -0.01     0.06  -0.03   0.09
 109   1    -0.01   0.00   0.01     0.02  -0.01   0.01     0.06  -0.02   0.09
 110   1    -0.01  -0.02  -0.03    -0.00  -0.01   0.04     0.01  -0.04  -0.04
 111   1     0.01  -0.04  -0.08    -0.02   0.00   0.06    -0.01  -0.05  -0.11
                     19                     20                     21
                        a                      a                      a 
 Frequencies --   100.8401               109.2203               120.2146
 Red. masses --    10.8724                10.5945                10.3908
 Frc consts  --     0.0000                 0.0000                 0.0000
 IR Inten    --     0.6322                 1.7254                 0.7338
 Raman Activ --     0.0000                 0.0000                 0.0000
 Depolar     --     0.0000                 0.0000                 0.0000
 Atom AN      X      Y      Z        X      Y      Z        X      Y      Z
   1   6    -0.06  -0.06   0.03    -0.02  -0.02  -0.06     0.01   0.00   0.01
   2   6    -0.01  -0.04   0.02    -0.03  -0.02  -0.01     0.05   0.01  -0.04
   3   6     0.01  -0.08  -0.02    -0.04  -0.01  -0.03     0.13  -0.01   0.09
   4   6     0.04  -0.02   0.02     0.01  -0.05   0.00    -0.10   0.02  -0.07
   5   6    -0.00  -0.00   0.01    -0.05  -0.01   0.02     0.09   0.03  -0.09
   6   6    -0.13  -0.05   0.20     0.01   0.01  -0.05     0.14   0.05  -0.17
   7   6    -0.14  -0.04   0.21     0.02   0.02  -0.06     0.05   0.02  -0.05
   8   6    -0.03   0.01   0.05    -0.03  -0.00   0.00    -0.07  -0.02   0.10
   9   6     0.11   0.06  -0.16    -0.07  -0.02   0.06    -0.06  -0.02   0.11
  10   6     0.14   0.06  -0.20    -0.10  -0.03   0.09    -0.01   0.00   0.03
  11   6     0.13   0.07  -0.17    -0.05  -0.01   0.04    -0.06  -0.03   0.11
  12   6     0.18   0.08  -0.23    -0.03  -0.00   0.03    -0.00  -0.01   0.03
  13   6     0.04   0.04  -0.04     0.05   0.01  -0.06     0.09   0.02  -0.09
  14   6     0.01   0.03   0.02     0.05   0.00  -0.01     0.03   0.01  -0.05
  15   6     0.04  -0.03   0.03     0.04  -0.11   0.01    -0.00  -0.13  -0.04
  16   6    -0.01   0.06   0.01     0.04   0.05   0.05    -0.01   0.15   0.03
  17   6    -0.03   0.03   0.09     0.05   0.03   0.04    -0.01  -0.01  -0.01
  18   6    -0.10  -0.01   0.14     0.09   0.03  -0.14     0.14   0.04  -0.17
  19   6    -0.13  -0.01   0.17     0.05   0.02  -0.10     0.05   0.01  -0.04
  20   6    -0.01   0.02   0.03    -0.01   0.00  -0.02    -0.06  -0.03   0.11
  21   7    -0.07  -0.00   0.12    -0.01  -0.00  -0.02    -0.12  -0.05   0.18
  22   6    -0.06  -0.00   0.06    -0.01   0.01   0.01    -0.11  -0.06   0.11
  23   6    -0.03  -0.08  -0.11    -0.01  -0.09  -0.23    -0.08  -0.09   0.07
  24   6    -0.01  -0.11  -0.23    -0.01  -0.08  -0.20    -0.04  -0.08   0.00
  25   6    -0.01  -0.05  -0.17    -0.01   0.03   0.10    -0.04  -0.05  -0.04
  26   6    -0.03   0.02   0.00    -0.01   0.11   0.29    -0.08  -0.03  -0.02
  27   6    -0.06   0.04   0.12    -0.01   0.10   0.27    -0.12  -0.04   0.04
  28   6    -0.02   0.06   0.05    -0.01   0.11   0.29    -0.07   0.03  -0.05
  29   6    -0.01   0.04   0.02    -0.02   0.10   0.25    -0.09   0.03  -0.09
  30   6    -0.01   0.02  -0.00    -0.00   0.02  -0.01    -0.08   0.05  -0.08
  31   7     0.00  -0.01  -0.05    -0.01   0.01  -0.05    -0.08   0.04  -0.13
  32   6     0.02  -0.01  -0.03    -0.01   0.01  -0.05    -0.02   0.02  -0.07
  33   6     0.02  -0.03  -0.02    -0.05   0.02  -0.11     0.10  -0.04   0.11
  34   6     0.02  -0.04   0.00    -0.07   0.02  -0.11     0.16  -0.07   0.20
  35   6     0.02  -0.03   0.01    -0.03   0.01  -0.04     0.07  -0.03   0.08
  36   6    -0.01  -0.03   0.01    -0.04   0.00   0.01     0.02  -0.01   0.03
  37   6    -0.03  -0.03   0.00    -0.05   0.06   0.05    -0.00  -0.09  -0.02
  38   6    -0.02   0.01   0.02    -0.04  -0.02   0.02    -0.00   0.10   0.03
  39   6    -0.03  -0.05  -0.00    -0.04  -0.05   0.05    -0.03  -0.02  -0.03
  40   6     0.03  -0.02   0.00     0.02   0.00   0.02    -0.01   0.01  -0.05
  41   6     0.03  -0.01  -0.02     0.03  -0.00   0.01    -0.04   0.03  -0.10
  42   6     0.02  -0.01  -0.02     0.06  -0.02   0.04    -0.06   0.02  -0.12
  43   6     0.03  -0.01  -0.01     0.09  -0.03   0.08    -0.03   0.01  -0.07
  44   6     0.04  -0.01  -0.01     0.07  -0.02   0.04     0.07  -0.03   0.07
  45   6     0.04   0.00  -0.02     0.03  -0.03  -0.01     0.04  -0.01   0.03
  46   6     0.02   0.01  -0.02    -0.04  -0.05   0.01    -0.07   0.00   0.05
  47   6     0.05   0.01  -0.04     0.07  -0.01  -0.06     0.12   0.01  -0.08
  48   6     0.02   0.01  -0.02     0.02  -0.02  -0.07     0.02   0.00  -0.00
  49   6     0.04  -0.01  -0.01     0.03  -0.01  -0.00     0.13  -0.06   0.16
  50   6     0.03  -0.01  -0.02     0.01   0.01  -0.04     0.06  -0.03   0.06
  51   6     0.01  -0.01  -0.03     0.02  -0.00  -0.01    -0.05   0.02  -0.09
  52   6    -0.02   0.04   0.04     0.00  -0.07  -0.24    -0.06   0.10  -0.01
  53   6    -0.02   0.06   0.07     0.01  -0.06  -0.19    -0.04   0.10   0.04
  54   6    -0.02   0.07   0.07    -0.00   0.04   0.11    -0.04   0.06  -0.00
  55  16    -0.00   0.03  -0.04    -0.00   0.03   0.08     0.01   0.01  -0.02
  56   8     0.24  -0.03   0.03     0.02   0.09  -0.03     0.13  -0.01   0.00
  57   8    -0.22   0.10  -0.01    -0.01  -0.09   0.03    -0.02   0.03  -0.01
  58   1     0.01  -0.02   0.02    -0.02  -0.00  -0.02     0.01  -0.01   0.01
  59   1    -0.03  -0.03   0.03     0.01  -0.01  -0.03    -0.00  -0.00   0.01
  60   1    -0.04  -0.01  -0.01     0.00  -0.01  -0.01    -0.01   0.01  -0.00
  61   1    -0.00  -0.01   0.00    -0.00  -0.02  -0.03     0.01  -0.01   0.06
  62   1    -0.00  -0.02  -0.03    -0.00  -0.00   0.01     0.05  -0.00   0.01
  63   1     0.01  -0.04   0.00    -0.03   0.01  -0.02     0.08  -0.01   0.04
  64   1     0.01  -0.03   0.00     0.01  -0.00  -0.01    -0.05  -0.01   0.01
  65   1    -0.01   0.02   0.01     0.02  -0.02   0.01    -0.05   0.01  -0.05
  66   1     0.04   0.00   0.01    -0.01  -0.02   0.00    -0.02   0.01  -0.03
  67   1    -0.07  -0.03   0.10     0.02   0.01  -0.03     0.07   0.03  -0.09
  68   1    -0.07  -0.02   0.10     0.02   0.01  -0.04     0.02   0.01  -0.02
  69   1     0.07   0.03  -0.11    -0.04  -0.01   0.04    -0.01  -0.00   0.02
  70   1     0.08   0.04  -0.11    -0.02  -0.00   0.02    -0.01  -0.01   0.02
  71   1    -0.03  -0.01   0.01     0.01  -0.04   0.02    -0.04  -0.05   0.02
  72   1     0.03  -0.05   0.01     0.01  -0.04  -0.01     0.01  -0.08  -0.03
  73   1     0.03   0.02   0.00     0.01  -0.04  -0.01     0.01  -0.03  -0.02
  74   1    -0.03   0.07  -0.01     0.02   0.03   0.01     0.00   0.08   0.00
  75   1     0.01   0.01   0.05     0.01   0.01   0.03    -0.03   0.04   0.04
  76   1     0.00  -0.01  -0.03     0.01   0.01   0.01     0.01   0.04  -0.01
  77   1    -0.03   0.00   0.06     0.02   0.01   0.02    -0.01  -0.00   0.00
  78   1    -0.01   0.04   0.02     0.01   0.02   0.01    -0.01   0.01  -0.00
  79   1    -0.00  -0.02   0.01     0.01   0.01   0.01     0.00  -0.01  -0.00
  80   1    -0.06  -0.01   0.08     0.04   0.01  -0.06     0.07   0.02  -0.09
  81   1    -0.07  -0.01   0.09     0.02   0.01  -0.03     0.02   0.01  -0.02
  82   1    -0.01  -0.04  -0.03    -0.01  -0.05  -0.12    -0.02  -0.03   0.03
  83   1     0.00  -0.05  -0.10    -0.01  -0.04  -0.12    -0.00  -0.03  -0.00
  84   1    -0.02   0.03   0.07     0.00   0.04   0.11    -0.04  -0.01   0.01
  85   1    -0.00   0.01  -0.00    -0.01   0.04   0.10    -0.03   0.01  -0.03
  86   1     0.01  -0.01  -0.01    -0.02   0.01  -0.04     0.04  -0.02   0.05
  87   1     0.01  -0.01   0.00    -0.03   0.01  -0.05     0.08  -0.03   0.10
  88   1    -0.02  -0.01  -0.00    -0.00   0.01   0.03    -0.05  -0.02  -0.02
  89   1    -0.01  -0.02  -0.00    -0.02   0.03   0.02     0.02  -0.08  -0.02
  90   1    -0.00  -0.00   0.00    -0.02   0.01   0.00     0.03   0.00   0.02
  91   1    -0.01   0.00   0.00    -0.02  -0.01   0.03    -0.00   0.04  -0.04
  92   1    -0.01   0.01   0.01    -0.01  -0.03  -0.01    -0.01   0.07   0.03
  93   1    -0.00   0.01   0.01    -0.01   0.02  -0.00     0.00   0.00   0.03
  94   1    -0.02  -0.01  -0.00    -0.01  -0.02   0.03    -0.03   0.00  -0.04
  95   1    -0.01  -0.02  -0.00    -0.01  -0.00   0.01    -0.00  -0.04  -0.01
  96   1    -0.01  -0.01   0.00    -0.01  -0.03   0.00     0.00   0.02   0.00
  97   1     0.01  -0.00   0.01     0.01  -0.00   0.02    -0.01   0.01  -0.03
  98   1     0.01  -0.00   0.00     0.04  -0.01   0.04    -0.02   0.01  -0.03
  99   1     0.00   0.01  -0.01    -0.03   0.00  -0.01    -0.04   0.01  -0.01
 100   1     0.00  -0.00  -0.00    -0.03  -0.03   0.02    -0.03  -0.00   0.03
 101   1     0.01   0.00  -0.01     0.00  -0.02   0.01    -0.02  -0.00   0.02
 102   1     0.02   0.00  -0.01     0.05   0.01  -0.03     0.06  -0.00  -0.03
 103   1     0.02   0.00  -0.01     0.02  -0.00   0.00     0.04  -0.00  -0.02
 104   1     0.01   0.01  -0.02     0.01  -0.01  -0.04     0.02   0.01  -0.05
 105   1     0.00   0.00  -0.00    -0.01  -0.01  -0.01    -0.00  -0.00  -0.00
 106   1     0.00   0.01  -0.01    -0.01  -0.01  -0.04     0.00   0.00  -0.00
 107   1     0.01   0.00  -0.01     0.03  -0.00  -0.03     0.01   0.01  -0.00
 108   1     0.01  -0.00   0.00     0.00   0.00  -0.01     0.07  -0.03   0.09
 109   1     0.01  -0.00  -0.01    -0.01   0.01  -0.03     0.03  -0.01   0.03
 110   1    -0.00   0.01   0.01     0.00  -0.04  -0.12    -0.02   0.04   0.01
 111   1    -0.01   0.02   0.03     0.01  -0.04  -0.11    -0.01   0.04   0.03
                     22                     23                     24
                        a                      a                      a 
 Frequencies --   139.0682               148.8535               153.5210
 Red. masses --    10.4859                14.5388                 9.9458
 Frc consts  --     0.0000                 0.0000                 0.0000
 IR Inten    --     0.3196                 9.3008                 2.5302
 Raman Activ --     0.0000                 0.0000                 0.0000
 Depolar     --     0.0000                 0.0000                 0.0000
 Atom AN      X      Y      Z        X      Y      Z        X      Y      Z
   1   6     0.02  -0.01   0.01    -0.13  -0.03  -0.10    -0.00   0.01  -0.00
   2   6    -0.01  -0.02   0.07    -0.07  -0.01  -0.05     0.01   0.01  -0.04
   3   6    -0.08   0.01  -0.04    -0.05  -0.03  -0.05     0.05  -0.00   0.02
   4   6     0.14  -0.03   0.10    -0.06  -0.03  -0.04    -0.08   0.03  -0.07
   5   6    -0.04  -0.02   0.11    -0.07   0.05  -0.03     0.04   0.01  -0.07
   6   6    -0.05  -0.03   0.11    -0.05   0.06  -0.03    -0.02  -0.01   0.01
   7   6     0.04   0.01  -0.02    -0.05   0.06  -0.03    -0.05  -0.02   0.06
   8   6     0.11   0.04  -0.11    -0.04   0.05  -0.01    -0.02  -0.01   0.02
   9   6     0.08   0.03  -0.07    -0.05   0.05  -0.02    -0.00   0.00  -0.02
  10   6     0.02   0.01   0.02    -0.07   0.05  -0.02     0.05   0.01  -0.09
  11   6     0.09   0.02  -0.07    -0.05   0.06  -0.02    -0.02   0.00  -0.00
  12   6     0.01  -0.00   0.02    -0.03   0.08  -0.03    -0.08  -0.01   0.07
  13   6    -0.06  -0.01   0.10    -0.03   0.08  -0.02    -0.06  -0.01   0.05
  14   6    -0.04   0.00   0.05     0.02   0.08   0.02    -0.03  -0.01   0.04
  15   6    -0.02   0.16   0.03     0.04   0.04   0.03     0.00   0.07   0.03
  16   6    -0.02  -0.10  -0.02     0.03   0.07   0.04     0.00  -0.09  -0.00
  17   6    -0.02  -0.01  -0.01     0.04   0.15   0.06    -0.00   0.02   0.03
  18   6    -0.06  -0.01   0.10    -0.05   0.06  -0.02     0.02   0.02  -0.06
  19   6     0.04   0.02  -0.03    -0.06   0.06  -0.01     0.06   0.03  -0.10
  20   6     0.11   0.03  -0.11    -0.06   0.05  -0.01     0.01   0.01  -0.04
  21   7     0.15   0.05  -0.18    -0.04   0.03  -0.00    -0.00   0.01  -0.01
  22   6     0.07   0.01  -0.11    -0.00   0.02  -0.00     0.00   0.01   0.03
  23   6     0.02   0.03  -0.11     0.06  -0.03  -0.05     0.02   0.08   0.21
  24   6    -0.03   0.02  -0.03     0.08  -0.03  -0.03     0.02   0.05   0.12
  25   6    -0.02  -0.03   0.07     0.08  -0.03   0.05     0.02  -0.03  -0.09
  26   6     0.00  -0.05   0.04     0.02   0.00   0.03     0.01  -0.02  -0.06
  27   6     0.07  -0.03  -0.03     0.01   0.01   0.04     0.00  -0.03  -0.10
  28   6    -0.01  -0.04   0.05     0.02   0.03  -0.03     0.01   0.03   0.04
  29   6    -0.08  -0.02  -0.03     0.01   0.01  -0.04     0.00   0.04   0.07
  30   6    -0.08   0.03  -0.12    -0.00  -0.02   0.00     0.00  -0.01  -0.03
  31   7    -0.16   0.06  -0.20    -0.03  -0.03   0.01     0.00  -0.01   0.02
  32   6    -0.11   0.04  -0.12    -0.06  -0.05   0.02     0.02  -0.02   0.06
  33   6    -0.01   0.01   0.02    -0.07  -0.07   0.03     0.06  -0.04   0.12
  34   6     0.09  -0.03   0.16    -0.07  -0.07   0.03     0.02  -0.02   0.06
  35   6     0.06  -0.02   0.11    -0.06  -0.09   0.03    -0.08   0.01  -0.08
  36   6     0.04  -0.00   0.05     0.00  -0.10  -0.03    -0.04   0.00  -0.06
  37   6     0.01  -0.13  -0.03     0.02  -0.18  -0.07     0.01   0.10  -0.00
  38   6     0.03   0.13   0.03     0.03  -0.17  -0.06    -0.01  -0.16  -0.05
  39   6     0.01   0.03  -0.02     0.05  -0.01  -0.04     0.00   0.02  -0.03
  40   6    -0.01   0.00   0.01    -0.06  -0.08   0.03    -0.09   0.02  -0.10
  41   6    -0.10   0.03  -0.10    -0.06  -0.06   0.02    -0.02  -0.01   0.02
  42   6    -0.10   0.04  -0.10    -0.06  -0.05   0.02     0.01  -0.01   0.05
  43   6    -0.03   0.01  -0.00    -0.07  -0.04   0.03     0.07  -0.03   0.13
  44   6     0.05  -0.03   0.12    -0.07  -0.04   0.04     0.03  -0.02   0.09
  45   6     0.01  -0.02   0.08    -0.08   0.01   0.06     0.01  -0.01   0.05
  46   6    -0.16  -0.02   0.11    -0.07   0.03   0.05    -0.10  -0.02   0.08
  47   6     0.10   0.00  -0.05    -0.06   0.03   0.06     0.06   0.00  -0.01
  48   6    -0.02  -0.01   0.02    -0.13   0.03   0.10    -0.02  -0.00   0.01
  49   6     0.07  -0.04   0.15    -0.06  -0.05   0.03    -0.05   0.02  -0.04
  50   6    -0.03   0.00  -0.01    -0.06  -0.06   0.02    -0.08   0.03  -0.09
  51   6    -0.12   0.05  -0.14    -0.04  -0.05   0.02    -0.02   0.00  -0.01
  52   6    -0.03   0.04  -0.13     0.06   0.03   0.04     0.02  -0.08  -0.20
  53   6     0.03   0.02  -0.03     0.07   0.03   0.02     0.02  -0.04  -0.11
  54   6     0.01  -0.02   0.07     0.08   0.05  -0.05     0.01   0.05   0.08
  55  16     0.00  -0.05   0.09     0.32   0.02  -0.00     0.06   0.01  -0.00
  56   8     0.02   0.02  -0.01     0.29   0.01  -0.01     0.42   0.00  -0.00
  57   8    -0.01  -0.14   0.04     0.50   0.01   0.00    -0.28   0.02  -0.01
  58   1    -0.00   0.01  -0.00    -0.04  -0.00  -0.03     0.01  -0.00   0.00
  59   1     0.01  -0.00  -0.01    -0.03  -0.02  -0.03    -0.01   0.00   0.01
  60   1     0.01  -0.01   0.01    -0.04  -0.00  -0.03    -0.01   0.01  -0.00
  61   1     0.01  -0.02  -0.06    -0.01  -0.03  -0.03    -0.02   0.04   0.06
  62   1    -0.02   0.00   0.03    -0.00  -0.01   0.00    -0.01  -0.01  -0.06
  63   1    -0.07   0.02  -0.03    -0.03  -0.00  -0.02     0.08  -0.04   0.03
  64   1     0.07   0.02  -0.00    -0.02  -0.03  -0.01    -0.05  -0.04   0.01
  65   1     0.07  -0.03   0.06    -0.02  -0.00  -0.02    -0.07   0.04  -0.05
  66   1     0.01  -0.02   0.04    -0.01  -0.01  -0.00     0.03   0.02  -0.02
  67   1    -0.04  -0.01   0.06    -0.01   0.02  -0.01    -0.01  -0.01   0.01
  68   1     0.01   0.00  -0.01    -0.01   0.02  -0.01    -0.03  -0.01   0.04
  69   1     0.00   0.00   0.01    -0.02   0.01  -0.01     0.02   0.01  -0.04
[...]
  95   1     0.00   0.00   0.00    -0.00  -0.00  -0.00     0.00   0.00   0.00
  96   1     0.00   0.00  -0.00    -0.00   0.00  -0.00     0.00   0.00  -0.00
  97   1    -0.02  -0.01   0.01     0.03   0.02  -0.01     0.04   0.03  -0.02
  98   1    -0.01  -0.02   0.00    -0.01  -0.02   0.00    -0.00  -0.01   0.00
  99   1     0.00   0.00  -0.00     0.00   0.00  -0.00     0.00   0.00  -0.00
 100   1    -0.00   0.00  -0.00    -0.00   0.00  -0.00    -0.00   0.00  -0.00
 101   1    -0.01  -0.03  -0.00    -0.01  -0.02  -0.00    -0.00  -0.01  -0.00
 102   1     0.00   0.00   0.00     0.00   0.00   0.00     0.00   0.00   0.00
 103   1    -0.01  -0.03  -0.00    -0.01  -0.02  -0.00    -0.00  -0.01  -0.00
 104   1     0.00   0.00  -0.00     0.00   0.00  -0.00     0.00   0.00  -0.00
 105   1     0.00  -0.00   0.00     0.00  -0.00   0.00    -0.00  -0.00   0.00
 106   1     0.00  -0.00  -0.00     0.00  -0.00  -0.00     0.00  -0.00  -0.00
 107   1    -0.00  -0.00  -0.00    -0.00  -0.00  -0.00    -0.00  -0.00  -0.00
 108   1     0.23  -0.52  -0.32     0.17  -0.38  -0.23     0.03  -0.07  -0.05
 109   1    -0.19  -0.36   0.01    -0.14  -0.26   0.01    -0.03  -0.05   0.00
 110   1    -0.02   0.00  -0.00    -0.03   0.00  -0.00    -0.02   0.00  -0.00
 111   1    -0.00   0.01  -0.00    -0.00   0.00  -0.00     0.00  -0.00   0.00
                    322                    323                    324
                        a                      a                      a 
 Frequencies --  3111.0208              3111.3763              3123.1627
 Red. masses --     1.8387                 1.8409                 1.8263
 Frc consts  --     0.0000                 0.0000                 0.0000
 IR Inten    --     2.1208                20.4624                 0.5238
 Raman Activ --     0.0000                 0.0000                 0.0000
 Depolar     --     0.0000                 0.0000                 0.0000
 Atom AN      X      Y      Z        X      Y      Z        X      Y      Z
   1   6    -0.00  -0.00   0.00     0.00  -0.00   0.00    -0.00  -0.00  -0.00
   2   6    -0.00   0.00   0.00     0.00   0.00   0.00     0.00  -0.00  -0.00
   3   6     0.00   0.00   0.00     0.00   0.00   0.00     0.00  -0.00  -0.00
   4   6    -0.00   0.00   0.00    -0.00   0.00   0.00    -0.00  -0.00   0.00
   5   6     0.00  -0.00   0.00     0.00  -0.00   0.00     0.01  -0.00   0.00
   6   6     0.00   0.00   0.00     0.00   0.00   0.00     0.00   0.01   0.00
   7   6    -0.00   0.01   0.00    -0.00   0.01   0.00    -0.00   0.00  -0.00
   8   6    -0.00   0.00  -0.00    -0.00   0.00  -0.00    -0.00   0.00   0.00
   9   6    -0.00   0.00  -0.00     0.00   0.00   0.00    -0.00  -0.01  -0.00
  10   6    -0.00   0.00   0.00    -0.00   0.00  -0.00     0.08  -0.18   0.01
  11   6    -0.00  -0.00  -0.00    -0.00  -0.00  -0.00    -0.00  -0.00  -0.00
  12   6    -0.00   0.00  -0.00    -0.00   0.00  -0.00    -0.14   0.10  -0.08
  13   6    -0.00  -0.00  -0.00    -0.00  -0.00  -0.00    -0.00   0.01   0.00
  14   6    -0.00   0.00  -0.00    -0.00  -0.00  -0.00    -0.00   0.00  -0.00
  15   6    -0.00   0.00  -0.00    -0.00   0.00  -0.00    -0.00   0.00  -0.00
  16   6    -0.00   0.00   0.00    -0.00  -0.00  -0.00    -0.00   0.00  -0.00
  17   6     0.00   0.00   0.00     0.00  -0.00  -0.00    -0.00  -0.00  -0.00
  18   6    -0.00  -0.00  -0.00    -0.00  -0.00  -0.00     0.01   0.00   0.00
  19   6    -0.00   0.00  -0.00    -0.00   0.00  -0.00     0.00  -0.00   0.00
  20   6     0.00   0.00  -0.00     0.00   0.00  -0.00     0.00  -0.00   0.00
  21   7    -0.00   0.00   0.00    -0.00   0.00   0.00    -0.00  -0.00  -0.00
  22   6     0.01  -0.00   0.00     0.00  -0.00   0.00     0.00   0.00   0.00
  23   6     0.22   0.01  -0.02     0.15   0.01  -0.01    -0.00  -0.00   0.00
  24   6     0.02   0.03  -0.01     0.01   0.02  -0.01    -0.00  -0.00   0.00
  25   6    -0.00  -0.00   0.00    -0.00   0.00  -0.00     0.00  -0.00   0.00
  26   6    -0.00   0.00   0.00    -0.00  -0.00   0.00     0.00   0.00  -0.00
  27   6    -0.01  -0.01   0.00    -0.01  -0.01   0.00    -0.00  -0.00   0.00
  28   6    -0.00  -0.00   0.00     0.00  -0.00   0.00    -0.00   0.00  -0.00
  29   6    -0.00   0.01  -0.00     0.01  -0.01   0.00    -0.00   0.00  -0.00
  30   6     0.00   0.00  -0.00    -0.01  -0.00   0.00    -0.00  -0.00   0.00
  31   7    -0.00  -0.00  -0.00     0.00   0.00   0.00     0.00   0.00  -0.00
  32   6     0.00  -0.00   0.00     0.00   0.00  -0.00    -0.00   0.00   0.00
  33   6    -0.00  -0.00   0.00     0.00   0.00  -0.00     0.00   0.00  -0.00
  34   6    -0.00   0.00   0.00    -0.00   0.00   0.00     0.00  -0.00  -0.00
  35   6    -0.00  -0.00   0.00    -0.00  -0.00  -0.00     0.00  -0.00  -0.00
  36   6     0.00  -0.00  -0.00     0.00  -0.00  -0.00     0.00   0.00  -0.00
  37   6     0.00  -0.00  -0.00    -0.00  -0.00   0.00    -0.00   0.00   0.00
  38   6     0.00  -0.00  -0.00    -0.00   0.00  -0.00    -0.00   0.00  -0.00
  39   6    -0.00  -0.00   0.00     0.00  -0.00  -0.00    -0.00   0.00  -0.00
  40   6    -0.00   0.00   0.00    -0.00  -0.00   0.00    -0.00   0.00   0.00
  41   6    -0.00   0.00   0.00    -0.00  -0.00   0.00    -0.00  -0.00  -0.00
  42   6    -0.00  -0.00   0.00    -0.00   0.00   0.00    -0.00   0.00   0.00
  43   6     0.00   0.00  -0.00     0.00   0.00  -0.00     0.00   0.00  -0.00
  44   6     0.00   0.00   0.00    -0.00  -0.00   0.00     0.00   0.00  -0.00
  45   6    -0.00  -0.00  -0.00    -0.00   0.00   0.00     0.00   0.00  -0.00
  46   6    -0.00  -0.00  -0.00     0.00   0.00   0.00     0.00   0.00   0.00
  47   6    -0.00  -0.00  -0.00    -0.00   0.00   0.00     0.00   0.00  -0.00
  48   6    -0.00   0.00   0.00    -0.00  -0.00   0.00    -0.00   0.00   0.00
  49   6     0.00  -0.00  -0.00    -0.00   0.00   0.00    -0.00   0.00   0.00
  50   6    -0.00  -0.01  -0.00     0.01   0.01   0.00     0.00   0.00   0.00
  51   6    -0.00  -0.00   0.00     0.00   0.00  -0.00     0.00  -0.00  -0.00
  52   6     0.15  -0.02   0.02    -0.22   0.02  -0.03     0.00  -0.00   0.00
  53   6     0.01  -0.02   0.01    -0.01   0.03  -0.01     0.00  -0.00   0.00
  54   6    -0.00   0.00  -0.00     0.00   0.00   0.00     0.00  -0.00   0.00
  55  16    -0.00   0.00  -0.00     0.00   0.00  -0.00    -0.00  -0.00  -0.00
  56   8     0.00  -0.00  -0.00    -0.00  -0.00  -0.00     0.00   0.00   0.00
  57   8     0.00  -0.00   0.00    -0.00  -0.00   0.00     0.00   0.00   0.00
  58   1    -0.00   0.00   0.00     0.00  -0.00  -0.00    -0.00   0.00   0.01
  59   1    -0.00   0.00  -0.00    -0.00   0.00  -0.00     0.00   0.00   0.00
  60   1     0.00   0.00  -0.00     0.00   0.00  -0.00     0.01   0.01  -0.00
  61   1    -0.00   0.00  -0.00    -0.00   0.00  -0.00    -0.00   0.00  -0.00
  62   1     0.00  -0.00  -0.00     0.00  -0.00  -0.00    -0.00   0.00   0.00
  63   1    -0.00   0.00   0.00     0.00  -0.00  -0.00    -0.00  -0.00   0.00
  64   1    -0.00   0.00  -0.00    -0.00   0.00  -0.00    -0.00   0.00  -0.00
  65   1     0.00   0.00  -0.00     0.00   0.00  -0.00     0.00   0.00  -0.00
  66   1     0.00  -0.00  -0.00     0.00  -0.00  -0.00    -0.00   0.00   0.00
  67   1    -0.00  -0.01  -0.00    -0.01  -0.01  -0.01    -0.01  -0.02  -0.01
  68   1     0.02  -0.03   0.00     0.01  -0.03   0.00     0.00  -0.01   0.00
  69   1     0.00  -0.00   0.00     0.00  -0.01   0.00    -0.28   0.62  -0.05
  70   1     0.00  -0.00   0.00     0.01  -0.00   0.00     0.50  -0.37   0.27
  71   1     0.00  -0.00  -0.00    -0.00   0.00   0.00     0.00  -0.00   0.00
  72   1    -0.00  -0.00   0.00    -0.00  -0.00   0.00     0.00   0.00  -0.00
  73   1     0.00  -0.00   0.00     0.00  -0.00   0.00     0.00  -0.00   0.00
  74   1     0.00  -0.00  -0.00     0.00  -0.00  -0.00    -0.00   0.00   0.00
  75   1    -0.00  -0.00  -0.00    -0.00   0.00   0.00     0.00  -0.00  -0.00
  76   1     0.00  -0.00   0.00     0.00  -0.00   0.00     0.00  -0.00   0.00
  77   1    -0.00  -0.00  -0.00     0.00   0.00   0.00     0.00   0.00   0.00
  78   1     0.00   0.00  -0.00    -0.00  -0.00   0.00     0.00   0.00   0.01
  79   1    -0.00  -0.00   0.00     0.00  -0.00  -0.00     0.01   0.00  -0.00
  80   1     0.00   0.00   0.00     0.01   0.01   0.01    -0.02  -0.01  -0.01
  81   1     0.01  -0.00   0.00     0.01  -0.01   0.01    -0.01   0.00  -0.00
  82   1    -0.77  -0.05   0.07    -0.54  -0.04   0.05     0.00   0.00  -0.00
  83   1    -0.04  -0.09   0.04    -0.03  -0.07   0.03     0.00   0.00  -0.00
  84   1     0.02   0.03  -0.01     0.02   0.03  -0.01     0.00   0.00  -0.00
  85   1     0.01  -0.02   0.01    -0.02   0.04  -0.02     0.00  -0.00   0.00
  86   1     0.00   0.00  -0.00    -0.01  -0.01   0.00    -0.00  -0.00   0.00
  87   1     0.00  -0.00  -0.00     0.01  -0.01  -0.01    -0.00   0.00   0.00
  88   1     0.00   0.00   0.00     0.00   0.00   0.00     0.00  -0.00  -0.00
  89   1     0.00   0.00   0.00    -0.00  -0.00  -0.00     0.00   0.00  -0.00
  90   1    -0.00   0.00   0.00     0.00  -0.00  -0.00     0.00  -0.00  -0.00
  91   1     0.00   0.00   0.00     0.00   0.00   0.00     0.00  -0.00  -0.00
  92   1     0.00  -0.00  -0.00    -0.00  -0.00   0.00     0.00  -0.00   0.00
  93   1    -0.00   0.00   0.00     0.00  -0.00  -0.00    -0.00   0.00   0.00
  94   1     0.00   0.00   0.00     0.00   0.00   0.00    -0.00  -0.00  -0.00
  95   1     0.00   0.00   0.00    -0.00  -0.00  -0.00     0.00   0.00  -0.00
  96   1     0.00   0.00  -0.00     0.00  -0.00   0.00     0.00  -0.00   0.00
  97   1    -0.00   0.00   0.00     0.01   0.00  -0.00     0.00   0.00  -0.00
  98   1    -0.00  -0.00   0.00    -0.00  -0.01   0.00    -0.00  -0.00   0.00
  99   1     0.00   0.00  -0.00     0.00   0.00  -0.00     0.00   0.00  -0.00
 100   1     0.00  -0.00   0.00    -0.00   0.00  -0.00    -0.00   0.00  -0.00
 101   1     0.00   0.00   0.00    -0.00  -0.00  -0.00    -0.00  -0.00  -0.00
 102   1     0.00   0.00   0.00     0.00   0.00   0.00     0.00   0.00  -0.00
 103   1     0.00   0.00   0.00    -0.00  -0.00  -0.00    -0.00  -0.00  -0.00
 104   1     0.00  -0.00  -0.00     0.00   0.00  -0.00    -0.00  -0.00   0.00
 105   1     0.00  -0.00   0.00    -0.00   0.00  -0.00     0.00  -0.00   0.00
 106   1     0.00  -0.00  -0.00     0.00  -0.00  -0.00     0.00  -0.00  -0.00
 107   1    -0.00  -0.00  -0.00     0.00   0.00   0.00    -0.00  -0.00  -0.00
 108   1    -0.00   0.00   0.00     0.01  -0.01  -0.01     0.00  -0.00  -0.00
 109   1     0.01   0.02  -0.00    -0.02  -0.04   0.00    -0.00  -0.00   0.00
 110   1    -0.54   0.06  -0.06     0.77  -0.09   0.09    -0.00   0.00  -0.00
 111   1    -0.02   0.06  -0.02     0.04  -0.09   0.04    -0.00   0.00  -0.00
                    325                    326                    327
                        a                      a                      a 
 Frequencies --  3124.8619              3125.9149              3126.3928
 Red. masses --     1.8223                 1.8334                 1.8208
 Frc consts  --     0.0000                 0.0000                 0.0000
 IR Inten    --    42.3258                36.8115                41.5210
 Raman Activ --     0.0000                 0.0000                 0.0000
 Depolar     --     0.0000                 0.0000                 0.0000
 Atom AN      X      Y      Z        X      Y      Z        X      Y      Z
   1   6     0.00   0.00   0.00     0.00   0.00   0.00    -0.00  -0.00  -0.00
   2   6     0.00   0.00   0.00    -0.00   0.00  -0.00     0.00  -0.00  -0.00
   3   6     0.00   0.00   0.00     0.00   0.00   0.00     0.00  -0.00  -0.00
   4   6     0.00   0.00   0.00     0.00   0.00   0.00    -0.00  -0.00   0.00
   5   6    -0.00   0.00  -0.00    -0.00   0.00  -0.00     0.01  -0.00   0.00
   6   6     0.00   0.00   0.00     0.00  -0.00  -0.00     0.00   0.01   0.00
   7   6    -0.00   0.00  -0.00    -0.00   0.00   0.00    -0.00   0.00   0.00
   8   6    -0.00  -0.00  -0.00    -0.00  -0.00  -0.00    -0.00   0.00   0.00
   9   6     0.00   0.00   0.00     0.00   0.00   0.00    -0.00  -0.01  -0.00
  10   6    -0.00   0.01  -0.00    -0.02   0.04  -0.00     0.07  -0.17   0.01
  11   6    -0.00  -0.00  -0.00    -0.00  -0.00  -0.00     0.00   0.00   0.00
  12   6    -0.01   0.00  -0.00    -0.03   0.02  -0.02     0.14  -0.10   0.08
  13   6    -0.00   0.00  -0.00    -0.00   0.00   0.00     0.00  -0.01  -0.00
  14   6    -0.00   0.00  -0.00    -0.00   0.00  -0.00     0.00  -0.00   0.00
  15   6    -0.00  -0.00  -0.00     0.00  -0.00  -0.00     0.00   0.00  -0.00
  16   6    -0.00  -0.00  -0.00    -0.00   0.00   0.00    -0.00  -0.00   0.00
  17   6    -0.00  -0.00  -0.00    -0.00  -0.00  -0.00     0.00   0.00   0.00
  18   6    -0.00  -0.00  -0.00    -0.00  -0.00  -0.00    -0.01  -0.00  -0.00
  19   6    -0.00   0.00  -0.00    -0.00   0.00  -0.00    -0.00   0.00  -0.00
  20   6     0.00   0.00   0.00     0.00   0.00   0.00    -0.00   0.00  -0.00
  21   7    -0.00   0.00  -0.00    -0.00   0.00  -0.00     0.00  -0.00   0.00
  22   6     0.00  -0.00   0.00     0.00  -0.00   0.00    -0.00   0.00   0.00
  23   6     0.00   0.00  -0.00     0.00   0.00  -0.00     0.00   0.00  -0.00
  24   6     0.00   0.00  -0.00     0.00   0.00  -0.00     0.00   0.00  -0.00
  25   6    -0.00   0.00  -0.00     0.00   0.00  -0.00    -0.00   0.00  -0.00
  26   6     0.00  -0.00   0.00    -0.00  -0.00   0.00    -0.00  -0.00   0.00
  27   6    -0.00  -0.00   0.00    -0.00  -0.00   0.00    -0.00  -0.00   0.00
  28   6    -0.00  -0.00   0.00     0.00   0.00   0.00     0.00  -0.00   0.00
  29   6     0.00  -0.00   0.00     0.00  -0.00   0.00     0.00  -0.00   0.00
  30   6     0.00   0.00   0.00     0.00   0.00  -0.00    -0.00  -0.00   0.00
  31   7    -0.00  -0.00  -0.00     0.00   0.00  -0.00     0.00   0.00  -0.00
  32   6    -0.00  -0.00   0.00    -0.00   0.00   0.00    -0.00   0.00   0.00
  33   6    -0.00  -0.00   0.00     0.04   0.02  -0.02     0.01   0.01  -0.00
  34   6    -0.01   0.01   0.01     0.18  -0.11  -0.16     0.04  -0.02  -0.03
  35   6    -0.00  -0.00   0.00     0.00  -0.01  -0.00     0.00  -0.00  -0.00
  36   6    -0.00  -0.00   0.00     0.00  -0.00  -0.00     0.00  -0.00  -0.00
  37   6    -0.00   0.00   0.00     0.00  -0.00   0.00     0.00  -0.00   0.00
  38   6    -0.00   0.00   0.00     0.00   0.00  -0.00    -0.00  -0.00  -0.00
  39   6     0.00  -0.00  -0.00     0.00   0.00  -0.00     0.00   0.00  -0.00
  40   6    -0.01  -0.01   0.01    -0.01  -0.00   0.00    -0.00  -0.00   0.00
  41   6    -0.00   0.00   0.00    -0.00   0.00   0.00    -0.00  -0.00   0.00
  42   6     0.00  -0.01  -0.00     0.00  -0.00  -0.00     0.00  -0.00  -0.00
  43   6    -0.12  -0.24   0.02    -0.00  -0.01   0.00    -0.01  -0.01   0.00
  44   6    -0.01  -0.00   0.00    -0.00  -0.00   0.00    -0.00  -0.00   0.00
  45   6    -0.00  -0.00  -0.00    -0.00  -0.00  -0.00    -0.00  -0.00   0.00
  46   6     0.00  -0.00   0.00    -0.00  -0.00  -0.00    -0.00   0.00   0.00
  47   6    -0.00  -0.00  -0.00     0.00  -0.00   0.00    -0.00   0.00   0.00
  48   6     0.00  -0.00  -0.00     0.00  -0.00  -0.00    -0.00  -0.00   0.00
  49   6    -0.00   0.01   0.00    -0.00   0.00   0.00    -0.00   0.00   0.00
  50   6     0.00   0.00  -0.00     0.00   0.00   0.00     0.00   0.00   0.00
  51   6     0.00   0.00   0.00    -0.00  -0.00   0.00     0.00   0.00  -0.00
  52   6    -0.00   0.00  -0.00    -0.00   0.00  -0.00    -0.00   0.00  -0.00
  53   6    -0.00   0.00  -0.00    -0.00   0.00  -0.00    -0.00   0.00  -0.00
  54   6     0.00   0.00  -0.00     0.00   0.00  -0.00     0.00   0.00  -0.00
  55  16    -0.00   0.00  -0.00    -0.00   0.00  -0.00     0.00   0.00  -0.00
  56   8     0.00  -0.00  -0.00     0.00  -0.00  -0.00    -0.00  -0.00  -0.00
  57   8     0.00  -0.00   0.00     0.00  -0.00   0.00    -0.00  -0.00   0.00
  58   1     0.00  -0.00  -0.00     0.00  -0.00  -0.00    -0.00   0.00   0.01
  59   1    -0.00  -0.00  -0.00    -0.00  -0.00  -0.00     0.00   0.00   0.00
  60   1    -0.00  -0.00   0.00    -0.00  -0.00   0.00     0.01   0.01  -0.00
  61   1    -0.00   0.00  -0.00    -0.00   0.00  -0.00    -0.00   0.00  -0.00
  62   1     0.00  -0.00   0.00     0.00  -0.00  -0.00     0.00  -0.00   0.00
  63   1     0.00   0.00   0.00     0.00   0.00  -0.00    -0.00   0.00   0.00
  64   1    -0.00   0.00  -0.00    -0.00   0.00  -0.00    -0.00   0.00  -0.00
  65   1     0.00   0.00   0.00    -0.00  -0.00   0.00     0.00   0.00  -0.00
  66   1     0.00  -0.00   0.00     0.00  -0.00  -0.00     0.00  -0.00   0.00
  67   1    -0.00  -0.00  -0.00     0.00   0.00   0.00    -0.01  -0.02  -0.01
  68   1     0.00  -0.00   0.00     0.00  -0.00   0.00     0.00  -0.01   0.00
  69   1     0.01  -0.03   0.00     0.06  -0.13   0.01    -0.27   0.60  -0.05
  70   1     0.02  -0.02   0.01     0.10  -0.08   0.06    -0.49   0.37  -0.27
  71   1    -0.00   0.00   0.00    -0.00   0.00   0.00    -0.00   0.00   0.00
  72   1     0.00   0.00  -0.00    -0.00  -0.00  -0.00    -0.00  -0.00   0.00
  73   1     0.00  -0.00   0.00     0.00  -0.00   0.00     0.00  -0.00  -0.00
  74   1    -0.00  -0.00   0.00    -0.00  -0.00  -0.00     0.00  -0.00  -0.00
  75   1     0.00   0.00   0.00     0.00   0.00   0.00    -0.00   0.00   0.00
  76   1     0.00  -0.00   0.00     0.00  -0.00   0.00     0.00  -0.00   0.00
  77   1     0.00   0.00   0.00     0.00   0.00   0.00    -0.00  -0.00  -0.00
  78   1     0.00   0.00   0.00     0.00   0.00   0.00    -0.00  -0.00  -0.01
  79   1     0.00   0.00  -0.00     0.00   0.00  -0.00    -0.01  -0.00   0.00
  80   1     0.00   0.00   0.00     0.00   0.00   0.00     0.02   0.01   0.01
  81   1     0.00  -0.00   0.00     0.00  -0.00   0.00     0.01  -0.00   0.00
  82   1    -0.00  -0.00   0.00    -0.01  -0.00   0.00    -0.01  -0.00   0.00
  83   1    -0.00  -0.00   0.00    -0.00  -0.00   0.00    -0.00  -0.00   0.00
  84   1     0.00   0.00  -0.00     0.00   0.00  -0.00     0.00   0.00  -0.00
  85   1    -0.00   0.00  -0.00    -0.00   0.00  -0.00    -0.00   0.00  -0.00
  86   1     0.01   0.00  -0.00    -0.11  -0.07   0.06    -0.03  -0.02   0.01
  87   1     0.03  -0.02  -0.03    -0.62   0.41   0.56    -0.13   0.09   0.12
  88   1    -0.00  -0.00  -0.00     0.00   0.00   0.00     0.00   0.00   0.00
  89   1    -0.00  -0.00  -0.00    -0.00  -0.00  -0.00    -0.00  -0.00  -0.00
  90   1     0.00  -0.00  -0.00     0.00  -0.00  -0.00     0.00  -0.00  -0.00
  91   1    -0.00  -0.00  -0.00    -0.00   0.00   0.00     0.00   0.00   0.00
  92   1    -0.00  -0.00   0.00     0.00  -0.00   0.00     0.00  -0.00   0.00
  93   1     0.00  -0.00  -0.00    -0.00  -0.00   0.00     0.00  -0.00  -0.00
  94   1     0.00   0.00   0.00    -0.00  -0.00  -0.00    -0.00  -0.00  -0.00
  95   1    -0.00   0.00  -0.00    -0.01  -0.00  -0.00    -0.00  -0.00  -0.00
  96   1     0.00   0.00   0.00    -0.00  -0.01   0.01    -0.00  -0.00   0.00
  97   1     0.04   0.03  -0.02     0.02   0.01  -0.01     0.01   0.01  -0.00
  98   1     0.43   0.85  -0.06     0.02   0.03  -0.00     0.02   0.04  -0.00
  99   1     0.00   0.00  -0.00    -0.00  -0.00   0.00     0.00   0.00  -0.00
 100   1    -0.00   0.00  -0.00     0.00  -0.00   0.00    -0.00   0.00  -0.00
 101   1     0.00   0.00   0.00     0.00   0.00   0.00    -0.00  -0.00   0.00
 102   1     0.00   0.00   0.00    -0.00  -0.00  -0.00    -0.00   0.00   0.00
 103   1    -0.00   0.00   0.00     0.00   0.00   0.00    -0.00  -0.00   0.00
 104   1     0.00   0.00  -0.00    -0.00   0.00   0.00     0.00   0.00  -0.00
 105   1    -0.01   0.01  -0.00    -0.00   0.00   0.00    -0.00   0.00  -0.00
 106   1    -0.00   0.00   0.00    -0.00   0.00   0.00     0.00   0.00  -0.00
 107   1     0.00   0.00   0.01    -0.00   0.00   0.00    -0.00   0.00   0.00
 108   1     0.01  -0.03  -0.01     0.00  -0.00  -0.00     0.00  -0.00  -0.00
 109   1    -0.00  -0.01   0.00    -0.00  -0.00   0.00    -0.00  -0.00   0.00
 110   1     0.00  -0.00   0.00     0.01  -0.00   0.00     0.01  -0.00   0.00
 111   1     0.00  -0.00   0.00     0.00  -0.00   0.00     0.00  -0.00   0.00
