111
 energy: -156.318526981231 gnorm: 0.000045148218 xtb: 6.7.1 (edcfbbe)
C           -9.00129144303164        1.41403918695179       -3.02111825478843
C           -8.47226189548018       -0.02352758371954       -3.00390554336195
C           -9.57982444382504       -0.93064886263828       -2.44709652521126
C           -8.14463554291086       -0.42920205536919       -4.44873433669251
C           -7.22329082450207       -0.17705016042848       -2.14684739274043
C           -6.63625232644448       -1.44348228613151       -2.02530217428801
C           -5.51040072091887       -1.68021335781676       -1.26150966704077
C           -4.94832670937133       -0.61192831742141       -0.58044171631907
C           -5.49707448573123        0.67921574353636       -0.71541396205036
C           -6.63070199339624        0.88936502989683       -1.48980784198331
C           -4.65707682754349        1.56464868691318        0.04636124616941
C           -4.71150932090170        2.92907057508299        0.30035706365287
C           -3.75665586052058        3.51671413811108        1.11460869384976
C           -3.74964397377177        5.00611293006120        1.43042633305037
C           -3.92660275521731        5.20023758402743        2.94392721150082
C           -2.41054706360701        5.61034012347993        0.98217761972321
C           -4.87412105943517        5.76421537738179        0.71829669785105
C           -2.76911306361954        2.69910301507761        1.67966916586466
C           -2.69216256362995        1.34058191636119        1.44390797528162
C           -3.63216106122451        0.77093281512050        0.59935571893092
N           -3.81460970936651       -0.55062919396991        0.21685846437508
C           -3.00887909830388       -1.62384645793131        0.58237873260256
C           -3.58611292794976       -2.81994080542262        1.01951753254973
C           -2.78793358382849       -3.89243985625573        1.38410438472484
C           -1.42061241828692       -3.75074219449722        1.32228124315837
C           -0.81906002913951       -2.56695543679674        0.89695321100551
C           -1.61827359961349       -1.50075686977284        0.51573275759658
C            0.64422280694886       -2.60231154761012        0.91054441735295
C            1.50101974853234       -1.57526666336064        0.54717460986689
C            2.88255967924086       -1.76596625463144        0.63880659499625
N            3.74656267422055       -0.73186397190449        0.29426734768405
C            3.62528688631152        0.59432635369988        0.68591851184029
C            2.69988884910525        1.20609144438377        1.51391990557444
C            2.84070844247003        2.55903117568833        1.77036132057586
C            3.88237122513143        3.32391202616033        1.23905098959620
C            4.03188303538041        4.81324030799470        1.52063478763191
C            3.99768653745737        5.58004110993302        0.18989900353421
C            5.37407472291870        5.05743807307500        2.22671457451065
C            2.91755993275894        5.36584954339054        2.41440142785079
C            4.82210572067919        2.69058610420967        0.43528062752718
C            4.70356281888679        1.33750880968692        0.16094834695987
C            5.51055646356067        0.41501688696293       -0.59310908147389
C            6.66756929084290        0.57188184876217       -1.34472927195901
C            7.21632790016549       -0.51901757107257       -2.00001579666740
C            8.48588064706038       -0.42380204636205       -2.83498524375489
C            8.16334899417608       -0.80775446047669       -4.28691371675542
C            9.53825424073715       -1.38609005279439       -2.26398426737586
C            9.08448666573887        0.98630581950946       -2.83721487333579
C            6.56305461736182       -1.75421940938347       -1.89846295761541
C            5.41153712371042       -1.93751987889871       -1.15839901747992
C            4.89210984039610       -0.84618182572218       -0.48013726413271
C            3.39284343831001       -2.99001932787312        1.08178887237013
C            2.53712806956150       -4.02289019875128        1.42974749137396
C            1.17965103377492       -3.81434747386754        1.34460026108283
S           -0.15224969976269       -4.94182270325976        1.74320448603501
O           -0.17233709848951       -6.07525790418232        0.84341186013155
O           -0.17160078069256       -5.25697532640838        3.15568347935126
H           -9.26241813351027        1.74647590106024       -2.01888852554233
H           -9.89859948282862        1.46201120684596       -3.63512162238336
H           -8.26839090081621        2.09650827135708       -3.44546576769991
H          -10.48822641728706       -0.81684444990045       -3.03526655069031
H           -9.28824099243447       -1.97698651510882       -2.47316916033380
H           -9.80122997154411       -0.66408310534026       -1.41529811330470
H           -9.02073089029476       -0.30232598880120       -5.08159921145053
H           -7.34207245288951        0.19252321801756       -4.84116318141788
H           -7.83034132212041       -1.46765533319949       -4.50825557947606
H           -7.07049545841113       -2.28061880129183       -2.55017286262719
H           -5.08056880760308       -2.66946895686006       -1.21653700594984
H           -7.02442339362187        1.88876364951246       -1.56751084562556
H           -5.50802328715592        3.50408551751628       -0.14092094609452
H           -3.94407552749045        6.26100262134822        3.18595443865426
H           -4.86388875083598        4.75566741823380        3.27344980881649
H           -3.11660657656057        4.73770697731692        3.50128022709864
H           -2.26434831647988        5.45234026238027       -0.08471749450417
H           -2.39850533930412        6.68068632473114        1.17762298806834
H           -1.57605936894365        5.15949182766499        1.51137028508057
H           -4.81290032670418        6.82158307167004        0.96881815432572
H           -4.78692624412104        5.66943166190581       -0.36184297728495
H           -5.85087019468547        5.40261785074666        1.03174136530903
H           -2.03256580655940        3.13609700323218        2.33635286005862
H           -1.92885277454888        0.74710615795575        1.92376133945781
H           -4.65940525357078       -2.89632527269857        1.09253173978081
H           -3.22093337586326       -4.81969398501916        1.72494632577659
H           -1.18289229585339       -0.58522952555306        0.14955941224255
H            1.11752007494725       -0.63864311419307        0.17633088867155
H            1.89473694809810        0.65024555889848        1.96999385440917
H            2.10974352650106        3.01964459523985        2.41387522195313
H            4.08666790984127        6.64932442875256        0.37101964393667
H            3.05809856260770        5.39447164251204       -0.32710259677823
H            4.81128357980794        5.27761526739333       -0.46357801164072
H            5.49032124176973        6.11492135064075        2.45555391198108
H            5.41721089003828        4.49595079963108        3.15820097423011
H            6.21099321623764        4.75028241234186        1.60568456779511
H            3.07578588985059        6.43104611588278        2.57206609995655
H            1.94359881325969        5.23739819330907        1.94823797499242
H            2.91737542341391        4.88044169720359        3.38785822643307
H            5.65620603192007        3.23526619325668        0.02125028926725
H            7.11377335837661        1.55013567702518       -1.40679279611055
H            9.05466588666718       -0.71914066172809       -4.90477481244770
H            7.39696354714653       -0.14789150957139       -4.68927817137264
H            7.80240409504427       -1.83023354705843       -4.35683925546385
H            9.75858059510447       -1.13174793420810       -1.22887489081648
H            9.19419823590237       -2.41622825556974       -2.29534358797231
H           10.45929830168061       -1.31820075083865       -2.83953350257776
H            8.39251690663178        1.70514500481136       -3.27024963614380
H            9.99288186140789        0.99299576620222       -3.43658552483433
H            9.34522972169567        1.30204699801193       -1.82947036927878
H            6.96398535739426       -2.60939654261207       -2.42075604256247
H            4.93063434458021       -2.90356650852056       -1.12931741467289
H            4.45973522896327       -3.11874006810478        1.17327331252931
H            2.91834824909806       -4.97056224173182        1.77635297098998
