94
 energy: -131.469694498714 gnorm: 0.000050629289 xtb: 6.7.1 (edcfbbe)
C           -3.56072509640307        5.85381532564187        3.27202125341218
C           -3.43545556336367        5.89594763465504        1.75416486547153
C           -3.30520103137421        4.49618043857226        1.16057743413404
C           -3.18021144436035        4.53812585402380       -0.36799447936612
N           -3.04386182616938        3.22083762461667       -0.94753567139306
C           -4.26290729439252        2.56170832057822       -1.36092160199884
C           -4.45205655012976        2.55174733702917       -2.88590461584943
C           -4.63822144260349        3.94056835288494       -3.49756727604950
C           -5.98098794124085        4.57663536334043       -3.15586321740831
C           -1.84491269039838        2.56255274226273       -0.93727896165855
C           -1.71716535376661        1.25276844775678       -1.44176472439979
C           -0.51106954095441        0.59602979744268       -1.40725584025980
C            0.64014030150067        1.18813538180370       -0.89607666227914
C            1.90080176796499        0.40823884795189       -0.78931773066850
N            3.06947477266672        1.19388205403959       -0.85957689978830
C            4.22234776027930        0.71964011976224       -0.45548953375282
C            5.43193842181040        1.37446975127324       -0.74859654645145
C            6.64156215079677        0.81508102875546       -0.39699395379222
C            7.84582383491727        1.47620234681049       -0.71612301526600
N            8.81589381943535        2.02788350285267       -0.98159335121687
C            6.68449430691338       -0.44158964179300        0.27668888830513
C            7.93114483300530       -1.01426921932641        0.60391033757725
N            8.93715950912071       -1.49390211734859        0.87550488173174
C            5.51584490200025       -1.08653525861309        0.62020856926876
C            4.26432325086009       -0.52030765309314        0.31860722590602
N            3.14585493901613       -1.07642960950029        0.71491495367556
C            1.92378561175605       -0.37782066476046        0.63476385391051
C            0.72182000024921       -1.24659994299062        0.73351205307107
C           -0.47556130581736       -0.73210811588256        1.22375703356680
C           -1.63126759068828       -1.47359563116448        1.25180373014840
C           -1.65370555126091       -2.79607256975175        0.76584143500841
N           -2.80165389705345       -3.53646060518564        0.76180637394581
C           -2.79789913705534       -4.94564418616761        0.44193039301902
C           -2.94184076438847       -5.20216746684265       -1.06407267722458
C           -2.97146052303304       -6.69032528275006       -1.41036767705242
C           -1.63227160138840       -7.38335824263245       -1.18566460225197
C           -4.08927327283038       -2.95815709992312        1.06713104422605
C           -4.40873760821440       -3.00835082480787        2.56799217066318
C           -5.69962376267759       -2.27291682969223        2.92521396688620
C           -6.94752821845830       -2.93861682635303        2.35625623136131
C           -0.44532218037543       -3.32172768569018        0.29494048261517
C            0.72149365473539       -2.57495900225698        0.27569829846669
O            1.83705086303061       -3.17389840386292       -0.18853894495260
C            0.53613616451738        2.50556692013400       -0.41996200243625
O            1.60012925389344        3.17871976287237        0.06433838748249
C           -0.68249060494168        3.16405398772118       -0.44062126572629
H           -2.68480334927190        5.38374292626389        3.71309123723385
H           -4.43984432840548        5.28535730419754        3.56794361191869
H           -3.65050621488511        6.85916543102376        3.67577053624216
H           -4.31297075087410        6.39015840136209        1.33016078653318
H           -2.55882917975128        6.48657524936176        1.47965999699332
H           -4.18125445481150        3.90131176797860        1.43086051305289
H           -2.42825626409161        4.00012319657132        1.57966515889201
H           -2.32747789457888        5.15774123106820       -0.65543292204780
H           -4.07315865256198        5.00671526067601       -0.78617509011480
H           -5.10400266128501        3.07676228998644       -0.89426153982473
H           -4.27249685473196        1.53180983083041       -0.98992582529629
H           -5.32246667702711        1.93479372785013       -3.12002458673777
H           -3.57652130727993        2.08911010530107       -3.34324433431433
H           -4.56701951215095        3.84701509869271       -4.58333353633740
H           -3.82275159954888        4.58932041033653       -3.17359847103421
H           -6.08851106007400        4.74073454345811       -2.08617350764615
H           -6.07851648346135        5.53840998268682       -3.65360315218807
H           -6.79784872862489        3.93776471734685       -3.48488838493590
H           -2.56094759570192        0.73454275763428       -1.86284967848262
H           -0.45244590565963       -0.41217656596153       -1.79153817943329
H            1.92089252976921       -0.37866262219956       -1.56135688269114
H            5.39483948393071        2.30438984705446       -1.29541081579328
H            5.54194810518848       -2.01691661839588        1.16689345323045
H            1.88105402063484        0.40911092230967        1.40596013116126
H           -0.49250640408476        0.28060571088442        1.60014736416053
H           -2.51540120464959       -1.02119939386221        1.66676882173572
H           -1.87940091923776       -5.39670160709043        0.81951841180123
H           -3.63467007711048       -5.41520755570272        0.96667780427469
H           -2.11729122376094       -4.72043651966234       -1.59177095941006
H           -3.86845297512021       -4.73606532144936       -1.40831205669849
H           -3.74310632942109       -7.18589390587828       -0.81636749913595
H           -3.24810731421082       -6.79403399131069       -2.46181879193089
H           -0.84284209011364       -6.87244397155588       -1.73233418079150
H           -1.67878580214409       -8.41155843695729       -1.53622295086422
H           -1.36744419859522       -7.40065130909529       -0.13162534923210
H           -4.84571146139641       -3.51762692562097        0.51212755363030
H           -4.12177520160492       -1.92432098642696        0.71427569419649
H           -3.57673758373165       -2.56106182797559        3.11513405428951
H           -4.48517026671455       -4.05081111142349        2.88391802126247
H           -5.64071213876232       -1.24303284049760        2.56499282256589
H           -5.78532331662333       -2.23613627927388        4.01325035300525
H           -6.99829847195780       -3.97984208470762        2.66680539129562
H           -6.95410893457497       -2.90055523444925        1.26993957645237
H           -7.84016234555131       -2.43246765803440        2.71591993733534
H           -0.36644958819393       -4.32640936521261       -0.08232359434713
H            2.60137590855352       -2.59905513346815        0.04528240676948
H            2.40702401214836        2.66738175003844       -0.17211618866163
H           -0.67558378322500        4.16717813604013       -0.05147181317986
