 Entering Gaussian System
 *********************************************
 Gaussian 98:
 frequency output generated by the xtb code
 *********************************************
                         Standard orientation:
 --------------------------------------------------------------------
  Center     Atomic     Atomic              Coordinates (Angstroms)
  Number     Number      Type              X           Y           Z
 --------------------------------------------------------------------
    1          6             0       -8.487056    3.074180   -0.309549
    2          6             0       -7.246093    2.517815   -0.995712
    3          6             0       -6.197997    3.603336   -1.224911
    4          6             0       -4.969715    3.082286   -1.985835
    5          6             0       -4.247783    2.029335   -1.218285
    6          6             0       -3.433352    2.189841   -0.134597
    7          6             0       -2.962774    0.968092    0.373562
    8          6             0       -3.421852   -0.124458   -0.342883
    9         16             0       -4.446761    0.349323   -1.637535
   10          6             0       -2.968665   -1.388258    0.134590
   11         16             0       -3.158487   -3.001290   -0.428054
   12          6             0       -2.144658   -3.597991    0.859775
   13          6             0       -1.779289   -5.039787    0.907631
   14          6             0       -0.655205   -5.359387   -0.090919
   15          6             0        0.644847   -4.631630    0.242504
   16          6             0        1.747824   -4.958554   -0.756489
   17          6             0       -1.708626   -2.591301    1.670771
   18          6             0       -2.183005   -1.330684    1.271778
   19         15             0       -1.861938    0.406739    1.708378
   20          8             0       -2.106663    0.874912    3.073831
   21          6             0       -0.160123    0.638635    1.118946
   22          6             0        0.782137    1.117008    2.017457
   23          6             0        2.110028    1.207474    1.648506
   24          6             0        2.502360    0.820877    0.368215
   25          7             0        3.846593    0.875325   -0.007403
   26          6             0        4.552249   -0.147928   -0.614752
   27          6             0        4.143085   -1.432882   -0.941053
   28          6             0        5.070099   -2.277370   -1.522035
   29          6             0        6.377934   -1.864918   -1.765550
   30          6             0        6.798488   -0.597121   -1.416632
   31          6             0        5.884588    0.269731   -0.832330
   32          6             0        5.978859    1.614035   -0.334327
   33          6             0        7.009633    2.543140   -0.287539
   34          6             0        6.753265    3.788459    0.250347
   35          6             0        5.484521    4.117055    0.721902
   36          6             0        4.442986    3.209385    0.685525
   37          6             0        4.701852    1.947465    0.170929
   38          6             0        1.546433    0.362902   -0.540321
   39          6             0        0.224365    0.265386   -0.163332
   40          1             0       -9.220699    2.287498   -0.151379
   41          1             0       -8.943854    3.852991   -0.916703
   42          1             0       -8.228177    3.501119    0.656860
   43          1             0       -7.526610    2.077051   -1.955479
   44          1             0       -6.819434    1.725078   -0.377780
   45          1             0       -5.877802    4.006503   -0.262015
   46          1             0       -6.641960    4.418624   -1.800239
   47          1             0       -5.287651    2.676713   -2.948368
   48          1             0       -4.289040    3.917184   -2.172571
   49          1             0       -3.184075    3.148633    0.284395
   50          1             0       -1.449701   -5.289515    1.918341
   51          1             0       -2.651473   -5.651469    0.666760
   52          1             0       -0.477664   -6.436685   -0.084795
   53          1             0       -0.982480   -5.079201   -1.094992
   54          1             0        0.467987   -3.553307    0.246745
   55          1             0        0.968904   -4.916479    1.246233
   56          1             0        1.942804   -6.028752   -0.774135
   57          1             0        2.668970   -4.447284   -0.486497
   58          1             0        1.460750   -4.646901   -1.758656
   59          1             0       -1.077149   -2.749465    2.527071
   60          1             0        0.456651    1.398364    3.008583
   61          1             0        2.852831    1.548632    2.353849
   62          1             0        3.137982   -1.770930   -0.738198
   63          1             0        4.774301   -3.280850   -1.791220
   64          1             0        7.071528   -2.553650   -2.224276
   65          1             0        7.816934   -0.282960   -1.587713
   66          1             0        7.987891    2.293449   -0.669584
   67          1             0        7.541403    4.524865    0.299171
   68          1             0        5.309029    5.104746    1.121850
   69          1             0        3.458944    3.482174    1.035644
   70          1             0        1.851038    0.094641   -1.540863
   71          1             0       -0.515761   -0.096443   -0.862847
 --------------------------------------------------------------------
     1 basis functions        1 primitive gaussians
     1 alpha electrons        1 beta electrons
 
 Harmonic frequencies (cm**-1), IR intensities (km*mol⁻¹),
 Raman scattering activities (A**4/amu), Raman depolarization ratios,
 reduced masses (AMU), force constants (mDyne/A) and normal coordinates:
                      1                      2                      3
                        a                      a                      a 
 Frequencies --     9.7229                14.0651                15.4840
 Red. masses --    11.1295                12.0056                11.4315
 Frc consts  --     0.0000                 0.0000                 0.0000
 IR Inten    --     0.0230                 0.0224                 0.0330
 Raman Activ --     0.0000                 0.0000                 0.0000
 Depolar     --     0.0000                 0.0000                 0.0000
 Atom AN      X      Y      Z        X      Y      Z        X      Y      Z
   1   6    -0.13  -0.19  -0.14    -0.07  -0.12  -0.47    -0.23  -0.35  -0.05
   2   6    -0.08  -0.13  -0.10     0.05  -0.05  -0.31    -0.15  -0.21  -0.02
   3   6    -0.11  -0.08  -0.04     0.06  -0.02  -0.07    -0.22  -0.11   0.11
   4   6    -0.06  -0.02  -0.01     0.18   0.07   0.06    -0.15   0.05   0.12
   5   6    -0.04   0.00  -0.01     0.12   0.05   0.08    -0.08   0.06   0.06
   6   6    -0.05   0.02  -0.00     0.08   0.02   0.11    -0.04   0.06   0.03
   7   6    -0.02   0.04   0.00     0.04   0.00   0.11     0.01   0.06  -0.00
   8   6     0.00   0.02   0.01     0.04   0.02   0.09    -0.01   0.06   0.01
   9  16    -0.00  -0.01   0.00     0.15   0.09   0.10    -0.11   0.09   0.08
  10   6     0.03   0.03   0.02     0.01   0.00   0.08     0.01   0.06  -0.01
  11  16     0.10   0.04   0.04    -0.03   0.03   0.09    -0.01   0.10  -0.01
  12   6     0.06   0.05   0.03    -0.04  -0.02   0.06     0.02   0.06  -0.03
  13   6     0.08   0.06   0.05    -0.07  -0.03   0.04     0.01   0.06  -0.03
  14   6     0.11   0.07   0.07    -0.12  -0.04  -0.02    -0.05   0.03  -0.09
  15   6     0.09   0.09   0.10    -0.10  -0.05  -0.10    -0.03   0.02  -0.17
  16   6     0.12   0.09   0.12    -0.16  -0.05  -0.16    -0.08  -0.01  -0.22
  17   6     0.04   0.07   0.03    -0.03  -0.04   0.08     0.04   0.06  -0.04
  18   6     0.02   0.06   0.02    -0.00  -0.02   0.09     0.04   0.06  -0.03
  19  15    -0.02   0.10   0.01     0.04  -0.06   0.18     0.06   0.10  -0.05
  20   8    -0.01   0.08   0.00     0.05  -0.06   0.14     0.06   0.06  -0.03
  21   6    -0.01   0.07  -0.00     0.02  -0.05   0.10     0.03   0.06  -0.04
  22   6     0.01  -0.02   0.02     0.04  -0.05   0.08     0.03   0.09  -0.05
  23   6     0.01  -0.05   0.02     0.03  -0.04   0.06     0.03   0.08  -0.04
  24   6    -0.01   0.02  -0.01     0.01  -0.02   0.05     0.04   0.03  -0.02
  25   7    -0.01  -0.01  -0.01    -0.00   0.00   0.02     0.05  -0.00  -0.00
  26   6    -0.06  -0.00  -0.09    -0.01   0.02  -0.02     0.05  -0.04   0.07
  27   6    -0.12   0.04  -0.18     0.01   0.02  -0.02     0.04  -0.05   0.11
  28   6    -0.16   0.04  -0.25     0.00   0.04  -0.06     0.05  -0.09   0.18
  29   6    -0.15  -0.00  -0.23    -0.02   0.07  -0.11     0.06  -0.12   0.20
  30   6    -0.08  -0.05  -0.14    -0.03   0.08  -0.11     0.07  -0.11   0.16
  31   6    -0.04  -0.05  -0.07    -0.02   0.05  -0.07     0.06  -0.07   0.09
  32   6     0.02  -0.09   0.03    -0.03   0.05  -0.06     0.07  -0.05   0.03
  33   6     0.07  -0.14   0.10    -0.05   0.07  -0.09     0.08  -0.07   0.02
  34   6     0.13  -0.17   0.20    -0.05   0.06  -0.07     0.09  -0.04  -0.05
  35   6     0.15  -0.14   0.22    -0.04   0.03  -0.02     0.08   0.00  -0.10
  36   6     0.10  -0.09   0.16    -0.03   0.01   0.01     0.06   0.02  -0.09
  37   6     0.04  -0.07   0.06    -0.02   0.02  -0.01     0.06  -0.01  -0.02
  38   6    -0.03   0.12  -0.03    -0.01  -0.02   0.06     0.05   0.00  -0.01
  39   6    -0.03   0.14  -0.03     0.00  -0.04   0.09     0.04   0.02  -0.02
  40   1    -0.03  -0.06  -0.05    -0.02  -0.04  -0.19    -0.05  -0.12  -0.04
  41   1    -0.04  -0.06  -0.04     0.00  -0.03  -0.14    -0.07  -0.10  -0.01
  42   1    -0.05  -0.06  -0.04    -0.07  -0.05  -0.12    -0.09  -0.11  -0.00
  43   1    -0.01  -0.04  -0.03     0.06   0.00  -0.11    -0.02  -0.05  -0.02
  44   1    -0.02  -0.04  -0.03    -0.01  -0.03  -0.09    -0.03  -0.06  -0.01
  45   1    -0.05  -0.03  -0.01    -0.02  -0.03   0.00    -0.08  -0.05   0.04
  46   1    -0.04  -0.03  -0.01     0.04   0.01  -0.02    -0.07  -0.03   0.05
  47   1    -0.00  -0.01  -0.01     0.09   0.04  -0.00    -0.02   0.03   0.02
  48   1    -0.03   0.00   0.01     0.05   0.03   0.06    -0.06   0.03   0.06
  49   1    -0.02   0.01  -0.00     0.03   0.00   0.04    -0.01   0.02   0.01
  50   1     0.02   0.02   0.02    -0.01  -0.01   0.01     0.02   0.02  -0.01
  51   1     0.03   0.01   0.01    -0.03  -0.00   0.02    -0.00   0.02   0.01
  52   1     0.04   0.02   0.02    -0.04  -0.01  -0.01    -0.02   0.01  -0.02
  53   1     0.04   0.02   0.02    -0.05  -0.01  -0.00    -0.03   0.01  -0.02
  54   1     0.02   0.02   0.03    -0.03  -0.01  -0.02    -0.00   0.01  -0.05
  55   1     0.02   0.03   0.03    -0.01  -0.01  -0.03     0.01   0.01  -0.05
  56   1     0.04   0.03   0.04    -0.05  -0.01  -0.05    -0.03  -0.00  -0.06
  57   1     0.03   0.03   0.04    -0.04  -0.01  -0.06    -0.02  -0.01  -0.08
  58   1     0.04   0.03   0.03    -0.06  -0.01  -0.04    -0.04  -0.01  -0.06
  59   1     0.01   0.02   0.01    -0.01  -0.02   0.02     0.02   0.02  -0.02
  60   1     0.01  -0.02   0.01     0.02  -0.02   0.03     0.01   0.04  -0.02
  61   1     0.01  -0.03   0.01     0.01  -0.01   0.01     0.01   0.03  -0.01
  62   1    -0.04   0.02  -0.06     0.01  -0.00   0.00     0.01  -0.01   0.03
  63   1    -0.06   0.02  -0.09     0.00   0.01  -0.02     0.01  -0.03   0.06
  64   1    -0.05   0.00  -0.08    -0.01   0.03  -0.04     0.02  -0.05   0.07
  65   1    -0.02  -0.02  -0.03    -0.01   0.03  -0.04     0.02  -0.04   0.05
  66   1     0.02  -0.05   0.02    -0.02   0.03  -0.04     0.03  -0.03   0.02
  67   1     0.05  -0.06   0.07    -0.02   0.02  -0.03     0.03  -0.01  -0.02
  68   1     0.06  -0.05   0.09    -0.01   0.01  -0.00     0.02   0.01  -0.04
  69   1     0.03  -0.02   0.05    -0.01  -0.00   0.02     0.02   0.01  -0.04
  70   1    -0.01   0.05  -0.02    -0.01  -0.00   0.02     0.02  -0.01  -0.00
  71   1    -0.01   0.06  -0.01    -0.00  -0.01   0.03     0.01   0.00  -0.00
                      4                      5                      6
                        a                      a                      a 
 Frequencies --    16.8441                27.3215                32.6330
 Red. masses --    12.4853                12.1404                16.0261
 Frc consts  --     0.0000                 0.0000                 0.0000
 IR Inten    --     0.2830                 0.1997                 0.1041
 Raman Activ --     0.0000                 0.0000                 0.0000
 Depolar     --     0.0000                 0.0000                 0.0000
 Atom AN      X      Y      Z        X      Y      Z        X      Y      Z
   1   6    -0.08  -0.10  -0.10    -0.05  -0.17   0.06     0.14  -0.24   0.22
   2   6    -0.02  -0.01  -0.06    -0.02  -0.09   0.04     0.14  -0.15   0.12
   3   6    -0.03   0.04   0.10    -0.06  -0.03   0.09     0.03  -0.06   0.02
   4   6     0.03   0.13   0.13    -0.04   0.06   0.06     0.02   0.01  -0.04
   5   6     0.02   0.10   0.09    -0.00   0.05  -0.00     0.08   0.03  -0.07
   6   6     0.00   0.04   0.12     0.05   0.03  -0.03    -0.00   0.03  -0.01
   7   6    -0.00   0.02   0.06     0.05   0.02  -0.06     0.02   0.03  -0.02
   8   6     0.02   0.05  -0.01     0.00   0.03  -0.05     0.12   0.03  -0.09
   9  16     0.07   0.19  -0.01    -0.06   0.09  -0.02     0.32   0.06  -0.25
  10   6     0.01   0.03  -0.06    -0.03   0.02  -0.05     0.10   0.03  -0.08
  11  16     0.05   0.10  -0.24    -0.21   0.03  -0.02     0.23   0.06  -0.17
  12   6    -0.01  -0.00  -0.14    -0.15  -0.01  -0.01     0.01   0.03  -0.01
  13   6    -0.01  -0.00  -0.20    -0.24  -0.03   0.03    -0.05   0.01   0.05
  14   6     0.15   0.08  -0.05    -0.18  -0.11   0.12    -0.09  -0.10   0.04
  15   6     0.11   0.03   0.23    -0.16  -0.19   0.21    -0.05  -0.13  -0.03
  16   6     0.27   0.09   0.39    -0.10  -0.26   0.30    -0.09  -0.23  -0.03
  17   6    -0.04  -0.04  -0.08    -0.07  -0.02  -0.04    -0.04   0.02   0.03
  18   6    -0.03  -0.02  -0.03    -0.00   0.00  -0.07     0.01   0.03  -0.01
  19  15    -0.02  -0.07   0.07     0.08  -0.01  -0.12    -0.07   0.04   0.04
  20   8     0.00  -0.10   0.07     0.07  -0.01  -0.08    -0.11   0.01   0.03
  21   6    -0.02  -0.05   0.04     0.06  -0.03  -0.06    -0.03   0.06   0.07
  22   6    -0.01  -0.02   0.02     0.05  -0.05  -0.04    -0.04   0.06   0.08
  23   6    -0.02  -0.02   0.01     0.05  -0.04  -0.03    -0.04   0.06   0.09
  24   6    -0.02  -0.04   0.01     0.06  -0.01  -0.04    -0.03   0.07   0.09
  25   7    -0.03  -0.04  -0.00     0.07   0.02  -0.03    -0.03   0.04   0.10
  26   6    -0.03  -0.05   0.02     0.09   0.05  -0.05    -0.08   0.02   0.06
  27   6    -0.02  -0.06   0.07     0.11   0.05  -0.09    -0.12   0.02   0.10
  28   6    -0.02  -0.07   0.08     0.13   0.09  -0.11    -0.17   0.00   0.05
  29   6    -0.03  -0.07   0.05     0.13   0.12  -0.09    -0.17  -0.02  -0.03
  30   6    -0.03  -0.05  -0.00     0.10   0.11  -0.05    -0.13  -0.02  -0.07
  31   6    -0.03  -0.04  -0.02     0.08   0.08  -0.03    -0.09  -0.00  -0.02
  32   6    -0.04  -0.02  -0.07     0.06   0.07   0.02    -0.04   0.00  -0.04
  33   6    -0.06  -0.01  -0.12     0.05   0.08   0.06    -0.02  -0.01  -0.12
  34   6    -0.06   0.01  -0.16     0.02   0.06   0.10     0.02   0.00  -0.12
  35   6    -0.06   0.01  -0.14     0.01   0.02   0.10     0.06   0.02  -0.04
  36   6    -0.05  -0.01  -0.09     0.03   0.01   0.05     0.04   0.03   0.03
  37   6    -0.04  -0.02  -0.05     0.05   0.03   0.01    -0.01   0.03   0.03
  38   6    -0.03  -0.06   0.03     0.07   0.00  -0.05    -0.02   0.09   0.07
  39   6    -0.02  -0.06   0.04     0.07  -0.01  -0.06    -0.03   0.08   0.06
  40   1    -0.02  -0.04  -0.06    -0.00  -0.06   0.01     0.07  -0.09   0.08
  41   1    -0.02  -0.02  -0.02    -0.02  -0.05   0.03     0.01  -0.08   0.07
  42   1    -0.04  -0.05  -0.01    -0.02  -0.06   0.02     0.05  -0.06   0.05
  43   1     0.02   0.02  -0.03     0.00  -0.02   0.00     0.03  -0.05   0.04
  44   1    -0.01  -0.01  -0.03     0.00  -0.03  -0.00     0.07  -0.03   0.03
  45   1    -0.03  -0.01   0.05    -0.02  -0.02   0.03     0.01  -0.00  -0.00
  46   1    -0.00   0.02   0.04    -0.03  -0.01   0.04    -0.02  -0.03   0.01
  47   1     0.03   0.06   0.02    -0.01   0.03   0.01     0.00   0.00  -0.01
  48   1     0.01   0.05   0.07    -0.02   0.03   0.03    -0.01   0.01  -0.01
  49   1    -0.00   0.01   0.05     0.02   0.01  -0.01    -0.02   0.01   0.01
  50   1    -0.05  -0.02  -0.05    -0.10  -0.01   0.02    -0.01   0.01   0.02
  51   1     0.01   0.00  -0.11    -0.07   0.01  -0.01    -0.03   0.01   0.03
  52   1     0.04   0.02  -0.04    -0.07  -0.04   0.04    -0.04  -0.03   0.03
  53   1     0.09   0.05  -0.02    -0.02  -0.03   0.03    -0.03  -0.04   0.01
  54   1     0.04   0.01   0.08    -0.03  -0.05   0.06    -0.00  -0.04  -0.03
  55   1    -0.02  -0.02   0.08    -0.07  -0.06   0.07    -0.01  -0.02  -0.00
  56   1     0.07   0.03   0.10    -0.04  -0.08   0.10    -0.04  -0.07   0.01
  57   1     0.07   0.01   0.17    -0.03  -0.08   0.10    -0.02  -0.07  -0.03
  58   1     0.13   0.05   0.11    -0.01  -0.08   0.08    -0.03  -0.08  -0.01
  59   1    -0.02  -0.02  -0.02    -0.02  -0.01  -0.01    -0.03   0.00   0.02
  60   1    -0.00  -0.00   0.01     0.01  -0.02  -0.01    -0.01   0.01   0.02
  61   1    -0.00   0.00  -0.00     0.01  -0.01  -0.01    -0.01   0.02   0.03
  62   1    -0.00  -0.02   0.03     0.03   0.01  -0.03    -0.03   0.01   0.05
  63   1    -0.00  -0.02   0.03     0.04   0.03  -0.04    -0.06   0.00   0.02
  64   1    -0.01  -0.02   0.02     0.04   0.04  -0.03    -0.06  -0.01  -0.02
  65   1    -0.01  -0.01  -0.01     0.03   0.04  -0.01    -0.04  -0.01  -0.04
  66   1    -0.02  -0.00  -0.04     0.02   0.03   0.02    -0.01  -0.01  -0.05
  67   1    -0.02   0.01  -0.06     0.00   0.02   0.04     0.01  -0.00  -0.05
  68   1    -0.02   0.01  -0.05    -0.00   0.00   0.04     0.03   0.01  -0.01
  69   1    -0.01  -0.00  -0.02     0.01  -0.00   0.01     0.02   0.01   0.03
  70   1    -0.01  -0.02   0.01     0.02   0.01  -0.02    -0.00   0.03   0.02
  71   1    -0.01  -0.02   0.01     0.02   0.00  -0.02    -0.01   0.03   0.01
                      7                      8                      9
                        a                      a                      a 
 Frequencies --    37.1542                44.7888                50.8807
 Red. masses --    11.6053                12.2529                13.8417
 Frc consts  --     0.0000                 0.0000                 0.0000
 IR Inten    --     0.1486                 0.2020                 0.5184
 Raman Activ --     0.0000                 0.0000                 0.0000
 Depolar     --     0.0000                 0.0000                 0.0000
 Atom AN      X      Y      Z        X      Y      Z        X      Y      Z
   1   6    -0.06   0.19  -0.13    -0.14   0.18  -0.07    -0.10   0.14  -0.03
   2   6    -0.06   0.12  -0.08    -0.17   0.10  -0.06    -0.13   0.10  -0.04
   3   6     0.03   0.05   0.01    -0.09   0.03  -0.02    -0.06   0.06   0.03
   4   6     0.03  -0.01   0.06    -0.11  -0.04  -0.02    -0.07   0.02   0.04
   5   6    -0.02  -0.04   0.08    -0.11  -0.03  -0.01    -0.07   0.03   0.05
   6   6    -0.03  -0.05   0.08    -0.04  -0.01  -0.06    -0.10   0.04   0.07
   7   6    -0.03  -0.06   0.07    -0.00   0.00  -0.07    -0.04   0.05   0.04
   8   6    -0.02  -0.05   0.05    -0.05  -0.01  -0.02     0.04   0.05  -0.00
   9  16    -0.05  -0.05   0.10    -0.23  -0.06   0.07     0.07   0.05  -0.01
  10   6     0.02  -0.05   0.00    -0.01  -0.00  -0.03     0.09   0.06  -0.01
  11  16    -0.02  -0.08  -0.01    -0.02  -0.01  -0.02     0.35   0.09  -0.09
  12   6     0.04  -0.06  -0.05     0.06   0.02  -0.05     0.15   0.08   0.01
  13   6    -0.01  -0.08  -0.05     0.04   0.01  -0.03     0.10   0.07   0.09
  14   6    -0.00  -0.13  -0.03     0.03  -0.03  -0.03     0.03  -0.09   0.06
  15   6     0.03  -0.21   0.01     0.06  -0.08  -0.03     0.09  -0.13  -0.07
  16   6     0.05  -0.29   0.06     0.07  -0.18   0.01     0.06  -0.41  -0.02
  17   6     0.09  -0.07  -0.07     0.08   0.03  -0.08     0.06   0.09   0.04
  18   6     0.08  -0.07  -0.04     0.04   0.02  -0.07     0.02   0.07   0.04
  19  15     0.04  -0.11   0.03     0.01   0.04  -0.10    -0.04   0.12   0.06
  20   8     0.05  -0.17   0.05    -0.08   0.02  -0.08     0.02   0.12   0.04
  21   6    -0.01   0.07  -0.02     0.04   0.03   0.04    -0.03   0.02  -0.01
  22   6    -0.01   0.11  -0.04    -0.00   0.00   0.10     0.00  -0.04  -0.02
  23   6    -0.02   0.18  -0.07     0.02  -0.03   0.18     0.00  -0.10  -0.04
  24   6    -0.03   0.20  -0.08     0.09  -0.04   0.20    -0.04  -0.10  -0.06
  25   7    -0.04   0.18  -0.09     0.11  -0.07   0.26    -0.05  -0.10  -0.08
  26   6    -0.07   0.10  -0.02     0.05  -0.03   0.14     0.01  -0.06  -0.05
  27   6    -0.14   0.12  -0.01     0.05  -0.05   0.20     0.06  -0.06  -0.10
  28   6    -0.17   0.04   0.06    -0.00  -0.01   0.06     0.11  -0.03  -0.07
  29   6    -0.13  -0.05   0.12    -0.06   0.04  -0.15     0.11   0.01   0.01
  30   6    -0.06  -0.07   0.11    -0.05   0.06  -0.20     0.06   0.02   0.05
  31   6    -0.03   0.01   0.04     0.01   0.02  -0.05     0.01  -0.02   0.01
  32   6     0.04   0.01   0.02     0.03   0.02  -0.06    -0.05  -0.02   0.03
  33   6     0.10  -0.06   0.06    -0.00   0.06  -0.23    -0.09   0.02   0.09
  34   6     0.16  -0.04   0.04     0.03   0.05  -0.19    -0.16   0.00   0.08
  35   6     0.16   0.06  -0.03     0.09  -0.00   0.01    -0.20  -0.04   0.01
  36   6     0.10   0.13  -0.08     0.12  -0.04   0.17    -0.16  -0.07  -0.04
  37   6     0.03   0.11  -0.05     0.09  -0.03   0.12    -0.09  -0.06  -0.03
  38   6    -0.04   0.20  -0.08     0.13  -0.01   0.14    -0.07  -0.07  -0.04
  39   6    -0.02   0.13  -0.05     0.10   0.02   0.06    -0.07  -0.00  -0.02
  40   1    -0.04   0.07  -0.06    -0.06   0.07  -0.03    -0.04   0.05  -0.02
  41   1     0.01   0.07  -0.04    -0.02   0.07  -0.02    -0.01   0.06   0.00
  42   1    -0.02   0.04  -0.03    -0.04   0.04  -0.02    -0.03   0.02   0.00
  43   1    -0.01   0.05  -0.03    -0.05   0.04  -0.02    -0.04   0.05  -0.02
  44   1    -0.04   0.02  -0.02    -0.07   0.02  -0.02    -0.05   0.01  -0.02
  45   1     0.00  -0.00   0.01    -0.02  -0.00  -0.00    -0.02   0.00   0.02
  46   1     0.03   0.03   0.01    -0.01   0.02  -0.00    -0.00   0.03   0.01
  47   1     0.01  -0.00   0.01    -0.04  -0.02   0.00    -0.02   0.00   0.01
  48   1     0.02  -0.01   0.02    -0.03  -0.02  -0.02    -0.02   0.00   0.01
  49   1    -0.01  -0.02   0.03    -0.00   0.00  -0.03    -0.05   0.01   0.03
  50   1    -0.01  -0.03  -0.01     0.01   0.01  -0.01     0.04   0.04   0.03
  51   1    -0.01  -0.01  -0.02     0.01   0.01  -0.00     0.02   0.03   0.05
  52   1    -0.02  -0.04  -0.01    -0.00  -0.01  -0.01    -0.01  -0.03   0.05
  53   1     0.01  -0.03  -0.01     0.01  -0.01  -0.01    -0.00  -0.05   0.01
  54   1     0.03  -0.06   0.00     0.03  -0.02  -0.02     0.05  -0.03  -0.08
  55   1    -0.01  -0.07   0.01     0.01  -0.02  -0.00     0.02   0.01  -0.01
  56   1     0.00  -0.09   0.03     0.00  -0.06   0.02    -0.00  -0.12   0.06
  57   1     0.02  -0.09   0.02     0.02  -0.06   0.00     0.03  -0.12  -0.04
  58   1     0.03  -0.09   0.01     0.03  -0.06  -0.00     0.02  -0.17  -0.02
  59   1     0.03  -0.02  -0.03     0.03   0.01  -0.03     0.00   0.03   0.02
  60   1    -0.00   0.02  -0.01    -0.02   0.00   0.02     0.01  -0.01  -0.00
  61   1    -0.01   0.06  -0.02    -0.00  -0.01   0.06     0.01  -0.04  -0.02
  62   1    -0.05   0.05  -0.01     0.03  -0.02   0.10     0.02  -0.03  -0.05
  63   1    -0.06   0.02   0.02    -0.00  -0.01   0.03     0.04  -0.01  -0.03
  64   1    -0.04  -0.03   0.05    -0.03   0.02  -0.08     0.05   0.01   0.01
  65   1    -0.01  -0.04   0.05    -0.03   0.03  -0.10     0.02   0.01   0.03
  66   1     0.03  -0.04   0.03    -0.02   0.03  -0.11    -0.02   0.02   0.04
  67   1     0.06  -0.03   0.02     0.00   0.02  -0.09    -0.05   0.01   0.04
  68   1     0.06   0.02  -0.01     0.03  -0.00   0.01    -0.07  -0.01   0.00
  69   1     0.03   0.06  -0.04     0.05  -0.02   0.09    -0.06  -0.03  -0.03
  70   1    -0.01   0.07  -0.03     0.05  -0.01   0.05    -0.03  -0.03  -0.01
  71   1    -0.01   0.03  -0.01     0.04   0.01   0.01    -0.03   0.01  -0.00
                     10                     11                     12
                        a                      a                      a 
 Frequencies --    62.9806                71.4803                74.2287
 Red. masses --     6.4411                 6.8895                12.3656
 Frc consts  --     0.0000                 0.0000                 0.0000
 IR Inten    --     0.1094                 0.1009                 0.2549
 Raman Activ --     0.0000                 0.0000                 0.0000
 Depolar     --     0.0000                 0.0000                 0.0000
 Atom AN      X      Y      Z        X      Y      Z        X      Y      Z
   1   6    -0.05   0.00  -0.25    -0.09   0.09  -0.05     0.23  -0.20   0.17
   2   6     0.25  -0.12   0.41    -0.06   0.02   0.06     0.09  -0.06  -0.19
   3   6    -0.01   0.02  -0.14    -0.05   0.00   0.01     0.07  -0.02  -0.13
   4   6     0.02  -0.02  -0.06    -0.06  -0.03   0.01     0.10   0.02  -0.11
   5   6     0.00   0.02   0.01    -0.04  -0.01   0.01     0.07   0.03  -0.07
   6   6     0.01   0.03  -0.00    -0.06  -0.00   0.02     0.09   0.05  -0.08
   7   6    -0.02   0.03   0.02    -0.01   0.01  -0.00    -0.01   0.05   0.01
   8   6    -0.05   0.03   0.05     0.05   0.01  -0.03    -0.11   0.03   0.10
   9  16    -0.09   0.03   0.09     0.07  -0.02  -0.05    -0.15   0.01   0.13
  10   6    -0.04   0.02   0.03     0.07   0.01  -0.03    -0.12   0.04   0.11
  11  16    -0.08   0.05   0.02     0.15   0.02  -0.06    -0.25   0.07   0.20
  12   6     0.02   0.03  -0.05     0.01   0.01   0.02     0.06   0.05  -0.04
  13   6     0.02   0.02  -0.08    -0.04  -0.01   0.02     0.08   0.05  -0.13
  14   6     0.02   0.02  -0.08    -0.05  -0.02   0.01     0.05   0.09  -0.19
  15   6     0.05  -0.06  -0.04     0.10  -0.42   0.30     0.17  -0.23   0.01
  16   6     0.07  -0.15   0.02    -0.14   0.23  -0.17     0.13  -0.20  -0.05
  17   6     0.04   0.02  -0.05    -0.01   0.01   0.03     0.11   0.05  -0.06
  18   6     0.01   0.02   0.00     0.02   0.01   0.00     0.01   0.05   0.03
  19  15    -0.00   0.03   0.01    -0.00   0.03   0.00    -0.01   0.09   0.02
  20   8     0.01   0.01   0.02     0.01   0.03  -0.00    -0.02   0.07   0.01
  21   6    -0.00   0.02   0.00    -0.00   0.02  -0.01    -0.01   0.05   0.02
  22   6     0.00  -0.00   0.01     0.00   0.01  -0.01     0.01  -0.01   0.03
  23   6     0.00  -0.02   0.01     0.00   0.00  -0.01     0.01  -0.04   0.02
  24   6    -0.01  -0.01   0.00     0.00  -0.01  -0.00    -0.02  -0.02   0.01
  25   7    -0.01  -0.02   0.00     0.01  -0.01   0.00    -0.03  -0.03  -0.00
  26   6    -0.00  -0.01   0.00     0.01  -0.01  -0.00    -0.02  -0.02   0.00
  27   6     0.01  -0.01  -0.00     0.02  -0.01  -0.01    -0.02  -0.02  -0.01
  28   6     0.01  -0.01  -0.00     0.02  -0.00  -0.01    -0.01  -0.01  -0.01
  29   6     0.01   0.00   0.00     0.02   0.00  -0.01    -0.00  -0.01   0.01
  30   6     0.00   0.00   0.00     0.01   0.00  -0.00    -0.01  -0.01   0.02
  31   6    -0.00  -0.00   0.00     0.01  -0.00  -0.00    -0.02  -0.01   0.01
  32   6    -0.01  -0.00   0.00     0.00  -0.00   0.00    -0.03  -0.01   0.01
  33   6    -0.02   0.01   0.01    -0.00   0.00   0.00    -0.05   0.01   0.02
  34   6    -0.03   0.00   0.00    -0.01   0.00   0.00    -0.07   0.01   0.01
  35   6    -0.03  -0.00   0.00    -0.01  -0.00  -0.00    -0.08  -0.01  -0.00
  36   6    -0.02  -0.01   0.00    -0.00  -0.01  -0.00    -0.06  -0.02  -0.00
  37   6    -0.01  -0.01   0.00     0.00  -0.01   0.00    -0.04  -0.02   0.00
  38   6    -0.01   0.00  -0.00     0.00  -0.01  -0.00    -0.04   0.04  -0.00
  39   6    -0.01   0.02   0.00     0.00   0.00  -0.00    -0.04   0.08   0.00
  40   1     0.06  -0.04   0.08    -0.03   0.03   0.00     0.07  -0.06   0.02
  41   1    -0.06  -0.19  -0.28    -0.02   0.01  -0.04     0.04  -0.00   0.14
  42   1    -0.11   0.25  -0.16    -0.04   0.06  -0.02     0.12  -0.14   0.07
  43   1     0.17  -0.26   0.19    -0.01  -0.02   0.03    -0.02   0.05  -0.07
  44   1     0.10   0.13   0.31    -0.02   0.02   0.04     0.05  -0.06  -0.13
  45   1    -0.00   0.14  -0.10    -0.01   0.01  -0.00     0.01  -0.02  -0.03
  46   1    -0.07  -0.09  -0.12    -0.01  -0.00  -0.01     0.02  -0.00  -0.03
  47   1     0.01  -0.03  -0.01    -0.02  -0.02   0.01     0.04   0.01  -0.04
  48   1     0.00  -0.01  -0.03    -0.02  -0.01  -0.01     0.03   0.01  -0.02
  49   1     0.01   0.01  -0.01    -0.03   0.00   0.01     0.05   0.02  -0.05
  50   1     0.01  -0.00  -0.02    -0.02  -0.01   0.00     0.03  -0.00  -0.05
  51   1     0.00   0.01  -0.03    -0.02   0.01  -0.00     0.02   0.02  -0.04
  52   1    -0.01   0.00  -0.04    -0.09  -0.02  -0.08    -0.04   0.02  -0.12
  53   1     0.01   0.02  -0.02     0.02   0.10   0.02     0.03   0.11  -0.04
  54   1     0.03  -0.01  -0.02     0.06  -0.12   0.33     0.11  -0.06   0.08
  55   1    -0.00  -0.02  -0.01     0.08  -0.35   0.01     0.03  -0.16  -0.02
  56   1     0.00  -0.05   0.02    -0.10   0.06  -0.32    -0.02  -0.07  -0.09
  57   1     0.03  -0.05   0.01     0.00  -0.05   0.03     0.07  -0.13   0.03
  58   1     0.04  -0.05  -0.00    -0.08   0.33   0.04     0.06   0.03   0.01
  59   1     0.02   0.00  -0.02    -0.02   0.00   0.02     0.07   0.02  -0.04
  60   1     0.00  -0.00   0.00     0.00   0.01  -0.00     0.01  -0.01   0.01
  61   1     0.00  -0.01   0.00     0.00  -0.00  -0.00     0.01  -0.03   0.01
  62   1     0.00  -0.00  -0.00     0.01  -0.00  -0.00    -0.01  -0.01  -0.01
  63   1     0.00  -0.00  -0.00     0.01  -0.00  -0.00    -0.00  -0.00  -0.01
  64   1     0.00   0.00   0.00     0.01   0.00  -0.00     0.00  -0.00   0.01
  65   1     0.00   0.00   0.00     0.00   0.00  -0.00    -0.00  -0.00   0.01
  66   1    -0.00   0.00   0.00     0.00   0.00   0.00    -0.01   0.01   0.01
  67   1    -0.01   0.00   0.00    -0.00   0.00   0.00    -0.02   0.01   0.00
  68   1    -0.01  -0.00   0.00    -0.00  -0.00  -0.00    -0.03  -0.00  -0.00
  69   1    -0.01  -0.01   0.00    -0.00  -0.00  -0.00    -0.02  -0.01  -0.00
  70   1    -0.00   0.00  -0.00     0.00  -0.00   0.00    -0.01   0.02  -0.00
  71   1    -0.01   0.01   0.00     0.00   0.00  -0.00    -0.02   0.04   0.00
                     13                     14                     15
                        a                      a                      a 
 Frequencies --    79.0928               103.2070               106.0409
 Red. masses --    10.0070                10.5301                12.7997
 Frc consts  --     0.0000                 0.0000                 0.0000
 IR Inten    --     1.6137                 0.3118                 1.0536
 Raman Activ --     0.0000                 0.0000                 0.0000
 Depolar     --     0.0000                 0.0000                 0.0000
 Atom AN      X      Y      Z        X      Y      Z        X      Y      Z
   1   6    -0.02   0.02  -0.01     0.02  -0.02   0.00    -0.02  -0.08  -0.12
   2   6    -0.01   0.01   0.01     0.02   0.00  -0.01     0.14   0.03   0.09
   3   6    -0.01  -0.00   0.01     0.01   0.02  -0.00     0.14   0.09   0.33
   4   6    -0.01  -0.01   0.00     0.02   0.03   0.01     0.10   0.23   0.16
   5   6    -0.01  -0.01  -0.00     0.00   0.01   0.02     0.09   0.08  -0.04
   6   6     0.00  -0.00  -0.01    -0.03   0.00   0.04     0.17  -0.01  -0.10
   7   6     0.02  -0.00  -0.02    -0.04  -0.00   0.03     0.06  -0.05  -0.14
   8   6     0.02  -0.00  -0.02    -0.02   0.00   0.02    -0.06  -0.04  -0.09
   9  16     0.01  -0.01  -0.01     0.02   0.03  -0.01    -0.17   0.16  -0.06
  10   6     0.03  -0.00  -0.03    -0.02   0.00   0.02    -0.07  -0.05  -0.06
  11  16    -0.02  -0.02   0.02     0.02  -0.00   0.02    -0.05  -0.19   0.10
  12   6    -0.01  -0.01   0.01     0.01   0.01   0.02     0.08  -0.01   0.03
  13   6    -0.02  -0.01   0.04     0.03   0.01   0.02     0.16   0.01   0.20
  14   6    -0.01  -0.02   0.05     0.02   0.01   0.01     0.14  -0.10   0.21
  15   6    -0.04   0.04   0.02     0.03  -0.01  -0.00     0.15  -0.05   0.05
  16   6    -0.04   0.08   0.00     0.01  -0.01  -0.02     0.02  -0.00  -0.13
  17   6     0.03   0.00  -0.02    -0.01   0.01   0.02     0.06   0.06  -0.05
  18   6     0.05   0.00  -0.04    -0.03   0.00   0.02    -0.02   0.00  -0.10
  19  15     0.04  -0.01  -0.03     0.00  -0.00  -0.01    -0.03  -0.03  -0.17
  20   8     0.02  -0.07  -0.01     0.12   0.03   0.00    -0.13   0.01  -0.15
  21   6     0.03   0.03  -0.00    -0.03  -0.03  -0.10    -0.01  -0.01  -0.04
  22   6     0.09  -0.37   0.14    -0.02  -0.06  -0.09    -0.04   0.01  -0.02
  23   6     0.09  -0.37   0.14    -0.03  -0.04  -0.10    -0.04   0.01  -0.01
  24   6     0.01  -0.01   0.01    -0.04   0.01  -0.11    -0.03  -0.00   0.00
  25   7     0.02  -0.01  -0.00    -0.05   0.06  -0.13    -0.03  -0.01   0.02
  26   6     0.01  -0.00   0.00    -0.04   0.05  -0.10    -0.03  -0.01   0.02
  27   6    -0.02   0.01  -0.02     0.04  -0.05   0.19    -0.05  -0.00   0.02
  28   6    -0.01  -0.02   0.06     0.08  -0.12   0.37    -0.06  -0.00  -0.00
  29   6     0.02  -0.07   0.14     0.03  -0.06   0.18    -0.06  -0.00  -0.01
  30   6     0.03  -0.06   0.11    -0.06   0.06  -0.16    -0.05  -0.01   0.00
  31   6     0.02  -0.01   0.03    -0.08   0.10  -0.25    -0.03  -0.01   0.02
  32   6     0.00   0.01  -0.02    -0.09   0.10  -0.25    -0.03  -0.01   0.02
  33   6    -0.04   0.06  -0.09    -0.06   0.08  -0.17    -0.04  -0.00   0.03
  34   6    -0.08   0.07  -0.13     0.03  -0.04   0.15    -0.05   0.00   0.01
  35   6    -0.07   0.03  -0.07     0.09  -0.12   0.36    -0.06   0.01  -0.00
  36   6    -0.03  -0.02   0.00     0.04  -0.06   0.20    -0.05  -0.00   0.00
  37   6     0.00  -0.01  -0.01    -0.04   0.05  -0.10    -0.03  -0.00   0.02
  38   6    -0.04   0.37  -0.12    -0.04   0.00  -0.11    -0.00  -0.01  -0.02
  39   6    -0.05   0.41  -0.13    -0.04  -0.02  -0.11    -0.00  -0.02  -0.03
  40   1    -0.01   0.01  -0.00     0.01  -0.01  -0.00    -0.00  -0.04  -0.09
  41   1    -0.00   0.00  -0.01     0.00  -0.01   0.00     0.01  -0.02  -0.05
  42   1    -0.01   0.01  -0.00     0.00  -0.01   0.00    -0.07  -0.03  -0.01
  43   1    -0.00  -0.00   0.00     0.01   0.00  -0.00     0.10   0.02   0.00
  44   1    -0.01   0.00   0.01     0.01   0.00  -0.00     0.02   0.00   0.03
  45   1    -0.00  -0.00   0.00    -0.00   0.01  -0.00     0.05  -0.04   0.12
  46   1    -0.00   0.00   0.00     0.00   0.00  -0.00     0.04   0.07   0.16
  47   1    -0.01  -0.00   0.00     0.01   0.01   0.00     0.01   0.13   0.03
  48   1    -0.00  -0.00  -0.00     0.01   0.01   0.01     0.03   0.07   0.09
  49   1    -0.00  -0.00  -0.00    -0.01  -0.00   0.02     0.09  -0.01  -0.03
  50   1    -0.01   0.00   0.01     0.01   0.01   0.01     0.06   0.05   0.06
  51   1    -0.01  -0.00   0.01     0.01   0.00   0.01     0.05  -0.02   0.09
  52   1     0.01  -0.00   0.03     0.00   0.00  -0.00     0.04  -0.03   0.10
  53   1    -0.01  -0.02   0.01     0.00   0.01   0.00     0.03  -0.07   0.05
  54   1    -0.02   0.01   0.00     0.01  -0.00   0.00     0.03  -0.02   0.02
  55   1    -0.00   0.02   0.00     0.01  -0.00  -0.00     0.09  -0.01  -0.00
  56   1     0.00   0.03   0.00    -0.00  -0.00  -0.01     0.01   0.00  -0.05
  57   1    -0.02   0.04  -0.01     0.01  -0.01  -0.01     0.01   0.00  -0.07
  58   1    -0.02   0.02   0.00     0.00   0.00  -0.00    -0.04   0.01  -0.02
  59   1     0.01   0.00  -0.01    -0.00   0.01   0.01     0.03   0.04  -0.02
  60   1     0.04  -0.19   0.07    -0.01  -0.03  -0.02    -0.02   0.00  -0.01
  61   1     0.04  -0.18   0.06    -0.01  -0.02  -0.02    -0.01   0.01  -0.00
  62   1    -0.02   0.02  -0.03     0.02  -0.02   0.10    -0.01   0.00   0.01
  63   1    -0.01  -0.01   0.02     0.05  -0.06   0.19    -0.02   0.00  -0.00
  64   1     0.01  -0.03   0.06     0.02  -0.03   0.09    -0.02  -0.00  -0.01
  65   1     0.01  -0.03   0.04    -0.03   0.03  -0.08    -0.01  -0.01  -0.00
  66   1    -0.01   0.03  -0.03    -0.03   0.04  -0.09    -0.01   0.00   0.01
  67   1    -0.03   0.03  -0.06     0.02  -0.03   0.08    -0.02   0.00   0.00
  68   1    -0.03   0.01  -0.02     0.05  -0.06   0.19    -0.02   0.00  -0.00
  69   1    -0.01  -0.02   0.02     0.03  -0.03   0.10    -0.02  -0.00  -0.00
  70   1    -0.02   0.18  -0.06    -0.01  -0.00  -0.03     0.01  -0.00  -0.00
  71   1    -0.03   0.21  -0.07    -0.01  -0.00  -0.03     0.00  -0.01  -0.01
                     16                     17                     18
                        a                      a                      a 
 Frequencies --   113.3167               121.3963               133.6455
 Red. masses --    15.7624                17.9067                12.3124
 Frc consts  --     0.0000                 0.0000                 0.0000
 IR Inten    --     1.1665                 0.1301                 2.9545
 Raman Activ --     0.0000                 0.0000                 0.0000
 Depolar     --     0.0000                 0.0000                 0.0000
 Atom AN      X      Y      Z        X      Y      Z        X      Y      Z
   1   6    -0.02   0.01  -0.02     0.16  -0.12   0.09    -0.03   0.03   0.01
   2   6    -0.02  -0.02   0.01     0.10   0.01  -0.12    -0.05  -0.01   0.01
   3   6     0.01  -0.04   0.04    -0.04   0.11  -0.29    -0.02  -0.04  -0.01
   4   6    -0.02  -0.03  -0.02     0.09   0.06  -0.05    -0.04  -0.04  -0.03
   5   6     0.03  -0.02  -0.05    -0.07   0.06   0.09     0.02  -0.00  -0.03
   6   6     0.18   0.01  -0.17    -0.03   0.03   0.07     0.08   0.02  -0.08
   7   6     0.16   0.02  -0.13    -0.06   0.01   0.06     0.10   0.03  -0.07
   8   6     0.02   0.00  -0.01    -0.10   0.02   0.06     0.06   0.02  -0.03
   9  16    -0.25  -0.06   0.18    -0.39   0.09   0.30    -0.00  -0.02   0.02
  10   6    -0.03   0.01   0.03    -0.00   0.01  -0.05     0.08   0.02  -0.06
  11  16     0.24   0.07  -0.18     0.26   0.04  -0.27    -0.11   0.03   0.02
  12   6    -0.02   0.01   0.00     0.06   0.00  -0.10     0.04   0.01  -0.08
  13   6    -0.01   0.01  -0.04    -0.02  -0.02   0.08    -0.05  -0.01  -0.02
  14   6    -0.02   0.04  -0.07     0.05  -0.23   0.23     0.00  -0.10   0.07
  15   6    -0.00  -0.02  -0.02    -0.03  -0.02   0.07    -0.05   0.01   0.03
  16   6     0.01  -0.05   0.01    -0.09   0.12  -0.04    -0.04   0.08   0.01
  17   6    -0.16  -0.02   0.12     0.02  -0.00  -0.07     0.18   0.02  -0.16
  18   6    -0.15  -0.01   0.12     0.01  -0.01  -0.05     0.19   0.02  -0.14
  19  15    -0.03   0.01   0.03     0.00  -0.05  -0.00     0.01   0.03   0.06
  20   8    -0.18   0.27  -0.09     0.06  -0.12   0.04    -0.40  -0.22   0.05
  21   6     0.06  -0.23   0.16    -0.01  -0.00  -0.03     0.05   0.17   0.25
  22   6     0.09  -0.24   0.14    -0.02   0.01  -0.03     0.14   0.16   0.17
  23   6     0.06  -0.13   0.06    -0.02   0.01  -0.01     0.12   0.07   0.04
  24   6     0.01   0.00  -0.00     0.00  -0.00   0.00     0.01  -0.00   0.02
  25   7    -0.03   0.13  -0.13     0.01  -0.01   0.03    -0.04  -0.02  -0.14
  26   6    -0.04   0.09  -0.09     0.01  -0.01   0.02    -0.02  -0.01  -0.13
  27   6    -0.07   0.10  -0.06     0.01  -0.01   0.01     0.04  -0.05  -0.07
  28   6    -0.06   0.04   0.04     0.01   0.00  -0.01     0.10  -0.07   0.05
  29   6    -0.03  -0.02   0.10     0.00   0.01  -0.02     0.10  -0.04   0.06
  30   6    -0.01  -0.02   0.06     0.00   0.00  -0.00     0.03   0.01  -0.04
  31   6    -0.02   0.05  -0.04     0.01  -0.01   0.02    -0.02   0.01  -0.13
  32   6     0.01   0.05  -0.05     0.01  -0.01   0.02    -0.04   0.01  -0.12
  33   6     0.06  -0.01   0.01     0.00  -0.00  -0.00    -0.02  -0.02   0.01
  34   6     0.10  -0.01   0.04     0.00   0.00  -0.02    -0.02  -0.07   0.13
  35   6     0.10   0.04  -0.01     0.00   0.00  -0.01    -0.04  -0.07   0.07
  36   6     0.05   0.10  -0.07     0.01  -0.00   0.01    -0.06  -0.03  -0.08
  37   6     0.00   0.09  -0.09     0.01  -0.01   0.02    -0.05  -0.01  -0.13
  38   6    -0.01  -0.06   0.05     0.01  -0.00  -0.01    -0.08  -0.01   0.12
  39   6     0.02  -0.18   0.14     0.00  -0.00  -0.03    -0.05   0.09   0.25
  40   1    -0.01   0.01  -0.01     0.08  -0.06   0.06    -0.01   0.02   0.01
  41   1     0.00   0.01  -0.01    -0.01  -0.05   0.05    -0.00   0.01  -0.00
  42   1    -0.01  -0.00  -0.00     0.08  -0.03   0.01    -0.00   0.01  -0.00
  43   1    -0.00   0.00  -0.00     0.00  -0.01  -0.02    -0.02  -0.00   0.00
  44   1    -0.01  -0.01   0.00     0.08   0.02  -0.05    -0.02  -0.00   0.00
  45   1     0.01  -0.03   0.02    -0.05   0.11  -0.10    -0.00  -0.01  -0.01
  46   1     0.01   0.00   0.03    -0.03  -0.02  -0.15    -0.01  -0.01  -0.00
  47   1    -0.02  -0.01  -0.00     0.07   0.01  -0.03    -0.02  -0.02  -0.00
  48   1    -0.01  -0.01  -0.01     0.04   0.01   0.01    -0.02  -0.01  -0.02
  49   1     0.09   0.01  -0.08     0.02   0.01   0.01     0.03   0.01  -0.03
  50   1     0.00  -0.00  -0.02    -0.04   0.03   0.04    -0.04   0.00   0.00
  51   1    -0.00   0.01  -0.01    -0.01   0.00   0.03    -0.02   0.01  -0.02
  52   1    -0.02   0.01  -0.04     0.04  -0.06   0.16     0.01  -0.03   0.06
  53   1    -0.00   0.03  -0.01     0.02  -0.15   0.04     0.01  -0.07   0.01
  54   1     0.01  -0.00   0.00    -0.06  -0.01   0.01    -0.04  -0.00  -0.00
  55   1    -0.01  -0.02  -0.00     0.03   0.02   0.02    -0.00   0.02   0.01
  56   1    -0.01  -0.02  -0.00     0.02   0.04  -0.01     0.02   0.03   0.01
  57   1     0.01  -0.03   0.01    -0.04   0.08  -0.05    -0.02   0.05  -0.01
  58   1     0.02  -0.01   0.00    -0.08   0.01  -0.01    -0.03   0.01   0.00
  59   1    -0.08  -0.01   0.06    -0.01  -0.00  -0.01     0.07   0.00  -0.06
  60   1     0.04  -0.08   0.05    -0.01   0.00  -0.01     0.07   0.06   0.05
  61   1     0.02  -0.03   0.01    -0.01   0.01  -0.00     0.06   0.02  -0.01
  62   1    -0.02   0.04  -0.03     0.00  -0.00   0.00     0.01  -0.02  -0.02
  63   1    -0.02   0.01   0.02     0.00   0.00  -0.01     0.04  -0.03   0.04
  64   1    -0.01  -0.02   0.06    -0.00   0.00  -0.01     0.04  -0.02   0.05
  65   1     0.00  -0.02   0.03     0.00   0.00  -0.00     0.01   0.01  -0.01
  66   1     0.02  -0.02   0.01     0.00  -0.00  -0.00    -0.00  -0.00   0.01
  67   1     0.04  -0.02   0.03    -0.00   0.00  -0.01     0.00  -0.03   0.08
  68   1     0.04   0.01   0.00     0.00   0.00  -0.01    -0.01  -0.03   0.04
  69   1     0.02   0.04  -0.02     0.00  -0.00   0.00    -0.02  -0.01  -0.04
  70   1    -0.02   0.01   0.00     0.01  -0.00  -0.00    -0.05  -0.03   0.03
  71   1     0.00  -0.06   0.05     0.00  -0.00  -0.01    -0.04   0.03   0.10
                     19                     20                     21
                        a                      a                      a 
 Frequencies --   140.1231               145.6342               157.6045
 Red. masses --    13.8338                11.6483                13.2594
 Frc consts  --     0.0000                 0.0000                 0.0000
 IR Inten    --     1.0421                 0.8037                 0.0288
 Raman Activ --     0.0000                 0.0000                 0.0000
 Depolar     --     0.0000                 0.0000                 0.0000
 Atom AN      X      Y      Z        X      Y      Z        X      Y      Z
   1   6     0.01   0.02  -0.05     0.03  -0.01  -0.06     0.06  -0.07  -0.06
   2   6     0.02  -0.04   0.03     0.07  -0.02   0.03     0.12   0.02   0.01
   3   6     0.10  -0.09   0.13     0.12  -0.05   0.15     0.12   0.05   0.12
   4   6     0.02  -0.08   0.00     0.04  -0.03   0.02     0.06   0.05   0.04
   5   6     0.07  -0.07  -0.03     0.04  -0.06  -0.04    -0.03  -0.05  -0.02
   6   6     0.16  -0.01  -0.11     0.08  -0.03  -0.07    -0.09  -0.06   0.03
   7   6     0.13   0.01  -0.05     0.02  -0.02  -0.01    -0.14  -0.07   0.04
   8   6     0.07  -0.01   0.03    -0.00  -0.03   0.03    -0.11  -0.06   0.01
   9  16    -0.10  -0.15   0.20    -0.12  -0.12   0.12    -0.15  -0.08  -0.01
  10   6     0.11   0.02   0.02     0.04  -0.01   0.03    -0.05  -0.04   0.02
  11  16     0.17   0.09  -0.09     0.15   0.04  -0.08     0.16  -0.06  -0.08
  12   6     0.01  -0.00  -0.02     0.00  -0.01  -0.00    -0.04  -0.02   0.07
  13   6    -0.10  -0.03  -0.09    -0.07  -0.03  -0.07     0.00  -0.01   0.01
  14   6    -0.09  -0.01  -0.08    -0.07  -0.00  -0.08    -0.05   0.10  -0.08
  15   6    -0.14   0.03  -0.01    -0.09   0.00  -0.01    -0.03   0.02  -0.02
  16   6    -0.05   0.07   0.08    -0.03   0.03   0.06     0.00  -0.03   0.03
  17   6     0.06  -0.04  -0.00    -0.00  -0.03   0.03    -0.15  -0.02   0.12
  18   6     0.13  -0.00   0.01     0.03  -0.01   0.04    -0.12  -0.02   0.07
  19  15     0.18   0.05  -0.05     0.00   0.04   0.01    -0.22  -0.00   0.07
  20   8     0.17   0.11  -0.05    -0.03   0.08  -0.01    -0.25   0.00   0.04
  21   6     0.05   0.09  -0.08    -0.04   0.13  -0.03    -0.11   0.13   0.02
  22   6     0.02   0.09  -0.05    -0.05   0.22  -0.07    -0.05   0.06   0.00
  23   6     0.02   0.06  -0.03    -0.04   0.16  -0.05    -0.05   0.04  -0.01
  24   6    -0.01   0.02  -0.01    -0.02   0.03  -0.01    -0.01   0.04  -0.01
  25   7    -0.01  -0.05   0.05    -0.01  -0.06   0.04     0.03  -0.05   0.01
  26   6    -0.01  -0.06   0.10    -0.03  -0.02  -0.07     0.07  -0.06   0.04
  27   6    -0.03  -0.09   0.23    -0.03   0.03  -0.25     0.20  -0.11   0.09
  28   6    -0.09  -0.07   0.10     0.03   0.02  -0.14     0.25  -0.03   0.03
  29   6    -0.16   0.00  -0.14     0.11  -0.06   0.17     0.18   0.08  -0.13
  30   6    -0.12   0.00  -0.17     0.08  -0.07   0.22     0.09   0.11  -0.14
  31   6    -0.03  -0.02   0.01    -0.01  -0.03   0.03     0.05  -0.01  -0.02
  32   6    -0.04  -0.02   0.04    -0.03  -0.02  -0.00     0.04  -0.03  -0.02
  33   6    -0.06   0.00   0.18    -0.10   0.08  -0.25     0.10  -0.10   0.05
  34   6    -0.14  -0.01   0.17    -0.10   0.06  -0.22     0.14  -0.08   0.02
  35   6    -0.20   0.01  -0.01     0.00  -0.08   0.14     0.11  -0.02  -0.11
  36   6    -0.17  -0.01  -0.10     0.05  -0.14   0.30     0.06   0.02  -0.13
  37   6    -0.06  -0.02  -0.01     0.01  -0.08   0.13     0.03  -0.02  -0.05
  38   6     0.02   0.08  -0.07    -0.03   0.04  -0.01    -0.08   0.17  -0.01
  39   6     0.02   0.12  -0.09    -0.03   0.07  -0.02    -0.10   0.25  -0.02
  40   1    -0.02   0.02  -0.04    -0.01   0.00  -0.06     0.02  -0.03  -0.05
  41   1     0.03   0.03  -0.02     0.04   0.02  -0.02     0.03  -0.01  -0.01
  42   1    -0.01  -0.01  -0.00    -0.02  -0.03  -0.00    -0.01  -0.04   0.00
  43   1     0.02   0.00  -0.00     0.04   0.01  -0.01     0.06   0.02  -0.01
  44   1    -0.02  -0.02   0.01    -0.00  -0.02   0.01     0.03  -0.00  -0.00
  45   1     0.05  -0.07   0.05     0.06  -0.06   0.06     0.05  -0.02   0.04
  46   1     0.04   0.00   0.07     0.04   0.02   0.08     0.04   0.03   0.06
  47   1    -0.02  -0.02   0.01    -0.01   0.00   0.01     0.01   0.04   0.00
  48   1     0.00  -0.03  -0.02     0.02  -0.01   0.00     0.04   0.00   0.03
  49   1     0.07   0.00  -0.06     0.04  -0.00  -0.04    -0.03  -0.02   0.01
  50   1    -0.04  -0.04  -0.03    -0.03  -0.03  -0.02     0.02  -0.01  -0.01
  51   1    -0.04   0.02  -0.05    -0.03   0.01  -0.03     0.00  -0.01   0.01
  52   1    -0.02  -0.00  -0.03    -0.02   0.00  -0.03    -0.02   0.03  -0.07
  53   1    -0.02   0.00  -0.02    -0.02   0.01  -0.02    -0.02   0.07  -0.01
  54   1    -0.05   0.01  -0.01    -0.03   0.00  -0.00     0.01   0.01   0.00
  55   1    -0.06   0.01   0.01    -0.04   0.00   0.00    -0.03  -0.01  -0.00
  56   1    -0.00   0.02   0.03     0.00   0.01   0.02    -0.02  -0.01   0.00
  57   1    -0.03   0.03   0.05    -0.02   0.02   0.03     0.01  -0.03   0.03
  58   1     0.01   0.02   0.02     0.01   0.01   0.01     0.03   0.01   0.01
  59   1     0.01  -0.03   0.00    -0.01  -0.02   0.02    -0.07  -0.00   0.05
  60   1    -0.00   0.02  -0.02    -0.02   0.09  -0.03    -0.00   0.01   0.01
  61   1     0.01   0.01  -0.01    -0.01   0.04  -0.01    -0.01   0.00   0.00
  62   1     0.00  -0.02   0.11    -0.02   0.01  -0.12     0.07  -0.06   0.04
  63   1    -0.03  -0.03   0.05     0.01   0.01  -0.07     0.09  -0.02   0.02
  64   1    -0.06   0.01  -0.09     0.05  -0.03   0.10     0.06   0.04  -0.06
  65   1    -0.04   0.00  -0.10     0.03  -0.03   0.12     0.01   0.07  -0.07
  66   1    -0.00   0.01   0.08    -0.05   0.05  -0.14     0.03  -0.05   0.03
  67   1    -0.04  -0.00   0.08    -0.05   0.04  -0.13     0.05  -0.04   0.03
  68   1    -0.08   0.01  -0.02     0.01  -0.04   0.07     0.03  -0.00  -0.05
  69   1    -0.07  -0.01  -0.06     0.03  -0.06   0.14     0.02   0.02  -0.05
  70   1     0.02   0.02  -0.02    -0.01   0.00  -0.00    -0.03   0.04  -0.01
  71   1     0.00   0.04  -0.03    -0.01   0.01   0.00    -0.03   0.10  -0.02
                     22                     23                     24
                        a                      a                      a 
 Frequencies --   177.8207               192.6999               200.7638
 Red. masses --    12.6638                13.0600                12.4582
 Frc consts  --     0.0000                 0.0000                 0.0000
 IR Inten    --     2.2213                 1.5088                 2.3167
 Raman Activ --     0.0000                 0.0000                 0.0000
 Depolar     --     0.0000                 0.0000                 0.0000
 Atom AN      X      Y      Z        X      Y      Z        X      Y      Z
   1   6    -0.00  -0.04   0.06    -0.04   0.11   0.02     0.06  -0.08  -0.08
   2   6    -0.02   0.07  -0.06    -0.12  -0.10   0.03     0.15   0.02   0.03
   3   6    -0.13   0.14  -0.18    -0.04  -0.18   0.01     0.17   0.04   0.15
   4   6     0.03   0.11   0.08    -0.07  -0.09  -0.11    -0.02  -0.03  -0.09
   5   6    -0.06   0.06   0.12     0.16   0.06  -0.12    -0.09  -0.08  -0.11
   6   6     0.05  -0.03   0.05     0.25   0.09  -0.19    -0.20  -0.01  -0.03
   7   6     0.12  -0.06  -0.11     0.10   0.09  -0.02    -0.18   0.04   0.06
   8   6     0.13  -0.04  -0.15    -0.00   0.09   0.02    -0.09   0.02   0.02
   9  16    -0.11   0.12   0.05    -0.03   0.09   0.07    -0.15  -0.16  -0.04
  10   6     0.14  -0.06  -0.14    -0.09   0.05  -0.02     0.04   0.05  -0.07
  11  16     0.17  -0.23   0.10    -0.02   0.09  -0.14     0.12   0.07  -0.02
  12   6    -0.07  -0.05   0.23    -0.12   0.04   0.02     0.05   0.12   0.04
  13   6     0.05  -0.02   0.14     0.06   0.10   0.11    -0.01   0.13   0.10
  14   6    -0.12   0.29  -0.16     0.08   0.14   0.12    -0.13   0.18  -0.03
  15   6    -0.04   0.08  -0.03     0.15   0.06   0.04    -0.09   0.08   0.02
  16   6     0.00  -0.08   0.07    -0.00  -0.10  -0.09    -0.08  -0.02   0.07
  17   6    -0.07   0.00   0.14    -0.22   0.02   0.08     0.16   0.16  -0.08
  18   6     0.07  -0.02  -0.09    -0.14   0.01   0.01     0.12   0.10  -0.14
  19  15     0.10  -0.10  -0.11     0.02  -0.14   0.07    -0.00   0.05  -0.04
  20   8    -0.10  -0.18  -0.07     0.13  -0.47   0.20     0.14  -0.37   0.13
  21   6     0.06   0.03   0.01    -0.02  -0.01  -0.01     0.00  -0.01  -0.02
  22   6     0.05   0.08   0.00    -0.03   0.04  -0.03     0.01  -0.10   0.02
  23   6     0.04   0.07  -0.01    -0.04   0.08  -0.05     0.02  -0.14   0.05
  24   6     0.02   0.02  -0.00    -0.02   0.04  -0.03     0.02  -0.09   0.04
  25   7     0.01  -0.02  -0.01    -0.01  -0.02   0.02    -0.00   0.05  -0.02
  26   6    -0.00  -0.01  -0.02     0.00  -0.03   0.03    -0.01   0.05  -0.03
  27   6    -0.04  -0.00  -0.02     0.03  -0.04   0.02    -0.05   0.06  -0.03
  28   6    -0.05  -0.02  -0.01     0.04  -0.01  -0.00    -0.07   0.03  -0.00
  29   6    -0.04  -0.05   0.02     0.03   0.02  -0.03    -0.05  -0.01   0.05
  30   6    -0.02  -0.05   0.01     0.01   0.02  -0.01    -0.02  -0.01   0.03
  31   6     0.00  -0.01  -0.02     0.00  -0.02   0.03    -0.01   0.03  -0.02
  32   6    -0.00  -0.00  -0.01    -0.00  -0.02   0.03    -0.00   0.03  -0.02
  33   6    -0.04   0.04  -0.00    -0.01  -0.01  -0.01     0.02   0.01   0.01
  34   6    -0.08   0.02   0.03    -0.00  -0.01  -0.03     0.04   0.01   0.02
  35   6    -0.09  -0.01   0.05     0.01  -0.02   0.00     0.03   0.04  -0.01
  36   6    -0.05  -0.04   0.02     0.01  -0.02   0.03     0.01   0.06  -0.03
  37   6    -0.00  -0.02  -0.00    -0.00  -0.02   0.03    -0.01   0.05  -0.03
  38   6     0.03   0.03  -0.01    -0.03   0.07  -0.04     0.05  -0.18   0.06
  39   6     0.04   0.02   0.01    -0.03   0.05  -0.04     0.04  -0.14   0.03
  40   1     0.04  -0.04   0.08    -0.05   0.07   0.02    -0.00  -0.02  -0.12
  41   1    -0.06  -0.05   0.01     0.02   0.04  -0.01     0.06   0.02   0.00
  42   1     0.02   0.03  -0.01     0.01   0.03  -0.00    -0.04  -0.09   0.02
  43   1    -0.02   0.00  -0.00    -0.05  -0.03   0.01     0.08   0.02  -0.01
  44   1     0.03   0.04  -0.02    -0.06  -0.04   0.02     0.03  -0.00   0.01
  45   1    -0.08   0.11  -0.07     0.01  -0.07   0.00     0.09  -0.05   0.05
  46   1    -0.04  -0.01  -0.12    -0.01  -0.04   0.03     0.05   0.05   0.10
  47   1     0.06   0.04   0.00    -0.04  -0.06  -0.01    -0.06   0.00  -0.01
  48   1     0.02   0.03   0.07    -0.06  -0.00  -0.08     0.02  -0.03  -0.05
  49   1     0.02  -0.02   0.03     0.10   0.03  -0.09    -0.08   0.01  -0.02
  50   1     0.09  -0.01   0.01     0.03   0.07   0.04     0.03   0.05   0.02
  51   1     0.02  -0.03   0.08     0.04  -0.01   0.05    -0.01   0.04   0.06
  52   1    -0.05   0.08  -0.17     0.02   0.04   0.03    -0.05   0.05  -0.06
  53   1    -0.07   0.20  -0.00     0.02   0.04   0.04    -0.05   0.10   0.01
  54   1     0.04   0.03   0.00     0.07   0.02   0.01     0.00   0.03   0.01
  55   1    -0.05  -0.01  -0.01     0.07   0.01   0.00    -0.04   0.01   0.01
  56   1    -0.08  -0.04  -0.01    -0.06  -0.04  -0.04    -0.09  -0.02  -0.02
  57   1     0.03  -0.10   0.07     0.03  -0.08  -0.06     0.00  -0.07   0.06
  58   1     0.06   0.03   0.02    -0.02  -0.01  -0.02     0.02   0.05   0.02
  59   1    -0.04   0.02   0.06    -0.09   0.01   0.04     0.06   0.06  -0.03
  60   1     0.01   0.03  -0.00    -0.01   0.01  -0.01    -0.00  -0.03   0.00
  61   1     0.02   0.02  -0.01    -0.01   0.03  -0.01     0.01  -0.04   0.02
  62   1    -0.01   0.01  -0.01     0.01  -0.02   0.01    -0.02   0.02  -0.01
  63   1    -0.02  -0.01  -0.00     0.02  -0.00  -0.00    -0.03   0.01  -0.00
  64   1    -0.01  -0.02   0.01     0.01   0.01  -0.02    -0.01  -0.01   0.03
  65   1    -0.00  -0.02   0.00    -0.00   0.01  -0.01     0.00  -0.02   0.02
  66   1    -0.01   0.03  -0.00    -0.00  -0.00  -0.01     0.01  -0.00   0.01
  67   1    -0.03   0.01   0.01    -0.00   0.00  -0.02     0.02  -0.00   0.02
  68   1    -0.03  -0.01   0.02     0.00  -0.00  -0.00     0.01   0.01  -0.00
  69   1    -0.02  -0.02   0.00     0.00  -0.00   0.01     0.00   0.02  -0.01
  70   1     0.01   0.01  -0.00    -0.01   0.02  -0.01     0.02  -0.06   0.02
  71   1     0.01   0.00   0.01    -0.01   0.02  -0.01     0.01  -0.05   0.01
                     25                     26                     27
                        a                      a                      a 
 Frequencies --   220.5844               233.6029               237.5997
 Red. masses --    12.2740                 2.8963                 2.9668
 Frc consts  --     0.0000                 0.0000                 0.0000
 IR Inten    --     0.3141                 0.2429                 1.0358
 Raman Activ --     0.0000                 0.0000                 0.0000
 Depolar     --     0.0000                 0.0000                 0.0000
 Atom AN      X      Y      Z        X      Y      Z        X      Y      Z
   1   6     0.03  -0.07  -0.04     0.01  -0.01   0.03    -0.02  -0.02   0.00
   2   6     0.10   0.05   0.01    -0.09   0.05  -0.21     0.01   0.03   0.01
   3   6     0.07   0.08   0.03     0.06  -0.01   0.15    -0.00   0.04   0.00
   4   6    -0.01  -0.03  -0.01     0.01   0.04   0.03    -0.03   0.02  -0.03
   5   6    -0.12  -0.08   0.02     0.01  -0.03  -0.07    -0.01   0.02  -0.04
   6   6    -0.19  -0.06   0.07    -0.01  -0.02  -0.05    -0.00   0.02  -0.05
   7   6    -0.08  -0.03   0.04    -0.05  -0.01   0.01    -0.02   0.02  -0.01
   8   6    -0.03  -0.02  -0.01    -0.06  -0.01   0.02    -0.02   0.01  -0.01
   9  16    -0.04  -0.14  -0.07    -0.02  -0.07  -0.06    -0.03   0.02  -0.03
  10   6    -0.05  -0.01  -0.02    -0.04  -0.00   0.02    -0.01   0.01   0.01
  11  16    -0.15   0.04  -0.18     0.02   0.01  -0.02     0.07  -0.01   0.07
  12   6    -0.18  -0.03  -0.05     0.01   0.01  -0.01     0.02   0.01   0.07
  13   6    -0.01   0.02  -0.00    -0.00   0.01  -0.00     0.01  -0.00  -0.03
  14   6     0.13   0.07   0.12    -0.01  -0.01  -0.00    -0.05   0.07  -0.13
  15   6     0.17   0.05   0.05    -0.01  -0.01   0.00     0.04  -0.21   0.11
  16   6     0.00  -0.09  -0.11    -0.00   0.00   0.00     0.01   0.06  -0.01
  17   6    -0.26  -0.07   0.05    -0.01   0.01   0.00    -0.02   0.03   0.07
  18   6    -0.13  -0.02   0.03    -0.02   0.01   0.01    -0.02   0.02   0.01
  19  15     0.05   0.01   0.00     0.00   0.01   0.01    -0.02  -0.00  -0.00
  20   8     0.12   0.09  -0.01     0.11  -0.03   0.04    -0.00  -0.13   0.04
  21   6     0.09   0.07   0.09     0.00   0.03   0.01    -0.00   0.01  -0.01
  22   6     0.11   0.13   0.06     0.00   0.02   0.02     0.00   0.00  -0.01
  23   6     0.12   0.11   0.06     0.01   0.00   0.04     0.01  -0.01  -0.01
  24   6     0.13   0.05   0.08     0.02  -0.00   0.05     0.02  -0.01  -0.01
  25   7     0.12  -0.03  -0.00     0.01  -0.01   0.02     0.02  -0.00  -0.00
  26   6     0.07   0.00  -0.07    -0.00   0.00  -0.02     0.02   0.00  -0.00
  27   6    -0.03   0.03  -0.06    -0.01   0.01  -0.03    -0.00   0.01   0.01
  28   6    -0.10  -0.06  -0.02    -0.01  -0.00  -0.01    -0.02  -0.01   0.01
  29   6    -0.06  -0.15   0.04     0.01  -0.02   0.03    -0.02  -0.02  -0.00
  30   6     0.01  -0.15  -0.04     0.00  -0.01  -0.00     0.00  -0.03  -0.01
  31   6     0.08  -0.01  -0.11    -0.00   0.01  -0.03     0.03  -0.00  -0.01
  32   6     0.09   0.02  -0.10     0.00   0.01  -0.04     0.02   0.01  -0.01
  33   6    -0.00   0.13   0.02     0.00   0.01   0.00     0.01   0.03   0.01
  34   6    -0.12   0.07   0.13    -0.00  -0.01   0.03    -0.01   0.02   0.01
  35   6    -0.16   0.01   0.07    -0.01   0.00  -0.00    -0.01   0.01   0.01
  36   6    -0.08  -0.07  -0.07    -0.01   0.00  -0.03     0.00  -0.01  -0.00
  37   6     0.09  -0.02  -0.08     0.00   0.00  -0.02     0.02  -0.00  -0.01
  38   6     0.11   0.09   0.09     0.02   0.00   0.04     0.01  -0.02   0.00
  39   6     0.12   0.08   0.10     0.02   0.01   0.02     0.01  -0.01  -0.00
  40   1    -0.00  -0.03  -0.09     0.22  -0.11   0.48    -0.00  -0.01  -0.02
  41   1     0.03   0.02   0.02    -0.31  -0.33  -0.17    -0.00  -0.00   0.01
  42   1    -0.03  -0.08   0.02     0.13   0.41  -0.21    -0.02  -0.02   0.01
  43   1     0.05   0.01  -0.00    -0.05   0.10  -0.09     0.01   0.01   0.00
  44   1     0.04   0.02   0.01    -0.04  -0.05  -0.13     0.01   0.01   0.00
  45   1     0.03   0.02   0.01     0.03  -0.12   0.09     0.01   0.01  -0.00
  46   1     0.02   0.03   0.01     0.06   0.07   0.13    -0.00   0.01   0.00
  47   1    -0.02  -0.00   0.00    -0.01   0.05  -0.00    -0.02   0.01  -0.00
  48   1     0.03  -0.03  -0.01     0.01   0.01   0.03    -0.01   0.00  -0.02
  49   1    -0.08  -0.01   0.03    -0.00  -0.00  -0.02     0.00   0.01  -0.02
  50   1    -0.03   0.03   0.01    -0.00   0.00  -0.00     0.02  -0.03  -0.02
  51   1     0.03  -0.03  -0.03    -0.00   0.01   0.00    -0.01   0.01  -0.01
  52   1     0.04   0.02   0.05    -0.00  -0.00   0.00    -0.07   0.01  -0.14
  53   1     0.05   0.00   0.03    -0.00  -0.00  -0.00    -0.00   0.13  -0.01
  54   1     0.07   0.02   0.01    -0.00  -0.00   0.00     0.03  -0.06   0.13
  55   1     0.08   0.01   0.00    -0.00  -0.00   0.00     0.01  -0.15   0.00
  56   1    -0.02  -0.03  -0.02     0.00   0.00   0.00     0.39   0.08   0.31
  57   1     0.02  -0.04  -0.09    -0.00   0.01   0.00    -0.15   0.44  -0.28
  58   1    -0.04  -0.04  -0.02    -0.00  -0.00   0.00    -0.24  -0.40  -0.06
  59   1    -0.10  -0.04   0.03    -0.00   0.00   0.00    -0.01   0.02   0.03
  60   1     0.04   0.05   0.02    -0.00   0.01   0.00     0.00   0.00  -0.00
  61   1     0.03   0.03   0.02     0.00   0.00   0.02     0.00  -0.00  -0.00
  62   1    -0.02   0.04  -0.01    -0.00   0.00  -0.01    -0.00   0.01   0.01
  63   1    -0.05  -0.01  -0.00    -0.00  -0.00  -0.00    -0.01  -0.00   0.00
  64   1    -0.02  -0.06   0.03     0.00  -0.01   0.02    -0.01  -0.01  -0.00
  65   1     0.01  -0.07  -0.01     0.00  -0.01   0.00     0.00  -0.01  -0.01
  66   1     0.01   0.08   0.02     0.00   0.00   0.00     0.00   0.01   0.00
  67   1    -0.04   0.03   0.07     0.00  -0.00   0.02    -0.00   0.01   0.01
  68   1    -0.07  -0.01   0.03    -0.01  -0.00   0.00    -0.01   0.00   0.00
  69   1    -0.04  -0.05  -0.04    -0.01  -0.00  -0.01    -0.00  -0.01  -0.00
  70   1     0.03   0.03   0.02     0.01   0.00   0.01     0.00  -0.01   0.00
  71   1     0.04   0.02   0.03     0.01   0.01   0.00     0.00  -0.00  -0.00
                     28                     29                     30
                        a                      a                      a 
 Frequencies --   241.2013               244.6259               256.6678
 Red. masses --    12.2334                12.5268                10.2092
 Frc consts  --     0.0000                 0.0000                 0.0000
 IR Inten    --     0.9836                 1.1772                 0.0323
 Raman Activ --     0.0000                 0.0000                 0.0000
 Depolar     --     0.0000                 0.0000                 0.0000
 Atom AN      X      Y      Z        X      Y      Z        X      Y      Z
   1   6    -0.02  -0.01   0.01    -0.02   0.08   0.02    -0.20  -0.24   0.03
   2   6     0.00   0.01   0.02    -0.07  -0.10   0.05     0.05   0.33   0.02
   3   6    -0.03   0.03  -0.03    -0.07  -0.11  -0.03     0.01   0.38  -0.01
   4   6    -0.00   0.02   0.01    -0.00   0.07  -0.05    -0.16   0.02  -0.09
   5   6    -0.01   0.00  -0.00     0.11   0.10  -0.10    -0.10  -0.00  -0.10
   6   6     0.04  -0.02  -0.04     0.07   0.03  -0.06     0.04   0.04  -0.21
   7   6     0.04  -0.02  -0.04    -0.13  -0.02   0.03     0.10   0.08  -0.10
   8   6     0.04  -0.02  -0.06    -0.22  -0.02   0.07     0.07   0.04  -0.02
   9  16    -0.04   0.00  -0.02    -0.01   0.19  -0.15     0.03  -0.11  -0.06
  10   6     0.03  -0.02  -0.06    -0.22  -0.04   0.09    -0.02   0.02   0.07
  11  16    -0.03  -0.07  -0.02     0.17  -0.14   0.06     0.00   0.03   0.12
  12   6    -0.04  -0.03   0.01     0.16  -0.00   0.02     0.05  -0.02   0.02
  13   6     0.00  -0.03   0.01     0.09  -0.03   0.04     0.02  -0.05  -0.05
  14   6     0.01   0.03  -0.01    -0.12  -0.22  -0.14     0.01  -0.20  -0.04
  15   6     0.02  -0.01   0.01    -0.18  -0.12  -0.13    -0.04  -0.08  -0.11
  16   6     0.00  -0.01  -0.01     0.11   0.12   0.11     0.12   0.06   0.02
  17   6    -0.03  -0.02  -0.00     0.01   0.05   0.04    -0.08  -0.03   0.11
  18   6     0.01  -0.01  -0.04    -0.16   0.00   0.05    -0.07  -0.01   0.10
  19  15     0.12  -0.00  -0.08    -0.08  -0.02   0.01     0.04  -0.02   0.06
  20   8     0.42   0.10  -0.04     0.11  -0.06   0.05     0.14  -0.14   0.11
  21   6     0.01   0.05   0.01    -0.01   0.02   0.01     0.03  -0.04   0.06
  22   6    -0.10   0.05   0.12    -0.02   0.05   0.01     0.04   0.00   0.03
  23   6    -0.07   0.04   0.23     0.01   0.05   0.08     0.02   0.05  -0.04
  24   6    -0.05  -0.00   0.25     0.09   0.02   0.10    -0.02   0.04  -0.05
  25   7    -0.10  -0.06   0.16     0.10  -0.03   0.06    -0.03   0.01  -0.04
  26   6    -0.17  -0.01  -0.05     0.06   0.01  -0.05    -0.01  -0.01   0.02
  27   6    -0.03  -0.04  -0.17    -0.01   0.04  -0.08     0.01  -0.03   0.03
  28   6     0.14   0.04  -0.03    -0.05  -0.04  -0.03     0.02  -0.01   0.01
  29   6     0.16   0.07   0.14    -0.01  -0.12   0.05     0.01   0.03  -0.04
  30   6    -0.03   0.16   0.04     0.03  -0.10  -0.03    -0.00   0.02  -0.00
  31   6    -0.21   0.04  -0.11     0.06   0.01  -0.11    -0.00  -0.02   0.04
  32   6    -0.19   0.00  -0.11     0.07   0.03  -0.11    -0.00  -0.02   0.05
  33   6    -0.05  -0.18  -0.03     0.02   0.09   0.01    -0.01  -0.02  -0.00
  34   6     0.09  -0.20   0.06    -0.04   0.04   0.12    -0.01  -0.00  -0.04
  35   6     0.06  -0.06  -0.10    -0.08   0.01   0.02     0.00  -0.01   0.01
  36   6    -0.05   0.07  -0.13    -0.03  -0.02  -0.09     0.00  -0.02   0.04
  37   6    -0.14   0.01  -0.03     0.08  -0.01  -0.07    -0.01  -0.01   0.03
  38   6     0.03   0.04   0.15     0.09   0.05   0.09    -0.04   0.04  -0.03
  39   6     0.02   0.07   0.02     0.07   0.05   0.03    -0.02   0.01   0.04
  40   1    -0.02   0.00  -0.05    -0.06   0.07  -0.03     0.04  -0.17  -0.07
  41   1     0.02   0.03   0.02     0.06   0.07   0.02    -0.14  -0.09   0.04
  42   1    -0.02  -0.05   0.02     0.00  -0.02   0.02    -0.14  -0.10   0.04
  43   1     0.00  -0.01   0.01    -0.03  -0.05   0.03     0.05   0.09  -0.00
  44   1     0.01   0.01   0.01    -0.03  -0.02   0.03     0.07   0.11  -0.01
  45   1    -0.01   0.03  -0.02    -0.03  -0.02  -0.01     0.03   0.12  -0.02
  46   1    -0.01  -0.01  -0.03    -0.04  -0.04  -0.01     0.02   0.11  -0.02
  47   1     0.01   0.01  -0.00     0.02   0.03  -0.02    -0.12  -0.03   0.01
  48   1     0.00   0.01   0.01    -0.03   0.05   0.01    -0.02  -0.04  -0.12
  49   1     0.02  -0.01  -0.01     0.05   0.00  -0.02     0.01   0.02  -0.08
  50   1     0.00  -0.01   0.00     0.08   0.01  -0.00     0.00  -0.02  -0.02
  51   1     0.01  -0.02   0.00    -0.01   0.01   0.08    -0.01   0.00  -0.01
  52   1     0.00   0.01  -0.02    -0.04  -0.06  -0.02     0.01  -0.06   0.05
  53   1     0.00   0.02   0.00    -0.06  -0.08  -0.04     0.00  -0.11  -0.03
  54   1     0.01  -0.00   0.01    -0.09  -0.04  -0.04    -0.05  -0.03  -0.05
  55   1     0.01  -0.01   0.00    -0.08  -0.02  -0.02    -0.02   0.01  -0.02
  56   1     0.03   0.00   0.02     0.04   0.04  -0.03     0.02   0.02  -0.05
  57   1    -0.01   0.03  -0.03     0.00   0.02   0.16     0.02  -0.01   0.09
  58   1    -0.02  -0.04  -0.01     0.13   0.11   0.03     0.09   0.08   0.01
  59   1    -0.02  -0.01   0.00     0.01   0.05   0.01    -0.03  -0.01   0.04
  60   1    -0.06   0.01   0.02    -0.01   0.02  -0.00     0.02  -0.00   0.01
  61   1    -0.03   0.02   0.07    -0.01   0.02   0.04     0.01   0.02  -0.02
  62   1    -0.00  -0.05  -0.09    -0.01   0.03  -0.03     0.01  -0.01   0.01
  63   1     0.07   0.00  -0.01    -0.03  -0.01  -0.01     0.01  -0.00   0.01
  64   1     0.08   0.02   0.09    -0.00  -0.05   0.04    -0.00   0.02  -0.02
  65   1    -0.02   0.09   0.04     0.01  -0.05  -0.01    -0.00   0.01  -0.00
  66   1    -0.02  -0.09   0.00     0.02   0.05   0.01    -0.01  -0.01  -0.01
  67   1     0.05  -0.09   0.06    -0.01   0.01   0.07    -0.01   0.01  -0.03
  68   1     0.04  -0.01  -0.04    -0.04  -0.00   0.01     0.00  -0.00   0.00
  69   1    -0.01   0.05  -0.04    -0.02  -0.03  -0.05     0.00  -0.00   0.02
  70   1     0.04   0.02   0.05     0.03   0.02   0.03    -0.02   0.01  -0.01
  71   1     0.01   0.03  -0.00     0.03   0.01  -0.01    -0.01  -0.00   0.02
                     31                     32                     33
                        a                      a                      a 
 Frequencies --   272.1786               277.9223               290.9301
 Red. masses --    10.2670                12.7191                10.8531
 Frc consts  --     0.0000                 0.0000                 0.0000
 IR Inten    --     2.2383                 0.5958                 0.4060
 Raman Activ --     0.0000                 0.0000                 0.0000
 Depolar     --     0.0000                 0.0000                 0.0000
 Atom AN      X      Y      Z        X      Y      Z        X      Y      Z
   1   6    -0.01  -0.01   0.00     0.05   0.06  -0.01     0.10  -0.01  -0.06
   2   6    -0.00   0.02   0.00    -0.01  -0.08   0.00     0.08  -0.03  -0.05
   3   6    -0.00   0.02  -0.00    -0.02  -0.07  -0.00     0.13  -0.07   0.08
   4   6    -0.01  -0.00  -0.00     0.05   0.05   0.03    -0.09  -0.21  -0.11
   5   6     0.00   0.00   0.00    -0.03  -0.03  -0.03    -0.03   0.03   0.13
   6   6     0.02   0.01  -0.01    -0.07  -0.07   0.01    -0.12   0.09   0.18
   7   6     0.01   0.01  -0.01    -0.04  -0.07  -0.01     0.05   0.08   0.03
   8   6     0.02   0.00  -0.00    -0.09  -0.03  -0.06     0.17   0.09  -0.06
   9  16     0.01  -0.00   0.02    -0.10  -0.02  -0.16    -0.00   0.13   0.22
  10   6     0.02   0.00   0.00    -0.09  -0.04  -0.07     0.12   0.04  -0.14
  11  16     0.00   0.01   0.02    -0.06  -0.11  -0.13    -0.20   0.02  -0.07
  12   6    -0.00  -0.01   0.01    -0.01   0.02  -0.05    -0.10  -0.02  -0.02
  13   6    -0.01  -0.01  -0.02     0.09   0.05   0.12     0.17   0.04   0.21
  14   6     0.01   0.00   0.01    -0.08   0.00  -0.05    -0.09  -0.14  -0.07
  15   6     0.01   0.01   0.01    -0.05  -0.05  -0.03    -0.04  -0.17  -0.16
  16   6    -0.01  -0.01  -0.01     0.03   0.04   0.04     0.23   0.10   0.04
  17   6     0.01  -0.01   0.01    -0.02   0.05  -0.10    -0.17  -0.01   0.01
  18   6     0.02  -0.00   0.01    -0.07   0.03  -0.08    -0.01   0.02  -0.07
  19  15    -0.01  -0.00  -0.00     0.11   0.03   0.04     0.02   0.02  -0.05
  20   8    -0.01  -0.01  -0.00     0.33   0.14   0.04    -0.11   0.02  -0.06
  21   6    -0.02   0.01  -0.03     0.12  -0.00   0.25     0.01  -0.03  -0.04
  22   6    -0.03  -0.02  -0.00     0.20   0.02   0.16    -0.02  -0.01  -0.02
  23   6    -0.02  -0.01   0.02     0.13   0.07  -0.08    -0.02   0.01   0.01
  24   6    -0.01  -0.01   0.02    -0.06   0.08  -0.14    -0.00   0.00   0.01
  25   7     0.00  -0.01   0.03    -0.10   0.07  -0.22     0.00  -0.01   0.04
  26   6     0.08  -0.11   0.29    -0.02  -0.04   0.06    -0.01  -0.01   0.01
  27   6     0.06  -0.08   0.20     0.04  -0.08   0.14    -0.01  -0.00  -0.01
  28   6    -0.06   0.09  -0.26     0.04   0.00   0.02     0.01   0.01  -0.01
  29   6    -0.02   0.05  -0.11    -0.01   0.09  -0.14     0.01   0.01   0.02
  30   6     0.09  -0.10   0.30     0.00   0.03   0.06    -0.01   0.01   0.01
  31   6     0.05  -0.07   0.19    -0.00  -0.06   0.18    -0.02   0.00  -0.01
  32   6    -0.07   0.09  -0.22    -0.02  -0.05   0.13    -0.02   0.00  -0.02
  33   6    -0.08   0.10  -0.30    -0.04  -0.04  -0.03    -0.01  -0.01  -0.01
  34   6     0.05  -0.06   0.14    -0.03   0.00  -0.13     0.00  -0.02   0.01
  35   6     0.08  -0.08   0.24     0.03  -0.05   0.07     0.00  -0.01  -0.00
  36   6    -0.06   0.10  -0.23     0.01  -0.03   0.11    -0.01   0.01  -0.02
  37   6    -0.09   0.12  -0.29    -0.05  -0.00   0.00    -0.01   0.00   0.00
  38   6     0.00  -0.01   0.01    -0.14   0.05  -0.02     0.02   0.01  -0.02
  39   6    -0.01   0.02  -0.03    -0.07   0.01   0.21     0.02  -0.01  -0.04
  40   1     0.00  -0.01  -0.00    -0.01   0.05   0.01     0.03  -0.00   0.01
  41   1    -0.01  -0.00   0.00     0.04   0.03  -0.01     0.02  -0.02  -0.04
  42   1    -0.01  -0.00   0.00     0.03   0.02  -0.01     0.04   0.03  -0.03
  43   1     0.00   0.00  -0.00    -0.01  -0.03   0.01     0.03   0.02  -0.03
  44   1     0.00   0.01  -0.00    -0.01  -0.02   0.01     0.00  -0.03  -0.03
  45   1     0.00   0.01  -0.00    -0.02  -0.02   0.00     0.09  -0.08   0.03
  46   1     0.00   0.00  -0.00    -0.02  -0.03  -0.00     0.04   0.02   0.08
  47   1    -0.00  -0.00   0.00     0.05   0.06  -0.02    -0.10  -0.16   0.03
  48   1    -0.00  -0.00  -0.01     0.02   0.03   0.07    -0.03  -0.09  -0.17
  49   1     0.01   0.00  -0.00    -0.02  -0.02   0.01    -0.06   0.02   0.07
  50   1    -0.01  -0.01  -0.00     0.10   0.08   0.03     0.18   0.13   0.05
  51   1    -0.00   0.00  -0.02     0.02  -0.02   0.12     0.05  -0.06   0.22
  52   1     0.01   0.00   0.00    -0.04  -0.00  -0.04    -0.05  -0.04  -0.02
  53   1     0.01  -0.00  -0.00    -0.05   0.03   0.00    -0.07  -0.04  -0.00
  54   1     0.00   0.00  -0.00    -0.02  -0.02   0.01    -0.04  -0.05  -0.03
  55   1     0.00   0.00   0.00    -0.03  -0.03  -0.01    -0.03  -0.05  -0.04
  56   1    -0.01  -0.00  -0.00     0.05   0.02   0.03     0.14   0.04   0.00
  57   1     0.00  -0.01  -0.01    -0.01   0.05   0.03     0.01   0.08   0.10
  58   1    -0.01  -0.00  -0.00     0.02  -0.01   0.00     0.12   0.04  -0.00
  59   1     0.00  -0.00   0.00     0.00   0.03  -0.03    -0.07  -0.01   0.02
  60   1    -0.01  -0.01  -0.00     0.10  -0.00   0.06    -0.02  -0.00  -0.01
  61   1    -0.01   0.00   0.00     0.07   0.02  -0.06    -0.01   0.01   0.00
  62   1     0.02  -0.03   0.07     0.02  -0.03   0.05    -0.00  -0.00  -0.01
  63   1    -0.05   0.06  -0.19     0.02  -0.00  -0.00     0.00   0.00  -0.01
  64   1    -0.02   0.04  -0.10    -0.02   0.05  -0.10     0.01   0.00   0.01
  65   1     0.04  -0.04   0.12    -0.00   0.02   0.01    -0.00   0.01   0.00
  66   1    -0.03   0.04  -0.12    -0.02  -0.02  -0.03    -0.00  -0.01  -0.00
  67   1     0.04  -0.05   0.12    -0.02   0.01  -0.08     0.00  -0.01   0.01
  68   1     0.06  -0.06   0.18     0.02  -0.02   0.04     0.00  -0.00  -0.00
  69   1    -0.02   0.04  -0.08     0.01  -0.00   0.05    -0.00   0.01  -0.01
  70   1     0.01  -0.01   0.01    -0.08   0.00  -0.01     0.02   0.01  -0.00
  71   1    -0.00   0.01  -0.01    -0.05  -0.01   0.10     0.01  -0.00  -0.02
                     34                     35                     36
                        a                      a                      a 
 Frequencies --   298.8199               307.8912               315.6242
 Red. masses --    11.4431                14.5411                12.9834
 Frc consts  --     0.0000                 0.0000                 0.0000
 IR Inten    --     1.0589                 0.8170                 1.4495
 Raman Activ --     0.0000                 0.0000                 0.0000
 Depolar     --     0.0000                 0.0000                 0.0000
 Atom AN      X      Y      Z        X      Y      Z        X      Y      Z
   1   6     0.10   0.09  -0.02     0.03   0.05   0.01     0.16   0.06  -0.06
   2   6     0.00  -0.13  -0.00    -0.01  -0.04   0.00     0.07  -0.13  -0.04
   3   6    -0.06  -0.08   0.00    -0.08   0.01  -0.04     0.03  -0.10   0.06
   4   6     0.08   0.17   0.08     0.15   0.14   0.23    -0.06   0.01  -0.08
   5   6    -0.07  -0.03  -0.06    -0.12  -0.18   0.02    -0.11   0.05   0.00
   6   6    -0.07  -0.00  -0.07    -0.02  -0.08  -0.07    -0.22   0.06   0.09
   7   6    -0.01   0.03  -0.06     0.14   0.01  -0.07    -0.01   0.06  -0.06
   8   6     0.12   0.02  -0.12     0.12   0.02  -0.05     0.07   0.06  -0.12
   9  16    -0.15  -0.09  -0.04     0.04  -0.37  -0.04    -0.16   0.14  -0.06
  10   6     0.17   0.06  -0.06    -0.01   0.07   0.06     0.05   0.06  -0.04
  11  16    -0.04   0.07   0.14    -0.13   0.28  -0.04     0.11   0.02   0.29
  12   6    -0.10  -0.04   0.11     0.04   0.15  -0.10     0.11   0.05   0.12
  13   6    -0.05  -0.07  -0.11     0.08   0.18   0.10    -0.13  -0.03  -0.20
  14   6     0.06  -0.17  -0.00    -0.08  -0.03  -0.01     0.07  -0.07   0.01
  15   6     0.06  -0.09  -0.12    -0.04  -0.07  -0.05     0.03   0.01  -0.00
  16   6     0.18   0.03  -0.05     0.06   0.05   0.03    -0.00  -0.01  -0.04
  17   6    -0.24  -0.04   0.21     0.03   0.09  -0.03     0.01   0.08   0.14
  18   6     0.05   0.03   0.03    -0.06   0.06   0.08    -0.05   0.04   0.03
  19  15     0.01   0.14  -0.02     0.01  -0.05   0.05     0.02  -0.05  -0.10
  20   8     0.06  -0.13   0.07    -0.11  -0.12   0.04    -0.00  -0.12  -0.05
  21   6    -0.04   0.28  -0.06     0.01  -0.21  -0.04     0.09  -0.27   0.07
  22   6     0.04   0.07  -0.02    -0.07  -0.07  -0.04     0.02  -0.09   0.06
  23   6     0.06  -0.19  -0.01    -0.07   0.12   0.00    -0.01   0.20   0.01
  24   6     0.00  -0.19  -0.02     0.00   0.11   0.03    -0.01   0.22   0.00
  25   7    -0.01   0.01  -0.04     0.03  -0.03   0.10    -0.02   0.03  -0.02
  26   6     0.02   0.04  -0.02    -0.01  -0.02   0.02    -0.05  -0.04   0.02
  27   6    -0.03   0.05   0.03     0.01  -0.02  -0.04     0.02  -0.06  -0.01
  28   6    -0.06   0.03   0.02     0.03  -0.01  -0.02     0.07  -0.03  -0.00
  29   6    -0.06   0.03   0.01     0.04  -0.02   0.02     0.05   0.01  -0.03
  30   6    -0.01   0.01   0.03    -0.00   0.00  -0.02    -0.01   0.02  -0.01
  31   6     0.01   0.04   0.01    -0.02  -0.01  -0.03    -0.04  -0.05   0.03
  32   6    -0.01   0.04   0.02    -0.00  -0.01  -0.04    -0.01  -0.05   0.01
  33   6     0.01   0.00   0.02    -0.01  -0.00  -0.02    -0.03  -0.04  -0.03
  34   6     0.05   0.03  -0.02    -0.02  -0.03   0.04    -0.06  -0.05  -0.02
  35   6     0.05   0.04  -0.02    -0.03  -0.02  -0.00    -0.05  -0.05   0.02
  36   6     0.03   0.05   0.02    -0.03  -0.02  -0.04    -0.04  -0.05   0.00
  37   6    -0.03   0.03   0.01     0.02  -0.02   0.00     0.00  -0.03  -0.00
  38   6    -0.02  -0.24   0.03     0.05   0.15  -0.04     0.04   0.22  -0.03
  39   6    -0.06   0.07  -0.00     0.06  -0.07  -0.07     0.09  -0.11   0.03
  40   1    -0.02   0.08   0.01    -0.01   0.03   0.00     0.01   0.06   0.01
  41   1     0.07   0.05  -0.01     0.03   0.03   0.01     0.08   0.02  -0.04
  42   1     0.06   0.03  -0.01     0.02   0.00   0.01     0.08   0.03  -0.03
  43   1    -0.01  -0.05   0.01    -0.01  -0.03   0.01     0.02  -0.03  -0.02
  44   1    -0.01  -0.03   0.01     0.01   0.01   0.02     0.00  -0.05  -0.01
  45   1    -0.05  -0.02   0.01    -0.09   0.06  -0.01     0.03  -0.08   0.03
  46   1    -0.04  -0.03   0.00    -0.02  -0.04  -0.07    -0.01   0.00   0.08
  47   1     0.09   0.15  -0.04     0.14   0.18  -0.02    -0.03  -0.01  -0.01
  48   1     0.04   0.07   0.16     0.08   0.05   0.25    -0.02  -0.00  -0.04
  49   1    -0.04   0.01  -0.03    -0.03  -0.01  -0.04    -0.10   0.02   0.05
  50   1    -0.06  -0.07  -0.03     0.08   0.13   0.03    -0.15  -0.13  -0.05
  51   1    -0.01  -0.00  -0.09     0.01   0.03   0.12    -0.06   0.08  -0.20
  52   1     0.02  -0.05   0.07    -0.05  -0.01   0.02     0.03  -0.02   0.06
  53   1     0.03  -0.11  -0.02    -0.04  -0.02  -0.00     0.06  -0.07  -0.02
  54   1    -0.01  -0.03  -0.05    -0.02  -0.02  -0.00    -0.00   0.00  -0.02
  55   1     0.02   0.00  -0.03    -0.02  -0.03  -0.01     0.02   0.02   0.00
  56   1     0.07   0.01  -0.04     0.06   0.02   0.01    -0.02  -0.01  -0.02
  57   1     0.03   0.02   0.04    -0.01   0.04   0.04     0.01  -0.02  -0.02
  58   1     0.09   0.04  -0.02     0.04   0.01   0.00    -0.01   0.01  -0.01
  59   1    -0.11  -0.02   0.09     0.02   0.01  -0.02    -0.01   0.06   0.05
  60   1     0.02   0.03  -0.01    -0.04  -0.03  -0.01    -0.00  -0.05   0.02
  61   1     0.03  -0.08  -0.01    -0.04   0.06   0.01    -0.01   0.08   0.00
  62   1    -0.01   0.02   0.02    -0.00  -0.01  -0.03     0.01  -0.03  -0.02
  63   1    -0.02   0.01   0.01     0.01  -0.00  -0.01     0.03  -0.01  -0.00
  64   1    -0.02   0.00   0.00     0.02  -0.01   0.02     0.02   0.01  -0.02
  65   1     0.00  -0.01   0.01    -0.00   0.01  -0.01    -0.01   0.03  -0.00
  66   1     0.00  -0.01   0.01    -0.00   0.01  -0.01    -0.01  -0.00  -0.01
  67   1     0.02   0.00  -0.01    -0.00  -0.01   0.03    -0.02  -0.01  -0.01
[...]
  54   1    -0.00   0.00  -0.00     0.00  -0.00  -0.00    -0.00  -0.00   0.00
  55   1    -0.00  -0.00  -0.00     0.00  -0.00   0.00     0.00   0.00   0.00
  56   1     0.00  -0.00  -0.00     0.00  -0.00   0.00     0.00  -0.00   0.00
  57   1     0.00   0.00   0.00    -0.00  -0.00  -0.00     0.00   0.00   0.00
  58   1    -0.00   0.00  -0.00     0.00  -0.00   0.00    -0.00   0.00  -0.00
  59   1     0.00  -0.00   0.00    -0.00  -0.00  -0.00     0.00   0.00   0.00
  60   1    -0.03   0.02   0.08    -0.26   0.23   0.81     0.04  -0.03  -0.11
  61   1    -0.04  -0.02  -0.04    -0.23  -0.11  -0.22     0.01   0.01   0.01
  62   1    -0.03  -0.01   0.01     0.02   0.01  -0.00     0.38   0.13  -0.07
  63   1     0.02   0.06   0.02    -0.00  -0.01  -0.00    -0.04  -0.15  -0.04
  64   1     0.00  -0.00  -0.00     0.02  -0.02  -0.01     0.31  -0.31  -0.21
  65   1     0.04   0.01  -0.01    -0.04  -0.01   0.01    -0.47  -0.15   0.08
  66   1    -0.23   0.06   0.09     0.09  -0.02  -0.04     0.28  -0.07  -0.11
  67   1     0.40   0.38   0.02    -0.10  -0.09  -0.01    -0.12  -0.11  -0.01
  68   1     0.10  -0.59  -0.24    -0.01   0.03   0.01     0.03  -0.19  -0.08
  69   1    -0.33   0.09   0.12    -0.07   0.02   0.02    -0.23   0.06   0.08
  70   1     0.00  -0.00  -0.00     0.01  -0.01  -0.02     0.01  -0.01  -0.03
  71   1     0.01   0.00   0.01     0.00  -0.00  -0.00    -0.03  -0.01  -0.02
                    199                    200                    201
                        a                      a                      a 
 Frequencies --  3083.9497              3089.0331              3091.1180
 Red. masses --     1.8000                 1.8645                 1.8627
 Frc consts  --     0.0000                 0.0000                 0.0000
 IR Inten    --    16.8527                26.5291                94.9827
 Raman Activ --     0.0000                 0.0000                 0.0000
 Depolar     --     0.0000                 0.0000                 0.0000
 Atom AN      X      Y      Z        X      Y      Z        X      Y      Z
   1   6     0.00  -0.00   0.00    -0.00   0.00   0.00     0.00  -0.00   0.00
   2   6     0.00  -0.00   0.00    -0.00   0.00  -0.00     0.00  -0.00   0.00
   3   6     0.00  -0.00   0.00    -0.00   0.00   0.00     0.00  -0.00   0.00
   4   6    -0.00  -0.00   0.00     0.00   0.00  -0.00     0.00   0.00   0.00
   5   6     0.00  -0.00   0.00     0.00   0.00  -0.00     0.00   0.00   0.00
   6   6    -0.00  -0.00  -0.00    -0.00  -0.00  -0.00    -0.00  -0.00  -0.00
   7   6    -0.00  -0.00  -0.00    -0.00   0.00   0.00    -0.00  -0.00  -0.00
   8   6     0.00   0.00   0.00    -0.00   0.00  -0.00     0.00   0.00   0.00
   9  16     0.00   0.00  -0.00     0.00   0.00   0.00    -0.00   0.00  -0.00
  10   6     0.00   0.00   0.00     0.00   0.00   0.00     0.00   0.00   0.00
  11  16     0.00   0.00  -0.00     0.00   0.00   0.00    -0.00   0.00  -0.00
  12   6     0.00   0.00  -0.00    -0.00   0.00   0.00     0.00   0.00   0.00
  13   6     0.00   0.00  -0.00    -0.00  -0.00   0.00     0.00   0.00  -0.00
  14   6    -0.00   0.00   0.00    -0.00  -0.00  -0.00    -0.00   0.00   0.00
  15   6    -0.00   0.00  -0.00     0.00  -0.00   0.00    -0.00   0.00  -0.00
  16   6    -0.00  -0.00   0.00     0.00   0.00  -0.00    -0.00  -0.00   0.00
  17   6     0.00  -0.00   0.00     0.00  -0.00   0.00     0.00  -0.00   0.00
  18   6    -0.00  -0.00  -0.00    -0.00  -0.00  -0.00    -0.00  -0.00  -0.00
  19  15    -0.00  -0.00  -0.00    -0.00  -0.00  -0.00    -0.00  -0.00  -0.00
  20   8     0.00   0.00   0.00     0.00   0.00   0.00     0.00   0.00   0.00
  21   6     0.00  -0.00  -0.00    -0.00   0.00   0.00     0.00   0.00  -0.00
  22   6     0.01  -0.01  -0.03     0.00  -0.00  -0.01     0.01  -0.01  -0.02
  23   6    -0.00  -0.00  -0.00    -0.01  -0.01  -0.01    -0.02  -0.01  -0.02
  24   6    -0.00   0.00   0.00     0.00   0.00  -0.00    -0.00  -0.00   0.00
  25   7     0.00  -0.00  -0.00    -0.00   0.00   0.00     0.00   0.00   0.00
  26   6    -0.00   0.00   0.00     0.00  -0.01  -0.00    -0.00   0.00   0.00
  27   6    -0.07  -0.03   0.01     0.16   0.06  -0.03    -0.07  -0.02   0.01
  28   6     0.00   0.02   0.00     0.03   0.10   0.03    -0.02  -0.06  -0.02
  29   6    -0.06   0.06   0.04     0.02  -0.02  -0.01     0.01  -0.01  -0.01
  30   6     0.05   0.02  -0.01     0.13   0.04  -0.02    -0.06  -0.02   0.01
  31   6     0.00   0.00  -0.00    -0.00   0.00   0.00    -0.00  -0.00  -0.00
  32   6     0.00  -0.00  -0.00     0.00   0.00   0.00     0.00   0.00   0.00
  33   6     0.11  -0.03  -0.04    -0.05   0.01   0.02    -0.14   0.04   0.06
  34   6    -0.08  -0.08  -0.01    -0.04  -0.03  -0.00    -0.04  -0.04  -0.00
  35   6     0.01  -0.07  -0.03    -0.01   0.03   0.01    -0.01   0.09   0.04
  36   6    -0.12   0.03   0.04    -0.07   0.02   0.03    -0.14   0.04   0.05
  37   6    -0.01  -0.00   0.00    -0.00  -0.00  -0.00    -0.00  -0.01  -0.00
  38   6    -0.00   0.00   0.01     0.01  -0.01  -0.04    -0.00   0.00   0.02
  39   6     0.00   0.00   0.00    -0.01  -0.01  -0.01     0.00   0.00   0.00
  40   1    -0.00  -0.00   0.00     0.00   0.00  -0.00    -0.00  -0.00   0.00
  41   1    -0.00   0.00  -0.00     0.00  -0.00   0.00    -0.00   0.00  -0.00
  42   1     0.00   0.00   0.00    -0.00  -0.00  -0.00     0.00   0.00   0.00
  43   1    -0.00  -0.00  -0.00    -0.00   0.00   0.00    -0.00  -0.00  -0.00
  44   1    -0.00   0.00  -0.00     0.00  -0.00   0.00    -0.00   0.00  -0.00
  45   1     0.00   0.00   0.00    -0.00  -0.00  -0.00    -0.00  -0.00  -0.00
  46   1    -0.00   0.00  -0.00     0.00  -0.00   0.00    -0.00   0.00  -0.00
  47   1    -0.00  -0.00  -0.00     0.00   0.00   0.00    -0.00  -0.00  -0.00
  48   1     0.00   0.00  -0.00    -0.00  -0.00   0.00     0.00   0.00  -0.00
  49   1     0.00   0.00   0.00     0.00   0.00   0.00     0.00   0.00   0.00
  50   1     0.00  -0.00   0.00    -0.00   0.00  -0.00     0.00  -0.00   0.00
  51   1    -0.00  -0.00  -0.00     0.00   0.00   0.00    -0.00  -0.00  -0.00
  52   1     0.00  -0.00   0.00    -0.00   0.00  -0.00     0.00  -0.00   0.00
  53   1    -0.00   0.00  -0.00     0.00  -0.00   0.00    -0.00   0.00  -0.00
  54   1     0.00  -0.00   0.00     0.00   0.00  -0.00    -0.00  -0.00   0.00
  55   1     0.00  -0.00   0.00    -0.00   0.00  -0.00     0.00  -0.00   0.00
  56   1     0.00  -0.00  -0.00    -0.00   0.01   0.00     0.00  -0.00  -0.00
  57   1     0.00   0.00   0.00    -0.01  -0.01  -0.00     0.01   0.00   0.00
  58   1    -0.00   0.00  -0.00     0.00  -0.00   0.00    -0.00   0.00  -0.00
  59   1    -0.00   0.00  -0.00    -0.00   0.00  -0.00    -0.00   0.00  -0.00
  60   1    -0.04   0.03   0.11    -0.01   0.01   0.05    -0.02   0.02   0.07
  61   1     0.00   0.00   0.00     0.04   0.02   0.04     0.08   0.04   0.08
  62   1     0.26   0.09  -0.05    -0.55  -0.19   0.11     0.24   0.08  -0.05
  63   1    -0.02  -0.06  -0.02    -0.10  -0.35  -0.09     0.06   0.19   0.05
  64   1     0.21  -0.21  -0.14    -0.06   0.06   0.04    -0.05   0.05   0.03
  65   1    -0.20  -0.06   0.03    -0.46  -0.14   0.08     0.20   0.06  -0.03
  66   1    -0.41   0.10   0.16     0.18  -0.05  -0.07     0.50  -0.12  -0.19
  67   1     0.31   0.29   0.02     0.12   0.12   0.01     0.14   0.13   0.01
  68   1    -0.04   0.25   0.10     0.02  -0.12  -0.05     0.05  -0.30  -0.12
  69   1     0.42  -0.12  -0.15     0.24  -0.07  -0.09     0.49  -0.14  -0.18
  70   1     0.01  -0.01  -0.03    -0.04   0.03   0.13     0.02  -0.02  -0.06
  71   1    -0.02  -0.01  -0.02     0.04   0.02   0.04    -0.02  -0.01  -0.01
                    202                    203                    204
                        a                      a                      a 
 Frequencies --  3093.9950              3094.9168              3096.3707
 Red. masses --     1.8585                 1.8668                 1.9106
 Frc consts  --     0.0000                 0.0000                 0.0000
 IR Inten    --    12.2756                 6.1640               100.6260
 Raman Activ --     0.0000                 0.0000                 0.0000
 Depolar     --     0.0000                 0.0000                 0.0000
 Atom AN      X      Y      Z        X      Y      Z        X      Y      Z
   1   6     0.00  -0.00   0.00     0.00  -0.00  -0.00     0.00   0.00   0.00
   2   6     0.00  -0.00   0.00     0.00  -0.00   0.00     0.00  -0.00   0.00
   3   6     0.00  -0.00   0.00     0.00  -0.00   0.00     0.00   0.00   0.00
   4   6    -0.00  -0.00   0.00    -0.00  -0.00  -0.00     0.00   0.00  -0.00
   5   6    -0.00  -0.00   0.00     0.00  -0.00  -0.00     0.00   0.00   0.00
   6   6     0.00   0.00   0.00     0.00   0.00   0.00    -0.00  -0.00  -0.00
   7   6    -0.00  -0.00  -0.00    -0.00  -0.00   0.00    -0.00   0.00  -0.00
   8   6     0.00  -0.00   0.00     0.00   0.00   0.00     0.00   0.00   0.00
   9  16    -0.00  -0.00  -0.00     0.00  -0.00  -0.00    -0.00  -0.00  -0.00
  10   6     0.00   0.00  -0.00     0.00   0.00   0.00     0.00   0.00   0.00
  11  16    -0.00  -0.00  -0.00     0.00  -0.00  -0.00    -0.00  -0.00  -0.00
  12   6    -0.00   0.00   0.00    -0.00   0.00  -0.00     0.00   0.00   0.00
  13   6    -0.00  -0.00   0.00    -0.00   0.00  -0.00     0.00  -0.00   0.00
  14   6     0.00  -0.00   0.00    -0.00   0.00  -0.00    -0.00   0.00   0.00
  15   6     0.00  -0.00   0.00    -0.00   0.00  -0.00     0.00   0.00   0.00
  16   6     0.00  -0.00   0.00     0.00   0.00  -0.00     0.00   0.00   0.00
  17   6    -0.00   0.00  -0.00     0.00   0.00   0.00    -0.00  -0.00  -0.00
  18   6    -0.00  -0.00  -0.00    -0.00  -0.00  -0.00    -0.00  -0.00  -0.00
  19  15     0.00   0.00   0.00    -0.00  -0.00  -0.00     0.00   0.00   0.00
  20   8    -0.00  -0.00  -0.00     0.00   0.00   0.00    -0.00  -0.00  -0.00
  21   6     0.00  -0.00  -0.00     0.00   0.00   0.00    -0.00  -0.00  -0.00
  22   6    -0.01   0.00   0.02     0.03  -0.03  -0.09    -0.00   0.00   0.01
  23   6     0.02   0.01   0.02    -0.17  -0.08  -0.17     0.02   0.01   0.02
  24   6    -0.01  -0.00   0.00    -0.01  -0.00   0.00     0.00   0.00  -0.00
  25   7     0.00   0.00  -0.00     0.00  -0.00   0.00    -0.00   0.00   0.00
  26   6     0.00  -0.00  -0.00     0.00  -0.00  -0.00     0.00  -0.00  -0.00
  27   6     0.03   0.01  -0.01     0.01   0.00  -0.00     0.06   0.02  -0.01
  28   6     0.00   0.00   0.00     0.00   0.01   0.00     0.03   0.10   0.03
  29   6     0.01  -0.02  -0.01    -0.01   0.01   0.01    -0.10   0.10   0.07
  30   6     0.03   0.01  -0.00    -0.01  -0.00   0.00    -0.13  -0.04   0.02
  31   6     0.00   0.00   0.00    -0.00  -0.00  -0.00    -0.00  -0.00  -0.00
  32   6     0.00   0.00   0.00    -0.00  -0.00  -0.00     0.00  -0.00  -0.00
  33   6    -0.00   0.00   0.00     0.03  -0.01  -0.01     0.04  -0.01  -0.02
  34   6    -0.01  -0.01  -0.00     0.02   0.02   0.00     0.06   0.06   0.00
  35   6     0.00  -0.01  -0.00    -0.00   0.01   0.00    -0.01   0.08   0.03
  36   6    -0.00   0.00   0.00     0.02  -0.01  -0.01    -0.06   0.02   0.02
  37   6     0.00   0.00   0.00     0.00   0.00  -0.00    -0.00  -0.00  -0.00
  38   6    -0.07   0.06   0.24    -0.01   0.01   0.04    -0.01   0.00   0.02
  39   6     0.05   0.03   0.05     0.01   0.00   0.01     0.00   0.00   0.00
  40   1    -0.00  -0.00   0.00    -0.00  -0.00   0.00    -0.00  -0.00   0.00
  41   1    -0.00   0.00  -0.00    -0.00   0.00  -0.00    -0.00   0.00  -0.00
  42   1     0.00   0.00   0.00     0.00   0.00   0.00    -0.00  -0.00  -0.00
  43   1    -0.00  -0.00  -0.00     0.00   0.00   0.00    -0.00  -0.00  -0.00
  44   1    -0.00   0.00  -0.00    -0.00   0.00  -0.00    -0.00   0.00  -0.00
  45   1     0.00  -0.00   0.00     0.00   0.00   0.00    -0.00  -0.00  -0.00
  46   1    -0.00   0.00  -0.00    -0.00   0.00  -0.00    -0.00   0.00  -0.00
  47   1    -0.00  -0.00  -0.00     0.00   0.00   0.00    -0.00  -0.00  -0.00
  48   1     0.00   0.00  -0.00     0.00   0.00  -0.00    -0.00  -0.00   0.00
  49   1    -0.00  -0.00  -0.00    -0.00  -0.00  -0.00     0.00   0.00   0.00
  50   1    -0.00   0.00  -0.00     0.00  -0.00   0.00    -0.00   0.00  -0.00
  51   1     0.00   0.00   0.00     0.00   0.00  -0.00    -0.00  -0.00  -0.00
  52   1    -0.00   0.00   0.00     0.00  -0.00   0.00     0.00  -0.00  -0.00
  53   1    -0.00   0.00  -0.00     0.00  -0.00   0.00    -0.00   0.00  -0.00
  54   1     0.00  -0.00   0.00     0.00  -0.00  -0.00     0.00  -0.00   0.00
  55   1    -0.00   0.00  -0.00     0.00  -0.00   0.00    -0.00   0.00  -0.00
  56   1    -0.00   0.00   0.00     0.00  -0.00  -0.00    -0.00   0.00   0.00
  57   1    -0.00  -0.00   0.00    -0.00  -0.00  -0.00    -0.01  -0.00  -0.00
  58   1    -0.00   0.00  -0.00     0.00  -0.00   0.00     0.00  -0.00   0.00
  59   1     0.00  -0.00   0.00    -0.00   0.00  -0.00     0.00   0.00   0.00
  60   1     0.02  -0.02  -0.05    -0.09   0.08   0.29     0.01  -0.01  -0.03
  61   1    -0.08  -0.03  -0.07     0.60   0.28   0.57    -0.08  -0.04  -0.07
  62   1    -0.12  -0.04   0.02    -0.03  -0.01   0.01    -0.22  -0.07   0.04
  63   1    -0.00  -0.01  -0.00    -0.01  -0.04  -0.01    -0.09  -0.32  -0.09
  64   1    -0.05   0.05   0.03     0.03  -0.03  -0.02     0.34  -0.34  -0.22
  65   1    -0.10  -0.03   0.02     0.03   0.01  -0.00     0.44   0.13  -0.07
  66   1     0.01  -0.00  -0.00    -0.10   0.03   0.04    -0.13   0.03   0.05
  67   1     0.03   0.02   0.00    -0.08  -0.08  -0.01    -0.21  -0.19  -0.01
  68   1    -0.00   0.02   0.01     0.01  -0.03  -0.01     0.05  -0.27  -0.11
  69   1     0.00  -0.00  -0.00    -0.09   0.03   0.03     0.20  -0.06  -0.07
  70   1     0.25  -0.23  -0.84     0.04  -0.03  -0.12     0.02  -0.02  -0.06
  71   1    -0.16  -0.08  -0.16    -0.02  -0.01  -0.01    -0.01  -0.01  -0.01
                    205                    206                    207
                        a                      a                      a 
 Frequencies --  3098.1924              3127.9734              3128.5444
 Red. masses --     1.9118                 1.8589                 1.8595
 Frc consts  --     0.0000                 0.0000                 0.0000
 IR Inten    --    52.1315                 9.7114                 6.6068
 Raman Activ --     0.0000                 0.0000                 0.0000
 Depolar     --     0.0000                 0.0000                 0.0000
 Atom AN      X      Y      Z        X      Y      Z        X      Y      Z
   1   6     0.00  -0.00   0.00    -0.00  -0.00  -0.00    -0.00  -0.00  -0.00
   2   6     0.00  -0.00   0.00    -0.00   0.00  -0.00    -0.00  -0.00  -0.00
   3   6     0.00  -0.00   0.00    -0.00   0.00  -0.00    -0.00  -0.00  -0.00
   4   6    -0.00  -0.00   0.00    -0.00  -0.00  -0.00    -0.00  -0.00  -0.00
   5   6     0.00   0.00   0.00     0.00  -0.00   0.00     0.01  -0.01   0.01
   6   6     0.00   0.00   0.00    -0.01  -0.05  -0.02    -0.06  -0.24  -0.11
   7   6    -0.00  -0.00  -0.00    -0.00   0.00  -0.00    -0.01   0.00  -0.01
   8   6     0.00   0.00   0.00     0.00   0.00   0.00     0.00   0.00   0.00
   9  16    -0.00  -0.00  -0.00     0.00   0.00   0.00     0.00   0.00   0.00
  10   6     0.00   0.00   0.00    -0.00   0.00  -0.00     0.00  -0.00   0.00
  11  16     0.00  -0.00  -0.00    -0.00   0.00  -0.00     0.00   0.00   0.00
  12   6     0.00   0.00   0.00     0.00  -0.01   0.00    -0.00   0.00  -0.00
  13   6     0.00   0.00  -0.00     0.00   0.00   0.00    -0.00   0.00  -0.00
  14   6    -0.00   0.00  -0.00     0.00   0.00   0.00    -0.00   0.00  -0.00
  15   6    -0.00   0.00   0.00     0.00   0.00   0.00    -0.00  -0.00  -0.00
  16   6     0.00   0.00  -0.00     0.00   0.00   0.00    -0.00  -0.00  -0.00
  17   6    -0.00   0.00  -0.00     0.16  -0.04   0.22    -0.03   0.01  -0.05
  18   6    -0.00  -0.00  -0.00     0.00   0.01   0.00    -0.00  -0.00  -0.00
  19  15     0.00   0.00  -0.00     0.00  -0.00   0.00    -0.00  -0.00  -0.00
  20   8    -0.00   0.00   0.00    -0.00   0.00  -0.00    -0.00   0.00   0.00
  21   6     0.00   0.00   0.00    -0.00  -0.00   0.00     0.00   0.00   0.00
  22   6     0.00  -0.00  -0.00    -0.00   0.00   0.00     0.00   0.00  -0.00
  23   6    -0.01  -0.00  -0.01     0.00   0.00   0.00    -0.00  -0.00  -0.00
  24   6     0.00  -0.00  -0.00     0.00  -0.00  -0.00    -0.00  -0.00   0.00
  25   7    -0.00  -0.00   0.00    -0.00   0.00   0.00     0.00   0.00  -0.00
  26   6     0.00  -0.00  -0.00     0.00  -0.00  -0.00    -0.00   0.00   0.00
  27   6     0.04   0.01  -0.01     0.00   0.00  -0.00    -0.00  -0.00   0.00
  28   6     0.02   0.05   0.01    -0.00  -0.00  -0.00    -0.00  -0.00  -0.00
  29   6    -0.06   0.06   0.04    -0.00   0.00   0.00    -0.00   0.00   0.00
  30   6    -0.09  -0.03   0.01    -0.00  -0.00  -0.00    -0.00  -0.00   0.00
  31   6    -0.00  -0.00  -0.00    -0.00  -0.00   0.00     0.00   0.00   0.00
  32   6    -0.00   0.00   0.00     0.00   0.00   0.00     0.00  -0.00  -0.00
  33   6    -0.11   0.03   0.04    -0.00   0.00   0.00    -0.00   0.00   0.00
  34   6    -0.11  -0.10  -0.01    -0.00  -0.00   0.00    -0.00  -0.00  -0.00
  35   6     0.02  -0.12  -0.05     0.00  -0.00  -0.00     0.00  -0.00  -0.00
  36   6     0.08  -0.02  -0.03     0.00  -0.00  -0.00     0.00  -0.00  -0.00
  37   6     0.00   0.00   0.00     0.00   0.00   0.00    -0.00  -0.00  -0.00
  38   6    -0.00   0.00   0.00    -0.00   0.00   0.00     0.00   0.00   0.00
  39   6     0.00   0.00   0.00     0.00   0.00   0.00     0.00  -0.00  -0.00
  40   1    -0.00  -0.00   0.00     0.00   0.00  -0.00     0.00   0.00  -0.00
  41   1    -0.00   0.00  -0.00     0.00  -0.00   0.00    -0.00   0.00  -0.00
  42   1     0.00   0.00   0.00    -0.00   0.00   0.00     0.00   0.00   0.00
  43   1     0.00   0.00   0.00     0.00   0.00   0.00     0.00   0.00   0.00
  44   1    -0.00   0.00  -0.00     0.00  -0.00   0.00    -0.00  -0.00  -0.00
  45   1     0.00  -0.00   0.00     0.00   0.00   0.00     0.00   0.00   0.01
  46   1    -0.00   0.00  -0.00     0.00  -0.00   0.00     0.00  -0.00   0.00
  47   1     0.00  -0.00   0.00     0.00   0.00   0.00     0.00   0.00   0.00
  48   1     0.00   0.00  -0.00     0.00   0.00  -0.00     0.00   0.01  -0.00
  49   1    -0.00  -0.00  -0.00     0.05   0.18   0.08     0.22   0.84   0.37
  50   1     0.00  -0.00   0.00    -0.00   0.00  -0.01     0.00  -0.00   0.00
  51   1    -0.00  -0.00  -0.00    -0.00  -0.00  -0.00     0.00   0.00   0.00
  52   1     0.00  -0.00   0.00     0.00  -0.00  -0.00     0.00  -0.00   0.00
  53   1     0.00   0.00   0.00    -0.00   0.00  -0.00     0.00  -0.00   0.00
  54   1     0.00  -0.00  -0.00     0.00  -0.00   0.00    -0.00   0.00  -0.00
  55   1    -0.00   0.00  -0.00    -0.00   0.00  -0.01     0.00  -0.00   0.00
  56   1     0.00   0.00   0.00     0.00  -0.00  -0.00    -0.00   0.00   0.00
  57   1    -0.01  -0.00  -0.00    -0.00  -0.00  -0.00     0.00   0.00   0.00
  58   1     0.00  -0.00   0.00    -0.00   0.00  -0.00    -0.00  -0.00   0.00
  59   1     0.00  -0.00   0.00    -0.55   0.14  -0.75     0.12  -0.03   0.16
  60   1    -0.00   0.00   0.01     0.00  -0.00  -0.00     0.00  -0.00   0.00
  61   1     0.03   0.02   0.03    -0.00  -0.00  -0.00     0.00   0.00   0.00
  62   1    -0.12  -0.04   0.02    -0.00  -0.00   0.00     0.00   0.00  -0.00
  63   1    -0.05  -0.17  -0.05     0.00   0.00   0.00     0.00   0.00   0.00
  64   1     0.19  -0.19  -0.13     0.00  -0.00  -0.00     0.00  -0.00  -0.00
  65   1     0.29   0.09  -0.05     0.00   0.00  -0.00     0.00   0.00  -0.00
  66   1     0.38  -0.10  -0.15     0.00  -0.00  -0.00     0.00  -0.00  -0.00
  67   1     0.35   0.33   0.02     0.00   0.00   0.00     0.00   0.00   0.00
  68   1    -0.07   0.39   0.16    -0.00   0.00   0.00    -0.00   0.00   0.00
  69   1    -0.27   0.08   0.10    -0.00   0.00   0.00    -0.00   0.00   0.00
  70   1     0.00  -0.00  -0.01     0.00  -0.00  -0.00     0.00  -0.00  -0.00
  71   1    -0.00  -0.00  -0.00    -0.00  -0.00  -0.00    -0.00  -0.00   0.00
