 Entering Gaussian System
 *********************************************
 Gaussian 98:
 frequency output generated by the xtb code
 *********************************************
                         Standard orientation:
 --------------------------------------------------------------------
  Center     Atomic     Atomic              Coordinates (Angstroms)
  Number     Number      Type              X           Y           Z
 --------------------------------------------------------------------
    1          6             0        8.974637    2.245006   -2.344571
    2          6             0        9.041629    0.717896   -2.351529
    3          7             0        9.305436    0.190885   -1.040331
    4          6             0       10.549755   -0.013914   -0.493077
    5          6             0       11.806501    0.158490   -1.056639
    6          6             0       12.910352   -0.139088   -0.280939
    7          6             0       12.778410   -0.596248    1.028605
    8          6             0       11.532906   -0.766328    1.598417
    9          6             0       10.407481   -0.473849    0.838914
   10          6             0        8.998850   -0.524510    1.099658
   11          6             0        8.236416   -0.885449    2.203456
   12          6             0        6.863333   -0.818583    2.114555
   13          6             0        6.222951   -0.386521    0.943363
   14          6             0        4.758571   -0.328754    0.884586
   15          6             0        4.104188    0.729247    0.250924
   16          6             0        2.730467    0.781843    0.183290
   17          6             0        1.939109   -0.230888    0.741330
   18          6             0        0.500049   -0.245974    0.686628
   19          6             0       -0.294243    0.686775    0.112335
   20          6             0       -1.722451    0.663266    0.041300
   21          6             0       -2.393745    1.713234   -0.619731
   22          6             0       -3.754398    1.751069   -0.724040
   23          6             0       -4.562721    0.718537   -0.181351
   24          6             0       -5.964320    0.700529   -0.327550
   25          6             0       -6.697497   -0.567449   -0.188086
   26          6             0       -7.817358   -0.601743    0.704873
   27          6             0       -8.915449   -1.456235    0.490436
   28          6             0      -10.000775   -1.439058    1.338264
   29          6             0      -10.032484   -0.578566    2.426748
   30          6             0       -8.965544    0.281977    2.647877
   31          6             0       -7.880563    0.279597    1.801151
   32          6             0       -6.281572   -1.693293   -0.966982
   33          6             0       -5.554990   -1.511078   -2.160496
   34          6             0       -5.121935   -2.588446   -2.899164
   35          6             0       -5.380501   -3.884416   -2.473007
   36          6             0       -6.074474   -4.086969   -1.287778
   37          6             0       -6.520257   -3.016487   -0.545279
   38          6             0       -6.748031    1.877070   -0.621151
   39          6             0       -7.934627    1.769389   -1.363557
   40          6             0       -8.713130    2.876887   -1.619555
   41          6             0       -8.344725    4.121769   -1.130036
   42          6             0       -7.188837    4.243173   -0.373441
   43          6             0       -6.398893    3.141580   -0.121115
   44          6             0       -3.881666   -0.347292    0.463971
   45          6             0       -2.522246   -0.365570    0.579838
   46          6             0        2.603301   -1.288444    1.379133
   47          6             0        3.976634   -1.335205    1.453246
   48          6             0        6.976089   -0.014997   -0.165421
   49          6             0        8.356803   -0.092326   -0.086048
   50          1             0        9.918140    2.660706   -1.998431
   51          1             0        8.772657    2.617722   -3.345317
   52          1             0        8.185056    2.583165   -1.677495
   53          1             0        9.833252    0.380852   -3.026380
   54          1             0        8.094603    0.302864   -2.708013
   55          1             0       11.928442    0.515915   -2.068381
   56          1             0       13.898625   -0.012509   -0.698474
   57          1             0       13.666585   -0.817338    1.601785
   58          1             0       11.430254   -1.118475    2.613924
   59          1             0        8.714860   -1.211123    3.115014
   60          1             0        6.259677   -1.078244    2.971441
   61          1             0        4.688152    1.533077   -0.174593
   62          1             0        2.263156    1.620963   -0.309054
   63          1             0        0.043188   -1.107055    1.156382
   64          1             0        0.165096    1.548974   -0.354055
   65          1             0       -1.805233    2.503378   -1.066510
   66          1             0       -4.226415    2.548063   -1.279428
   67          1             0       -8.924060   -2.097278   -0.378902
   68          1             0      -10.837895   -2.095546    1.147671
   69          1             0      -10.884201   -0.571784    3.090208
   70          1             0       -8.986084    0.958260    3.490342
   71          1             0       -7.047957    0.941601    1.989111
   72          1             0       -5.361433   -0.506768   -2.508010
   73          1             0       -4.577140   -2.423399   -3.817590
   74          1             0       -5.036428   -4.727541   -3.052961
   75          1             0       -6.259411   -5.092962   -0.938693
   76          1             0       -7.017090   -3.187841    0.398366
   77          1             0       -8.221958    0.804897   -1.756837
   78          1             0       -9.615982    2.773752   -2.204054
   79          1             0       -8.958616    4.987753   -1.327724
   80          1             0       -6.907817    5.205724    0.029654
   81          1             0       -5.525429    3.239901    0.506969
   82          1             0       -4.466212   -1.144286    0.899804
   83          1             0       -2.053468   -1.188491    1.097420
   84          1             0        2.019152   -2.086145    1.817137
   85          1             0        4.458775   -2.173809    1.934432
   86          1             0        6.481647    0.300102   -1.072173
 --------------------------------------------------------------------
     1 basis functions        1 primitive gaussians
     1 alpha electrons        1 beta electrons
 
 Harmonic frequencies (cm**-1), IR intensities (km*mol⁻¹),
 Raman scattering activities (A**4/amu), Raman depolarization ratios,
 reduced masses (AMU), force constants (mDyne/A) and normal coordinates:
                      1                      2                      3
                        a                      a                      a 
 Frequencies --     4.9185                 6.7739                11.1659
 Red. masses --    10.3478                11.0112                10.9321
 Frc consts  --     0.0000                 0.0000                 0.0000
 IR Inten    --     0.4052                 0.8473                 0.1678
 Raman Activ --     0.0000                 0.0000                 0.0000
 Depolar     --     0.0000                 0.0000                 0.0000
 Atom AN      X      Y      Z        X      Y      Z        X      Y      Z
   1   6    -0.00  -0.31  -0.27    -0.04   0.02  -0.00    -0.01  -0.06  -0.09
   2   6    -0.01  -0.31  -0.10    -0.08   0.02  -0.03     0.05  -0.06  -0.04
   3   7    -0.01  -0.17  -0.04    -0.05  -0.01  -0.05     0.04  -0.01  -0.01
   4   6    -0.00  -0.10  -0.01    -0.04  -0.04  -0.09     0.03   0.05   0.02
   5   6    -0.01  -0.17  -0.04    -0.05  -0.06  -0.12     0.04   0.08   0.04
   6   6    -0.00  -0.08  -0.01    -0.03  -0.10  -0.16     0.03   0.15   0.08
   7   6    -0.00   0.07   0.05    -0.01  -0.12  -0.16     0.02   0.19   0.09
   8   6    -0.00   0.14   0.07     0.01  -0.10  -0.13     0.01   0.16   0.07
   9   6    -0.00   0.06   0.04    -0.01  -0.06  -0.09     0.02   0.09   0.03
  10   6    -0.00   0.09   0.05    -0.00  -0.04  -0.05     0.02   0.05   0.00
  11   6     0.00   0.22   0.09     0.02  -0.04  -0.03     0.01   0.06  -0.00
  12   6     0.00   0.21   0.09     0.02  -0.02   0.01     0.01   0.01  -0.03
  13   6    -0.00   0.08   0.04    -0.00   0.01   0.03     0.02  -0.04  -0.05
  14   6    -0.00   0.07   0.04    -0.00   0.04   0.07     0.02  -0.07  -0.08
  15   6    -0.00   0.01  -0.07    -0.01   0.05   0.10     0.01  -0.10  -0.11
  16   6    -0.00   0.00  -0.07    -0.01   0.07   0.13     0.01  -0.11  -0.12
  17   6    -0.00   0.06   0.03    -0.01   0.07   0.12     0.01  -0.10  -0.09
  18   6    -0.00   0.06   0.04    -0.01   0.07   0.13     0.01  -0.11  -0.08
  19   6    -0.01   0.04   0.01    -0.01   0.08   0.14     0.01  -0.10  -0.06
  20   6    -0.01   0.03   0.01    -0.01   0.07   0.13     0.01  -0.08  -0.03
  21   6    -0.01   0.04   0.03    -0.01   0.07   0.12     0.01  -0.06   0.00
  22   6    -0.01   0.03   0.04    -0.00   0.05   0.10     0.01  -0.04   0.03
  23   6    -0.01   0.01   0.01    -0.00   0.04   0.07     0.00  -0.04   0.02
  24   6    -0.01   0.01   0.01     0.00   0.01   0.03     0.00  -0.01   0.04
  25   6     0.01  -0.01  -0.03     0.02   0.00  -0.01    -0.03   0.01   0.01
  26   6     0.01  -0.05  -0.02    -0.04  -0.02  -0.08    -0.09   0.04  -0.06
  27   6     0.02  -0.06  -0.04    -0.00  -0.05  -0.15    -0.10   0.07  -0.14
  28   6     0.03  -0.10  -0.03    -0.06  -0.07  -0.22    -0.15   0.10  -0.21
  29   6     0.02  -0.13  -0.01    -0.15  -0.06  -0.23    -0.21   0.10  -0.21
  30   6     0.01  -0.12   0.01    -0.19  -0.03  -0.16    -0.19   0.06  -0.13
  31   6     0.01  -0.08   0.01    -0.13  -0.01  -0.09    -0.13   0.03  -0.06
  32   6     0.02   0.02  -0.07     0.10   0.00   0.03    -0.01  -0.01   0.05
  33   6     0.01   0.07  -0.06     0.16   0.00   0.07     0.05  -0.05   0.09
  34   6     0.02   0.10  -0.10     0.24  -0.00   0.12     0.07  -0.08   0.13
  35   6     0.03   0.09  -0.15     0.25  -0.00   0.12     0.02  -0.06   0.15
  36   6     0.04   0.04  -0.15     0.18   0.00   0.09    -0.05  -0.03   0.11
  37   6     0.04   0.01  -0.11     0.11   0.00   0.04    -0.06   0.00   0.07
  38   6    -0.02   0.01   0.05    -0.01   0.00   0.00     0.03   0.02   0.09
  39   6    -0.02   0.02   0.05     0.03  -0.01  -0.05     0.03   0.09   0.08
  40   6    -0.03   0.02   0.09     0.02  -0.02  -0.07     0.06   0.12   0.13
  41   6    -0.04   0.01   0.12    -0.02  -0.02  -0.05     0.09   0.09   0.18
  42   6    -0.03  -0.00   0.12    -0.05  -0.01  -0.00     0.09   0.02   0.19
  43   6    -0.02  -0.00   0.08    -0.05   0.01   0.02     0.06  -0.01   0.14
  44   6     0.00   0.00  -0.01    -0.00   0.05   0.10     0.00  -0.06  -0.01
  45   6     0.00   0.01  -0.01    -0.00   0.07   0.12     0.01  -0.08  -0.04
  46   6    -0.00   0.12   0.14    -0.00   0.05   0.09     0.02  -0.08  -0.06
  47   6    -0.00   0.13   0.14    -0.00   0.04   0.07     0.02  -0.07  -0.06
  48   6    -0.00  -0.05  -0.00    -0.03   0.02   0.02     0.03  -0.05  -0.05
  49   6    -0.00  -0.04   0.00    -0.03  -0.01  -0.02     0.03  -0.01  -0.02
  50   1     0.00  -0.08  -0.09    -0.01  -0.00  -0.01    -0.01  -0.01  -0.02
  51   1    -0.00  -0.12  -0.09    -0.02   0.01   0.00     0.00  -0.03  -0.03
  52   1     0.00  -0.07  -0.09    -0.01   0.01   0.01    -0.01  -0.02  -0.03
  53   1    -0.00  -0.11  -0.02    -0.03   0.00  -0.02     0.02  -0.02  -0.00
  54   1    -0.00  -0.10  -0.01    -0.03   0.01  -0.00     0.02  -0.03  -0.01
  55   1    -0.00  -0.08  -0.02    -0.02  -0.01  -0.03     0.01   0.02   0.01
  56   1    -0.00  -0.04  -0.01    -0.01  -0.03  -0.05     0.01   0.05   0.03
  57   1    -0.00   0.04   0.02     0.00  -0.04  -0.06     0.00   0.07   0.03
  58   1     0.00   0.07   0.03     0.01  -0.03  -0.04     0.00   0.05   0.02
  59   1     0.00   0.09   0.04     0.01  -0.02  -0.02    -0.00   0.03   0.01
  60   1     0.00   0.09   0.03     0.01  -0.01   0.01    -0.00   0.01  -0.01
  61   1    -0.00  -0.01  -0.05    -0.00   0.02   0.03     0.00  -0.03  -0.04
  62   1    -0.00  -0.01  -0.05    -0.00   0.02   0.04     0.00  -0.04  -0.04
  63   1     0.00   0.02   0.02    -0.00   0.02   0.04     0.01  -0.03  -0.02
  64   1    -0.00   0.01  -0.00    -0.00   0.02   0.04     0.00  -0.03  -0.01
  65   1    -0.01   0.01   0.01    -0.00   0.02   0.04     0.00  -0.02   0.00
  66   1    -0.01   0.01   0.02    -0.00   0.01   0.03     0.00  -0.01   0.02
  67   1     0.01  -0.01  -0.02     0.02  -0.02  -0.04    -0.01   0.02  -0.04
  68   1     0.01  -0.03  -0.01    -0.01  -0.03  -0.08    -0.05   0.04  -0.08
  69   1     0.01  -0.05  -0.00    -0.06  -0.02  -0.08    -0.07   0.04  -0.08
  70   1     0.00  -0.04   0.01    -0.08  -0.01  -0.05    -0.07   0.02  -0.04
  71   1    -0.00  -0.02   0.01    -0.05   0.00  -0.01    -0.04   0.00   0.00
  72   1    -0.00   0.03  -0.01     0.05  -0.00   0.02     0.03  -0.02   0.02
  73   1     0.00   0.04  -0.03     0.08  -0.00   0.04     0.04  -0.03   0.05
  74   1     0.01   0.03  -0.05     0.09  -0.00   0.05     0.01  -0.02   0.05
  75   1     0.02   0.01  -0.05     0.05   0.00   0.03    -0.02  -0.00   0.04
  76   1     0.01  -0.01  -0.03     0.02   0.00   0.00    -0.03   0.01   0.01
  77   1    -0.00   0.01   0.01     0.02  -0.00  -0.02     0.00   0.03   0.01
  78   1    -0.01   0.01   0.03     0.01  -0.01  -0.03     0.02   0.05   0.03
  79   1    -0.01   0.00   0.04    -0.01  -0.01  -0.02     0.03   0.03   0.06
  80   1    -0.01  -0.00   0.04    -0.02  -0.00   0.00     0.03  -0.00   0.07
  81   1    -0.01  -0.00   0.02    -0.02   0.00   0.02     0.02  -0.02   0.04
  82   1     0.00  -0.00  -0.01    -0.00   0.01   0.03     0.00  -0.02  -0.00
  83   1     0.00   0.00  -0.01    -0.00   0.02   0.04     0.00  -0.03  -0.02
  84   1    -0.00   0.05   0.06    -0.00   0.01   0.03     0.01  -0.02  -0.01
  85   1    -0.00   0.05   0.07    -0.00   0.01   0.01     0.01  -0.01  -0.01
  86   1    -0.00  -0.04  -0.01    -0.01   0.01   0.01     0.01  -0.03  -0.02
                      4                      5                      6
                        a                      a                      a 
 Frequencies --    16.0718                21.1003                29.5418
 Red. masses --    10.9732                10.9060                10.5010
 Frc consts  --     0.0000                 0.0000                 0.0000
 IR Inten    --     0.0883                 0.6358                 0.0136
 Raman Activ --     0.0000                 0.0000                 0.0000
 Depolar     --     0.0000                 0.0000                 0.0000
 Atom AN      X      Y      Z        X      Y      Z        X      Y      Z
   1   6    -0.20  -0.01  -0.04    -0.16  -0.09  -0.06    -0.21   0.02   0.07
   2   6    -0.14  -0.01  -0.03    -0.03  -0.08  -0.03    -0.12   0.02   0.03
   3   7    -0.08   0.02  -0.03    -0.02  -0.05  -0.02    -0.08   0.01   0.02
   4   6    -0.04   0.06  -0.07    -0.02   0.05   0.01    -0.06   0.01  -0.01
   5   6    -0.07   0.09  -0.12    -0.02   0.14   0.04    -0.08   0.01  -0.04
   6   6    -0.03   0.13  -0.16    -0.02   0.23   0.08    -0.06   0.01  -0.07
   7   6     0.03   0.14  -0.15    -0.02   0.24   0.08    -0.03  -0.00  -0.07
   8   6     0.06   0.11  -0.10    -0.02   0.15   0.05    -0.01  -0.01  -0.04
   9   6     0.02   0.07  -0.06    -0.02   0.05   0.01    -0.03  -0.01  -0.01
  10   6     0.03   0.03  -0.01    -0.03  -0.04  -0.02    -0.03  -0.01   0.02
  11   6     0.08   0.02   0.02    -0.03  -0.07  -0.03    -0.00  -0.01   0.03
  12   6     0.08  -0.01   0.08    -0.03  -0.14  -0.05    -0.01  -0.01   0.07
  13   6     0.02  -0.03   0.10    -0.03  -0.16  -0.06    -0.03  -0.01   0.08
  14   6     0.02  -0.04   0.15    -0.03  -0.17  -0.07    -0.03  -0.00   0.09
  15   6     0.00  -0.05   0.15    -0.02  -0.16  -0.06    -0.02  -0.01   0.07
  16   6     0.00  -0.06   0.17    -0.02  -0.13  -0.03    -0.02  -0.02   0.04
  17   6     0.02  -0.07   0.18    -0.03  -0.11  -0.02    -0.03  -0.01   0.04
  18   6     0.02  -0.08   0.17    -0.03  -0.07   0.02    -0.02  -0.02  -0.01
  19   6     0.02  -0.10   0.14    -0.01  -0.03   0.06    -0.00  -0.08  -0.15
  20   6     0.03  -0.09   0.10    -0.02   0.02   0.09     0.00  -0.07  -0.17
  21   6     0.06  -0.08   0.08     0.01   0.02   0.08     0.02  -0.12  -0.26
  22   6     0.06  -0.07   0.04     0.01   0.05   0.07     0.02  -0.09  -0.24
  23   6     0.03  -0.06   0.01    -0.01   0.07   0.08     0.00  -0.02  -0.13
  24   6     0.04  -0.03  -0.02    -0.01   0.07   0.04    -0.01   0.02  -0.07
  25   6    -0.00  -0.01  -0.03     0.01   0.05   0.03    -0.01   0.02  -0.04
  26   6    -0.00   0.03  -0.03     0.03   0.01   0.03     0.01  -0.00  -0.02
  27   6    -0.04   0.08  -0.04     0.07  -0.06   0.06     0.07  -0.09   0.04
  28   6    -0.04   0.12  -0.03     0.08  -0.11   0.08     0.09  -0.14   0.06
  29   6     0.01   0.11  -0.02     0.05  -0.10   0.07     0.05  -0.09   0.02
  30   6     0.05   0.05  -0.01     0.00  -0.03   0.04    -0.01   0.00  -0.04
  31   6     0.05   0.01  -0.01    -0.01   0.02   0.02    -0.03   0.04  -0.06
  32   6    -0.05  -0.01  -0.06     0.06   0.08   0.01     0.03   0.01  -0.01
  33   6    -0.05  -0.01  -0.05     0.04   0.12   0.01    -0.03   0.01  -0.05
  34   6    -0.11  -0.02  -0.08     0.09   0.15  -0.00     0.03   0.00  -0.01
  35   6    -0.17  -0.01  -0.12     0.16   0.13  -0.01     0.16   0.01   0.07
  36   6    -0.18  -0.01  -0.13     0.18   0.09  -0.00     0.21   0.01   0.11
  37   6    -0.12  -0.01  -0.09     0.13   0.06   0.01     0.15   0.02   0.07
  38   6     0.07  -0.01  -0.04    -0.01   0.05  -0.03     0.02   0.05  -0.01
  39   6     0.09   0.02  -0.07     0.00   0.00  -0.05    -0.08   0.11   0.15
  40   6     0.13   0.04  -0.10     0.00  -0.02  -0.13    -0.05   0.15   0.22
  41   6     0.14   0.03  -0.08    -0.01   0.01  -0.18     0.09   0.14   0.15
  42   6     0.12   0.00  -0.04    -0.03   0.06  -0.16     0.20   0.09  -0.01
  43   6     0.09  -0.02  -0.02    -0.03   0.08  -0.08     0.16   0.04  -0.08
  44   6     0.00  -0.08   0.01    -0.04   0.08   0.12    -0.02   0.01  -0.07
  45   6     0.00  -0.09   0.06    -0.04   0.06   0.12    -0.01  -0.02  -0.08
  46   6     0.03  -0.05   0.19    -0.04  -0.13  -0.04    -0.04   0.01   0.08
  47   6     0.03  -0.04   0.17    -0.04  -0.16  -0.06    -0.04   0.02   0.11
  48   6    -0.03  -0.03   0.06    -0.03  -0.15  -0.06    -0.05  -0.01   0.07
  49   6    -0.03   0.00   0.01    -0.03  -0.09  -0.04    -0.05  -0.00   0.04
  50   1    -0.06   0.01  -0.02    -0.06  -0.00  -0.01    -0.06   0.02   0.02
  51   1    -0.07  -0.01  -0.01    -0.05  -0.04  -0.02    -0.07   0.01   0.02
  52   1    -0.06  -0.01  -0.01    -0.06  -0.04  -0.02    -0.06  -0.01   0.03
  53   1    -0.04   0.00  -0.01     0.00  -0.01  -0.00    -0.03   0.02   0.00
  54   1    -0.04  -0.02   0.00     0.00  -0.05  -0.02    -0.03  -0.01   0.01
  55   1    -0.03   0.02  -0.04    -0.01   0.04   0.01    -0.03   0.01  -0.01
  56   1    -0.01   0.05  -0.06    -0.00   0.09   0.03    -0.02   0.00  -0.03
  57   1     0.02   0.05  -0.05    -0.00   0.09   0.03    -0.00  -0.00  -0.03
  58   1     0.03   0.04  -0.03    -0.01   0.04   0.01     0.00  -0.01  -0.01
  59   1     0.04   0.01   0.00    -0.01  -0.01  -0.01     0.00  -0.01   0.01
  60   1     0.03  -0.00   0.03    -0.01  -0.04  -0.02     0.00  -0.00   0.02
  61   1    -0.00  -0.01   0.04    -0.00  -0.05  -0.02    -0.00  -0.00   0.02
  62   1    -0.00  -0.02   0.05    -0.00  -0.04  -0.01    -0.00  -0.01   0.00
  63   1     0.00  -0.02   0.05    -0.01  -0.02   0.00    -0.01   0.01   0.02
  64   1     0.01  -0.03   0.04     0.00  -0.01   0.02     0.00  -0.04  -0.07
  65   1     0.02  -0.02   0.03     0.01   0.00   0.02     0.01  -0.05  -0.10
  66   1     0.03  -0.02   0.01     0.01   0.01   0.01     0.01  -0.04  -0.09
  67   1    -0.02   0.03  -0.01     0.03  -0.02   0.02     0.03  -0.04   0.02
  68   1    -0.02   0.05  -0.01     0.03  -0.05   0.03     0.04  -0.06   0.03
  69   1     0.00   0.04  -0.00     0.02  -0.04   0.03     0.02  -0.04   0.01
  70   1     0.03   0.01   0.00    -0.01  -0.00   0.01    -0.01   0.01  -0.02
  71   1     0.02  -0.01  -0.00    -0.01   0.02  -0.00    -0.02   0.03  -0.03
  72   1     0.00  -0.00  -0.01    -0.01   0.04   0.00    -0.04   0.00  -0.03
  73   1    -0.03  -0.01  -0.02     0.02   0.05  -0.00    -0.01  -0.00  -0.01
  74   1    -0.06  -0.00  -0.04     0.06   0.05  -0.00     0.06   0.00   0.03
  75   1    -0.07  -0.00  -0.04     0.07   0.02  -0.00     0.09   0.01   0.05
  76   1    -0.04  -0.00  -0.03     0.04   0.01   0.00     0.06   0.01   0.03
  77   1     0.02   0.01  -0.02     0.01  -0.01  -0.00    -0.06   0.03   0.06
  78   1     0.04   0.02  -0.04     0.01  -0.01  -0.04    -0.04   0.06   0.10
  79   1     0.05   0.01  -0.03    -0.00  -0.00  -0.07     0.03   0.05   0.06
  80   1     0.04  -0.00  -0.01    -0.01   0.02  -0.06     0.09   0.02  -0.02
  81   1     0.02  -0.01   0.00    -0.01   0.03  -0.02     0.07   0.00  -0.06
  82   1    -0.01  -0.02  -0.01    -0.02   0.03   0.04    -0.01   0.02   0.00
  83   1    -0.01  -0.03   0.02    -0.02   0.02   0.04    -0.01   0.00  -0.01
  84   1     0.01  -0.01   0.06    -0.01  -0.04  -0.01    -0.01   0.01   0.03
  85   1     0.01  -0.01   0.05    -0.01  -0.05  -0.02    -0.01   0.01   0.04
  86   1    -0.02  -0.02   0.02    -0.01  -0.05  -0.02    -0.02  -0.00   0.02
                      7                      8                      9
                        a                      a                      a 
 Frequencies --    38.1217                46.8602                47.1781
 Red. masses --    10.3930                 9.6313                 9.9636
 Frc consts  --     0.0000                 0.0000                 0.0000
 IR Inten    --     0.1987                 0.5727                 1.7887
 Raman Activ --     0.0000                 0.0000                 0.0000
 Depolar     --     0.0000                 0.0000                 0.0000
 Atom AN      X      Y      Z        X      Y      Z        X      Y      Z
   1   6     0.34   0.08  -0.04     0.48  -0.04  -0.19    -0.27   0.02   0.16
   2   6     0.07   0.07  -0.01     0.02  -0.06  -0.04     0.04   0.03   0.02
   3   7     0.02   0.06  -0.00    -0.02  -0.02  -0.01     0.08  -0.03  -0.01
   4   6     0.02   0.01  -0.01    -0.01   0.02  -0.01     0.07  -0.02  -0.00
   5   6     0.02  -0.06  -0.02    -0.02   0.09  -0.00     0.08   0.01   0.01
   6   6     0.01  -0.11  -0.02    -0.01   0.15   0.01     0.07   0.01   0.02
   7   6    -0.00  -0.09  -0.02     0.00   0.14   0.01     0.07  -0.01   0.01
   8   6    -0.01  -0.02  -0.01     0.01   0.07  -0.01     0.06  -0.04  -0.00
   9   6     0.00   0.03  -0.00    -0.00   0.01  -0.01     0.07  -0.04  -0.01
  10   6     0.00   0.08   0.00    -0.00  -0.05  -0.02     0.07  -0.05  -0.02
  11   6    -0.00   0.11   0.01     0.01  -0.11  -0.03     0.06  -0.04  -0.02
  12   6    -0.00   0.11  -0.00     0.01  -0.13  -0.02     0.06  -0.02  -0.02
  13   6     0.00   0.09  -0.01    -0.00  -0.09   0.00     0.06  -0.03  -0.03
  14   6     0.00   0.04  -0.03    -0.00  -0.06   0.04     0.06  -0.00  -0.02
  15   6    -0.04  -0.00  -0.05     0.01   0.03   0.17     0.07  -0.06  -0.13
  16   6    -0.05  -0.06  -0.05     0.01   0.07   0.21     0.07  -0.03  -0.12
  17   6    -0.01  -0.07  -0.01    -0.01   0.03   0.12     0.05   0.05   0.01
  18   6    -0.01  -0.11   0.02    -0.01   0.05   0.12     0.05   0.07   0.03
  19   6    -0.03  -0.13   0.02     0.01   0.04   0.08     0.04   0.03  -0.02
  20   6    -0.03  -0.11   0.05     0.01   0.03   0.04     0.04   0.03   0.01
  21   6    -0.02  -0.12   0.02     0.02  -0.01  -0.05     0.02   0.00  -0.02
  22   6    -0.02  -0.09   0.04     0.02  -0.03  -0.09     0.02  -0.01   0.00
  23   6    -0.04  -0.05   0.10     0.01   0.00  -0.05     0.03   0.00   0.04
  24   6    -0.04  -0.01   0.10     0.01  -0.00  -0.06     0.02  -0.01   0.06
  25   6    -0.06   0.00   0.08     0.02  -0.01  -0.02     0.04  -0.01   0.10
  26   6    -0.08  -0.03   0.05     0.02   0.01  -0.02     0.01  -0.01   0.05
  27   6    -0.01  -0.12   0.06     0.05  -0.03   0.02     0.07  -0.10   0.07
  28   6    -0.03  -0.17   0.04     0.02   0.01  -0.01    -0.01  -0.05  -0.03
  29   6    -0.12  -0.13   0.00    -0.03   0.09  -0.08    -0.15   0.09  -0.14
  30   6    -0.20  -0.03  -0.01    -0.05   0.13  -0.11    -0.21   0.16  -0.15
  31   6    -0.17   0.02   0.01    -0.02   0.08  -0.08    -0.13   0.11  -0.05
  32   6    -0.05   0.03   0.04     0.01  -0.01  -0.02     0.01   0.00   0.05
  33   6    -0.14   0.09   0.00    -0.07  -0.01  -0.06    -0.16   0.05  -0.04
  34   6    -0.14   0.12  -0.05    -0.11  -0.02  -0.08    -0.26   0.07  -0.14
  35   6    -0.05   0.10  -0.06    -0.06  -0.01  -0.05    -0.18   0.06  -0.13
  36   6     0.05   0.05  -0.01     0.03  -0.01   0.00     0.02   0.02  -0.02
  37   6     0.05   0.01   0.04     0.07  -0.01   0.02     0.11  -0.01   0.07
  38   6     0.02   0.02   0.04    -0.01  -0.01  -0.03    -0.00  -0.04   0.03
  39   6     0.04   0.05   0.01    -0.09  -0.04   0.09    -0.03  -0.10   0.07
  40   6     0.13   0.09  -0.11    -0.16  -0.07   0.18    -0.08  -0.14   0.07
  41   6     0.21   0.10  -0.19    -0.14  -0.06   0.14    -0.11  -0.11   0.03
  42   6     0.18   0.07  -0.14    -0.04  -0.02  -0.01    -0.08  -0.05  -0.03
  43   6     0.09   0.02  -0.03     0.01   0.00  -0.09    -0.03  -0.01  -0.03
  44   6    -0.05  -0.04   0.12    -0.00   0.04   0.01     0.05   0.03   0.06
  45   6    -0.05  -0.07   0.10    -0.01   0.05   0.06     0.05   0.04   0.04
  46   6     0.04  -0.03   0.00    -0.02  -0.04   0.01     0.04   0.11   0.11
  47   6     0.04   0.02  -0.00    -0.01  -0.09  -0.03     0.04   0.08   0.10
  48   6     0.01   0.09  -0.01    -0.02  -0.05   0.00     0.07  -0.05  -0.03
  49   6     0.01   0.09  -0.00    -0.01  -0.05  -0.02     0.07  -0.05  -0.02
  50   1     0.12  -0.02  -0.02     0.18  -0.08  -0.08    -0.11   0.05   0.07
  51   1     0.11   0.03  -0.01     0.15  -0.02  -0.06    -0.09   0.02   0.05
  52   1     0.12   0.07  -0.01     0.18   0.07  -0.05    -0.11  -0.06   0.04
  53   1    -0.01  -0.02  -0.01    -0.04  -0.10  -0.02     0.04   0.07   0.01
  54   1    -0.01   0.07   0.01    -0.04   0.05   0.02     0.04  -0.04  -0.02
  55   1     0.01  -0.02  -0.01    -0.01   0.03  -0.00     0.02   0.01   0.01
  56   1     0.00  -0.05  -0.01    -0.00   0.06   0.00     0.02   0.01   0.01
  57   1    -0.00  -0.04  -0.01     0.00   0.06   0.00     0.02  -0.00   0.00
  58   1    -0.00  -0.00  -0.00     0.01   0.02  -0.00     0.02  -0.02  -0.00
  59   1    -0.00   0.03   0.00     0.01  -0.04  -0.01     0.01  -0.01  -0.00
  60   1    -0.00   0.04  -0.00     0.01  -0.05  -0.01     0.02   0.00  -0.00
  61   1    -0.02   0.00  -0.02     0.01   0.02   0.07     0.02  -0.03  -0.07
  62   1    -0.02  -0.03  -0.02     0.00   0.04   0.09     0.02  -0.02  -0.06
  63   1     0.00  -0.03   0.01    -0.01   0.02   0.04     0.01   0.03   0.03
  64   1    -0.01  -0.04  -0.00     0.00   0.01   0.02     0.01   0.00  -0.02
  65   1    -0.00  -0.05  -0.01     0.01  -0.01  -0.02     0.00  -0.00  -0.01
  66   1    -0.00  -0.03   0.00     0.01  -0.02  -0.04     0.00  -0.01  -0.00
  67   1     0.02  -0.05   0.03     0.02  -0.03   0.02     0.05  -0.06   0.04
  68   1     0.01  -0.07   0.01     0.01  -0.01   0.00     0.01  -0.03  -0.01
  69   1    -0.04  -0.05  -0.00    -0.01   0.04  -0.03    -0.06   0.04  -0.07
  70   1    -0.08   0.00  -0.01    -0.02   0.05  -0.05    -0.09   0.08  -0.07
  71   1    -0.07   0.03   0.00    -0.01   0.03  -0.03    -0.05   0.05  -0.01
  72   1    -0.06   0.03   0.00    -0.03  -0.00  -0.03    -0.07   0.02  -0.01
  73   1    -0.06   0.05  -0.03    -0.05  -0.01  -0.04    -0.12   0.03  -0.06
  74   1    -0.02   0.04  -0.03    -0.03  -0.00  -0.02    -0.08   0.02  -0.06
  75   1     0.04   0.01  -0.01     0.02  -0.00   0.01     0.03   0.00  -0.01
  76   1     0.04  -0.01   0.02     0.04  -0.00   0.02     0.07  -0.01   0.04
  77   1    -0.01   0.01   0.02    -0.03  -0.02   0.04    -0.00  -0.04   0.03
  78   1     0.04   0.03  -0.04    -0.06  -0.03   0.08    -0.03  -0.06   0.03
  79   1     0.08   0.04  -0.09    -0.05  -0.02   0.06    -0.04  -0.04   0.01
  80   1     0.07   0.02  -0.06    -0.01  -0.00  -0.01    -0.03  -0.01  -0.02
  81   1     0.02   0.00   0.00     0.02   0.01  -0.05    -0.00   0.01  -0.02
  82   1    -0.02  -0.00   0.05    -0.00   0.02   0.01     0.02   0.01   0.02
  83   1    -0.02  -0.02   0.04    -0.01   0.02   0.04     0.02   0.02   0.02
  84   1     0.02  -0.01   0.01    -0.01  -0.02  -0.02     0.01   0.05   0.06
  85   1     0.02   0.01   0.00    -0.01  -0.04  -0.04     0.01   0.03   0.05
  86   1     0.00   0.03  -0.00    -0.01  -0.01   0.01     0.02  -0.02  -0.01
                     10                     11                     12
                        a                      a                      a 
 Frequencies --    49.9437                53.6443                56.3430
 Red. masses --     9.6157                10.8488                 9.7543
 Frc consts  --     0.0000                 0.0000                 0.0000
 IR Inten    --     0.3619                 1.8154                 0.3801
 Raman Activ --     0.0000                 0.0000                 0.0000
 Depolar     --     0.0000                 0.0000                 0.0000
 Atom AN      X      Y      Z        X      Y      Z        X      Y      Z
   1   6    -0.27  -0.15  -0.18     0.00  -0.03   0.01     0.15   0.04   0.05
   2   6    -0.01  -0.13  -0.03     0.06  -0.03  -0.03    -0.05   0.03   0.02
   3   7     0.01   0.02   0.03     0.03  -0.06  -0.04    -0.05  -0.03  -0.00
   4   6     0.01   0.00   0.03     0.02  -0.02   0.00    -0.04  -0.00  -0.01
   5   6     0.01  -0.03   0.03     0.04   0.08   0.06    -0.05   0.02  -0.03
   6   6     0.01  -0.05   0.03     0.02   0.14   0.11    -0.04   0.05  -0.04
   7   6     0.00  -0.03   0.03    -0.01   0.09   0.09    -0.01   0.05  -0.04
   8   6    -0.00   0.00   0.04    -0.02  -0.02   0.02    -0.00   0.02  -0.02
   9   6     0.00   0.02   0.03    -0.01  -0.07  -0.02    -0.02  -0.00  -0.01
  10   6     0.00   0.04   0.03    -0.01  -0.12  -0.07    -0.02  -0.02   0.00
  11   6    -0.00   0.02   0.02    -0.03  -0.15  -0.09    -0.00  -0.02   0.01
  12   6    -0.00   0.01   0.01    -0.03  -0.12  -0.10    -0.00  -0.02   0.03
  13   6     0.01   0.06   0.02    -0.01  -0.07  -0.10    -0.02  -0.04   0.04
  14   6     0.01   0.06   0.01    -0.01   0.01  -0.06    -0.02  -0.03   0.04
  15   6     0.02   0.21   0.27     0.03   0.03  -0.06    -0.01  -0.08  -0.05
  16   6     0.02   0.20   0.25     0.03   0.12   0.01    -0.00  -0.07  -0.08
  17   6     0.03   0.03  -0.05    -0.01   0.19   0.09    -0.02  -0.02  -0.01
  18   6     0.03   0.00  -0.10    -0.01   0.24   0.13    -0.01  -0.02  -0.04
  19   6     0.01   0.07   0.02    -0.01   0.18   0.06    -0.00   0.02   0.01
  20   6     0.02   0.03   0.00    -0.01   0.13   0.03     0.00   0.02  -0.03
  21   6    -0.00   0.05   0.05    -0.04   0.07  -0.03    -0.01   0.12   0.15
  22   6    -0.00   0.02   0.04    -0.04   0.00  -0.06    -0.01   0.11   0.13
  23   6     0.01  -0.02  -0.00    -0.01  -0.01  -0.03    -0.00  -0.00  -0.05
  24   6     0.01  -0.02   0.02    -0.01  -0.02  -0.01     0.01   0.00  -0.06
  25   6     0.00  -0.01   0.03    -0.02  -0.02  -0.02    -0.01   0.02  -0.06
  26   6    -0.00  -0.01   0.02    -0.03  -0.04  -0.03     0.01   0.03  -0.03
  27   6     0.04  -0.08   0.05    -0.01  -0.05  -0.06     0.07  -0.08   0.08
  28   6     0.03  -0.09   0.03     0.01  -0.14  -0.04     0.10  -0.09   0.12
  29   6    -0.03  -0.03  -0.02     0.01  -0.22   0.03     0.07   0.01   0.04
  30   6    -0.08   0.04  -0.05    -0.02  -0.19   0.05     0.00   0.12  -0.07
  31   6    -0.07   0.05  -0.03    -0.04  -0.10   0.02    -0.02   0.12  -0.10
  32   6    -0.01  -0.02   0.03    -0.03  -0.04   0.01    -0.01  -0.01  -0.02
  33   6    -0.11  -0.02  -0.03    -0.04  -0.09  -0.00    -0.14  -0.04  -0.10
  34   6    -0.15  -0.02  -0.06    -0.11  -0.13   0.01    -0.12  -0.06  -0.06
  35   6    -0.08  -0.02  -0.01    -0.16  -0.11   0.04     0.03  -0.05   0.07
  36   6     0.04  -0.02   0.06    -0.13  -0.06   0.06     0.15  -0.02   0.15
  37   6     0.07  -0.01   0.08    -0.06  -0.02   0.05     0.12   0.00   0.10
  38   6     0.03  -0.01   0.02     0.02   0.01   0.01     0.01   0.02  -0.03
  39   6     0.06   0.02  -0.04     0.04   0.09  -0.02     0.13   0.07  -0.22
  40   6     0.09   0.03  -0.06     0.13   0.15  -0.05     0.13   0.08  -0.19
  41   6     0.08   0.02  -0.03     0.21   0.13  -0.05     0.00   0.02   0.05
  42   6     0.04  -0.01   0.04     0.19   0.04   0.00    -0.12  -0.03   0.24
  43   6     0.01  -0.02   0.06     0.09  -0.02   0.03    -0.11  -0.04   0.20
  44   6     0.04  -0.03  -0.05     0.02   0.04   0.00     0.02  -0.10  -0.22
  45   6     0.04  -0.01  -0.06     0.02   0.11   0.04     0.01  -0.09  -0.21
  46   6     0.03  -0.13  -0.31    -0.04   0.18   0.10    -0.03   0.03   0.09
  47   6     0.03  -0.11  -0.27    -0.04   0.09   0.02    -0.04   0.03   0.12
  48   6     0.01   0.08   0.03     0.01  -0.08  -0.09    -0.03  -0.05   0.02
  49   6     0.01   0.05   0.03     0.01  -0.10  -0.07    -0.03  -0.03   0.01
  50   1    -0.10   0.01  -0.06    -0.01  -0.00   0.02     0.06  -0.03   0.01
  51   1    -0.09  -0.08  -0.06     0.01  -0.00   0.01     0.04   0.03   0.02
  52   1    -0.10  -0.06  -0.07    -0.01  -0.02  -0.00     0.06   0.04   0.03
  53   1     0.02  -0.02   0.01     0.03   0.01  -0.00    -0.03  -0.02  -0.01
  54   1     0.02  -0.09  -0.01     0.02  -0.01  -0.02    -0.03   0.04   0.02
  55   1     0.01  -0.01   0.01     0.02   0.04   0.02    -0.02   0.01  -0.01
  56   1     0.00  -0.02   0.01     0.01   0.07   0.05    -0.01   0.02  -0.01
  57   1    -0.00  -0.01   0.01    -0.01   0.04   0.03    -0.00   0.02  -0.01
  58   1    -0.00   0.00   0.01    -0.01  -0.02   0.00     0.00   0.01  -0.01
  59   1    -0.00  -0.00   0.01    -0.01  -0.05  -0.03     0.00  -0.00   0.00
  60   1    -0.01  -0.01  -0.00    -0.01  -0.03  -0.03     0.00  -0.00   0.01
  61   1     0.01   0.09   0.14     0.02  -0.01  -0.04     0.00  -0.03  -0.03
  62   1     0.00   0.10   0.14     0.01   0.04   0.00     0.00  -0.03  -0.05
  63   1     0.01  -0.03  -0.07    -0.00   0.08   0.06    -0.01  -0.01  -0.03
  64   1    -0.00   0.04   0.04    -0.01   0.04  -0.00     0.00   0.02   0.03
  65   1    -0.01   0.02   0.03    -0.02   0.02  -0.01    -0.01   0.06   0.09
  66   1    -0.00   0.01   0.02    -0.02  -0.01  -0.03    -0.01   0.06   0.08
  67   1     0.03  -0.04   0.02    -0.00   0.00  -0.03     0.03  -0.04   0.04
  68   1     0.02  -0.04   0.02     0.01  -0.04  -0.02     0.04  -0.05   0.06
  69   1    -0.01  -0.01  -0.01     0.01  -0.09   0.02     0.03   0.00   0.02
  70   1    -0.04   0.03  -0.03    -0.01  -0.07   0.03    -0.01   0.06  -0.04
  71   1    -0.03   0.03  -0.01    -0.02  -0.02   0.01    -0.02   0.06  -0.05
  72   1    -0.05  -0.00  -0.02    -0.00  -0.03  -0.01    -0.07  -0.01  -0.05
  73   1    -0.07  -0.01  -0.03    -0.03  -0.05  -0.00    -0.06  -0.03  -0.04
  74   1    -0.03  -0.01  -0.01    -0.06  -0.04   0.01     0.01  -0.02   0.03
  75   1     0.03  -0.00   0.03    -0.05  -0.01   0.03     0.08  -0.00   0.07
  76   1     0.05  -0.00   0.04    -0.01   0.00   0.02     0.06   0.01   0.04
  77   1     0.02   0.01  -0.02    -0.01   0.03  -0.01     0.06   0.03  -0.11
  78   1     0.03   0.02  -0.03     0.04   0.06  -0.03     0.07   0.04  -0.10
  79   1     0.03   0.01  -0.01     0.08   0.05  -0.03    -0.00   0.01   0.02
  80   1     0.01  -0.00   0.02     0.07   0.01   0.00    -0.06  -0.02   0.12
  81   1    -0.00  -0.01   0.03     0.02  -0.03   0.02    -0.06  -0.03   0.09
  82   1     0.02  -0.02  -0.02     0.01   0.00   0.00     0.01  -0.05  -0.10
  83   1     0.01  -0.01  -0.03     0.01   0.04   0.02     0.01  -0.05  -0.10
  84   1     0.01  -0.07  -0.16    -0.02   0.07   0.05    -0.01   0.02   0.04
  85   1     0.01  -0.06  -0.14    -0.02   0.02   0.01    -0.01   0.02   0.06
  86   1     0.00   0.04   0.01     0.01  -0.02  -0.03    -0.01  -0.02   0.01
                     13                     14                     15
                        a                      a                      a 
 Frequencies --    65.9051                70.7308                77.5431
 Red. masses --    10.6859                10.5611                10.0570
 Frc consts  --     0.0000                 0.0000                 0.0000
 IR Inten    --     0.0852                 0.0284                 0.3173
 Raman Activ --     0.0000                 0.0000                 0.0000
 Depolar     --     0.0000                 0.0000                 0.0000
 Atom AN      X      Y      Z        X      Y      Z        X      Y      Z
   1   6    -0.11   0.04   0.00    -0.00   0.04   0.07     0.09   0.06   0.45
   2   6     0.08   0.05  -0.04    -0.01   0.04   0.02    -0.06   0.05   0.02
   3   7     0.05   0.04  -0.03     0.01   0.00   0.01    -0.06  -0.30  -0.12
   4   6     0.02   0.01   0.01     0.01   0.00  -0.01    -0.05  -0.16  -0.09
   5   6     0.05  -0.06   0.05     0.01  -0.08  -0.05    -0.06  -0.22  -0.12
   6   6     0.01  -0.12   0.09     0.02  -0.10  -0.07    -0.05  -0.02  -0.07
   7   6    -0.05  -0.10   0.09     0.03  -0.02  -0.05    -0.03   0.22   0.02
   8   6    -0.08  -0.03   0.05     0.04   0.06  -0.00    -0.02   0.23   0.04
   9   6    -0.04   0.03   0.01     0.03   0.06   0.01    -0.03   0.03  -0.02
  10   6    -0.05   0.07  -0.04     0.03   0.09   0.04    -0.03   0.02  -0.01
  11   6    -0.08   0.10  -0.05     0.04   0.12   0.06    -0.02   0.16   0.05
  12   6    -0.07   0.09  -0.10     0.04   0.07   0.05    -0.02   0.13   0.05
  13   6    -0.03   0.05  -0.14     0.03   0.00   0.03    -0.02  -0.02  -0.00
  14   6    -0.03   0.01  -0.14     0.02  -0.06   0.00    -0.02  -0.01  -0.01
  15   6    -0.08  -0.02  -0.13     0.01  -0.08  -0.02     0.01   0.05   0.06
  16   6    -0.09  -0.04  -0.02     0.01  -0.12  -0.04     0.01   0.07   0.05
  17   6    -0.04  -0.03   0.07     0.02  -0.13  -0.04    -0.00   0.02  -0.06
  18   6    -0.04  -0.02   0.19     0.01  -0.11  -0.03     0.00   0.04  -0.07
  19   6    -0.06   0.02   0.28     0.02  -0.01   0.12     0.01   0.08  -0.00
  20   6    -0.05   0.01   0.24     0.02   0.05   0.11     0.01   0.06   0.01
  21   6    -0.01  -0.03   0.13     0.07   0.08   0.10    -0.01   0.03  -0.02
  22   6     0.00  -0.06  -0.01     0.08   0.10   0.02    -0.01  -0.01  -0.02
  23   6    -0.02  -0.06  -0.03     0.03   0.11  -0.03     0.01  -0.01   0.02
  24   6    -0.01  -0.05  -0.13     0.03   0.11  -0.09     0.01  -0.04   0.03
  25   6    -0.02  -0.05  -0.12     0.04   0.11  -0.08     0.03  -0.05   0.03
  26   6     0.03  -0.01  -0.07     0.03   0.07  -0.10     0.03  -0.04   0.03
  27   6     0.02  -0.04   0.06     0.07   0.03  -0.16     0.02  -0.03   0.03
  28   6     0.06   0.04   0.10     0.09  -0.13  -0.13    -0.00   0.02   0.00
  29   6     0.09   0.15   0.02     0.08  -0.25  -0.03    -0.02   0.06  -0.03
  30   6     0.10   0.17  -0.11     0.02  -0.19   0.01    -0.00   0.04  -0.02
  31   6     0.07   0.08  -0.14    -0.01  -0.02  -0.03     0.02  -0.01   0.01
  32   6    -0.00  -0.06  -0.10     0.02   0.05  -0.01     0.03  -0.04   0.02
  33   6    -0.01  -0.07  -0.10    -0.04  -0.08  -0.06     0.03  -0.01   0.02
  34   6     0.03  -0.08  -0.07    -0.17  -0.17  -0.01     0.01   0.00  -0.01
  35   6     0.09  -0.08  -0.02    -0.23  -0.12   0.10    -0.01  -0.01  -0.05
  36   6     0.10  -0.07  -0.02    -0.13   0.01   0.18    -0.00  -0.03  -0.05
  37   6     0.05  -0.06  -0.06    -0.00   0.10   0.13     0.02  -0.04  -0.02
  38   6     0.02  -0.03  -0.08     0.00   0.10  -0.08     0.02  -0.04   0.03
  39   6    -0.02   0.05  -0.03    -0.05   0.06   0.01     0.01  -0.02   0.03
  40   6    -0.01   0.08   0.09    -0.13   0.02   0.08     0.05  -0.00   0.01
  41   6     0.05   0.04   0.14    -0.14   0.04   0.05     0.08  -0.00  -0.01
  42   6     0.09  -0.03   0.08    -0.07   0.09  -0.06     0.08  -0.02  -0.00
  43   6     0.08  -0.06  -0.03    -0.00   0.12  -0.12     0.04  -0.04   0.02
  44   6    -0.07  -0.01   0.09    -0.02   0.11   0.02     0.03   0.02   0.04
  45   6    -0.08   0.03   0.22    -0.03   0.08   0.09     0.03   0.06   0.04
  46   6     0.02  -0.02   0.02     0.03  -0.12  -0.05    -0.03  -0.05  -0.15
  47   6     0.02  -0.01  -0.09     0.04  -0.08  -0.02    -0.03  -0.06  -0.11
  48   6     0.00   0.05  -0.12     0.02  -0.00   0.03    -0.04  -0.16  -0.06
  49   6     0.00   0.06  -0.06     0.02   0.04   0.03    -0.04  -0.15  -0.06
  50   1    -0.05   0.04   0.02     0.00   0.01   0.02     0.04  -0.04   0.16
  51   1    -0.02   0.01  -0.00    -0.00   0.02   0.03     0.02   0.11   0.16
  52   1    -0.06  -0.02  -0.01     0.00   0.01   0.03     0.04  -0.02   0.17
  53   1     0.05   0.05   0.00    -0.01   0.02   0.00    -0.03   0.04  -0.03
  54   1     0.05  -0.02  -0.04    -0.00   0.01   0.01    -0.03   0.07  -0.01
  55   1     0.03  -0.02   0.02    -0.00  -0.04  -0.02    -0.02  -0.11  -0.05
  56   1     0.01  -0.05   0.03     0.00  -0.05  -0.03    -0.02  -0.01  -0.03
  57   1    -0.02  -0.04   0.03     0.01  -0.01  -0.02    -0.00   0.11   0.02
  58   1    -0.04  -0.00   0.01     0.02   0.03   0.00    -0.00   0.12   0.03
  59   1    -0.03   0.04  -0.01     0.01   0.05   0.02    -0.00   0.08   0.02
  60   1    -0.03   0.03  -0.03     0.01   0.02   0.02    -0.01   0.07   0.02
  61   1    -0.04  -0.01  -0.06    -0.00  -0.02  -0.01     0.01   0.02   0.04
  62   1    -0.04  -0.02  -0.00    -0.00  -0.04  -0.02     0.00   0.04   0.04
  63   1    -0.01  -0.01   0.05     0.00  -0.05  -0.04    -0.00  -0.00  -0.04
  64   1    -0.02   0.01   0.09     0.01   0.01   0.07    -0.00   0.03   0.01
  65   1     0.01  -0.01   0.04     0.03   0.02   0.04    -0.01   0.01  -0.01
  66   1     0.01  -0.03  -0.03     0.04   0.03  -0.00    -0.01  -0.01  -0.01
  67   1    -0.00  -0.04   0.04     0.02   0.03  -0.07     0.01  -0.02   0.02
  68   1     0.02   0.00   0.06     0.04  -0.05  -0.05    -0.00   0.01   0.00
  69   1     0.03   0.06   0.01     0.03  -0.11   0.00    -0.01   0.03  -0.02
  70   1     0.04   0.07  -0.05    -0.00  -0.08   0.02    -0.00   0.02  -0.01
  71   1     0.02   0.03  -0.07    -0.01   0.01  -0.00     0.01  -0.01   0.00
  72   1    -0.01  -0.02  -0.04     0.00  -0.03  -0.04     0.01  -0.00   0.01
  73   1     0.01  -0.03  -0.02    -0.07  -0.08  -0.02     0.00   0.01  -0.00
  74   1     0.04  -0.02   0.00    -0.10  -0.05   0.04    -0.01   0.00  -0.02
  75   1     0.04  -0.02   0.00    -0.05   0.01   0.08    -0.00  -0.01  -0.02
  76   1     0.01  -0.02  -0.02     0.02   0.06   0.05     0.01  -0.02  -0.01
  77   1    -0.02   0.02  -0.02    -0.01   0.01   0.01    -0.00  -0.01   0.01
  78   1    -0.01   0.04   0.04    -0.05  -0.01   0.05     0.01   0.00   0.00
  79   1     0.01   0.02   0.07    -0.06   0.00   0.03     0.03   0.00  -0.01
  80   1     0.04  -0.02   0.04    -0.02   0.03  -0.03     0.03  -0.01  -0.00
  81   1     0.03  -0.03  -0.02     0.01   0.05  -0.05     0.01  -0.02   0.01
  82   1    -0.03   0.00   0.02    -0.02   0.04   0.00     0.01   0.01   0.02
  83   1    -0.03   0.02   0.09    -0.02   0.02   0.04     0.02   0.03   0.02
  84   1     0.02  -0.01   0.02     0.01  -0.04  -0.02    -0.01  -0.02  -0.07
  85   1     0.02   0.00  -0.04     0.01  -0.02  -0.00    -0.01  -0.03  -0.05
  86   1     0.01   0.01  -0.04     0.00  -0.01   0.00    -0.02  -0.08  -0.03
                     16                     17                     18
                        a                      a                      a 
 Frequencies --    84.1356                92.1989                95.0759
 Red. masses --    10.7345                 9.7690                 9.7840
 Frc consts  --     0.0000                 0.0000                 0.0000
 IR Inten    --     0.1832                 0.3958                 0.1120
 Raman Activ --     0.0000                 0.0000                 0.0000
 Depolar     --     0.0000                 0.0000                 0.0000
 Atom AN      X      Y      Z        X      Y      Z        X      Y      Z
   1   6     0.02   0.01  -0.15     0.00   0.01  -0.02     0.01  -0.02   0.00
   2   6    -0.14   0.00   0.04    -0.02   0.00  -0.00    -0.01  -0.02   0.02
   3   7    -0.12   0.13   0.09    -0.03   0.01   0.00     0.01  -0.01   0.02
   4   6    -0.11   0.08   0.05    -0.03   0.01   0.00     0.02  -0.00   0.00
   5   6    -0.12   0.06   0.01    -0.02   0.01   0.01     0.01   0.04  -0.01
   6   6    -0.11  -0.02  -0.05    -0.03   0.00   0.01     0.02   0.05  -0.03
   7   6    -0.08  -0.08  -0.07    -0.03  -0.01   0.01     0.05   0.02  -0.04
   8   6    -0.06  -0.05  -0.02    -0.03  -0.02   0.00     0.06  -0.02  -0.03
   9   6    -0.08   0.03   0.03    -0.03  -0.00   0.00     0.04  -0.03  -0.00
  10   6    -0.07   0.04   0.07    -0.03  -0.00  -0.00     0.04  -0.04   0.02
  11   6    -0.06  -0.02   0.06    -0.03  -0.01  -0.00     0.04  -0.04   0.02
  12   6    -0.06  -0.05   0.07    -0.03  -0.00  -0.00     0.04  -0.02   0.04
  13   6    -0.07  -0.03   0.09    -0.02   0.00  -0.00     0.03   0.00   0.05
  14   6    -0.06  -0.05   0.03    -0.02   0.00  -0.01     0.02   0.02   0.04
  15   6    -0.00  -0.09  -0.10    -0.01  -0.02  -0.04     0.04  -0.00  -0.02
  16   6     0.01  -0.09  -0.20    -0.01  -0.02  -0.05     0.04  -0.01  -0.07
  17   6    -0.02  -0.04  -0.16    -0.01   0.00  -0.02     0.02   0.00  -0.08
  18   6    -0.01   0.02  -0.18    -0.00  -0.00  -0.04     0.02  -0.02  -0.12
  19   6     0.03   0.13  -0.05    -0.00   0.10   0.14    -0.01   0.11   0.13
  20   6     0.03   0.15   0.02     0.00   0.05   0.07    -0.01   0.06   0.07
  21   6     0.00   0.10  -0.04    -0.01   0.13   0.21    -0.04   0.13   0.20
  22   6     0.00   0.04  -0.02    -0.01   0.06   0.12    -0.03   0.06   0.11
  23   6     0.06   0.04   0.06     0.01  -0.03  -0.03    -0.03  -0.02  -0.03
  24   6     0.06  -0.04   0.04     0.00  -0.03   0.03    -0.04  -0.02  -0.02
  25   6     0.13  -0.07   0.06     0.02  -0.04   0.02    -0.05  -0.02  -0.03
  26   6     0.11  -0.07   0.04     0.05  -0.06   0.06    -0.06   0.00  -0.04
  27   6     0.11  -0.06   0.03    -0.03   0.08  -0.06     0.00  -0.13   0.11
  28   6     0.06   0.01  -0.04    -0.10   0.19  -0.15     0.06  -0.18   0.19
  29   6     0.01   0.08  -0.10    -0.05   0.12  -0.09     0.01  -0.04   0.09
  30   6     0.02   0.06  -0.07     0.08  -0.09   0.08    -0.10   0.14  -0.11
  31   6     0.08  -0.02   0.00     0.13  -0.16   0.14    -0.13   0.15  -0.16
  32   6     0.13  -0.07   0.05    -0.02  -0.02  -0.02    -0.03  -0.03  -0.01
  33   6     0.11  -0.06   0.04    -0.17  -0.00  -0.11     0.16  -0.03   0.10
  34   6    -0.02  -0.06  -0.04    -0.12   0.00  -0.09     0.18  -0.02   0.10
  35   6    -0.13  -0.06  -0.12     0.10  -0.00   0.04    -0.01  -0.03  -0.03
  36   6    -0.06  -0.07  -0.08     0.22  -0.01   0.11    -0.19  -0.03  -0.14
  37   6     0.08  -0.07   0.01     0.13  -0.02   0.06    -0.17  -0.04  -0.11
  38   6     0.05  -0.05   0.05    -0.01  -0.03   0.08    -0.04  -0.00   0.02
  39   6     0.06  -0.03   0.03    -0.10  -0.06   0.22    -0.13  -0.00   0.16
  40   6     0.10  -0.00   0.01    -0.05  -0.05   0.13    -0.10   0.01   0.14
  41   6     0.13  -0.01   0.01     0.10   0.01  -0.13     0.04   0.05  -0.05
  42   6     0.11  -0.04   0.05     0.15   0.04  -0.22     0.11   0.05  -0.17
  43   6     0.07  -0.06   0.07     0.08   0.01  -0.09     0.06   0.03  -0.11
  44   6     0.08   0.13   0.16     0.04  -0.12  -0.20    -0.00  -0.08  -0.16
  45   6     0.08   0.19   0.15     0.03  -0.09  -0.17    -0.00  -0.06  -0.14
  46   6    -0.08  -0.02  -0.07    -0.02   0.01   0.01     0.00   0.02  -0.03
  47   6    -0.09  -0.02   0.03    -0.02   0.02   0.02     0.00   0.03   0.04
  48   6    -0.09   0.03   0.10    -0.02   0.00  -0.00     0.03  -0.00   0.05
  49   6    -0.09   0.07   0.09    -0.03   0.00  -0.00     0.03  -0.02   0.03
  50   1     0.03  -0.01  -0.08     0.00  -0.00  -0.01     0.01  -0.01  -0.01
  51   1     0.00  -0.03  -0.05     0.00  -0.00  -0.01    -0.00  -0.01   0.00
  52   1     0.03   0.05  -0.04     0.00   0.01  -0.01     0.01  -0.00   0.00
  53   1    -0.06  -0.05   0.01    -0.01  -0.00  -0.00    -0.01  -0.01   0.00
  54   1    -0.06   0.02   0.04    -0.01   0.00   0.00    -0.01  -0.00   0.01
  55   1    -0.04   0.03   0.01    -0.01   0.01   0.00    -0.01   0.02  -0.00
  56   1    -0.03  -0.01  -0.02    -0.01   0.00   0.01     0.00   0.02  -0.01
  57   1    -0.02  -0.04  -0.03    -0.01  -0.01   0.00     0.02   0.01  -0.02
  58   1    -0.01  -0.03  -0.01    -0.01  -0.01  -0.00     0.02  -0.01  -0.01
  59   1    -0.01  -0.01   0.01    -0.01  -0.00  -0.00     0.01  -0.02   0.00
  60   1    -0.02  -0.03   0.02    -0.01   0.00  -0.00     0.01  -0.01   0.01
  61   1     0.01  -0.04  -0.03    -0.00  -0.01  -0.02     0.01  -0.00  -0.01
  62   1     0.01  -0.04  -0.09    -0.00  -0.01  -0.03     0.02  -0.01  -0.04
  63   1    -0.01  -0.00  -0.08    -0.00  -0.03  -0.06     0.01  -0.04  -0.10
  64   1     0.01   0.05   0.01    -0.00   0.06   0.10    -0.01   0.08   0.11
  65   1    -0.01   0.02  -0.03    -0.01   0.07   0.10    -0.02   0.06   0.10
  66   1    -0.01  -0.01  -0.02    -0.00   0.03   0.05    -0.01   0.03   0.04
  67   1     0.04  -0.03   0.02    -0.01   0.03  -0.03    -0.00  -0.06   0.05
  68   1     0.02   0.01  -0.02    -0.05   0.10  -0.08     0.04  -0.09   0.09
  69   1    -0.01   0.04  -0.05    -0.03   0.06  -0.05     0.02  -0.02   0.04
  70   1    -0.00   0.03  -0.03     0.04  -0.05   0.04    -0.04   0.08  -0.06
  71   1     0.03  -0.01   0.01     0.06  -0.09   0.07    -0.06   0.08  -0.08
  72   1     0.05  -0.02   0.03    -0.09   0.00  -0.05     0.08  -0.01   0.05
  73   1    -0.02  -0.01  -0.02    -0.07   0.00  -0.05     0.10  -0.00   0.06
  74   1    -0.07  -0.02  -0.06     0.05   0.00   0.02    -0.00  -0.01  -0.01
  75   1    -0.04  -0.02  -0.04     0.11  -0.00   0.05    -0.10  -0.01  -0.07
  76   1     0.04  -0.02   0.01     0.05  -0.00   0.03    -0.07  -0.02  -0.05
  77   1     0.01  -0.01   0.01    -0.06  -0.03   0.11    -0.06  -0.01   0.08
  78   1     0.03   0.01  -0.00    -0.03  -0.02   0.07    -0.05  -0.00   0.07
  79   1     0.05   0.00  -0.00     0.05   0.01  -0.07     0.02   0.02  -0.03
  80   1     0.04  -0.01   0.02     0.07   0.02  -0.11     0.06   0.02  -0.09
  81   1     0.02  -0.03   0.02     0.03   0.01  -0.04     0.02   0.01  -0.04
  82   1     0.03   0.05   0.07     0.02  -0.06  -0.10     0.01  -0.05  -0.08
  83   1     0.03   0.08   0.07     0.01  -0.05  -0.09     0.00  -0.04  -0.07
  84   1    -0.04   0.01  -0.02    -0.01   0.01   0.01    -0.00   0.01  -0.01
  85   1    -0.04   0.00   0.03    -0.01   0.01   0.01    -0.00   0.01   0.02
  86   1    -0.03   0.01   0.03    -0.01   0.00  -0.00     0.01   0.00   0.02
                     19                     20                     21
                        a                      a                      a 
 Frequencies --   104.9802               113.4171               138.4029
 Red. masses --    10.5121                10.8064                10.4277
 Frc consts  --     0.0000                 0.0000                 0.0000
 IR Inten    --     1.4744                 1.0024                 0.8932
 Raman Activ --     0.0000                 0.0000                 0.0000
 Depolar     --     0.0000                 0.0000                 0.0000
 Atom AN      X      Y      Z        X      Y      Z        X      Y      Z
   1   6    -0.02   0.06  -0.04     0.02  -0.06   0.05     0.01   0.01  -0.01
   2   6     0.01   0.07  -0.05    -0.01  -0.06  -0.05    -0.05   0.01  -0.01
   3   7    -0.04   0.05  -0.05    -0.04  -0.15  -0.08    -0.06  -0.01  -0.02
   4   6    -0.05   0.03  -0.01    -0.04  -0.11  -0.04    -0.06   0.02   0.00
   5   6    -0.02  -0.06   0.04    -0.03   0.15   0.07    -0.05   0.09   0.04
   6   6    -0.07  -0.12   0.09    -0.04   0.27   0.14    -0.06   0.05   0.05
   7   6    -0.14  -0.06   0.10    -0.07   0.06   0.07    -0.08  -0.07   0.01
   8   6    -0.16   0.03   0.06    -0.09  -0.21  -0.05    -0.09  -0.10  -0.02
   9   6    -0.11   0.07   0.00    -0.07  -0.24  -0.09    -0.07  -0.02  -0.02
  10   6    -0.11   0.08  -0.05    -0.07  -0.20  -0.10    -0.06  -0.00  -0.01
  11   6    -0.11   0.08  -0.05    -0.05  -0.06  -0.05    -0.04   0.09   0.03
  12   6    -0.10   0.02  -0.09    -0.04   0.18   0.03    -0.04   0.11   0.04
  13   6    -0.07  -0.03  -0.12    -0.03   0.22   0.04    -0.03   0.00  -0.00
  14   6    -0.06  -0.06  -0.08    -0.02   0.25   0.07    -0.01  -0.02  -0.01
  15   6    -0.07  -0.03   0.00    -0.08   0.18   0.03     0.02  -0.02  -0.05
  16   6    -0.07   0.00   0.13    -0.09   0.03  -0.03     0.02  -0.02  -0.04
  17   6    -0.03  -0.00   0.18     0.00  -0.07  -0.08     0.04  -0.01  -0.02
  18   6    -0.02   0.03   0.21     0.01  -0.21  -0.13     0.05   0.01  -0.03
  19   6     0.06  -0.09  -0.07    -0.00  -0.15  -0.01     0.07   0.18   0.22
  20   6     0.07  -0.06  -0.11     0.00  -0.11   0.03     0.09   0.08   0.08
  21   6     0.09   0.02   0.01     0.05  -0.06   0.07     0.09  -0.00  -0.05
  22   6     0.09   0.08   0.07     0.06   0.01   0.08     0.10  -0.12  -0.18
  23   6     0.09   0.04   0.00     0.03   0.03   0.07     0.12  -0.12  -0.12
  24   6     0.10   0.05   0.07     0.04   0.04   0.01     0.12  -0.05  -0.02
  25   6     0.13   0.03   0.08     0.07   0.03  -0.01    -0.04   0.05   0.07
  26   6     0.10   0.02   0.03     0.07   0.01  -0.02    -0.08   0.13   0.01
  27   6     0.14  -0.03   0.01     0.08   0.01  -0.03    -0.07   0.11  -0.04
  28   6     0.11  -0.07  -0.03     0.07  -0.00  -0.05    -0.04  -0.03   0.00
  29   6     0.03  -0.04  -0.06     0.05   0.00  -0.05    -0.03  -0.13   0.09
  30   6    -0.03   0.03  -0.05     0.04   0.01  -0.03    -0.10  -0.05   0.08
  31   6     0.01   0.06  -0.00     0.05   0.01  -0.02    -0.13   0.10   0.03
  32   6     0.13   0.03   0.09     0.08   0.02   0.01    -0.11   0.05   0.03
  33   6     0.18   0.01   0.11     0.07  -0.02  -0.00    -0.11   0.10   0.04
  34   6     0.04  -0.01   0.05    -0.02  -0.04  -0.02    -0.00   0.14   0.06
  35   6    -0.14   0.00  -0.05    -0.08  -0.03  -0.02     0.08   0.12   0.07
  36   6    -0.13   0.02  -0.04    -0.02   0.00   0.02    -0.01   0.08   0.01
  37   6     0.03   0.03   0.04     0.06   0.03   0.03    -0.12   0.04  -0.01
  38   6     0.06   0.03   0.07     0.04   0.03  -0.00     0.17  -0.04  -0.10
  39   6     0.06  -0.05   0.09     0.03   0.01   0.01     0.18  -0.09  -0.10
  40   6     0.02  -0.09   0.04    -0.00  -0.02   0.02     0.07  -0.15   0.02
  41   6    -0.00  -0.05  -0.04    -0.02  -0.00   0.01    -0.04  -0.17   0.14
  42   6    -0.00   0.03  -0.06    -0.01   0.03  -0.01     0.02  -0.10   0.03
  43   6     0.03   0.07   0.01     0.02   0.04  -0.02     0.15  -0.04  -0.10
  44   6     0.09  -0.07  -0.16    -0.02   0.00   0.09     0.14  -0.09  -0.09
  45   6     0.08  -0.13  -0.23    -0.02  -0.07   0.06     0.13   0.02   0.00
  46   6    -0.02  -0.02   0.13     0.07   0.02  -0.02     0.01  -0.03  -0.02
  47   6    -0.01  -0.06  -0.02     0.07   0.18   0.06     0.01  -0.02  -0.01
  48   6    -0.07  -0.01  -0.12    -0.04   0.08  -0.02    -0.05  -0.06  -0.04
  49   6    -0.07   0.05  -0.08    -0.05  -0.11  -0.08    -0.05  -0.03  -0.03
  50   1    -0.01   0.02   0.01     0.00  -0.03   0.03     0.01  -0.01  -0.00
  51   1     0.01   0.02  -0.01     0.01   0.00   0.02     0.01   0.01  -0.00
  52   1    -0.02   0.01  -0.02     0.00  -0.03   0.01     0.01   0.01  -0.00
  53   1     0.02   0.03  -0.01    -0.00  -0.01  -0.02    -0.02  -0.01  -0.01
  54   1     0.01   0.02  -0.03    -0.00  -0.01  -0.02    -0.02   0.01  -0.00
  55   1     0.01  -0.03   0.01    -0.00   0.08   0.04    -0.01   0.05   0.02
  56   1    -0.01  -0.06   0.03    -0.01   0.15   0.07    -0.02   0.03   0.02
  57   1    -0.05  -0.03   0.04    -0.02   0.04   0.03    -0.03  -0.04  -0.00
  58   1    -0.07   0.02   0.02    -0.03  -0.10  -0.03    -0.03  -0.05  -0.01
  59   1    -0.03   0.03  -0.01    -0.01  -0.03  -0.02    -0.01   0.04   0.01
  60   1    -0.04   0.01  -0.03    -0.01   0.09   0.02    -0.01   0.06   0.02
  61   1    -0.02  -0.01  -0.01    -0.04   0.07   0.01     0.01  -0.01  -0.02
  62   1    -0.03   0.01   0.06    -0.04  -0.01  -0.02     0.01  -0.01  -0.02
  63   1    -0.02   0.05   0.12     0.02  -0.08  -0.07     0.01  -0.04  -0.09
  64   1     0.03  -0.06  -0.07    -0.00  -0.03   0.03     0.02   0.10   0.15
  65   1     0.03   0.02   0.02     0.03  -0.02   0.02     0.02   0.00  -0.02
  66   1     0.03   0.04   0.05     0.02   0.01   0.03     0.02  -0.06  -0.08
  67   1     0.06  -0.01   0.00     0.03   0.00  -0.01    -0.02   0.05  -0.03
  68   1     0.05  -0.04  -0.01     0.02  -0.00  -0.02    -0.00  -0.02  -0.01
  69   1     0.00  -0.02  -0.03     0.01  -0.00  -0.02     0.00  -0.08   0.04
  70   1    -0.03   0.02  -0.02     0.01   0.00  -0.01    -0.04  -0.03   0.03
  71   1    -0.01   0.03   0.00     0.01   0.01  -0.00    -0.05   0.05   0.01
  72   1     0.09   0.00   0.05     0.03  -0.01  -0.00    -0.05   0.03   0.01
  73   1     0.02  -0.01   0.02    -0.01  -0.02  -0.01     0.01   0.05   0.02
  74   1    -0.08  -0.00  -0.03    -0.05  -0.01  -0.01     0.05   0.04   0.03
  75   1    -0.07   0.01  -0.03    -0.02   0.00   0.01     0.01   0.02  -0.00
  76   1     0.02   0.01   0.02     0.03   0.02   0.02    -0.05   0.00  -0.01
  77   1     0.02  -0.02   0.04     0.01  -0.00   0.01     0.08  -0.03  -0.05
  78   1     0.01  -0.04   0.02    -0.00  -0.01   0.01     0.02  -0.05   0.01
  79   1    -0.01  -0.02  -0.03    -0.01  -0.01   0.01    -0.04  -0.06   0.08
  80   1    -0.01   0.02  -0.04    -0.01   0.01  -0.01    -0.01  -0.03   0.02
  81   1     0.01   0.04   0.00     0.01   0.02  -0.01     0.06  -0.00  -0.05
  82   1     0.02  -0.03  -0.07    -0.02   0.01   0.03     0.04  -0.03  -0.04
  83   1     0.03  -0.06  -0.11    -0.01  -0.02   0.02     0.04   0.02   0.02
  84   1    -0.00  -0.00   0.05     0.04  -0.01  -0.01    -0.00  -0.01  -0.01
  85   1     0.01  -0.02  -0.02     0.04   0.07   0.02     0.01  -0.00  -0.00
  86   1    -0.02  -0.01  -0.04    -0.01   0.04   0.00    -0.02  -0.04  -0.01
                     22                     23                     24
                        a                      a                      a 
 Frequencies --   144.9698               163.2173               173.3973
 Red. masses --     9.8551                 9.6820                 9.8419
 Frc consts  --     0.0000                 0.0000                 0.0000
 IR Inten    --     0.9428                 0.2932                 0.3743
 Raman Activ --     0.0000                 0.0000                 0.0000
 Depolar     --     0.0000                 0.0000                 0.0000
 Atom AN      X      Y      Z        X      Y      Z        X      Y      Z
   1   6    -0.04   0.03  -0.04     0.00   0.02  -0.02    -0.00  -0.10   0.08
   2   6    -0.04   0.03  -0.00     0.12   0.03  -0.05    -0.12  -0.10   0.12
   3   7    -0.02   0.05  -0.00     0.06   0.01  -0.05    -0.00  -0.05   0.12
   4   6    -0.02  -0.08  -0.03     0.05  -0.00  -0.03    -0.00  -0.08   0.05
   5   6    -0.01  -0.31  -0.08     0.07  -0.02   0.00    -0.06  -0.01  -0.05
   6   6    -0.03  -0.17   0.00     0.06  -0.02   0.03     0.02   0.11  -0.12
   7   6    -0.04   0.23   0.14     0.03  -0.00   0.04     0.10   0.10  -0.11
   8   6    -0.05   0.27   0.12     0.01   0.01   0.00     0.14  -0.02  -0.04
   9   6    -0.03   0.03   0.00     0.03   0.01  -0.03     0.05  -0.10   0.06
  10   6    -0.03  -0.03  -0.03     0.03   0.01  -0.06     0.04  -0.06   0.12
  11   6    -0.03  -0.33  -0.13     0.05   0.01  -0.05    -0.07  -0.07   0.06
  12   6    -0.02  -0.32  -0.13     0.05   0.01  -0.03    -0.07   0.01  -0.01
  13   6    -0.01   0.06   0.01     0.02   0.00  -0.01    -0.03   0.13  -0.00
  14   6     0.00   0.12   0.04    -0.00  -0.01   0.07    -0.02   0.06  -0.16
  15   6    -0.02   0.08  -0.01    -0.06  -0.03   0.09    -0.08  -0.00  -0.22
  16   6    -0.01   0.01  -0.07    -0.06  -0.07   0.09    -0.09  -0.03  -0.13
  17   6     0.01   0.00  -0.06    -0.06  -0.10   0.05    -0.04   0.02   0.04
  18   6     0.03  -0.09  -0.12    -0.06  -0.17  -0.13    -0.05   0.10   0.30
  19   6     0.01  -0.01   0.05    -0.05   0.10   0.27    -0.05  -0.00   0.14
  20   6     0.02  -0.03   0.04    -0.04   0.05  -0.00    -0.03  -0.02   0.06
  21   6     0.03  -0.04   0.03    -0.01   0.00  -0.13     0.01  -0.04  -0.01
  22   6     0.04  -0.04   0.00    -0.01  -0.02  -0.26     0.02  -0.04  -0.10
  23   6     0.04  -0.04   0.01    -0.05   0.03  -0.20     0.00  -0.03  -0.11
  24   6     0.04  -0.00  -0.00    -0.06   0.02  -0.06     0.00   0.01  -0.04
  25   6     0.00   0.02   0.00     0.05  -0.03   0.10     0.04   0.01   0.06
  26   6    -0.01   0.05  -0.02     0.08  -0.08   0.15     0.05  -0.01   0.08
  27   6    -0.01   0.04  -0.03     0.09  -0.08   0.10     0.07  -0.02   0.03
  28   6     0.01  -0.00  -0.01    -0.01   0.01  -0.03     0.02   0.00  -0.04
  29   6     0.02  -0.04   0.02    -0.10   0.06  -0.08    -0.03   0.01  -0.05
  30   6    -0.01  -0.01   0.01    -0.05  -0.03   0.05    -0.02  -0.02   0.03
  31   6    -0.02   0.04  -0.01     0.04  -0.10   0.16     0.03  -0.03   0.09
  32   6    -0.01   0.02  -0.00     0.10  -0.02   0.13     0.07   0.01   0.08
  33   6    -0.02   0.02  -0.00     0.12   0.02   0.15     0.08   0.03   0.09
  34   6    -0.01   0.02   0.01     0.03   0.06   0.05     0.02   0.05   0.03
  35   6     0.01   0.02   0.02    -0.08   0.04  -0.08    -0.06   0.04  -0.04
  36   6    -0.00   0.02   0.01    -0.03  -0.01  -0.05    -0.02   0.02  -0.01
  37   6    -0.02   0.02   0.00     0.09  -0.04   0.07     0.06   0.00   0.06
  38   6     0.07   0.00  -0.03    -0.10   0.01  -0.05     0.01   0.02  -0.05
  39   6     0.07  -0.02  -0.03    -0.07   0.07  -0.10     0.02   0.03  -0.07
  40   6     0.02  -0.05   0.02    -0.01   0.12  -0.10     0.00   0.03  -0.03
  41   6    -0.02  -0.05   0.05    -0.01   0.08  -0.00    -0.03   0.01   0.03
  42   6     0.01  -0.02  -0.00    -0.05   0.01   0.07    -0.02   0.00   0.02
  43   6     0.06   0.01  -0.04    -0.08  -0.03   0.02     0.01   0.01  -0.04
  44   6     0.02  -0.03   0.03    -0.06   0.04  -0.17    -0.03  -0.08  -0.14
  45   6     0.02  -0.04   0.04    -0.08   0.04  -0.08    -0.04  -0.07  -0.06
  46   6     0.03   0.07   0.05    -0.01  -0.05   0.10     0.02  -0.03  -0.12
  47   6     0.02   0.13   0.09    -0.00   0.02   0.13     0.02  -0.02  -0.24
  48   6    -0.01   0.26   0.07     0.01  -0.00  -0.03     0.06   0.20   0.10
  49   6    -0.02   0.11   0.02     0.03   0.01  -0.06     0.04   0.03   0.15
  50   1    -0.00   0.01  -0.03    -0.03   0.02   0.06     0.06  -0.04  -0.11
  51   1    -0.03   0.00  -0.01     0.05   0.01  -0.02    -0.13  -0.04   0.05
  52   1     0.00   0.01   0.00    -0.05  -0.01  -0.05     0.10  -0.01   0.13
  53   1    -0.02   0.01  -0.00     0.06   0.03   0.00    -0.07  -0.06   0.01
  54   1    -0.01   0.01   0.01     0.05  -0.01  -0.04    -0.06  -0.01   0.08
  55   1     0.00  -0.16  -0.05     0.03  -0.01   0.00    -0.05  -0.00  -0.02
  56   1    -0.01  -0.09  -0.01     0.02  -0.01   0.01    -0.00   0.06  -0.05
  57   1    -0.01   0.13   0.07     0.00   0.00   0.02     0.04   0.06  -0.04
  58   1    -0.02   0.15   0.06    -0.01   0.01   0.00     0.08  -0.01  -0.01
  59   1    -0.01  -0.17  -0.06     0.02   0.00  -0.02    -0.05  -0.05   0.02
  60   1    -0.00  -0.16  -0.06     0.02   0.00  -0.00    -0.03  -0.01  -0.02
  61   1    -0.01   0.02  -0.01    -0.03  -0.01   0.02    -0.04   0.00  -0.08
  62   1    -0.01  -0.01  -0.05    -0.02  -0.03   0.01    -0.04  -0.01  -0.03
  63   1     0.02  -0.06  -0.08    -0.02  -0.13  -0.19    -0.01   0.07   0.16
  64   1    -0.00   0.03   0.06    -0.01   0.11   0.23    -0.01  -0.03  -0.01
  65   1     0.01  -0.01   0.01     0.00  -0.00  -0.04     0.01  -0.01   0.01
  66   1     0.01  -0.02  -0.01     0.00  -0.01  -0.09     0.01  -0.01  -0.03
  67   1    -0.00   0.02  -0.01     0.04  -0.03   0.03     0.03  -0.00   0.01
  68   1     0.01  -0.00  -0.00    -0.01   0.01  -0.03     0.01   0.00  -0.02
  69   1     0.01  -0.02   0.01    -0.06   0.05  -0.06    -0.02   0.01  -0.03
  70   1    -0.00  -0.01   0.01    -0.03  -0.01   0.01    -0.02  -0.01   0.01
  71   1    -0.01   0.02  -0.00     0.02  -0.04   0.07     0.01  -0.01   0.04
  72   1    -0.01   0.01  -0.00     0.05   0.01   0.06     0.03   0.01   0.04
  73   1    -0.00   0.01   0.00     0.01   0.03   0.02     0.00   0.02   0.01
  74   1     0.01   0.01   0.01    -0.06   0.02  -0.05    -0.04   0.01  -0.03
  75   1     0.00   0.01   0.00    -0.02  -0.01  -0.04    -0.01   0.00  -0.02
  76   1    -0.01   0.01   0.00     0.04  -0.03   0.02     0.03  -0.01   0.02
  77   1     0.03  -0.01  -0.01    -0.03   0.03  -0.04     0.01   0.01  -0.03
  78   1     0.00  -0.02   0.01     0.01   0.05  -0.05     0.00   0.01  -0.01
  79   1    -0.02  -0.02   0.03     0.01   0.03   0.00    -0.01   0.00   0.02
  80   1    -0.00  -0.00  -0.00    -0.01  -0.01   0.04    -0.01  -0.00   0.02
  81   1     0.02   0.01  -0.02    -0.02  -0.02   0.00     0.01  -0.00  -0.02
  82   1     0.00  -0.01   0.01    -0.02   0.02  -0.04    -0.01  -0.03  -0.06
  83   1     0.01  -0.01   0.02    -0.03   0.02   0.00    -0.02  -0.03  -0.03
  84   1     0.01   0.02   0.02     0.01  -0.02   0.03     0.02  -0.02  -0.03
  85   1     0.01   0.05   0.04     0.00   0.01   0.05     0.02  -0.01  -0.09
  86   1    -0.00   0.13   0.04     0.00  -0.00  -0.01     0.04   0.09   0.03
                     25                     26                     27
                        a                      a                      a 
 Frequencies --   190.6308               197.5249               200.8778
 Red. masses --     2.8662                10.6424                10.1261
 Frc consts  --     0.0000                 0.0000                 0.0000
 IR Inten    --     0.5181                 3.0232                 0.7171
 Raman Activ --     0.0000                 0.0000                 0.0000
 Depolar     --     0.0000                 0.0000                 0.0000
 Atom AN      X      Y      Z        X      Y      Z        X      Y      Z
   1   6    -0.05   0.04  -0.03    -0.02   0.02  -0.03     0.01  -0.04   0.04
   2   6    -0.16   0.04  -0.01     0.01   0.02  -0.04     0.01  -0.04   0.04
   3   7     0.03   0.02  -0.06     0.02  -0.00  -0.05     0.01  -0.01   0.05
   4   6     0.03   0.04  -0.03     0.02  -0.13  -0.08     0.00   0.04   0.05
   5   6     0.07   0.01   0.06     0.04  -0.10  -0.02    -0.02   0.05  -0.00
   6   6     0.02  -0.05   0.12     0.02   0.07   0.08     0.01  -0.00  -0.07
   7   6    -0.04  -0.06   0.11    -0.01   0.11   0.09     0.04  -0.03  -0.07
   8   6    -0.07  -0.02   0.04    -0.03  -0.07  -0.01     0.06   0.02  -0.01
   9   6    -0.01   0.03  -0.03     0.00  -0.15  -0.09     0.02   0.05   0.06
  10   6     0.00   0.02  -0.06     0.01  -0.04  -0.06     0.01   0.01   0.05
  11   6     0.04   0.04  -0.03     0.04   0.00  -0.03    -0.04  -0.01   0.01
  12   6     0.04   0.02  -0.02     0.04   0.09   0.03    -0.05  -0.03  -0.04
  13   6     0.04  -0.05  -0.04     0.02   0.14   0.06    -0.03  -0.03  -0.05
  14   6     0.04  -0.02   0.01     0.01  -0.02   0.04    -0.03   0.02  -0.06
  15   6     0.05   0.00   0.04    -0.07  -0.09   0.01    -0.03   0.02  -0.05
  16   6     0.05   0.02   0.04    -0.07  -0.19   0.01    -0.03   0.05   0.01
  17   6     0.04   0.01   0.00    -0.03  -0.18   0.08    -0.02   0.05   0.02
  18   6     0.04  -0.03  -0.07    -0.04  -0.01   0.14    -0.01  -0.04  -0.05
  19   6     0.01   0.01   0.02     0.09   0.01  -0.01    -0.05   0.10   0.23
  20   6     0.01  -0.02  -0.01     0.08   0.18  -0.05    -0.03  -0.06   0.01
  21   6     0.00  -0.02  -0.01     0.06   0.13  -0.12    -0.01  -0.17  -0.19
  22   6    -0.00  -0.01  -0.01     0.04   0.11  -0.11    -0.00  -0.15  -0.15
  23   6    -0.01   0.01   0.00     0.04   0.09  -0.10     0.02  -0.07   0.00
  24   6    -0.02   0.01   0.00     0.02  -0.01   0.02     0.01   0.04   0.14
  25   6    -0.01  -0.00  -0.01     0.00  -0.02   0.00     0.01   0.05  -0.06
  26   6     0.00  -0.02   0.00    -0.00  -0.00   0.00    -0.02   0.04  -0.13
  27   6    -0.00  -0.02   0.01    -0.01  -0.01   0.02    -0.03   0.05  -0.10
  28   6    -0.01  -0.00   0.01     0.01  -0.04   0.03     0.05   0.01  -0.01
  29   6    -0.01   0.02  -0.01    -0.02  -0.01   0.01     0.13  -0.02   0.02
  30   6     0.00   0.00  -0.00    -0.04   0.03  -0.02     0.09   0.05  -0.07
  31   6     0.01  -0.02   0.00    -0.03   0.02  -0.01     0.02   0.08  -0.15
  32   6    -0.00  -0.00  -0.01    -0.13  -0.01  -0.09     0.06   0.07  -0.07
  33   6     0.00  -0.01  -0.01    -0.15  -0.03  -0.10     0.06   0.01  -0.07
  34   6     0.00  -0.01  -0.00     0.00  -0.04  -0.00    -0.00  -0.04  -0.04
  35   6     0.00  -0.01  -0.00     0.12  -0.03   0.07    -0.04  -0.02   0.02
  36   6    -0.00  -0.00  -0.00    -0.03  -0.02  -0.02    -0.00   0.05   0.06
  37   6    -0.00  -0.00  -0.01    -0.16  -0.01  -0.10     0.04   0.10   0.00
  38   6    -0.03   0.01   0.01    -0.07  -0.04   0.16    -0.03   0.05   0.32
  39   6    -0.03   0.02   0.01    -0.07  -0.07   0.17     0.01  -0.07   0.28
  40   6    -0.01   0.03  -0.02     0.03  -0.05  -0.01     0.06  -0.11  -0.03
  41   6    -0.01   0.03  -0.02     0.09  -0.02  -0.14     0.04  -0.04  -0.20
  42   6    -0.02   0.02   0.00    -0.02  -0.03   0.04    -0.13   0.05   0.03
  43   6    -0.04   0.01   0.02    -0.10  -0.05   0.19    -0.13   0.09   0.28
  44   6    -0.01   0.01   0.01     0.08   0.14  -0.08    -0.00  -0.09  -0.01
  45   6    -0.01  -0.00   0.01     0.07   0.21  -0.00    -0.01  -0.07   0.03
  46   6     0.03   0.02   0.03     0.04  -0.18   0.02    -0.02   0.05   0.01
  47   6     0.03   0.01   0.05     0.06  -0.09  -0.00    -0.03   0.04  -0.02
  48   6     0.01  -0.09  -0.07     0.01   0.24   0.08     0.01  -0.05  -0.03
  49   6     0.02  -0.02  -0.07     0.01   0.09  -0.01     0.01  -0.03   0.03
  50   1     0.16   0.02  -0.49     0.00   0.01  -0.03     0.00  -0.01   0.02
  51   1    -0.51  -0.01   0.08    -0.03   0.00  -0.00     0.01  -0.01   0.01
  52   1     0.32   0.03   0.38     0.01   0.00   0.01     0.00  -0.01   0.01
  53   1    -0.11  -0.02  -0.06     0.01   0.01  -0.01     0.00  -0.01   0.01
  54   1    -0.09   0.04   0.07     0.01   0.00  -0.01     0.00  -0.01   0.01
  55   1     0.04  -0.00   0.02     0.02  -0.04  -0.01    -0.02   0.02  -0.00
  56   1     0.01  -0.02   0.05     0.01   0.06   0.04    -0.00  -0.01  -0.03
  57   1    -0.02  -0.03   0.04    -0.01   0.08   0.05     0.02  -0.02  -0.03
  58   1    -0.05  -0.01   0.01    -0.02  -0.02  -0.00     0.03   0.00  -0.00
  59   1     0.02   0.03  -0.01     0.02  -0.02  -0.02    -0.03  -0.00   0.01
  60   1     0.01   0.02  -0.00     0.02   0.02   0.01    -0.02  -0.01  -0.02
  61   1     0.02  -0.00   0.01    -0.04  -0.02  -0.00    -0.01   0.00  -0.03
  62   1     0.02   0.01   0.01    -0.03  -0.06   0.00    -0.01   0.01  -0.00
  63   1     0.01  -0.03  -0.06    -0.04   0.04   0.09     0.01  -0.07  -0.12
  64   1    -0.00   0.02   0.04     0.06  -0.04  -0.05    -0.03   0.09   0.17
  65   1     0.00  -0.01  -0.01     0.01   0.04  -0.04     0.00  -0.07  -0.09
  66   1     0.00  -0.00  -0.00     0.01   0.03  -0.03    -0.01  -0.05  -0.05
  67   1    -0.00  -0.01   0.01    -0.01   0.00   0.00    -0.02   0.02  -0.03
  68   1    -0.00  -0.00   0.00     0.01  -0.02   0.01     0.01  -0.00   0.02
  69   1    -0.01   0.01  -0.00    -0.00  -0.01   0.00     0.06  -0.02   0.03
  70   1     0.00   0.00  -0.00    -0.02   0.02  -0.01     0.04   0.01  -0.02
  71   1     0.00  -0.01   0.00    -0.01   0.01  -0.00     0.01   0.02  -0.06
  72   1     0.00  -0.00  -0.00    -0.06  -0.01  -0.04     0.03  -0.00  -0.03
  73   1     0.00  -0.00  -0.00     0.01  -0.01   0.01    -0.01  -0.03  -0.02
  74   1    -0.00  -0.00   0.00     0.09  -0.01   0.05    -0.03  -0.02   0.01
  75   1    -0.00  -0.00   0.00    -0.00  -0.00   0.00    -0.00   0.02   0.03
  76   1     0.00   0.00  -0.00    -0.06  -0.00  -0.04     0.01   0.05   0.01
  77   1    -0.01   0.01   0.00    -0.03  -0.03   0.07     0.02  -0.04   0.11
  78   1    -0.00   0.01  -0.01     0.02  -0.01  -0.02     0.04  -0.06  -0.05
  79   1     0.00   0.01  -0.01     0.06   0.00  -0.10     0.03  -0.01  -0.14
  80   1    -0.01   0.00   0.00    -0.01  -0.00   0.00    -0.06   0.03  -0.01
  81   1    -0.01   0.00   0.01    -0.04  -0.02   0.07    -0.05   0.05   0.09
  82   1    -0.00   0.01   0.01     0.03   0.03  -0.02    -0.00  -0.02   0.01
  83   1    -0.01   0.00   0.01     0.02   0.07   0.02    -0.00   0.00   0.04
  84   1     0.01   0.01   0.01     0.03  -0.06   0.01    -0.01   0.02   0.01
  85   1     0.01   0.00   0.02     0.03  -0.02  -0.01    -0.01   0.01  -0.01
  86   1    -0.01  -0.04  -0.02    -0.00   0.09   0.03     0.01  -0.02  -0.01
                     28                     29                     30
                        a                      a                      a 
 Frequencies --   212.1455               218.7677               240.4349
 Red. masses --    10.4195                10.4599                10.4443
 Frc consts  --     0.0000                 0.0000                 0.0000
 IR Inten    --     1.8118                 0.8027                 0.1276
 Raman Activ --     0.0000                 0.0000                 0.0000
 Depolar     --     0.0000                 0.0000                 0.0000
 Atom AN      X      Y      Z        X      Y      Z        X      Y      Z
   1   6    -0.00  -0.00   0.00     0.03  -0.11   0.11    -0.02   0.08  -0.09
   2   6     0.05  -0.00  -0.01     0.12  -0.10   0.04     0.10   0.08  -0.01
   3   7     0.04  -0.01  -0.01     0.08  -0.06   0.06     0.05   0.07   0.01
   4   6     0.04  -0.03  -0.01     0.07   0.07   0.09     0.05  -0.13  -0.05
   5   6     0.05  -0.02  -0.01     0.02   0.10   0.00     0.07  -0.14  -0.04
   6   6     0.05   0.02   0.01     0.08   0.00  -0.13     0.08   0.06   0.03
   7   6     0.05   0.02   0.00     0.13  -0.06  -0.15     0.07   0.12   0.05
   8   6     0.04  -0.02  -0.01     0.16   0.05  -0.02     0.06  -0.09  -0.04
   9   6     0.04  -0.03  -0.02     0.08   0.10   0.11     0.05  -0.17  -0.07
  10   6     0.03   0.00  -0.01     0.04   0.04   0.07     0.04  -0.04  -0.03
  11   6     0.01   0.02  -0.02    -0.10  -0.00  -0.03     0.03   0.09   0.01
  12   6     0.01   0.03  -0.02    -0.10  -0.04  -0.16     0.02   0.10   0.05
  13   6    -0.01   0.03  -0.01    -0.09   0.00  -0.15    -0.03  -0.00   0.03
  14   6    -0.03  -0.02   0.02    -0.11   0.05  -0.06    -0.07  -0.11   0.03
  15   6    -0.08  -0.03   0.04    -0.21   0.07   0.05    -0.08  -0.11   0.04
  16   6    -0.08  -0.06   0.05    -0.21   0.01   0.14    -0.07  -0.05   0.04
  17   6    -0.08  -0.07   0.03    -0.16  -0.07   0.06    -0.13  -0.01   0.02
  18   6    -0.08  -0.03  -0.01    -0.14  -0.16  -0.14    -0.12   0.08  -0.04
  19   6    -0.03  -0.00  -0.07    -0.04  -0.05  -0.10    -0.08   0.14  -0.02
  20   6    -0.02   0.07  -0.05    -0.03   0.06  -0.08    -0.07   0.05  -0.06
  21   6    -0.05   0.10   0.01    -0.01   0.12   0.01    -0.13   0.01  -0.05
  22   6    -0.05   0.06   0.02    -0.01   0.12   0.05    -0.12  -0.07   0.04
  23   6    -0.02   0.01  -0.01     0.04   0.08   0.03    -0.02  -0.08   0.15
  24   6    -0.01  -0.06  -0.02     0.06  -0.01   0.00    -0.01   0.02   0.13
  25   6    -0.01  -0.04   0.02     0.04   0.00   0.03    -0.06   0.03  -0.07
  26   6    -0.17   0.14  -0.17     0.07   0.02   0.06    -0.05  -0.12  -0.05
  27   6    -0.22   0.22  -0.17     0.09   0.01   0.01    -0.06  -0.14   0.05
  28   6    -0.10   0.12  -0.00     0.07  -0.04  -0.03    -0.05  -0.02   0.07
  29   6     0.11  -0.11   0.19    -0.00  -0.02  -0.05    -0.03   0.09  -0.01
  30   6     0.06  -0.02   0.05    -0.04   0.02  -0.01     0.05  -0.01  -0.03
  31   6    -0.12   0.17  -0.19     0.02   0.02   0.05     0.04  -0.14  -0.03
  32   6     0.16  -0.09   0.18    -0.10   0.00  -0.05     0.05   0.09  -0.09
  33   6     0.15   0.00   0.18    -0.12   0.00  -0.06     0.10   0.02  -0.07
  34   6    -0.07   0.07  -0.04    -0.00  -0.00   0.02     0.03  -0.05  -0.02
  35   6    -0.11   0.04  -0.16     0.09  -0.00   0.07    -0.07  -0.01   0.02
  36   6     0.16  -0.05  -0.02    -0.05   0.00  -0.01    -0.02   0.07   0.06
  37   6     0.25  -0.11   0.14    -0.14   0.01  -0.06     0.05   0.13   0.01
  38   6    -0.03  -0.09  -0.02     0.07  -0.04  -0.03     0.16   0.09   0.02
  39   6    -0.05  -0.07   0.01     0.08  -0.07  -0.02     0.23   0.02  -0.06
  40   6    -0.01  -0.03   0.04     0.05  -0.08   0.04     0.07  -0.08   0.02
  41   6     0.08  -0.05   0.01     0.05  -0.09   0.06    -0.08  -0.07   0.11
  42   6     0.09  -0.09   0.00     0.09  -0.06  -0.01     0.01   0.07  -0.06
  43   6     0.02  -0.12   0.01     0.10  -0.05  -0.03     0.15   0.15  -0.09
  44   6     0.00   0.03  -0.01     0.01   0.09   0.06     0.02  -0.09   0.07
  45   6    -0.00   0.06  -0.04     0.01   0.07  -0.02     0.03  -0.03  -0.07
  46   6    -0.05  -0.05   0.04    -0.10   0.01   0.13    -0.15  -0.03   0.01
  47   6    -0.04  -0.02   0.03    -0.09   0.09   0.07    -0.14  -0.08   0.02
  48   6     0.02   0.06   0.01     0.03  -0.01  -0.08     0.01   0.07   0.06
  49   6     0.02   0.03  -0.00     0.04  -0.03   0.03     0.03   0.06   0.01
  50   1     0.01   0.01  -0.05     0.03  -0.02  -0.05    -0.00   0.06  -0.07
  51   1    -0.06  -0.00   0.01    -0.10  -0.02   0.06    -0.06  -0.01  -0.03
  52   1     0.03  -0.01   0.04     0.06  -0.06   0.11     0.01   0.02  -0.00
  53   1     0.02   0.01  -0.00     0.05  -0.01   0.02     0.05   0.04   0.01
  54   1     0.02  -0.01  -0.01     0.05  -0.04  -0.00     0.04   0.01  -0.02
  55   1     0.01  -0.01  -0.00    -0.02   0.04   0.00     0.02  -0.05  -0.02
  56   1     0.01   0.02   0.00     0.02  -0.01  -0.06     0.02   0.05   0.02
  57   1     0.01   0.01   0.01     0.04  -0.05  -0.07     0.02   0.09   0.04
  58   1     0.01  -0.01  -0.00     0.08   0.01  -0.00     0.02  -0.03  -0.01
  59   1    -0.00   0.00  -0.00    -0.06  -0.00   0.01     0.01   0.03   0.00
  60   1     0.01   0.01  -0.00    -0.04  -0.02  -0.05     0.02   0.04   0.02
  61   1    -0.03  -0.00   0.01    -0.08   0.03   0.01    -0.02  -0.03   0.01
  62   1    -0.02  -0.02   0.02    -0.07   0.00   0.06    -0.01  -0.01   0.01
  63   1    -0.04   0.00   0.01    -0.05  -0.07  -0.09    -0.05   0.02  -0.04
  64   1     0.01  -0.01  -0.03     0.01  -0.01   0.01    -0.02   0.05   0.02
  65   1    -0.02   0.04   0.01     0.00   0.04   0.01    -0.05   0.01  -0.03
  66   1    -0.02   0.02   0.01    -0.01   0.04   0.02    -0.06  -0.04   0.00
  67   1    -0.08   0.07  -0.06     0.03   0.01  -0.00    -0.03  -0.06   0.03
  68   1    -0.04   0.04   0.01     0.03  -0.02  -0.02    -0.02  -0.00   0.04
  69   1     0.08  -0.09   0.12    -0.01  -0.01  -0.02    -0.02   0.06  -0.01
  70   1     0.05  -0.03   0.04    -0.03   0.01  -0.01     0.03   0.00  -0.01
  71   1    -0.04   0.07  -0.08    -0.00   0.01   0.02     0.03  -0.06  -0.02
  72   1     0.05   0.01   0.08    -0.05   0.00  -0.03     0.05  -0.00  -0.03
  73   1    -0.06   0.04  -0.03     0.01  -0.00   0.01     0.01  -0.04  -0.01
  74   1    -0.09   0.02  -0.10     0.07  -0.00   0.05    -0.04  -0.02   0.01
  75   1     0.06  -0.02  -0.02    -0.01   0.00   0.00    -0.01   0.03   0.04
  76   1     0.08  -0.05   0.04    -0.05   0.00  -0.02     0.03   0.06   0.01
  77   1    -0.02  -0.02   0.00     0.03  -0.02  -0.01     0.10  -0.00  -0.03
[...]
  20   6     0.00  -0.00   0.00     0.00  -0.00   0.00     0.00  -0.00   0.00
  21   6     0.03   0.04  -0.02    -0.00  -0.00   0.00    -0.00  -0.00   0.00
  22   6    -0.08   0.14  -0.10     0.00  -0.01   0.00    -0.00   0.00  -0.00
  23   6    -0.01   0.00  -0.00     0.00   0.00  -0.00    -0.00   0.00  -0.00
  24   6    -0.00   0.00  -0.00     0.00   0.00  -0.00     0.00  -0.00   0.00
  25   6    -0.00  -0.00   0.00    -0.00  -0.00   0.00    -0.00  -0.00   0.00
  26   6     0.00   0.00  -0.00     0.00  -0.00  -0.00     0.00  -0.00  -0.00
  27   6    -0.00   0.02   0.02    -0.00  -0.07  -0.10    -0.00  -0.00  -0.00
  28   6     0.02   0.02   0.00    -0.05  -0.04  -0.01    -0.00  -0.00  -0.00
  29   6     0.02  -0.00  -0.02     0.00   0.00   0.00    -0.00  -0.00   0.00
  30   6    -0.00   0.02   0.02     0.00  -0.04  -0.05    -0.00   0.00   0.00
  31   6     0.04   0.04   0.01    -0.07  -0.05  -0.01     0.00   0.00   0.00
  32   6    -0.00  -0.00  -0.00    -0.00   0.00   0.00    -0.00   0.00   0.00
  33   6    -0.01  -0.06   0.02    -0.02  -0.09   0.03     0.00   0.00  -0.00
  34   6    -0.01  -0.00   0.02    -0.04  -0.01   0.06     0.00   0.00  -0.00
  35   6     0.01  -0.01  -0.01    -0.00   0.01   0.00     0.00  -0.00  -0.00
  36   6    -0.00  -0.03   0.01    -0.01  -0.07   0.02    -0.00  -0.00   0.00
  37   6    -0.02  -0.00   0.03    -0.07  -0.02   0.14    -0.00  -0.00   0.00
  38   6     0.00  -0.00   0.00    -0.00   0.00   0.00     0.00  -0.00   0.00
  39   6     0.01   0.05   0.02    -0.00  -0.00  -0.00    -0.00  -0.00  -0.00
  40   6     0.05   0.01   0.03    -0.00  -0.00  -0.00    -0.00  -0.00  -0.00
  41   6     0.01  -0.02   0.00     0.00  -0.01   0.00    -0.00   0.00  -0.00
  42   6     0.01   0.05   0.02    -0.00  -0.01  -0.00     0.00   0.00   0.00
  43   6     0.10   0.01   0.07    -0.01  -0.00  -0.01     0.00   0.00   0.00
  44   6    -0.01  -0.01   0.00     0.01   0.01  -0.00    -0.01  -0.01   0.00
  45   6    -0.00   0.00  -0.00     0.00  -0.01   0.00     0.01  -0.01   0.01
  46   6     0.00   0.00  -0.00    -0.00  -0.00   0.00     0.01   0.01  -0.01
  47   6    -0.00   0.00  -0.00     0.00  -0.00   0.00    -0.02   0.04  -0.02
  48   6     0.00  -0.00   0.00     0.00  -0.00   0.00     0.00  -0.00   0.01
  49   6    -0.00  -0.00  -0.00     0.00   0.00  -0.00     0.00  -0.00   0.00
  50   1     0.00   0.00   0.00    -0.00  -0.00  -0.00     0.00   0.00   0.00
  51   1    -0.00  -0.00   0.00     0.00  -0.00   0.00    -0.00   0.00  -0.00
  52   1     0.00  -0.00  -0.00    -0.00   0.00   0.00    -0.00   0.00   0.00
  53   1    -0.00   0.00   0.00    -0.00   0.00   0.00    -0.00   0.00   0.00
  54   1     0.00   0.00   0.00    -0.00  -0.00  -0.00     0.00   0.00   0.00
  55   1    -0.00  -0.00   0.00     0.00   0.00  -0.00    -0.01  -0.04   0.11
  56   1    -0.00  -0.00   0.00     0.00   0.00  -0.00    -0.22  -0.03   0.09
  57   1     0.00  -0.00   0.00     0.00  -0.00   0.00    -0.24   0.06  -0.15
  58   1    -0.00  -0.00   0.01    -0.00  -0.00   0.00     0.01   0.04  -0.12
  59   1    -0.00   0.00  -0.00     0.00  -0.00   0.01     0.23  -0.16   0.45
  60   1     0.00   0.00  -0.00    -0.00  -0.00   0.01    -0.37  -0.16   0.52
  61   1     0.00   0.01  -0.00    -0.00  -0.00   0.00     0.00   0.00  -0.00
  62   1    -0.01   0.02  -0.01     0.00  -0.00   0.00    -0.01   0.01  -0.01
  63   1    -0.01  -0.02   0.01     0.00   0.01  -0.00    -0.00  -0.00   0.00
  64   1    -0.01  -0.01   0.01     0.00   0.00  -0.00     0.00   0.00  -0.00
  65   1    -0.09  -0.13   0.07     0.00   0.01  -0.00     0.00   0.00  -0.00
  66   1     0.29  -0.49   0.34    -0.01   0.02  -0.02     0.00  -0.00   0.00
  67   1     0.00  -0.06  -0.08     0.00   0.26   0.35     0.00   0.00   0.00
  68   1    -0.07  -0.06  -0.02     0.16   0.12   0.04     0.00   0.00   0.00
  69   1    -0.08   0.00   0.06    -0.00  -0.00   0.00     0.00  -0.00  -0.00
  70   1     0.00  -0.06  -0.07    -0.00   0.12   0.15     0.00  -0.00  -0.00
  71   1    -0.16  -0.12  -0.04     0.23   0.19   0.05    -0.01  -0.01  -0.00
  72   1     0.04   0.20  -0.07     0.06   0.32  -0.11    -0.00  -0.01   0.00
  73   1     0.05   0.01  -0.08     0.12   0.04  -0.21    -0.01  -0.00   0.01
  74   1    -0.02   0.04   0.03     0.01  -0.03  -0.02    -0.00   0.01   0.01
  75   1     0.02   0.09  -0.03     0.04   0.23  -0.08     0.00   0.00  -0.00
  76   1     0.06   0.02  -0.11     0.26   0.09  -0.48     0.00   0.00  -0.00
  77   1    -0.05  -0.16  -0.06     0.00   0.01   0.00     0.00   0.01   0.00
  78   1    -0.17  -0.02  -0.11     0.01   0.00   0.01     0.00   0.00   0.00
  79   1    -0.05   0.07  -0.02    -0.01   0.02  -0.00     0.00  -0.00   0.00
  80   1    -0.05  -0.16  -0.07     0.01   0.03   0.01    -0.00  -0.00  -0.00
  81   1    -0.34  -0.04  -0.24     0.03   0.00   0.02    -0.00  -0.00  -0.00
  82   1     0.02   0.03  -0.02    -0.02  -0.03   0.02     0.02   0.02  -0.01
  83   1     0.01  -0.02   0.01    -0.02   0.03  -0.02    -0.02   0.03  -0.02
  84   1    -0.01  -0.01   0.00     0.00   0.01  -0.00    -0.02  -0.03   0.02
  85   1     0.00  -0.01   0.00    -0.01   0.01  -0.01     0.07  -0.12   0.07
  86   1    -0.00   0.00  -0.00    -0.00   0.00  -0.00    -0.01   0.01  -0.02
                    247                    248                    249
                        a                      a                      a 
 Frequencies --  3091.8871              3092.7216              3092.8465
 Red. masses --     1.8485                 1.9071                 1.9102
 Frc consts  --     0.0000                 0.0000                 0.0000
 IR Inten    --    86.3640               272.5413                50.5279
 Raman Activ --     0.0000                 0.0000                 0.0000
 Depolar     --     0.0000                 0.0000                 0.0000
 Atom AN      X      Y      Z        X      Y      Z        X      Y      Z
   1   6     0.00  -0.00   0.00     0.00  -0.00  -0.00    -0.00   0.00  -0.00
   2   6     0.00   0.00   0.00     0.00  -0.00   0.00    -0.00  -0.00  -0.00
   3   7     0.00   0.00  -0.00     0.00   0.00  -0.00    -0.00  -0.00   0.00
   4   6     0.00   0.00  -0.00    -0.00   0.00  -0.00     0.00  -0.00   0.00
   5   6    -0.00   0.00  -0.00     0.00   0.00  -0.00    -0.00  -0.00   0.00
   6   6     0.00   0.00  -0.00     0.00   0.00  -0.00    -0.00  -0.00   0.00
   7   6     0.01  -0.00   0.00     0.01  -0.00   0.00    -0.00   0.00  -0.00
   8   6    -0.00  -0.00   0.01    -0.00  -0.00   0.01     0.00   0.00  -0.00
   9   6    -0.00  -0.00   0.00    -0.00  -0.00   0.00     0.00   0.00  -0.00
  10   6     0.00   0.00  -0.00     0.00   0.00  -0.00     0.00  -0.00   0.00
  11   6     0.00  -0.00   0.01     0.00  -0.00   0.00    -0.00   0.00  -0.00
  12   6    -0.00  -0.00   0.01    -0.00  -0.00   0.01     0.00   0.00  -0.00
  13   6     0.00  -0.00   0.00    -0.00  -0.00   0.00    -0.00   0.00  -0.00
  14   6    -0.00   0.00  -0.00    -0.00   0.00  -0.00     0.00  -0.00   0.00
  15   6    -0.05  -0.07   0.04    -0.00  -0.01   0.00     0.00   0.00  -0.00
  16   6     0.11  -0.20   0.12     0.01  -0.02   0.01    -0.01   0.01  -0.01
  17   6     0.01  -0.00   0.00     0.00  -0.00   0.00    -0.00   0.00  -0.00
  18   6    -0.00  -0.01   0.00    -0.01  -0.01   0.01     0.00   0.00  -0.00
  19   6    -0.01  -0.03   0.01    -0.00  -0.01   0.00     0.00   0.00  -0.00
  20   6    -0.00  -0.00   0.00     0.00  -0.00   0.00    -0.00   0.00  -0.00
  21   6    -0.00  -0.01   0.00    -0.00  -0.00   0.00     0.00   0.00  -0.00
  22   6     0.00  -0.00   0.00     0.01  -0.01   0.01    -0.00   0.00  -0.00
  23   6     0.00  -0.00  -0.00    -0.00   0.00   0.00    -0.00   0.00   0.00
  24   6     0.00  -0.00   0.00    -0.00   0.00  -0.00     0.00  -0.00   0.00
  25   6    -0.00  -0.00   0.00    -0.00   0.00   0.00    -0.00   0.00   0.00
  26   6     0.00  -0.00  -0.00    -0.00   0.00   0.00    -0.00   0.00   0.00
  27   6    -0.00  -0.00  -0.00    -0.00   0.01   0.01    -0.00   0.02   0.03
  28   6    -0.00  -0.00  -0.00     0.02   0.01   0.00     0.05   0.04   0.01
  29   6    -0.00  -0.00   0.00     0.03  -0.00  -0.03     0.12  -0.00  -0.09
  30   6    -0.00   0.00   0.00     0.00  -0.01  -0.01     0.00  -0.06  -0.07
  31   6     0.00   0.00   0.00    -0.00  -0.00  -0.00    -0.05  -0.04  -0.01
  32   6    -0.00   0.00   0.00    -0.00   0.00   0.00    -0.00   0.00   0.00
  33   6     0.00   0.01  -0.00     0.00   0.03  -0.01     0.01   0.04  -0.01
  34   6     0.00   0.00  -0.00     0.02   0.01  -0.04     0.04   0.01  -0.06
  35   6     0.00  -0.00  -0.00     0.03  -0.06  -0.04     0.04  -0.10  -0.07
  36   6    -0.00  -0.00   0.00    -0.01  -0.03   0.01    -0.01  -0.05   0.02
  37   6    -0.00  -0.00   0.01    -0.01  -0.00   0.02    -0.02  -0.00   0.03
  38   6     0.00  -0.00   0.00    -0.00   0.00  -0.00     0.00  -0.00   0.00
  39   6    -0.00  -0.01  -0.00     0.02   0.06   0.02    -0.01  -0.03  -0.01
  40   6    -0.01  -0.00  -0.01     0.09   0.01   0.06    -0.04  -0.00  -0.03
  41   6    -0.01   0.02  -0.00     0.10  -0.15   0.03    -0.04   0.06  -0.01
  42   6     0.00   0.01   0.00    -0.02  -0.08  -0.03     0.01   0.03   0.01
  43   6     0.01   0.00   0.00    -0.05  -0.00  -0.03     0.02   0.00   0.01
  44   6     0.01   0.01  -0.00    -0.02  -0.02   0.01     0.00   0.00  -0.00
  45   6    -0.01   0.01  -0.01     0.03  -0.05   0.03    -0.00   0.00  -0.00
  46   6     0.00   0.00  -0.00    -0.00  -0.00   0.00    -0.00  -0.00   0.00
  47   6    -0.00   0.00  -0.00     0.00  -0.00   0.00     0.00  -0.00   0.00
  48   6     0.01  -0.01   0.02     0.00  -0.00   0.00    -0.00   0.00  -0.00
  49   6    -0.00  -0.00   0.00    -0.00  -0.00   0.00     0.00   0.00  -0.00
  50   1    -0.00  -0.00  -0.00    -0.00  -0.00  -0.00     0.00   0.00   0.00
  51   1    -0.00   0.00  -0.00    -0.00   0.00  -0.00     0.00  -0.00   0.00
  52   1    -0.00   0.00   0.00    -0.00   0.00   0.00     0.00  -0.00  -0.00
  53   1    -0.00   0.00   0.00    -0.00   0.00   0.00    -0.00   0.00   0.00
  54   1    -0.00  -0.00  -0.00    -0.00  -0.00  -0.00     0.00   0.00   0.00
  55   1    -0.00  -0.00   0.00    -0.00  -0.00   0.00     0.00   0.00  -0.00
  56   1    -0.01  -0.00   0.01    -0.01  -0.00   0.00     0.01   0.00  -0.00
  57   1    -0.03   0.01  -0.02    -0.02   0.00  -0.01     0.01  -0.00   0.01
  58   1     0.00   0.01  -0.03     0.00   0.01  -0.02    -0.00  -0.00   0.01
  59   1    -0.01   0.01  -0.02    -0.01   0.01  -0.02     0.00  -0.00   0.00
  60   1     0.02   0.01  -0.02     0.01   0.01  -0.02    -0.00  -0.00   0.00
  61   1     0.17   0.23  -0.12     0.02   0.02  -0.01    -0.01  -0.01   0.01
  62   1    -0.39   0.69  -0.40    -0.03   0.06  -0.03     0.02  -0.03   0.02
  63   1     0.01   0.02  -0.01     0.02   0.04  -0.02    -0.00  -0.00   0.00
  64   1     0.05   0.10  -0.05     0.01   0.02  -0.01    -0.00  -0.01   0.00
  65   1     0.02   0.02  -0.01     0.01   0.01  -0.01    -0.00  -0.00   0.00
  66   1    -0.01   0.01  -0.01    -0.03   0.04  -0.03     0.01  -0.01   0.01
  67   1     0.00   0.01   0.01    -0.00  -0.03  -0.03    -0.00  -0.08  -0.11
  68   1     0.00   0.00   0.00    -0.05  -0.04  -0.01    -0.16  -0.13  -0.04
  69   1     0.00  -0.00  -0.00    -0.11   0.00   0.09    -0.41   0.00   0.32
  70   1     0.00  -0.01  -0.01    -0.00   0.04   0.05    -0.01   0.18   0.22
  71   1    -0.01  -0.01  -0.00     0.01   0.01   0.00     0.17   0.14   0.04
  72   1    -0.00  -0.02   0.01    -0.02  -0.09   0.03    -0.03  -0.14   0.05
  73   1    -0.01  -0.00   0.01    -0.07  -0.02   0.12    -0.11  -0.03   0.19
  74   1    -0.01   0.02   0.01    -0.09   0.22   0.15    -0.14   0.34   0.24
  75   1     0.00   0.01  -0.00     0.02   0.10  -0.03     0.03   0.17  -0.06
  76   1     0.01   0.00  -0.02     0.03   0.01  -0.05     0.06   0.02  -0.11
  77   1     0.01   0.03   0.01    -0.06  -0.19  -0.08     0.03   0.10   0.04
  78   1     0.04   0.00   0.02    -0.30  -0.03  -0.19     0.14   0.02   0.09
  79   1     0.04  -0.05   0.01    -0.35   0.50  -0.11     0.15  -0.21   0.05
  80   1    -0.01  -0.03  -0.01     0.08   0.26   0.11    -0.03  -0.11  -0.05
  81   1    -0.02  -0.00  -0.02     0.16   0.02   0.11    -0.07  -0.01  -0.05
  82   1    -0.02  -0.03   0.01     0.06   0.08  -0.04    -0.01  -0.01   0.00
  83   1     0.03  -0.05   0.03    -0.11   0.19  -0.12     0.00  -0.01   0.00
  84   1    -0.01  -0.01   0.01     0.01   0.01  -0.00     0.00   0.00  -0.00
  85   1     0.00  -0.01   0.00    -0.00   0.00  -0.00    -0.00   0.00  -0.00
  86   1    -0.03   0.02  -0.05    -0.00   0.00  -0.00     0.00  -0.00   0.00
                    250                    251                    252
                        a                      a                      a 
 Frequencies --  3093.7761              3094.2143              3094.7096
 Red. masses --     1.8675                 1.9129                 1.9045
 Frc consts  --     0.0000                 0.0000                 0.0000
 IR Inten    --    53.0524               202.9576                88.2041
 Raman Activ --     0.0000                 0.0000                 0.0000
 Depolar     --     0.0000                 0.0000                 0.0000
 Atom AN      X      Y      Z        X      Y      Z        X      Y      Z
   1   6    -0.00   0.00  -0.00    -0.00  -0.00   0.00     0.00   0.00  -0.00
   2   6    -0.00  -0.00  -0.00    -0.00   0.00   0.00     0.00  -0.00  -0.00
   3   7     0.00   0.00  -0.00    -0.00  -0.00   0.00     0.00   0.00  -0.00
   4   6    -0.00   0.00  -0.00     0.00  -0.00   0.00    -0.00   0.00  -0.00
   5   6     0.00   0.00  -0.01    -0.00  -0.01   0.02     0.01   0.02  -0.05
   6   6     0.02   0.00  -0.01    -0.04  -0.00   0.02     0.10   0.01  -0.04
   7   6     0.03  -0.01   0.02    -0.05   0.01  -0.03     0.13  -0.03   0.08
   8   6    -0.00  -0.01   0.03     0.01   0.02  -0.05    -0.01  -0.04   0.13
   9   6    -0.00  -0.00   0.00     0.00   0.00  -0.00    -0.00  -0.00   0.00
  10   6     0.00  -0.00  -0.00    -0.00  -0.00   0.00     0.00   0.00  -0.00
  11   6     0.00  -0.00   0.01    -0.01   0.01  -0.02     0.04  -0.02   0.07
  12   6    -0.00  -0.00   0.00     0.01   0.01  -0.02    -0.04  -0.02   0.06
  13   6    -0.00   0.00  -0.00     0.00  -0.00   0.00    -0.00   0.00  -0.00
  14   6    -0.00  -0.00   0.00     0.00  -0.00   0.00     0.00  -0.00   0.00
  15   6     0.00   0.00  -0.00     0.00   0.00  -0.00     0.00   0.01  -0.00
  16   6    -0.01   0.01  -0.01    -0.00   0.01  -0.00    -0.01   0.01  -0.01
  17   6     0.00   0.00  -0.00    -0.00   0.00  -0.00    -0.00   0.00  -0.00
  18   6     0.01   0.03  -0.01     0.00   0.00  -0.00    -0.00  -0.00   0.00
  19   6     0.01   0.01  -0.01     0.00   0.00  -0.00     0.00   0.00  -0.00
  20   6    -0.01   0.00  -0.00    -0.00   0.00   0.00     0.00  -0.00   0.00
  21   6     0.00  -0.00   0.00     0.00   0.00  -0.00     0.00   0.00  -0.00
  22   6     0.00  -0.00   0.00    -0.00   0.00  -0.00    -0.00   0.00  -0.00
  23   6     0.00  -0.00   0.00     0.00  -0.00  -0.00    -0.00   0.00  -0.00
  24   6     0.00   0.00  -0.00     0.00  -0.00   0.00     0.00  -0.00   0.00
  25   6     0.00  -0.00   0.00     0.00   0.00   0.00     0.00   0.00   0.00
  26   6    -0.00  -0.00   0.00     0.00  -0.00  -0.00     0.00  -0.00  -0.00
  27   6    -0.00  -0.00  -0.00     0.00  -0.03  -0.04     0.00  -0.01  -0.01
  28   6     0.00   0.00   0.00    -0.05  -0.04  -0.01    -0.02  -0.01  -0.00
  29   6     0.00   0.00  -0.00    -0.10   0.00   0.08    -0.04   0.00   0.03
  30   6     0.00  -0.00  -0.00    -0.00   0.05   0.06    -0.00   0.02   0.02
  31   6    -0.00  -0.00  -0.00     0.05   0.04   0.01     0.01   0.01   0.00
  32   6    -0.00   0.00   0.00    -0.00   0.00   0.00    -0.00   0.00   0.00
  33   6     0.00   0.01  -0.00     0.01   0.05  -0.02     0.00   0.02  -0.00
  34   6     0.01   0.00  -0.01     0.04   0.01  -0.07     0.01   0.00  -0.02
  35   6     0.01  -0.02  -0.01     0.05  -0.11  -0.08     0.01  -0.04  -0.02
  36   6    -0.00  -0.01   0.00    -0.01  -0.06   0.02    -0.00  -0.02   0.01
  37   6    -0.00  -0.00   0.01    -0.02  -0.01   0.05    -0.01  -0.00   0.02
  38   6    -0.00   0.00  -0.00     0.00  -0.00  -0.00     0.00  -0.00   0.00
  39   6     0.01   0.02   0.01    -0.00  -0.00  -0.00    -0.00  -0.01  -0.00
  40   6     0.03   0.00   0.02    -0.01  -0.00  -0.01    -0.01  -0.00  -0.01
  41   6     0.03  -0.04   0.01    -0.02   0.02  -0.01    -0.02   0.02  -0.01
  42   6    -0.01  -0.02  -0.01     0.00   0.01   0.01     0.00   0.01   0.01
  43   6    -0.01  -0.00  -0.01     0.01   0.00   0.01     0.01   0.00   0.01
  44   6     0.07   0.10  -0.05     0.00   0.01  -0.00    -0.01  -0.02   0.01
  45   6    -0.10   0.17  -0.11    -0.00   0.01  -0.00     0.02  -0.03   0.02
  46   6     0.00   0.01  -0.00     0.00  -0.00   0.00    -0.00  -0.01   0.00
  47   6    -0.00   0.01  -0.00    -0.00   0.00  -0.00     0.01  -0.01   0.01
  48   6    -0.00   0.00  -0.00     0.00  -0.00   0.00    -0.01   0.00  -0.01
  49   6    -0.00  -0.00   0.00     0.00  -0.00  -0.00    -0.00   0.00  -0.00
  50   1     0.00   0.00   0.00     0.00   0.00   0.00    -0.00  -0.00  -0.00
  51   1     0.00  -0.00   0.00    -0.00   0.00  -0.00     0.00  -0.00   0.00
  52   1     0.00  -0.00  -0.00     0.00  -0.00  -0.00    -0.00   0.00   0.00
  53   1    -0.00   0.00   0.00     0.00  -0.00  -0.00    -0.00   0.00   0.00
  54   1     0.00   0.00   0.00    -0.00  -0.00  -0.00     0.00   0.00   0.00
  55   1    -0.00  -0.01   0.04     0.01   0.02  -0.06    -0.02  -0.06   0.16
  56   1    -0.07  -0.01   0.03     0.12   0.02  -0.05    -0.33  -0.04   0.14
  57   1    -0.09   0.02  -0.06     0.16  -0.04   0.10    -0.42   0.10  -0.27
  58   1     0.01   0.03  -0.09    -0.02  -0.06   0.16     0.04   0.15  -0.43
  59   1    -0.01   0.01  -0.02     0.04  -0.03   0.07    -0.12   0.08  -0.23
  60   1     0.01   0.00  -0.01    -0.05  -0.02   0.07     0.15   0.06  -0.21
  61   1    -0.00  -0.00   0.00    -0.01  -0.01   0.01    -0.01  -0.02   0.01
  62   1     0.02  -0.04   0.02     0.01  -0.02   0.01     0.03  -0.05   0.03
  63   1    -0.05  -0.09   0.05    -0.00  -0.01   0.00     0.01   0.02  -0.01
  64   1    -0.02  -0.03   0.02    -0.00  -0.01   0.00    -0.00  -0.00   0.00
  65   1     0.00   0.00  -0.00    -0.01  -0.01   0.00    -0.01  -0.01   0.00
  66   1    -0.01   0.01  -0.01     0.01  -0.01   0.01     0.01  -0.01   0.01
  67   1    -0.00   0.00   0.00     0.00   0.10   0.13     0.00   0.03   0.05
  68   1    -0.00  -0.00  -0.00     0.16   0.13   0.04     0.06   0.05   0.01
  69   1    -0.02   0.00   0.01     0.35  -0.00  -0.28     0.13  -0.00  -0.10
  70   1    -0.00   0.01   0.01     0.00  -0.16  -0.20     0.00  -0.06  -0.07
  71   1     0.01   0.01   0.00    -0.15  -0.12  -0.03    -0.05  -0.04  -0.01
  72   1    -0.01  -0.04   0.01    -0.04  -0.18   0.06    -0.01  -0.05   0.02
  73   1    -0.02  -0.01   0.04    -0.13  -0.04   0.23    -0.04  -0.01   0.07
  74   1    -0.02   0.06   0.04    -0.15   0.38   0.26    -0.05   0.12   0.08
  75   1     0.01   0.03  -0.01     0.04   0.21  -0.07     0.01   0.07  -0.02
  76   1     0.02   0.01  -0.03     0.08   0.03  -0.15     0.03   0.01  -0.05
  77   1    -0.02  -0.07  -0.03     0.00   0.01   0.00     0.01   0.03   0.01
  78   1    -0.09  -0.01  -0.06     0.04   0.00   0.03     0.05   0.01   0.03
  79   1    -0.10   0.14  -0.03     0.05  -0.07   0.02     0.06  -0.08   0.02
  80   1     0.02   0.08   0.03    -0.01  -0.04  -0.02    -0.01  -0.04  -0.02
  81   1     0.04   0.00   0.03    -0.03  -0.00  -0.02    -0.02  -0.00  -0.02
  82   1    -0.24  -0.33   0.18    -0.01  -0.02   0.01     0.04   0.05  -0.03
  83   1     0.34  -0.59   0.37     0.01  -0.02   0.01    -0.06   0.10  -0.06
  84   1    -0.02  -0.02   0.01    -0.00  -0.00   0.00     0.01   0.02  -0.01
  85   1     0.01  -0.02   0.01     0.00  -0.00   0.00    -0.03   0.05  -0.03
  86   1     0.00  -0.00   0.01    -0.00   0.00  -0.01     0.02  -0.01   0.03
