$hessian                                                                        
        0.5240643546   0.0066120674   0.0012517538  -0.0680611840   0.0082510022
        0.0024902592   0.0017573821   0.0083660463  -0.0058448788   0.0005762366
        0.0007950358  -0.0002017547   0.0000623593  -0.0002571068   0.0000802548
        0.0000173567   0.0000517768  -0.0000309145  -0.0000120244  -0.0000104539
        0.0000232606   0.0000498221  -0.0000830463   0.0000109777   0.0000799231
       -0.0000865282  -0.0002237859  -0.0001126278  -0.0000820907  -0.0002532208
        0.0000358723  -0.0000226548  -0.0000235852  -0.0000639515   0.0000383681
       -0.0000499017   0.0000164387  -0.0001856654   0.0001221998  -0.0000095445
       -0.0000107640  -0.0000165785  -0.0000066206  -0.0000128754   0.0000081174
       -0.0000085478  -0.0000055067   0.0000096460   0.0000124542   0.0000052045
       -0.0000046449   0.0000008895  -0.0000019040   0.0000027300  -0.0000023474
       -0.0000056696   0.0000058020   0.0000031194  -0.0000000147   0.0000002149
        0.0000029589   0.0000018532   0.0000004236  -0.0000014577   0.0000024041
       -0.0000022906  -0.0000035662  -0.0000020986  -0.0000014824   0.0000009343
       -0.0000009378   0.0000007569   0.0000007592  -0.0000034992   0.0000016892
       -0.0000010446  -0.0000000974  -0.0000018319   0.0000012758  -0.0000006616
       -0.0000004150  -0.0000007764  -0.0000007726  -0.0000012665  -0.0000017441
       -0.0000001369   0.0000000515  -0.0000019781   0.0000004057   0.0000021020
        0.0000020477   0.0000010901   0.0000004500   0.0000000329   0.0000002211
       -0.0000010776  -0.0000012160   0.0000014947   0.0000034006   0.0000015156
        0.0000005119  -0.0000013292   0.0000009819  -0.0000018824  -0.0000005242
       -0.0000014919  -0.0000011593   0.0000025085  -0.0000015869   0.0000016459
        0.0000009241   0.0000002443   0.0000026494  -0.0000004528  -0.0000003334
       -0.0000008467  -0.0000006812  -0.0000011642   0.0000002613  -0.0000007459
       -0.0000006452   0.0000010694   0.0000000606   0.0000003276   0.0000005983
        0.0000004058  -0.0000001504  -0.0000002224  -0.0000013032   0.0000003947
       -0.0000021387   0.0000036779   0.0000007470  -0.0000011112   0.0000011879
        0.0000048063   0.0000123900  -0.0000055668  -0.0000082736  -0.0000014294
        0.0000097996   0.0000609087   0.0003215169  -0.0001001445  -0.0006441867
        0.0002109353   0.0006837736  -0.2248479758  -0.0882219445  -0.0571868117
       -0.0558833279   0.0136591868  -0.0496125529  -0.1741407898   0.0531378968
        0.1075999955  -0.0031279090   0.0237357491   0.0018189699   0.0003272750
       -0.0262901811  -0.0006180355  -0.0001096482   0.0001575760   0.0000136346
       -0.0000143817   0.0000104190   0.0000132268  -0.0000081087  -0.0000020907
       -0.0000069598  -0.0000081506  -0.0000041898  -0.0000014556   0.0000032734
        0.0000030175  -0.0000160749   0.0000079516   0.0000187302   0.0000128228
       -0.0000203316   0.0000144530  -0.0000233716   0.0000030731  -0.0000006994
       -0.0000014624   0.0000002995   0.0000038215  -0.0000031019  -0.0000002768
        0.0000039904  -0.0000046358  -0.0000002525   0.0000002080  -0.0000011424
        0.0000008787  -0.0000014069   0.0000015188  -0.0000003423   0.0000004220
        0.0000003437   0.0000007293   0.0000009158   0.0000009686   0.0000013398
        0.0000000995  -0.0000001025   0.0000006396  -0.0000010359  -0.0000008910
       -0.0000005450  -0.0000001571   0.0000000166   0.0000001310   0.0000000505
       -0.0000013925  -0.0000006673  -0.0000004345   0.0000003269  -0.0000012555
        0.0000013876   0.0000001489   0.0000004529   0.0000011735  -0.0000008782
        0.0000002261  -0.0000007371  -0.0000005725  -0.0000000730   0.0000005058
        0.0000008107   0.0000007844  -0.0000005533   0.0000010542   0.0000004448
       -0.0000011986   0.0000001484  -0.0000008383  -0.0000003987  -0.0000000057
       -0.0000000029  -0.0000001206   0.0000011185   0.0000009286   0.0000013346
       -0.0000016696  -0.0000011671   0.0000002104  -0.0000007457   0.0000070024
        0.0000039562  -0.0000026509  -0.0000025021   0.0000031683  -0.0000052338
        0.0000054360  -0.0001303983   0.0000765909
        0.0066120674   0.4483308447   0.0041108836   0.0074331686  -0.1858910404
       -0.0069146485   0.0058800124  -0.0149482452   0.0212599713  -0.0019310203
       -0.0006531764  -0.0005695571   0.0000115426  -0.0001331079  -0.0001283820
       -0.0001672906   0.0000347256  -0.0001259260  -0.0000132057  -0.0000293513
        0.0001046058   0.0000911443   0.0000621700   0.0000312961  -0.0002104526
        0.0001230910   0.0004336344   0.0003648438   0.0001644748   0.0002966937
       -0.0000673604   0.0000540169   0.0000602268   0.0000334676  -0.0000347555
        0.0000828215   0.0000851242   0.0000422466  -0.0001728452   0.0000555568
       -0.0000002061   0.0000103738  -0.0000267587  -0.0000065392   0.0000079406
        0.0000135625  -0.0000123052   0.0000027419  -0.0000168265  -0.0000057513
        0.0000048822   0.0000112564   0.0000055603  -0.0000043558  -0.0000118061
       -0.0000033515   0.0000012059   0.0000085758   0.0000025237  -0.0000013274
       -0.0000085402  -0.0000071286   0.0000042967   0.0000005657  -0.0000038760
        0.0000037727   0.0000010086   0.0000015776   0.0000019157   0.0000007208
        0.0000001082  -0.0000009975  -0.0000023932   0.0000004767  -0.0000022447
        0.0000035502  -0.0000006208   0.0000006533  -0.0000009745   0.0000016555
        0.0000016588   0.0000018941   0.0000006449   0.0000005063  -0.0000002385
       -0.0000001012  -0.0000001789   0.0000008602   0.0000001773  -0.0000008452
       -0.0000004177  -0.0000013725  -0.0000015502   0.0000003060   0.0000020246
        0.0000008720  -0.0000025367  -0.0000021510   0.0000008464  -0.0000018343
        0.0000022351   0.0000004580  -0.0000000663  -0.0000010196  -0.0000002739
       -0.0000002224  -0.0000003724  -0.0000006274   0.0000009796   0.0000018685
       -0.0000015931   0.0000001413  -0.0000039012   0.0000013157   0.0000009178
        0.0000011955   0.0000009367   0.0000004513  -0.0000003012  -0.0000000555
        0.0000001838   0.0000002933   0.0000000393   0.0000003688  -0.0000023084
       -0.0000011256  -0.0000008764   0.0000004224   0.0000002869  -0.0000010696
        0.0000036501  -0.0000047428  -0.0000035432   0.0000017251  -0.0000013560
       -0.0000033049  -0.0000001535   0.0000030268  -0.0000162191   0.0000017289
       -0.0000118662  -0.0000520470  -0.0001029989  -0.0001406953   0.0015728796
       -0.0003979141  -0.0012950944  -0.0886263183  -0.0860778172  -0.0288370661
        0.0137778724  -0.0584819169   0.0603940185   0.0532798441  -0.0649941615
       -0.0455224818   0.0044525598  -0.0163287124  -0.0022494664  -0.0026073211
       -0.0207024922  -0.0009301082   0.0000840382   0.0000015384  -0.0000312569
        0.0000446779   0.0000083987   0.0000068028   0.0000206178   0.0000028345
        0.0000178547   0.0000296838  -0.0000033564   0.0000255938  -0.0000156357
       -0.0000053973   0.0000319926  -0.0000084040   0.0000068081   0.0000286131
        0.0000452703  -0.0000009158  -0.0000078648  -0.0000175693   0.0000078967
       -0.0000024277  -0.0000020646   0.0000000111   0.0000009942   0.0000018206
        0.0000000111   0.0000010133   0.0000022924   0.0000020536  -0.0000008680
       -0.0000027093   0.0000025481  -0.0000020119   0.0000005144  -0.0000005245
       -0.0000004402  -0.0000010267  -0.0000007171  -0.0000007483  -0.0000009678
       -0.0000001879   0.0000002008  -0.0000008611   0.0000004081   0.0000007671
        0.0000002193   0.0000000095   0.0000002472   0.0000008987   0.0000004874
        0.0000004328   0.0000016754  -0.0000004956  -0.0000007749   0.0000010424
       -0.0000003041  -0.0000001692   0.0000003538  -0.0000002894  -0.0000001099
       -0.0000000702  -0.0000001719   0.0000003389  -0.0000003287  -0.0000003807
       -0.0000001674  -0.0000010694   0.0000009419  -0.0000003094  -0.0000010515
        0.0000013269   0.0000002845   0.0000000682   0.0000011017   0.0000012362
        0.0000001670  -0.0000005127  -0.0000005894  -0.0000009254  -0.0000006270
        0.0000009968   0.0000019460   0.0000008078  -0.0000003854  -0.0000102958
       -0.0000009111   0.0000024618   0.0000020466   0.0000089051   0.0000011245
       -0.0000971359  -0.0000435844   0.0000246979
        0.0012517538   0.0041108836   0.5316837577   0.0022401189  -0.0030301679
       -0.0585522434  -0.0068743882   0.0332432721  -0.0168952941   0.0028186749
        0.0023932453   0.0002888927  -0.0002297821   0.0001351657  -0.0000187973
        0.0001891568  -0.0002727232   0.0001791251   0.0000608411   0.0000721159
       -0.0001204583   0.0000533675  -0.0002395445   0.0000101299   0.0001471263
       -0.0003138330  -0.0010982452  -0.0005538059  -0.0003576084  -0.0009089574
       -0.0000362739  -0.0002606007   0.0000524824  -0.0000794103   0.0000655509
       -0.0000647678  -0.0000599339  -0.0002070915   0.0001713265  -0.0000955614
       -0.0000003766  -0.0000047794   0.0000631231   0.0000599472  -0.0000338865
        0.0000126859  -0.0000014901   0.0000081240   0.0000053965   0.0000021807
       -0.0000011648  -0.0000130267  -0.0000083567   0.0000060596   0.0000129121
        0.0000066393  -0.0000043238  -0.0000081190  -0.0000018573   0.0000008652
        0.0000033622   0.0000049956  -0.0000044858  -0.0000000999   0.0000001591
       -0.0000006866   0.0000001322  -0.0000003186  -0.0000005392  -0.0000005797
        0.0000000397   0.0000003290   0.0000002431  -0.0000008919   0.0000006962
       -0.0000010233   0.0000001860  -0.0000004226   0.0000004627  -0.0000003936
       -0.0000003959  -0.0000000632   0.0000001070   0.0000003456   0.0000000243
        0.0000001108  -0.0000000335  -0.0000003695   0.0000002084   0.0000001556
        0.0000003235   0.0000005817   0.0000005565   0.0000001789  -0.0000001212
       -0.0000002802   0.0000001873   0.0000004369   0.0000003853   0.0000010479
       -0.0000006062  -0.0000006845   0.0000003756  -0.0000008386   0.0000002392
       -0.0000001439  -0.0000008662   0.0000009634  -0.0000008754  -0.0000000652
        0.0000011551   0.0000009566   0.0000014065   0.0000000036  -0.0000005459
       -0.0000009668  -0.0000012152  -0.0000006671   0.0000011404  -0.0000003635
        0.0000005824  -0.0000000080  -0.0000000044  -0.0000001652  -0.0000000690
       -0.0000003839  -0.0000000880   0.0000008922  -0.0000000092  -0.0000013168
       -0.0000006505   0.0000011568   0.0000003753  -0.0000024028   0.0000019514
       -0.0000276668  -0.0000130568   0.0000041671   0.0000452492  -0.0000031473
        0.0000198466   0.0001921788   0.0000082304  -0.0000371570  -0.0027055751
        0.0020777426   0.0013850318  -0.0572316284  -0.0283563315  -0.0638339710
       -0.0495924183   0.0598667421  -0.2586254596   0.1075567529  -0.0449225262
       -0.1353980087   0.0025733296  -0.0173115193   0.0003280929   0.0002456368
       -0.0069844032   0.0011818292  -0.0001573199   0.0000681823   0.0001911731
       -0.0000371451  -0.0000119004   0.0000167180  -0.0000274154   0.0000472370
        0.0000289301  -0.0000361899  -0.0000041769  -0.0000290223   0.0000229802
       -0.0000012732  -0.0000353783   0.0000236524   0.0000395742   0.0000107951
        0.0000101882  -0.0000305946  -0.0000044641   0.0000158519  -0.0000093129
        0.0000054161  -0.0000025039  -0.0000031166   0.0000024731   0.0000011815
       -0.0000046860   0.0000031422  -0.0000003172  -0.0000023179   0.0000016150
        0.0000008597  -0.0000005130   0.0000004086   0.0000000843  -0.0000000475
        0.0000000467   0.0000001384  -0.0000001526  -0.0000000147   0.0000001839
        0.0000002727  -0.0000000269   0.0000001878   0.0000003024  -0.0000002868
       -0.0000000931   0.0000001065  -0.0000002774   0.0000001855  -0.0000002255
       -0.0000003860  -0.0000000023  -0.0000000905   0.0000006174   0.0000000047
        0.0000003189   0.0000003877  -0.0000002141   0.0000003393   0.0000004171
       -0.0000002102   0.0000002504   0.0000003462   0.0000003352  -0.0000000512
       -0.0000002475   0.0000005889  -0.0000003949  -0.0000003359   0.0000004090
       -0.0000003423  -0.0000006889   0.0000002194  -0.0000000736  -0.0000008721
        0.0000001615   0.0000002872  -0.0000001645   0.0000000146  -0.0000002387
        0.0000003913  -0.0000001542  -0.0000005054   0.0000004806   0.0000047553
       -0.0000019205   0.0000014114  -0.0000079311  -0.0000190253   0.0000058188
        0.0002244861   0.0001749409   0.0000809271
       -0.0680611840   0.0074331686   0.0022401189   0.5454814744   0.0116092163
       -0.0167436689  -0.0890903450   0.0090291114  -0.0288636389  -0.0035667259
        0.0074078660  -0.0243729969  -0.0001352591   0.0001650562   0.0000151707
        0.0000363269  -0.0001564724  -0.0001574399  -0.0001104795  -0.0000033180
        0.0000774645   0.0004295650   0.0003675987  -0.0014142544  -0.0052130096
        0.0008674723  -0.0027486363  -0.0025822496  -0.0011710788   0.0041997778
        0.0005231146  -0.0001636852   0.0007454277   0.0000304066  -0.0000644062
        0.0000277807   0.0000786340   0.0003692260  -0.0000247530   0.0001705020
       -0.0000093560   0.0000518699  -0.0000585199  -0.0001049720   0.0000139686
        0.0000029410  -0.0000123795  -0.0000157979  -0.0000179866   0.0000106521
        0.0000009422   0.0000189174   0.0000108379  -0.0000132865  -0.0000154281
       -0.0000167013   0.0000032694   0.0000089739   0.0000031706  -0.0000003528
       -0.0000097035  -0.0000124091   0.0000045451   0.0000017916  -0.0000042300
        0.0000023155   0.0000003324   0.0000008728   0.0000017824   0.0000026855
        0.0000020229  -0.0000018133   0.0000018573   0.0000046539  -0.0000014145
       -0.0000010305  -0.0000016165   0.0000014600  -0.0000011577   0.0000005142
        0.0000006110  -0.0000001438   0.0000001462   0.0000002339  -0.0000001646
        0.0000000568  -0.0000000632  -0.0000009469   0.0000009753   0.0000004457
        0.0000005547   0.0000013641   0.0000015135   0.0000009675   0.0000000328
        0.0000002814  -0.0000003237  -0.0000034928  -0.0000000342  -0.0000040651
        0.0000008841   0.0000057585   0.0000002431  -0.0000001481   0.0000006993
        0.0000001315  -0.0000009490   0.0000001787   0.0000006704  -0.0000009584
        0.0000007850   0.0000005445  -0.0000025235   0.0000011634   0.0000011908
        0.0000008966  -0.0000002155   0.0000009694   0.0000006519  -0.0000009513
        0.0000007932  -0.0000001429  -0.0000010023   0.0000011978   0.0000002462
       -0.0000007243   0.0000011493  -0.0000000740  -0.0000005639   0.0000019819
        0.0000024052  -0.0000044530  -0.0000017511   0.0000026438  -0.0000040567
        0.0000442844   0.0000020603  -0.0000056536  -0.0000630407   0.0000003821
       -0.0000417303  -0.0005579997  -0.0004235680   0.0005866164   0.0079814928
       -0.0050012392   0.0152623872   0.0010409663  -0.0270995666   0.0004707733
       -0.0006006449   0.0064028273  -0.0010373513  -0.0031554718   0.0238117658
        0.0003845692  -0.1690171258   0.0515558999   0.0970435912  -0.2111720930
       -0.0847750706  -0.0461594237  -0.0010155514  -0.0000019006  -0.0005731351
       -0.0000200802  -0.0000117564  -0.0000312302   0.0000415605   0.0000345380
        0.0000107787  -0.0003596990   0.0000439241  -0.0002340696  -0.0001470250
       -0.0000819468   0.0003270383  -0.0000096403  -0.0000638577   0.0000173081
       -0.0000060719   0.0000780017   0.0000086458  -0.0000244904   0.0000275052
       -0.0000076627   0.0000032884   0.0000044622   0.0000014771   0.0000005042
        0.0000112134  -0.0000019231   0.0000028276   0.0000062256  -0.0000022547
       -0.0000012140   0.0000023442  -0.0000016270   0.0000006429  -0.0000006990
       -0.0000000120   0.0000006402   0.0000002392   0.0000004463   0.0000013311
       -0.0000000153  -0.0000000182   0.0000014366  -0.0000007722  -0.0000008887
       -0.0000000259  -0.0000006632  -0.0000011048   0.0000001754   0.0000014983
        0.0000007372   0.0000019740  -0.0000016773  -0.0000024384  -0.0000002294
       -0.0000012584   0.0000012307   0.0000015921   0.0000011917  -0.0000001894
        0.0000019392   0.0000000199  -0.0000013085  -0.0000004091  -0.0000008398
       -0.0000002655  -0.0000000438  -0.0000003038  -0.0000005529   0.0000005538
       -0.0000001597  -0.0000006949  -0.0000002595  -0.0000004717  -0.0000009020
       -0.0000007574   0.0000004774  -0.0000011253   0.0000009829   0.0000008970
        0.0000006666   0.0000005888   0.0000022233   0.0000002291  -0.0000117020
       -0.0000009873   0.0000071444   0.0000154651   0.0000186977   0.0000074082
       -0.0009061137  -0.0001024701   0.0009470678
        0.0082510022  -0.1858910404  -0.0030301679   0.0116092163   0.4425904892
        0.0201416665   0.0090879829  -0.0586382726   0.0497174123   0.0001999546
       -0.0057490545  -0.0003998804  -0.0000777501  -0.0006507317  -0.0005994900
       -0.0000438921   0.0006120994  -0.0002552036   0.0000213782  -0.0001897913
        0.0000806954  -0.0000873536   0.0007152121   0.0004015729  -0.0003246510
        0.0025058385   0.0006574442  -0.0001315861   0.0023697911   0.0010689007
        0.0002626169   0.0006874626   0.0004644689   0.0000546128  -0.0001704359
        0.0000666389  -0.0000406606   0.0006846561  -0.0002099195  -0.0001229556
        0.0000167398   0.0000180525   0.0000750650   0.0000803233  -0.0001010535
       -0.0000098452   0.0000078480  -0.0000004128   0.0000101053   0.0000009018
        0.0000060783  -0.0000187086  -0.0000144787   0.0000045801   0.0000154359
        0.0000057776  -0.0000073691  -0.0000105286  -0.0000002326   0.0000015959
        0.0000131544   0.0000116026  -0.0000097041  -0.0000009239   0.0000069443
       -0.0000066999  -0.0000032881  -0.0000022105  -0.0000024182  -0.0000002552
       -0.0000009845   0.0000011556   0.0000014136  -0.0000062752   0.0000029731
       -0.0000031366  -0.0000001503  -0.0000021530   0.0000032013  -0.0000002902
        0.0000008364  -0.0000009633  -0.0000011998  -0.0000014278  -0.0000016114
       -0.0000010669  -0.0000006078  -0.0000002786  -0.0000001909   0.0000024886
        0.0000036068  -0.0000000610   0.0000001551  -0.0000013245   0.0000047138
       -0.0000012466   0.0000004276   0.0000024749   0.0000016867   0.0000001832
        0.0000018228   0.0000018290   0.0000018482   0.0000006090  -0.0000010858
       -0.0000009365  -0.0000005351   0.0000016608  -0.0000010370   0.0000003976
        0.0000006536   0.0000002010   0.0000086174  -0.0000000811  -0.0000003006
       -0.0000044209  -0.0000000947  -0.0000028203   0.0000010113  -0.0000005975
       -0.0000012164   0.0000018603   0.0000024082   0.0000003267   0.0000021772
        0.0000047915   0.0000010308  -0.0000023448   0.0000001155  -0.0000012642
       -0.0000049005   0.0000053076   0.0000041921  -0.0000047856   0.0000006885
       -0.0000335074  -0.0000121775  -0.0000037084   0.0000316702  -0.0000064043
        0.0000001749  -0.0001094356  -0.0007507969  -0.0005842881   0.0012654277
       -0.0064613923   0.0020707708  -0.0028368477  -0.0200175508  -0.0001306253
        0.0013132086  -0.0101534823   0.0025572197   0.0049550935  -0.0155627819
       -0.0018464817   0.0507050924  -0.0627110575  -0.0434273471  -0.0838278776
       -0.0828446614  -0.0268857209   0.0001511288  -0.0002074577   0.0000221409
       -0.0000553228   0.0000428835   0.0000475068  -0.0000585743  -0.0000877955
       -0.0000643769   0.0000266517   0.0000978643  -0.0000325181  -0.0000775461
        0.0000745155   0.0000305151   0.0000339509  -0.0000925132  -0.0000902763
        0.0000020717  -0.0000324328   0.0000447684   0.0000248287  -0.0000176662
        0.0000174930  -0.0000026162  -0.0000015469   0.0000049068  -0.0000022856
       -0.0000025422   0.0000064199  -0.0000047102  -0.0000036186   0.0000055825
        0.0000039756  -0.0000032759   0.0000054024  -0.0000006607   0.0000006131
       -0.0000015908   0.0000006104   0.0000008385  -0.0000001350   0.0000015501
       -0.0000000479  -0.0000007795   0.0000007294  -0.0000012602  -0.0000012580
       -0.0000009431  -0.0000002718   0.0000000482  -0.0000006820   0.0000001376
       -0.0000014293   0.0000006223   0.0000005560  -0.0000032578  -0.0000001717
       -0.0000018059  -0.0000023107   0.0000001547   0.0000001387  -0.0000021820
        0.0000008495  -0.0000008163  -0.0000024452  -0.0000001559   0.0000008638
       -0.0000002379   0.0000020539  -0.0000008797   0.0000020767   0.0000016660
       -0.0000033613   0.0000008936  -0.0000007384  -0.0000026678  -0.0000012117
        0.0000001467   0.0000009093   0.0000024859   0.0000008592   0.0000003332
       -0.0000002520  -0.0000006832  -0.0000022596   0.0000034765   0.0000077266
        0.0000035746   0.0000024082  -0.0000031672  -0.0000155746   0.0000185425
       -0.0002438109  -0.0002110459   0.0002133562
        0.0024902592  -0.0069146485  -0.0585522434  -0.0167436689   0.0201416665
        0.4797097379  -0.0289237838   0.0495691762  -0.2034359064  -0.0094905957
        0.0014314408  -0.0130098746   0.0015674839  -0.0007663009   0.0007478372
       -0.0005334846   0.0006872379  -0.0004600358  -0.0002517877  -0.0001710289
        0.0003365161   0.0004669542   0.0005111069  -0.0008703577  -0.0015923859
        0.0007613978   0.0008449520   0.0029994781   0.0015023493  -0.0016728986
       -0.0010883967   0.0005520104  -0.0010060403   0.0002690604  -0.0002012519
        0.0002156024   0.0000339840   0.0006357443  -0.0006172946   0.0002883479
       -0.0000014881   0.0000492112  -0.0002017146  -0.0000878541   0.0000671444
        0.0000290451  -0.0000536687  -0.0000070035  -0.0000333220  -0.0000095311
        0.0000128423   0.0000694480   0.0000385445  -0.0000317583  -0.0000409557
       -0.0000182098   0.0000030346   0.0000440836   0.0000012018   0.0000017694
       -0.0000329041  -0.0000325533   0.0000145842   0.0000035425  -0.0000203002
        0.0000166989   0.0000114849   0.0000071233   0.0000115828   0.0000056374
        0.0000021661  -0.0000060576  -0.0000051522   0.0000172452  -0.0000107095
        0.0000126179  -0.0000040649   0.0000062871  -0.0000082391   0.0000054372
        0.0000052727   0.0000052107   0.0000027836   0.0000038827   0.0000004149
        0.0000012429   0.0000003648   0.0000022276   0.0000031219  -0.0000042279
       -0.0000063855  -0.0000016154  -0.0000003729   0.0000014949   0.0000007535
        0.0000060425  -0.0000058320  -0.0000103701  -0.0000039606  -0.0000101895
        0.0000049821   0.0000074428  -0.0000042628  -0.0000008862   0.0000045408
       -0.0000004176   0.0000016113  -0.0000022288   0.0000065192   0.0000014773
       -0.0000036890  -0.0000012251  -0.0000206052   0.0000037442   0.0000030887
        0.0000069001   0.0000018018   0.0000057312  -0.0000010710  -0.0000012274
        0.0000013894  -0.0000018427  -0.0000053590   0.0000023677  -0.0000037106
       -0.0000055982   0.0000011217   0.0000015167   0.0000024823  -0.0000028479
        0.0000141603  -0.0000223000  -0.0000153173   0.0000166996  -0.0000129333
        0.0000438500   0.0000328366  -0.0000046684  -0.0001412255  -0.0000021237
       -0.0000658483  -0.0010030727  -0.0007306310   0.0010858244   0.0000245572
        0.0048357325  -0.0240851894   0.0002385826  -0.0084932677   0.0005201316
       -0.0028752117   0.0268201011  -0.0039285980   0.0025156777  -0.0190911512
        0.0002350740   0.1005117836  -0.0437499327  -0.1194061610  -0.0493430172
       -0.0271983715  -0.0562444309   0.0007147768   0.0000696852  -0.0001591385
        0.0001942532   0.0000248374  -0.0000564065   0.0001454277  -0.0001286081
        0.0000107066  -0.0001127217  -0.0000108573   0.0000530529   0.0002004897
        0.0000487081  -0.0001509413  -0.0000893442  -0.0000972338   0.0000690133
        0.0000508525   0.0000314119   0.0000054386  -0.0000474687   0.0000459912
       -0.0000199288  -0.0000057984  -0.0000081729   0.0000109132   0.0000068094
        0.0000068160   0.0000000467   0.0000094410   0.0000086444  -0.0000049510
       -0.0000101256   0.0000103937  -0.0000123048   0.0000020961  -0.0000034200
        0.0000006180  -0.0000045610  -0.0000029443  -0.0000021677  -0.0000049896
        0.0000004070   0.0000010036  -0.0000022365   0.0000028290   0.0000016616
        0.0000005006  -0.0000000273  -0.0000027598   0.0000024567  -0.0000009324
        0.0000066435   0.0000052695  -0.0000035774  -0.0000000378   0.0000021821
       -0.0000057289   0.0000056889   0.0000003845  -0.0000031325   0.0000058666
       -0.0000001614   0.0000007050   0.0000033786  -0.0000010658  -0.0000035328
       -0.0000025073  -0.0000050561   0.0000022073  -0.0000066770  -0.0000020970
        0.0000062370  -0.0000039781   0.0000008211   0.0000033560  -0.0000019671
       -0.0000028514   0.0000008231  -0.0000091159  -0.0000063846  -0.0000033355
        0.0000076501   0.0000042794   0.0000046294   0.0000000212  -0.0000338557
       -0.0000222405   0.0000214528   0.0000193980   0.0000233000   0.0000161107
       -0.0003307693  -0.0000185263  -0.0002238165
        0.0017573821   0.0058800124  -0.0068743882  -0.0890903450   0.0090879829
       -0.0289237838   0.6032321396  -0.0092703947   0.0261728757  -0.2471341823
        0.0169929084  -0.0746810322  -0.0463215569   0.0013262149  -0.0089487090
        0.0018614141  -0.0015338011   0.0057264817  -0.0030133077   0.0007357764
       -0.0026374135   0.0029769515  -0.0002064054   0.0009341617  -0.0142278690
        0.0090688458  -0.0339301262   0.0006731453  -0.0040279416   0.0142275664
        0.0021730343   0.0013065861  -0.0047301327  -0.0033553731  -0.0008136818
        0.0022468812  -0.0023577850   0.0009850923  -0.0038071110  -0.0002320029
       -0.0004039579   0.0014877770   0.0000390239  -0.0000606826   0.0002368724
        0.0000235326  -0.0000480778   0.0000295353   0.0000857893  -0.0000641032
        0.0000383762   0.0000612799   0.0001037970  -0.0000523599  -0.0000037958
        0.0000023234   0.0000078645   0.0000563899  -0.0000121767   0.0000022199
       -0.0000531695  -0.0000335362   0.0000154470  -0.0000133766  -0.0000407246
        0.0000424245   0.0000347181   0.0000160310   0.0000271570   0.0000100344
        0.0000049969  -0.0000081853  -0.0000153996   0.0000400416  -0.0000251106
        0.0000373066  -0.0000075838   0.0000113517  -0.0000249695   0.0000115349
        0.0000093201   0.0000168517   0.0000084727   0.0000132965   0.0000059152
        0.0000009507   0.0000005148   0.0000088041  -0.0000001236  -0.0000178745
       -0.0000218579  -0.0000113909  -0.0000019218   0.0000037449  -0.0000056024
        0.0000115127  -0.0000104153  -0.0000144638  -0.0000190310  -0.0000141514
        0.0000090550  -0.0000014077  -0.0000136543   0.0000045024   0.0000070144
        0.0000056352   0.0000092758  -0.0000190607   0.0000175689   0.0000033374
       -0.0000170511  -0.0000040870  -0.0000512365   0.0000093705   0.0000021950
        0.0000174676   0.0000101100   0.0000119930  -0.0000028268   0.0000074235
        0.0000020299  -0.0000112280  -0.0000056998  -0.0000021633  -0.0000170934
       -0.0000106026  -0.0000050074   0.0000055923   0.0000124393  -0.0000214592
        0.0000371271  -0.0000522684  -0.0000383652   0.0000367627  -0.0000208850
       -0.0001147620  -0.0000723984  -0.0001112269  -0.0002594994   0.0001428948
       -0.0002408912  -0.0355029446  -0.0069817745   0.0292140119  -0.1677486436
       -0.0242949709   0.0954262010   0.0002084385  -0.0002085310   0.0007836058
        0.0004592854   0.0013808648  -0.0002860895  -0.0000764605  -0.0003088553
       -0.0004753929   0.0046861165  -0.0065752772   0.0233263808  -0.0112742976
        0.0075032879  -0.0325647203   0.0016508598   0.0001486246  -0.0008125484
       -0.0012471433   0.0002388136  -0.0006216303   0.0001924046  -0.0000249030
       -0.0000207435  -0.0002766410   0.0000169417  -0.0002875318   0.0001723029
        0.0001117955  -0.0001971996   0.0000827433   0.0001783074   0.0000475500
        0.0000608070  -0.0002002527   0.0001128707  -0.0000768166   0.0000508546
       -0.0000554072  -0.0000271728  -0.0000420205   0.0000276674   0.0000182941
       -0.0000262144   0.0000137474   0.0000133951  -0.0000027390   0.0000011545
       -0.0000202258   0.0000189023  -0.0000249569   0.0000052625  -0.0000041921
        0.0000013084  -0.0000136408  -0.0000088740  -0.0000094699  -0.0000179237
       -0.0000003892   0.0000028721  -0.0000103182   0.0000094199   0.0000098793
        0.0000037665   0.0000013944  -0.0000039827   0.0000068598  -0.0000062661
        0.0000154204   0.0000069605   0.0000010201   0.0000052875   0.0000108010
       -0.0000114194   0.0000027080  -0.0000047193  -0.0000158469   0.0000125757
       -0.0000073750   0.0000020006   0.0000120487  -0.0000003286  -0.0000055449
       -0.0000058351  -0.0000130900   0.0000085342  -0.0000126521  -0.0000082392
        0.0000181507  -0.0000025319   0.0000065944   0.0000103705   0.0000034785
       -0.0000008107  -0.0000031055  -0.0000177472  -0.0000219892  -0.0000148170
        0.0000176689   0.0000163752   0.0000042547  -0.0000034018  -0.0001330720
       -0.0000740724   0.0000580079   0.0000561531   0.0001291637  -0.0000140237
        0.0020761082  -0.0001507868   0.0001696995
        0.0083660463  -0.0149482452   0.0332432721   0.0090291114  -0.0586382726
        0.0495691762  -0.0092703947   0.1471428409  -0.1727469922   0.0194343329
       -0.0418020845   0.0218772921  -0.0027842516  -0.0009128855  -0.0031209285
       -0.0009449719   0.0046268585   0.0015380781  -0.0003821736  -0.0001810458
        0.0002174886   0.0001478671   0.0028634154   0.0027424382   0.0065939640
        0.0021885813   0.0110185839  -0.0016014214   0.0008577680   0.0159968664
        0.0009070014   0.0029419960   0.0022131509   0.0002171648  -0.0002294098