$hessian                                                                        
        0.1664794234  -0.2190781241  -0.0004946701  -0.1203460422   0.1660855821
        0.0003030197  -0.0478030098   0.0732887726   0.0001896789  -0.0075200860
       -0.0023277817   0.0000234957  -0.0019174373   0.0040663420   0.0000067582
       -0.0014213274  -0.0010243326   0.0000024726   0.0015260620  -0.0008878913
       -0.0000035113  -0.0023947573   0.0009565851   0.0000050103  -0.0005862997
       -0.0006166468  -0.0000033227   0.0003131066  -0.0019594105   0.0000014033
       -0.0011217450   0.0011043015  -0.0000020494   0.0003089447   0.0000618591
       -0.0000012732  -0.0001194772  -0.0002487396   0.0000009384  -0.0009383176
        0.0012726844  -0.0000025178   0.0004417714  -0.0018140487   0.0000023630
       -0.0007768615   0.0001831437  -0.0000018080   0.0009291882  -0.0002874625
        0.0000019492   0.0002206442  -0.0002418180   0.0000006670  -0.0000668053
        0.0007989480  -0.0000000641   0.0017956769  -0.0013341991   0.0000030879
       -0.0022285403  -0.0029136681  -0.0000034130   0.0093948196  -0.0143556076
       -0.0000142095   0.0043798863  -0.0003301046  -0.0000129446   0.0002981182
        0.0001467868  -0.0000006507  -0.0000628408   0.0003429745   0.0000000858
       -0.0000964708  -0.0002977028   0.0000008122  -0.0000682916  -0.0001306686
       -0.0000000127  -0.0000309922  -0.0001013350  -0.0000000038  -0.0001217445
       -0.0000495184  -0.0000005224   0.0015334050  -0.0003089198  -0.0000007690
       -0.2190781241   0.6956044590   0.0011939986   0.1524585358  -0.5788255104
       -0.0008911562   0.0535339260  -0.0276810968  -0.0001476679   0.0107200418
       -0.0105572917  -0.0000383705  -0.0032322162   0.0009696700   0.0000068635
        0.0017328520  -0.0032002825  -0.0000054777  -0.0007157003   0.0012684679
        0.0000002013   0.0052897933   0.0028887387  -0.0000075394  -0.0111014232
       -0.0092727763   0.0000075487   0.0007612106   0.0001743824  -0.0000048407
        0.0023983650  -0.0039668160   0.0000049985   0.0007560740   0.0009257940
        0.0000022556  -0.0002486634  -0.0000854670  -0.0000020012   0.0013431088
       -0.0033219363   0.0000046563  -0.0012493993   0.0040411323  -0.0000079025
        0.0018567930  -0.0011124152   0.0000050437  -0.0014976259   0.0012848222
       -0.0000034357  -0.0004610468   0.0005368085  -0.0000013192   0.0012088788
       -0.0017396786   0.0000008484  -0.0014730351   0.0041031329   0.0000046296
        0.0103033984  -0.0021707084  -0.0000084441  -0.0033892761  -0.0673516735
       -0.0001086671   0.0017585487  -0.0024730216  -0.0000027949  -0.0001470717
       -0.0000437694   0.0000005639   0.0000741369  -0.0001707392   0.0000006478
       -0.0003986360  -0.0005774943   0.0000003700   0.0001235628   0.0003422457
        0.0000001803  -0.0000015524   0.0000823620  -0.0000001644   0.0001202177
        0.0000578448   0.0000008548  -0.0014456731   0.0002708166  -0.0000038794
       -0.0004946701   0.0011939986   0.0259292536   0.0002839430  -0.0009175268
       -0.0564604752   0.0001643631  -0.0001688867   0.0137286985   0.0000378038
       -0.0000201943   0.0053517204  -0.0000018175  -0.0000021709   0.0003629438
        0.0000046123  -0.0000053414  -0.0003008130  -0.0000038690   0.0000029066
       -0.0003182966   0.0000107938   0.0000017434   0.0000334442  -0.0000097348
       -0.0000197855   0.0021819670  -0.0000010745   0.0000024799  -0.0007080101
        0.0000077185  -0.0000118864   0.0000939204   0.0000018879  -0.0000005655
        0.0000356523  -0.0000010348   0.0000019627   0.0000989434   0.0000028502
       -0.0000075592   0.0001161086  -0.0000042048   0.0000085667   0.0001610812
        0.0000041299  -0.0000028093  -0.0000728711  -0.0000015169   0.0000030571
        0.0000541357  -0.0000001425  -0.0000010449  -0.0000473165  -0.0000014209
        0.0000002617   0.0000754947  -0.0000013994   0.0000144037  -0.0014311697
        0.0000139219  -0.0000039736   0.0005134819   0.0000041031  -0.0000699591
        0.0142490947  -0.0000123839   0.0000015060  -0.0034647980  -0.0000011307
       -0.0000005589  -0.0000346710  -0.0000003151  -0.0000006337  -0.0000836471
       -0.0000005189  -0.0000000724  -0.0001234911   0.0000005774   0.0000004959
       -0.0001123750   0.0000001100  -0.0000000544  -0.0000184543   0.0000001657
        0.0000000139  -0.0000046619  -0.0000017471   0.0000016267   0.0001951102
       -0.1203460422   0.1524585358   0.0002839430   0.5145454898  -0.1058205548
       -0.0006724419  -0.2286956563  -0.0074222054   0.0003376513  -0.0229638162
        0.0406562334   0.0000667998   0.0088691383  -0.0082981023  -0.0000230311
        0.0023060989   0.0072052346   0.0000007918  -0.0065104184   0.0022275589
        0.0000161535   0.0018668205  -0.0069122840  -0.0000117307   0.0108267050
       -0.0030830275  -0.0000078006  -0.0010177397   0.0055628854  -0.0000000898
        0.0036892302  -0.0043204576   0.0000064578  -0.0004684913  -0.0008273291
        0.0000029950   0.0003090138   0.0007561837  -0.0000017422   0.0020508453
       -0.0026945005   0.0000059459  -0.0033561036   0.0029668094  -0.0000110171
        0.0021641738  -0.0015386926   0.0000056261  -0.0027679673   0.0007184221
       -0.0000064484   0.0010298867   0.0006213920   0.0000023363  -0.0009986982
       -0.0000743526  -0.0000016028  -0.0038870685   0.0088533468  -0.0000026808
       -0.0441230914  -0.0227636474  -0.0000012686  -0.0895760618  -0.0528710569
       -0.0000048814  -0.0210788045  -0.0052687328   0.0000188074  -0.0003617437
       -0.0003102711   0.0000005182   0.0001714353  -0.0002948574  -0.0000005030
        0.0003339843   0.0009224257  -0.0000026685   0.0001529174   0.0002599591
        0.0000003111   0.0000506625   0.0001952521  -0.0000001453   0.0001861947
        0.0000840337   0.0000005676  -0.0024008936  -0.0009882007  -0.0000008528
        0.1660855821  -0.5788255104  -0.0009175268  -0.1058205548   0.8269544597
        0.0009703467   0.0192480878  -0.0996975664  -0.0000756269   0.0186304400
        0.0077479946  -0.0000203508   0.0054954216  -0.0066505721  -0.0000162117
        0.0001496412   0.0030897552  -0.0000001366  -0.0001669760  -0.0005702787
        0.0000025997  -0.0073786639  -0.0023825623   0.0000107498   0.0002920728
       -0.0240843565  -0.0000293319   0.0010807474  -0.0050566746  -0.0000005032
        0.0006879154   0.0017102114  -0.0000039158  -0.0008268260  -0.0022433070
        0.0000005098   0.0000626568   0.0009256522   0.0000006920  -0.0008412804
        0.0023337143  -0.0000032126   0.0012943880  -0.0027139508   0.0000067379
       -0.0018508224   0.0011311015  -0.0000049781   0.0012246844  -0.0013621057
        0.0000026996   0.0010945124  -0.0011694829   0.0000031492  -0.0032809862
        0.0031956949  -0.0000038433   0.0075372676   0.0019197323   0.0000007769
       -0.0274704246   0.0028349864   0.0000118965  -0.0484802548  -0.1340288062
        0.0000012889  -0.0290369932   0.0079872162   0.0000625873  -0.0000422837
       -0.0001605616  -0.0000002732  -0.0000992788  -0.0002140730  -0.0000007274
       -0.0005007316  -0.0005519563   0.0000018327  -0.0000796475  -0.0003368957
        0.0000000401   0.0000527383  -0.0000668395   0.0000003125  -0.0001209998
       -0.0000739427  -0.0000006406   0.0030605681   0.0003589237   0.0000010596
        0.0003030197  -0.0008911562  -0.0564604752  -0.0006724419   0.0009703467
        0.1565984243   0.0003557072  -0.0000508956  -0.0394122955   0.0000389622
       -0.0000407478  -0.0056659475  -0.0000017092  -0.0000015270   0.0011640363
       -0.0000034462  -0.0000038638   0.0011039359   0.0000102626  -0.0000025788
       -0.0000973333  -0.0000133863   0.0000106334  -0.0017400870  -0.0000108475
        0.0000285217  -0.0004342227   0.0000029610  -0.0000134092   0.0046871857
       -0.0000059120   0.0000161953  -0.0003960061  -0.0000032235  -0.0000003227
       -0.0013328397   0.0000014265  -0.0000024781   0.0000356040  -0.0000036358
        0.0000097708  -0.0001323897   0.0000087027  -0.0000130182  -0.0011193133
       -0.0000063350   0.0000035458   0.0002140551   0.0000025059  -0.0000040597
       -0.0000885614  -0.0000002928   0.0000030741   0.0002503669   0.0000037403
        0.0000015650   0.0000305372   0.0000037552  -0.0000226434   0.0107458614
       -0.0000250202   0.0000081568   0.0000520316   0.0000001998  -0.0000224719
       -0.0646465971   0.0000089058   0.0000161969   0.0001747877   0.0000012342
        0.0000005912   0.0001143681  -0.0000002113  -0.0000001116  -0.0000844933
       -0.0000008582  -0.0000021012   0.0000177747  -0.0000013711  -0.0000003789
        0.0003769125  -0.0000000731  -0.0000002466   0.0000386070  -0.0000002125
       -0.0000003754  -0.0000222309   0.0000075934   0.0000037885  -0.0039716957
       -0.0478030098   0.0535339260   0.0001643631  -0.2286956563   0.0192480878
        0.0003557072   0.6271046844   0.0164303124  -0.0010231675  -0.1105558069
        0.0651186016   0.0002156155  -0.0264319857   0.0434198121   0.0000873044
       -0.0078627098  -0.0076009909   0.0000217246   0.0043108951  -0.0039131887
       -0.0000047709   0.0077517318  -0.0085222356  -0.0000205322  -0.0001001269
       -0.0011433640  -0.0000009236  -0.0013399312   0.0003755942  -0.0000024874
        0.0014800956  -0.0021758672   0.0000004073   0.0020525762  -0.0008434079
        0.0000038310  -0.0009387998   0.0013442062  -0.0000028856  -0.0016416316
       -0.0000056180  -0.0000028411   0.0017707681   0.0001618410   0.0000042001
       -0.0011686192   0.0006365747  -0.0000034550   0.0014867175  -0.0001421234
        0.0000032862  -0.0000287695  -0.0017187771   0.0000001848  -0.0019630662
        0.0002589957  -0.0000032631   0.0001506611   0.0027439551  -0.0000000113
        0.0059821879  -0.0080314405  -0.0000066633  -0.0551550484  -0.0138500508
        0.0000703446  -0.1709690365  -0.1575611276   0.0001429731   0.0013506624
        0.0003247907  -0.0000043654  -0.0002388848   0.0015780016   0.0000030065
        0.0000851605  -0.0001640625   0.0000004934  -0.0001237650  -0.0001609164
       -0.0000000535  -0.0000280548  -0.0000864037   0.0000001617  -0.0001431450
       -0.0000030758   0.0000000192   0.0016619067   0.0007479507   0.0000017972
        0.0732887726  -0.0276810968  -0.0001688867  -0.0074222054  -0.0996975664
       -0.0000508956   0.0164303124   0.7132595926   0.0005865070   0.0800815166
       -0.2675275021  -0.0003404233   0.0234237748  -0.0188229419  -0.0000643394
        0.0003014693   0.0091143669   0.0000011316  -0.0033473110  -0.0070630025
        0.0000047490  -0.0050318094  -0.0497337321  -0.0000232799   0.0040756590
        0.0173853305  -0.0000129586   0.0017321315  -0.0048942455   0.0000086009
       -0.0077214140   0.0120210942  -0.0000099229  -0.0026949029   0.0023383640
       -0.0000097728   0.0012721339  -0.0033218616   0.0000074411  -0.0000043770
        0.0054330033  -0.0000040944  -0.0011309537  -0.0069364412   0.0000043170
       -0.0004958338   0.0005443683  -0.0000008212  -0.0003292416  -0.0013662389
        0.0000004821  -0.0001543489   0.0029036948  -0.0000002071   0.0051128587
       -0.0006128730   0.0000083005  -0.0050968371  -0.0162195699  -0.0000095478
       -0.0087730508   0.0046679217   0.0000163067  -0.0053527865  -0.0067135821
        0.0000163227  -0.1569784114  -0.2570550066   0.0000387946  -0.0010060819
        0.0009596744   0.0000030476  -0.0000046732  -0.0000798342  -0.0000012283
       -0.0000339280   0.0004375782   0.0000003849  -0.0000046826  -0.0001147155
       -0.0000010823  -0.0000286023  -0.0000021561  -0.0000001554   0.0000617830
       -0.0001213462  -0.0000007963  -0.0001689601  -0.0011012764   0.0000020264
        0.0001896789  -0.0001476679   0.0137286985   0.0003376513  -0.0000756269
       -0.0394122955  -0.0010231675   0.0005865070   0.0528260299   0.0002275219
       -0.0003438143  -0.0256363148   0.0000753694  -0.0001065371   0.0014598859
        0.0000254011   0.0000172230   0.0027655465  -0.0000046166   0.0000030260
        0.0028153341  -0.0000086473  -0.0000089093   0.0009157842  -0.0000049138
        0.0000147211  -0.0007184532   0.0000031994  -0.0000041436   0.0002674629
       -0.0000063865   0.0000108367  -0.0001074020  -0.0000057630   0.0000033123
       -0.0001323895   0.0000024603  -0.0000046519   0.0001160637   0.0000028578
        0.0000036778   0.0002058604  -0.0000089531  -0.0000072102   0.0004010383
        0.0000042959  -0.0000039688  -0.0002463147  -0.0000028930   0.0000011851
        0.0000378897   0.0000007276   0.0000055722  -0.0000295546   0.0000106002
        0.0000019586   0.0003517164  -0.0000077313  -0.0000157663  -0.0011653537
       -0.0000082567   0.0000165096   0.0013962034   0.0000762095   0.0000047960
        0.0061761324   0.0001333441   0.0000553602  -0.0154306136  -0.0000068063
        0.0000000404  -0.0008091216   0.0000015231  -0.0000035339   0.0005523733
       -0.0000001375   0.0000002808  -0.0001874322   0.0000004972  -0.0000000162
       -0.0001587595   0.0000000276   0.0000000358  -0.0000113780   0.0000001934
       -0.0000001972   0.0000078586  -0.0000032862  -0.0000029990   0.0000215048
       -0.0075200860   0.0107200418   0.0000378038  -0.0229638162   0.0186304400
        0.0000389622  -0.1105558069   0.0800815166   0.0002275219   0.6178547833
       -0.0847387924  -0.0012440260  -0.2840982981  -0.0155143928   0.0005980829
       -0.0286728836   0.0920237584   0.0001210045   0.0024822484   0.0039829988
       -0.0000064159  -0.0987961170  -0.0781145197   0.0000912792  -0.0569692628
       -0.0084980973   0.0001072459  -0.0101887007  -0.0011386775   0.0000200340
        0.0068884650  -0.0044545972   0.0000077955  -0.0033578384   0.0012975909
       -0.0000084886   0.0004411997  -0.0012502209   0.0000039255   0.0017710653
       -0.0011275747   0.0000089028  -0.0299698082  -0.0190194249  -0.0000596928
        0.0122528338  -0.0155039747   0.0000351970  -0.0109559171   0.0046636115
       -0.0000282736   0.0087512498   0.0123035350   0.0000221681   0.0348017993
        0.0154895676   0.0000496271  -0.0267836433  -0.0050161368  -0.0000427460
        0.0014734650   0.0129815667   0.0000183347   0.0144847158  -0.0091768196
       -0.0000260653   0.0098402437  -0.0137184995  -0.0000381237  -0.0202213741
        0.0043416917   0.0000450820  -0.0000612402   0.0008720907   0.0000164525
        0.0001355736   0.0003568862  -0.0000015367  -0.0003481796   0.0000452830
       -0.0000003530   0.0001512574   0.0000017990   0.0000005948   0.0000883122
       -0.0000906129  -0.0000017363   0.0000457599  -0.0004300370   0.0000074433
       -0.0023277817  -0.0105572917  -0.0000201943   0.0406562334   0.0077479946
       -0.0000407478   0.0651186016  -0.2675275021  -0.0003438143  -0.0847387924
        0.6298134283   0.0005149747   0.0592312345  -0.0787697540  -0.0001621303
        0.0236932406  -0.0408250067  -0.0000790696   0.0192752953  -0.0328881599
       -0.0000728114  -0.0712626351  -0.1759883307   0.0001137930  -0.0340713841
       -0.0089451649   0.0000716908  -0.0038756079   0.0059842566  -0.0000202008
        0.0150225679  -0.0179809189   0.0000191026   0.0029671075  -0.0027168831
        0.0000131032  -0.0018134795   0.0040408737  -0.0000085953   0.0001611714
       -0.0069382031   0.0000076052  -0.0190174496  -0.0049791300  -0.0000465642
        0.0087907218  -0.0113908201   0.0000255505  -0.0068149371   0.0049800477
       -0.0000192753   0.0062937567   0.0043963672   0.0000159107   0.0164708031
        0.0115355611   0.0000203367  -0.0124396395   0.0189149023  -0.0000184154
        0.0059389435  -0.0042560759  -0.0000104806  -0.0131567657   0.0052547590
        0.0000104887   0.0041814949  -0.0279996482  -0.0000185347  -0.0186709961
        0.0047380632   0.0000496907   0.0000168940  -0.0057613442  -0.0000035098
        0.0002355149  -0.0007221421  -0.0000015713  -0.0002250877   0.0000986478
        0.0000014456   0.0001478696   0.0000270640   0.0000006496  -0.0000368133
        0.0000652860  -0.0000003390   0.0002499190   0.0006491237   0.0000019120
        0.0000234957  -0.0000383705   0.0053517204   0.0000667998  -0.0000203508
       -0.0056659475   0.0002156155  -0.0003404233  -0.0256363148  -0.0012440260
        0.0005149747   0.1004003788   0.0006160532   0.0000209187  -0.0405761522
        0.0000846910  -0.0002492717   0.0020470422   0.0000125727  -0.0000168004
        0.0016107284   0.0000903885   0.0001109719  -0.0449264955   0.0000924677
        0.0000002317   0.0008770713   0.0000270822   0.0000082563   0.0068560065
        0.0000011391  -0.0000060928  -0.0000754108   0.0000110902  -0.0000066541
       -0.0011192976  -0.0000024367   0.0000078118   0.0001611144  -0.0000042494
       -0.0000042134   0.0004010634   0.0000582619   0.0000454509   0.0001881658
       -0.0000225617   0.0000299024  -0.0001765133   0.0000212349  -0.0000081210
        0.0000077739  -0.0000171103  -0.0000264437  -0.0000238220  -0.0000735879
       -0.0000304801   0.0001936633   0.0000559012   0.0000318672  -0.0001967534
        0.0000001816  -0.0000364865  -0.0004136642  -0.0000502904   0.0000275316
       -0.0024217776  -0.0000170231   0.0000031330  -0.0018435753   0.0000391005
       -0.0000081304  -0.0010348458   0.0000155099  -0.0000086705   0.0059920012
       -0.0000002579  -0.0000023732  -0.0001959693   0.0000008968   0.0000001031
       -0.0001079333  -0.0000002563  -0.0000000017  -0.0000027842  -0.0000003363
        0.0000004056   0.0000270687  -0.0000003465   0.0000013251   0.0003034587
       -0.0019174373  -0.0032322162  -0.0000018175   0.0088691383   0.0054954216
       -0.0000017092  -0.0264319857   0.0234237748   0.0000753694  -0.2840982981
        0.0592312345   0.0006160532   0.6311600784   0.0953608359  -0.0012995111
       -0.0713336820  -0.0107124351   0.0001007142  -0.0077001502  -0.0189788289
        0.0000187215  -0.0604436671  -0.0298253079   0.0001342026   0.0093998616
       -0.0129667449  -0.0000137215   0.0008409241   0.0015178044  -0.0000022659
       -0.0012159999  -0.0013390794   0.0000001757   0.0021654328  -0.0018520986
        0.0000061487  -0.0007763931   0.0018572162  -0.0000039305  -0.0011679739
       -0.0005006322  -0.0000042412   0.0122507911   0.0087937884   0.0000231646
       -0.0046296470   0.0057264034  -0.0000129711   0.0048426254  -0.0010144012
        0.0000120985  -0.0040154306  -0.0053959122  -0.0000101251  -0.0148901436
       -0.0062553985  -0.0000215731   0.0117866748   0.0061046481   0.0000183044
       -0.0006452754  -0.0073458865  -0.0000108034  -0.0074493441   0.0057019005
        0.0000108863   0.0005178258  -0.0021851299  -0.0000053297  -0.1926658502
       -0.1353176938   0.0003610863  -0.0027787078   0.0231523356   0.0000131294
        0.0001062232   0.0002400047  -0.0000002923   0.0001182490  -0.0000293129
        0.0000003466  -0.0000255915   0.0000158438  -0.0000001249  -0.0000324089
        0.0000288711   0.0000008749   0.0001601620   0.0003009955  -0.0000028599
        0.0040663420   0.0009696700  -0.0000021709  -0.0082981023  -0.0066505721
       -0.0000015270   0.0434198121  -0.0188229419  -0.0001065371  -0.0155143928
       -0.0787697540   0.0000209187   0.0953608359   0.6388594919   0.0000357677
        0.0543105132  -0.3403244569  -0.0002953714  -0.0367205335  -0.0339038411
        0.0000691251   0.0050960412   0.0088292515  -0.0000074358  -0.0104639507
        0.0056701753   0.0000201530  -0.0060844553  -0.0033687688   0.0000071448
        0.0033536444  -0.0000891869   0.0000009517  -0.0015388257   0.0011336352
       -0.0000034774   0.0001825870  -0.0011125429   0.0000026549   0.0006383358
        0.0005436479   0.0000038539  -0.0155045298  -0.0113888641  -0.0000306752
        0.0057278221  -0.0071829801   0.0000165001  -0.0062482322   0.0012244635
       -0.0000155317   0.0053327022   0.0064720303   0.0000135707   0.0190979812
        0.0087529273   0.0000265797  -0.0155544262  -0.0060680332  -0.0000222254
        0.0025540617   0.0085623870   0.0000112799   0.0069028727  -0.0057027342
       -0.0000121938   0.0013266864   0.0028167145   0.0000002185  -0.1333488121
       -0.1600818006   0.0002739042   0.0019240236  -0.0104114912  -0.0000078529
        0.0002763055   0.0003397319  -0.0000000887  -0.0002202126   0.0000342273
       -0.0000004963   0.0000877974   0.0000285769   0.0000003364   0.0000257425
       -0.0000915095  -0.0000010560  -0.0001876340  -0.0002674529   0.0000036801
        0.0000067582   0.0000068635   0.0003629438  -0.0000230311  -0.0000162117
        0.0011640363   0.0000873044  -0.0000643394   0.0014598859   0.0005980829
       -0.0001621303  -0.0405761522  -0.0012995111   0.0000357677   0.0896318726
        0.0001316391  -0.0001377019  -0.0298069190   0.0000120700   0.0000283205
        0.0037884551   0.0001472905   0.0000708733   0.0033985647  -0.0000197196
        0.0000297961   0.0022395796  -0.0000049874  -0.0000053006  -0.0004402566
        0.0000044456   0.0000028038   0.0001561858  -0.0000054711   0.0000048210
        0.0002140189   0.0000017259  -0.0000048932  -0.0000729136   0.0000033203
        0.0000009758  -0.0002463413  -0.0000343979  -0.0000251862  -0.0001765343
        0.0000126402  -0.0000160831   0.0001637741  -0.0000138638   0.0000028019
       -0.0000184016   0.0000118194   0.0000146083   0.0000181818   0.0000422697
        0.0000189247  -0.0001600093  -0.0000335508  -0.0000159841   0.0002519352
        0.0000020497   0.0000206268  -0.0000154825   0.0000185585  -0.0000138170
       -0.0004024572  -0.0000042398   0.0000082918  -0.0014982485   0.0003571169
        0.0002799040  -0.0276131433   0.0000026988  -0.0000629703  -0.0020597145
       -0.0000002121  -0.0000000783   0.0001203280  -0.0000005814   0.0000001431
        0.0001100608   0.0000000521  -0.0000000151   0.0000059385   0.0000001076
       -0.0000001237  -0.0000156585  -0.0000003837  -0.0000006877   0.0000164712
       -0.0014213274   0.0017328520   0.0000046123   0.0023060989   0.0001496412
       -0.0000034462  -0.0078627098   0.0003014693   0.0000254011  -0.0286728836
        0.0236932406   0.0000846910  -0.0713336820   0.0543105132   0.0001316391
        0.5137960616  -0.1468832718  -0.0012217798  -0.1281291544  -0.0568312309
        0.0002399878  -0.0169358799   0.0199534101   0.0000628193  -0.0046636147
        0.0085580858   0.0000142493  -0.0034515968  -0.0026136418   0.0000003203
        0.0025508623  -0.0002406633   0.0000018976  -0.0027690244   0.0012275737
       -0.0000025449   0.0009288075  -0.0014981195   0.0000014650   0.0014870547
       -0.0003274251   0.0000028194  -0.0109555865  -0.0068154016  -0.0000216892
        0.0048437042  -0.0062483931   0.0000142179  -0.0031132265   0.0026188533
       -0.0000088696   0.0019149466   0.0052453366   0.0000046749   0.0141172447
        0.0040098707   0.0000207573  -0.0119155210  -0.0040000478  -0.0000193992
        0.0030542380   0.0061785678   0.0000088242   0.0018348826  -0.0031530998
       -0.0000058094  -0.0005108581  -0.0005803548  -0.0000005565   0.0027785469
       -0.0201593954  -0.0000172808  -0.2579443768   0.1217367787   0.0006799842
       -0.0000801972  -0.0000730362   0.0000007908  -0.0000902997   0.0000941907
        0.0000002488   0.0000721975  -0.0000013356   0.0000003193   0.0000469134
       -0.0000912723  -0.0000007935   0.0001183797  -0.0002936947   0.0000024495
       -0.0010243326  -0.0032002825  -0.0000053414   0.0072052346   0.0030897552
       -0.0000038638  -0.0076009909   0.0091143669   0.0000172230   0.0920237584
       -0.0408250067  -0.0002492717  -0.0107124351  -0.3403244569  -0.0001377019
       -0.1468832718   0.5832537335   0.0006390552  -0.0622052893  -0.0837995450
        0.0001195495  -0.0030077015   0.0069571911   0.0000120583   0.0061982280
       -0.0094047849  -0.0000136090   0.0002758719   0.0003937959  -0.0000046855
        0.0012610622  -0.0027813244   0.0000027835   0.0007189935  -0.0013643815
        0.0000040267  -0.0002870447   0.0012847920  -0.0000029779  -0.0001429733
       -0.0013682889  -0.0000010450   0.0046630942   0.0049799901   0.0000083457
       -0.0010161866   0.0012227120  -0.0000029429   0.0026187062   0.0009873591
        0.0000055990  -0.0025305851  -0.0021729888  -0.0000065997  -0.0061442565
       -0.0032834903  -0.0000083389   0.0048162855   0.0060240405   0.0000052173
        0.0001209389  -0.0046183972  -0.0000063349  -0.0047382869   0.0047372011
        0.0000077965  -0.0003652369  -0.0014223176  -0.0000000072   0.0005461437
       -0.0210266390  -0.0000094068   0.1260612737  -0.1067353181  -0.0003688463
       -0.0001164634   0.0000180735  -0.0000000200   0.0000828340  -0.0000101186
        0.0000005411  -0.0000214975  -0.0000224995  -0.0000000723  -0.0000085511
        0.0000730286   0.0000003786   0.0002126783   0.0002238004  -0.0000015093
        0.0000024726  -0.0000054777  -0.0003008130   0.0000007918  -0.0000001366
        0.0011039359   0.0000217246   0.0000011316   0.0027655465   0.0001210045
       -0.0000790696   0.0020470422   0.0001007142  -0.0002953714  -0.0298069190
       -0.0012217798   0.0006390552   0.0605047202   0.0002455555   0.0001082620
       -0.0188341658   0.0000373783  -0.0000437762   0.0004366620   0.0000153047
       -0.0000240006   0.0008506888   0.0000083153   0.0000071564  -0.0000071872
       -0.0000060507  -0.0000000040   0.0000961639   0.0000063540  -0.0000027383
       -0.0000885544  -0.0000019463   0.0000033916   0.0000541917  -0.0000032358
       -0.0000004430   0.0000378996   0.0000276384   0.0000187965   0.0000077804
       -0.0000118459   0.0000152048  -0.0000184119   0.0000087017  -0.0000054919
        0.0000118668  -0.0000059883  -0.0000131206  -0.0000149719  -0.0000358645
       -0.0000112783  -0.0000541571   0.0000303573   0.0000114346   0.0001185317
       -0.0000070299  -0.0000168158  -0.0000134207  -0.0000052640   0.0000085916
        0.0002284918   0.0000008319   0.0000011681  -0.0002177503  -0.0000073336
        0.0000399525  -0.0002403742   0.0006791819  -0.0003572941  -0.0184807088
        0.0000001970  -0.0000000089  -0.0000785331   0.0000003008  -0.0000001894
       -0.0000141282  -0.0000002169  -0.0000000209  -0.0000042810  -0.0000001635
        0.0000002770   0.0000080782  -0.0000001052   0.0000008156  -0.0000972233
        0.0015260620  -0.0007157003  -0.0000038690  -0.0065104184  -0.0001669760
        0.0000102626   0.0043108951  -0.0033473110  -0.0000046166   0.0024822484
        0.0192752953   0.0000125727  -0.0077001502  -0.0367205335   0.0000120700
       -0.1281291544  -0.0622052893   0.0002455555   0.2409338860   0.0191196856
       -0.0004977367  -0.0687691526   0.0499764565   0.0001224195  -0.0197967417
        0.0199095037   0.0000456120   0.0058131754   0.0061604684  -0.0000079509
       -0.0041118889   0.0010735436  -0.0000035816   0.0010302338   0.0010943789
        0.0000002939   0.0002205644  -0.0004604922   0.0000002011  -0.0000292012
       -0.0001541352  -0.0000007671   0.0087511075   0.0062939600   0.0000175673
       -0.0040141154   0.0053322572  -0.0000120281   0.0019136389  -0.0025302356
        0.0000061079  -0.0010806699  -0.0040793293  -0.0000024497  -0.0119634929
       -0.0037206110  -0.0000181152   0.0108608482   0.0017655078   0.0000183956
       -0.0043956785  -0.0029550339  -0.0000041023  -0.0028471041  -0.0006540647
        0.0000178045   0.0002054194   0.0005137572   0.0000011580   0.0003815630
       -0.0015370979   0.0000109808  -0.0175648396  -0.0102674797   0.0000340000
       -0.0010266321  -0.0010932505   0.0000038767   0.0001196475   0.0000286447
        0.0000000614  -0.0000507202   0.0000187404  -0.0000001686   0.0000141633
        0.0000001134   0.0000008199  -0.0005734928   0.0000452274  -0.0000043735
       -0.0008878913   0.0012684679   0.0000029066   0.0022275589  -0.0005702787
       -0.0000025788  -0.0039131887  -0.0070630025   0.0000030260   0.0039829988
       -0.0328881599  -0.0000168004  -0.0189788289  -0.0339038411   0.0000283205
       -0.0568312309  -0.0837995450   0.0001082620   0.0191196856   0.3029634488
        0.0000705843   0.0234152396  -0.1390692313  -0.0001171437   0.0260590577
       -0.0085723172  -0.0000515077   0.0002762989   0.0000317744   0.0000088879
       -0.0049011615   0.0048151506  -0.0000059042   0.0006218456  -0.0011722878
       -0.0000030335  -0.0002410859   0.0005369236   0.0000010787  -0.0017183249
        0.0029021357  -0.0000055025   0.0123027300   0.0043964347   0.0000269710
       -0.0053970636   0.0064718143  -0.0000149919   0.0052447590  -0.0021733557
        0.0000134307  -0.0040797425  -0.0043164580  -0.0000102496  -0.0122368877
       -0.0061674228  -0.0000154517   0.0093911846  -0.0031619619   0.0000137325
       -0.0008825579  -0.0029918953  -0.0000039826  -0.0020623654   0.0021081305
        0.0000000660   0.0008055221  -0.0007325413  -0.0000022099   0.0021434381
       -0.0041071564  -0.0000105001   0.0067802991   0.0048436482  -0.0000165907
       -0.0002029279   0.0003457486   0.0000009550   0.0000700316  -0.0001996996
       -0.0000004769  -0.0001212633  -0.0000592111  -0.0000004715  -0.0001129932
        0.0001014357   0.0000001725   0.0001268639   0.0001632525  -0.0000009980
       -0.0000035113   0.0000002013  -0.0003182966   0.0000161535   0.0000025997
       -0.0000973333  -0.0000047709   0.0000047490   0.0028153341  -0.0000064159
       -0.0000728114   0.0016107284   0.0000187215   0.0000691251   0.0037884551
        0.0002399878   0.0001195495  -0.0188341658  -0.0004977367   0.0000705843
        0.0259413244   0.0001393807  -0.0001652650  -0.0220230258   0.0000334537
       -0.0000426997  -0.0008907430  -0.0000136968  -0.0000108978  -0.0013829239
        0.0000089827  -0.0000027378  -0.0001766073  -0.0000022004  -0.0000032006
        0.0002503730  -0.0000006798   0.0000013799  -0.0000472509  -0.0000002345
        0.0000002747  -0.0000295464  -0.0000212641  -0.0000153350  -0.0000237981