$hessian                                                                        
        0.1306847496  -0.1672094339  -0.0000001665  -0.0986381196   0.1222787042
       -0.0000000010  -0.0330170636   0.0737414228   0.0000000791  -0.0073893907
       -0.0034763441   0.0000000748  -0.0008680833   0.0032860171  -0.0000000019
       -0.0001757868   0.0000877389   0.0000000012  -0.0007933735   0.0013509992
       -0.0000000087   0.0014159358  -0.0006668480  -0.0000000117  -0.0054606433
       -0.0024027684   0.0000000400   0.0013619926  -0.0008317079  -0.0000000096
       -0.0007811767  -0.0004069243   0.0000000116   0.0000966449   0.0006149714
       -0.0000000087   0.0000651196  -0.0006139642   0.0000000095   0.0000361277
       -0.0001145712   0.0000000002  -0.0002098907  -0.0000145418  -0.0000000001
       -0.0000713992  -0.0003875121   0.0000000016   0.0003764426   0.0002524738
       -0.0000000035   0.0002232591  -0.0000881153  -0.0000000027   0.0000814431
        0.0003455772  -0.0000000017   0.0014016997  -0.0000841940  -0.0000000065
       -0.0015875854  -0.0029283546  -0.0000000063   0.0073521482  -0.0211042973
        0.0000000562   0.0045453703  -0.0010841520  -0.0000000390   0.0002370246
        0.0000685744  -0.0000000015   0.0000150603   0.0003603351  -0.0000000038
       -0.0002109803  -0.0004082131   0.0000000015  -0.0000070499  -0.0000009178
        0.0000000020  -0.0000287333  -0.0000656701   0.0000000017  -0.0000631248
       -0.0000542227   0.0000000012   0.0014093832  -0.0004440613  -0.0000000073
       -0.1672094339   0.7399271212  -0.0000004100   0.1159686587  -0.6130625885
        0.0000003437   0.0484347942  -0.0409260222  -0.0000000657   0.0075520611
       -0.0089378029   0.0000000140  -0.0016666846  -0.0013402503   0.0000000027
       -0.0000193486  -0.0018476201   0.0000000130   0.0016310477  -0.0006338090
        0.0000000185   0.0036008566   0.0056523002  -0.0000000125  -0.0087043936
       -0.0027881938  -0.0000000140   0.0006258267  -0.0021488131   0.0000000017
       -0.0006570965   0.0008642785  -0.0000000164   0.0017092684   0.0011729334
        0.0000000108  -0.0006139642  -0.0003996493  -0.0000000176  -0.0005740692
       -0.0002307401   0.0000000077   0.0007804404   0.0007838167   0.0000000013
        0.0000490463   0.0008610758   0.0000000043  -0.0012630146  -0.0005801894
        0.0000000111   0.0001340217   0.0000708398   0.0000000018   0.0000899010
       -0.0011474007   0.0000000171  -0.0000898292  -0.0016642394  -0.0000000067
        0.0083504558  -0.0008711605  -0.0000000092  -0.0072335231  -0.0705555195
        0.0000001001   0.0011170318  -0.0022928974  -0.0000000080   0.0000085982
        0.0000745493  -0.0000000063  -0.0000082029  -0.0002975913  -0.0000000088
       -0.0003588898  -0.0002754245   0.0000000122  -0.0000063217   0.0000950245
       -0.0000000007  -0.0000330838   0.0000559392  -0.0000000001   0.0000533994
        0.0000699716  -0.0000000006  -0.0016675523   0.0003720618   0.0000000166
       -0.0000001665  -0.0000004100   0.0270275982  -0.0000000422   0.0000005218
       -0.0579785724   0.0000001583  -0.0000003219   0.0135158124   0.0000000610
        0.0000000675   0.0058093725   0.0000000096  -0.0000000243   0.0004644690
        0.0000000017   0.0000000150  -0.0002194404   0.0000000003  -0.0000000173
       -0.0006275065  -0.0000000109  -0.0000000068   0.0003332180   0.0000000317
        0.0000000049   0.0023673478  -0.0000000033  -0.0000000046  -0.0011485400
       -0.0000000089   0.0000000070  -0.0001029380  -0.0000000128   0.0000000063
        0.0001416042   0.0000000043  -0.0000000075   0.0000156361   0.0000000098
       -0.0000000050   0.0000703040   0.0000000003   0.0000000061  -0.0000120919
        0.0000000016  -0.0000000049  -0.0000097045  -0.0000000041   0.0000000017
        0.0000400849   0.0000000079  -0.0000000038   0.0000031481   0.0000000035
        0.0000000031   0.0000539530  -0.0000000094   0.0000000030  -0.0010850967
       -0.0000000054   0.0000000059   0.0006071243   0.0000000166   0.0000001558
        0.0144780382  -0.0000000442   0.0000000075  -0.0035843496  -0.0000000018
       -0.0000000017  -0.0000457336  -0.0000000007  -0.0000000023  -0.0001275815
        0.0000000026   0.0000000026   0.0002200056  -0.0000000002  -0.0000000009
       -0.0000619172  -0.0000000006   0.0000000004  -0.0000192152  -0.0000000001
       -0.0000000002   0.0000161053   0.0000000020   0.0000000024  -0.0001411343
       -0.0986381196   0.1159686587  -0.0000000422   0.5135738754  -0.0846036391
       -0.0000015347  -0.2347032862   0.0040197848   0.0000012497  -0.0119977991
        0.0521005929  -0.0000000586   0.0048566966  -0.0058496011   0.0000000038
       -0.0016015298   0.0030055920  -0.0000000109   0.0016761195  -0.0066739539
        0.0000000222  -0.0178666315  -0.0017333781   0.0000000913   0.0283781426
       -0.0067462430  -0.0000001250  -0.0069580034   0.0006262267   0.0000000569
        0.0063030342  -0.0024635281  -0.0000000410  -0.0022404460  -0.0025555816
        0.0000000289   0.0000966449   0.0017092684  -0.0000000276   0.0011677869
       -0.0008675105  -0.0000000036   0.0000743499   0.0015355972  -0.0000000030
        0.0000419163   0.0004456327  -0.0000000056  -0.0006896596  -0.0003609119
        0.0000000101   0.0000788772  -0.0004209389   0.0000000075  -0.0028070713
       -0.0007138683   0.0000000103  -0.0014275339   0.0092923301   0.0000000154
       -0.0447000096  -0.0191510215   0.0000001985  -0.1072481246  -0.0544354752
        0.0000000135  -0.0239427782  -0.0016807184   0.0000001417  -0.0001122378
       -0.0000380388   0.0000000027   0.0001769759  -0.0005260492   0.0000000121
        0.0004203903   0.0009657780  -0.0000000042   0.0000379758  -0.0000134536
       -0.0000000062   0.0000412483   0.0001052238  -0.0000000053   0.0000704320
        0.0000303029  -0.0000000027  -0.0020612351  -0.0009710770   0.0000000063
        0.1222787042  -0.6130625885   0.0000005218  -0.0846036391   0.8614839236
       -0.0000004034   0.0411867211  -0.1051075689  -0.0000002641   0.0238920412
        0.0025850852  -0.0000002002   0.0027030964  -0.0038323191   0.0000000012
        0.0006886796   0.0007222059  -0.0000000151  -0.0008175866  -0.0001741483
       -0.0000000291  -0.0075795133  -0.0040316121   0.0000000203  -0.0050593378
       -0.0282278906   0.0000000872   0.0004074866  -0.0042094533   0.0000000146
        0.0028080898  -0.0018429904   0.0000000048  -0.0025555816  -0.0026190957
       -0.0000000106   0.0006149714   0.0011729334   0.0000000115   0.0009055326
        0.0001560532  -0.0000000123  -0.0007926276  -0.0008661147  -0.0000000045
       -0.0000245975  -0.0011635883  -0.0000000071   0.0017006569   0.0008176697
       -0.0000000111  -0.0001318763  -0.0001094957   0.0000000019  -0.0000867270
        0.0022873040  -0.0000000278   0.0047805952   0.0043154079   0.0000000019
       -0.0172873104   0.0064114342   0.0000000459  -0.0599309134  -0.1242280620
        0.0000001511  -0.0259965110   0.0108976823   0.0000001461  -0.0001776732
       -0.0002113797   0.0000000084  -0.0000361456  -0.0000905031   0.0000000110
       -0.0006960998  -0.0008723920  -0.0000000129   0.0000304901  -0.0001317089
       -0.0000000019   0.0000866564  -0.0000799010  -0.0000000010  -0.0000651575
       -0.0001119791   0.0000000031   0.0037575762   0.0001230923  -0.0000000294
       -0.0000000010   0.0000003437  -0.0579785724  -0.0000015347  -0.0000004034
        0.1589766418   0.0000012152   0.0000000885  -0.0397924971  -0.0000000347
       -0.0000003192  -0.0065753893  -0.0000000106   0.0000000580   0.0013441052
       -0.0000000231  -0.0000000447   0.0008942965   0.0000000215   0.0000000572
        0.0002241071   0.0000001073  -0.0000000158  -0.0021294213  -0.0000001384
        0.0000000877  -0.0009546943   0.0000000718   0.0000000241   0.0067475744
       -0.0000000521   0.0000000330  -0.0003197603  -0.0000000022   0.0000000398
       -0.0017752020   0.0000000046  -0.0000000311   0.0001684173   0.0000000055
       -0.0000000062   0.0000413707  -0.0000000017   0.0000000044  -0.0004111760
       -0.0000000006  -0.0000000086  -0.0000026160  -0.0000000028   0.0000000074
       -0.0000487493   0.0000000082  -0.0000000068   0.0000712990   0.0000000210
        0.0000000037   0.0002397311   0.0000000174  -0.0000000359   0.0087203972
        0.0000002010   0.0000000302  -0.0004810979   0.0000000036   0.0000000973
       -0.0643852230   0.0000001399  -0.0000000062   0.0004694429  -0.0000000044
        0.0000000014   0.0000963106  -0.0000000033   0.0000000077  -0.0000395504
       -0.0000000003  -0.0000000029  -0.0004323235  -0.0000000006  -0.0000000005
        0.0002558445  -0.0000000013  -0.0000000005   0.0000083053  -0.0000000009
       -0.0000000006  -0.0000089946  -0.0000000043  -0.0000000015  -0.0029225764
       -0.0330170636   0.0484347942   0.0000001583  -0.2347032862   0.0411867211
        0.0000012152   0.6390370724   0.0264856999  -0.0000030307  -0.1012476674
        0.0446323831   0.0000002147  -0.0143070412   0.0371204153  -0.0000000045
       -0.0048039216   0.0002781857   0.0000000222  -0.0035159245   0.0018477192
        0.0000000173   0.0179084817  -0.0211413591  -0.0000000287  -0.0121506572
        0.0048515521   0.0000000545   0.0045331151   0.0016605380  -0.0000000229
       -0.0037740178   0.0018328922   0.0000000241   0.0011677869   0.0009055326
       -0.0000000167   0.0000361277  -0.0005740692   0.0000000182  -0.0007699934
        0.0010067898  -0.0000000012  -0.0004322967  -0.0014390989   0.0000000016
       -0.0001262776  -0.0004644118   0.0000000017   0.0007781788   0.0003173847
       -0.0000000083  -0.0001181994   0.0001288463  -0.0000000055   0.0012078307
       -0.0000036204  -0.0000000044  -0.0032802147  -0.0040521211   0.0000000065
        0.0045909676  -0.0043852340  -0.0000000229  -0.0543112755  -0.0166169561
        0.0000002897  -0.2052634350  -0.1638529553   0.0000011404   0.0010782973
        0.0000947360  -0.0000000053  -0.0001104293   0.0017437272  -0.0000000025
       -0.0000338401  -0.0002447349  -0.0000000029  -0.0000364489  -0.0000343024
        0.0000000017  -0.0000212889  -0.0000536230   0.0000000011  -0.0000503740
       -0.0000302619   0.0000000004   0.0017357948   0.0003648310  -0.0000000110
        0.0737414228  -0.0409260222  -0.0000003219   0.0040197848  -0.1051075689
        0.0000000885   0.0264856999   0.7219282316  -0.0000013220   0.0665464068
       -0.2848188187   0.0000003712   0.0157368273  -0.0167811638  -0.0000000872
       -0.0011381068   0.0007941731   0.0000000490   0.0025030173  -0.0115327745
        0.0000000327  -0.0221975705  -0.0481228715   0.0000001832   0.0201350398
       -0.0006319165  -0.0000000728  -0.0084868198  -0.0033142703   0.0000000258
        0.0062115811  -0.0032671677  -0.0000000148  -0.0008675105   0.0001560532
       -0.0000000072  -0.0001145712  -0.0002307401   0.0000000005   0.0010067898
       -0.0017078004   0.0000000043   0.0005197983   0.0024152878  -0.0000000066
        0.0000920663   0.0003662025   0.0000000014  -0.0008431025  -0.0002297977
        0.0000000035   0.0003303012  -0.0003834286  -0.0000000055  -0.0021521545
       -0.0009565712   0.0000000009   0.0025527040   0.0072302158  -0.0000000259
       -0.0135947633  -0.0050030538   0.0000000611  -0.0045657929   0.0153555046
       -0.0000000037  -0.1645212196  -0.2261057216   0.0000010501  -0.0009975597
        0.0012033178  -0.0000000043  -0.0001331828  -0.0001888024  -0.0000000144
        0.0002098237   0.0004145416   0.0000000047   0.0000788809   0.0000893761
        0.0000000100  -0.0000378514  -0.0000006557   0.0000000041   0.0000363506
        0.0000339780  -0.0000000027  -0.0005562890  -0.0006777365  -0.0000000020
        0.0000000791  -0.0000000657   0.0135158124   0.0000012497  -0.0000002641
       -0.0397924971  -0.0000030307  -0.0000013220   0.0559034643   0.0000002206
        0.0000003888  -0.0290020237  -0.0000000143  -0.0000001071   0.0004947195
        0.0000000672   0.0000000111   0.0023709626  -0.0000000116   0.0000000130
        0.0044866828  -0.0000000424   0.0000002104   0.0019237600   0.0000000401
       -0.0000000228  -0.0016805027  -0.0000000149   0.0000000075  -0.0002836078
        0.0000000292  -0.0000000200   0.0003045063   0.0000000137  -0.0000000452
        0.0000493131  -0.0000000073   0.0000000362   0.0001013846  -0.0000000157
        0.0000000026   0.0000352091  -0.0000000060  -0.0000000029  -0.0000665825
        0.0000000038   0.0000000059   0.0000739378  -0.0000000057  -0.0000000082
       -0.0000090292  -0.0000000002   0.0000000090  -0.0000380507  -0.0000000188
        0.0000000001  -0.0005616902   0.0000000093   0.0000000105  -0.0002525917
        0.0000000014   0.0000000408   0.0031734980   0.0000002761   0.0000000387
        0.0037984849   0.0000011840   0.0000010972  -0.0145809262   0.0000000005
       -0.0000000058  -0.0006919590   0.0000000037  -0.0000000082   0.0006347946
       -0.0000000029  -0.0000000007   0.0001419666   0.0000000008   0.0000000018
        0.0000196280   0.0000000019   0.0000000015  -0.0000002479   0.0000000016
        0.0000000003  -0.0000313688  -0.0000000121  -0.0000000027  -0.0000370468
       -0.0073893907   0.0075520611   0.0000000610  -0.0119977991   0.0238920412
       -0.0000000347  -0.1012476674   0.0665464068   0.0000002206   0.6347742213
       -0.0204437080  -0.0000021191  -0.2601163512   0.0209483402   0.0000008665
       -0.0045950631   0.0760138611  -0.0000002088  -0.0043014814  -0.0288919760
        0.0000000532  -0.1857194342  -0.1173379958   0.0000008156  -0.0481121345
       -0.0172669129   0.0000002524   0.0013914993   0.0044071222  -0.0000000014
       -0.0034748900   0.0012179194   0.0000000082   0.0000743499  -0.0007926276
       -0.0000000052  -0.0002098907   0.0007804404   0.0000000014  -0.0004322967
        0.0005197983   0.0000000003   0.0007076825  -0.0001566984  -0.0000000030
       -0.0002377816   0.0003225206  -0.0000000032   0.0001139896  -0.0001661190
       -0.0000000006  -0.0001137380  -0.0001484358  -0.0000000002  -0.0011880694
        0.0000604472  -0.0000000017   0.0020862051  -0.0011218809  -0.0000000008
       -0.0025137294  -0.0000097427   0.0000000060   0.0041017879  -0.0049142947
        0.0000000033   0.0078943848  -0.0181854214  -0.0000000094  -0.0199349435
        0.0067020971   0.0000000616   0.0000076414   0.0001326438   0.0000000477
        0.0003723159   0.0003393335  -0.0000000052  -0.0000366585  -0.0000273843
        0.0000000005   0.0000177157   0.0000203190  -0.0000000008   0.0000034040
        0.0000118569  -0.0000000014   0.0000761220  -0.0000040113  -0.0000000024
       -0.0034763441  -0.0089378029   0.0000000675   0.0521005929   0.0025850852
       -0.0000003192   0.0446323831  -0.2848188187   0.0000003888  -0.0204437080
        0.7100189634  -0.0000012504   0.0751617525  -0.0919461571  -0.0000001242
        0.0279668521  -0.0306794028  -0.0000000877   0.0042071090  -0.0461847965
        0.0000000638  -0.1282498005  -0.2208034490   0.0000008972  -0.0372762532
        0.0072941923   0.0000001359   0.0148604863   0.0056275867  -0.0000000401
       -0.0079640905   0.0049203614   0.0000000181   0.0015355972  -0.0008661147
        0.0000000053  -0.0000145418   0.0007838167   0.0000000027  -0.0014390989
        0.0024152878  -0.0000000027  -0.0001566984  -0.0027889540   0.0000000069
       -0.0003007533  -0.0002188471  -0.0000000023   0.0010545550   0.0001608684
       -0.0000000031  -0.0004450365   0.0002198296   0.0000000053   0.0012226516
        0.0007139101   0.0000000025  -0.0024825672  -0.0073844749   0.0000000251
        0.0082027853   0.0007060333  -0.0000000435  -0.0135777990  -0.0144317107
        0.0000000791   0.0011558560  -0.0256271261   0.0000000612  -0.0161994177
        0.0056311693   0.0000000585  -0.0003810181  -0.0057530417   0.0000000696
       -0.0000349364  -0.0007227939  -0.0000000045  -0.0000646542  -0.0001281046
       -0.0000000091   0.0000448321   0.0000245308  -0.0000000041  -0.0000415453
       -0.0000296442   0.0000000020   0.0004028103   0.0002196039   0.0000000014
        0.0000000748   0.0000000140   0.0058093725  -0.0000000586  -0.0000002002
       -0.0065753893   0.0000002147   0.0000003712  -0.0290020237  -0.0000021191
       -0.0000012504   0.1142776755   0.0000007565  -0.0000000157  -0.0480423872
       -0.0000000666  -0.0000001786   0.0024101136  -0.0000000086   0.0000002236
        0.0006862084   0.0000008548   0.0000008489  -0.0443846589   0.0000002655
        0.0000000399  -0.0012389589  -0.0000000248  -0.0000000156   0.0034196441
        0.0000000343  -0.0000000173   0.0005953643   0.0000000004  -0.0000000017
       -0.0004291518  -0.0000000012   0.0000000001  -0.0000397671  -0.0000000006
       -0.0000000078  -0.0000822142  -0.0000000022   0.0000000077  -0.0000034073
        0.0000000018  -0.0000000016   0.0000245843  -0.0000000044   0.0000000010
        0.0000193202   0.0000000025   0.0000000005   0.0000181930  -0.0000000006
       -0.0000000018  -0.0001081500  -0.0000000005   0.0000000223   0.0001732410
       -0.0000000110  -0.0000000003   0.0001390977   0.0000000125   0.0000000386
       -0.0011934516  -0.0000000507   0.0000001173  -0.0030967535   0.0000001089
       -0.0000000412  -0.0007603420   0.0000000259   0.0000000468   0.0074003105
       -0.0000000016  -0.0000000009  -0.0001078788  -0.0000000000   0.0000000004
        0.0000547582   0.0000000000   0.0000000000  -0.0000004157   0.0000000003
       -0.0000000001   0.0000274961  -0.0000000024   0.0000000011   0.0000095706
       -0.0008680833  -0.0016666846   0.0000000096   0.0048566966   0.0027030964
       -0.0000000106  -0.0143070412   0.0157368273  -0.0000000143  -0.2601163512
        0.0751617525   0.0000007565   0.6346626496   0.0796706429  -0.0000023374
       -0.0756073026  -0.0129633641   0.0000001722  -0.0155809087  -0.0057325745
        0.0000000933  -0.0549833656  -0.0375082285   0.0000003114   0.0006192896
       -0.0050416204   0.0000000247  -0.0022385607  -0.0004901963   0.0000000079
       -0.0000605090  -0.0001223956  -0.0000000036   0.0000419163  -0.0000245975
        0.0000000022  -0.0000713992   0.0000490464   0.0000000022  -0.0001262776
        0.0000920663   0.0000000031  -0.0002377816  -0.0003007533   0.0000000025
        0.0000611641  -0.0000834236   0.0000000010  -0.0000096925   0.0000650920
        0.0000000006  -0.0000232452   0.0000855984  -0.0000000011   0.0006324935
        0.0001094394  -0.0000000026  -0.0010779701  -0.0006091804   0.0000000033
        0.0018583932   0.0001949477  -0.0000000076  -0.0025972719  -0.0003057494
        0.0000000049   0.0011109860  -0.0015455396  -0.0000000065  -0.2156441486
       -0.1309166698   0.0000010827  -0.0003794728   0.0230481711  -0.0000000979
        0.0000619164   0.0003683777   0.0000000003  -0.0000273075  -0.0000015461
        0.0000000031   0.0000036299   0.0000007150   0.0000000020  -0.0000014940
       -0.0000003948   0.0000000003   0.0000490481   0.0000271457  -0.0000000023
        0.0032860171  -0.0013402503  -0.0000000243  -0.0058496011  -0.0038323191
        0.0000000580   0.0371204153  -0.0167811638  -0.0000001071   0.0209483402
       -0.0919461571  -0.0000000157   0.0796706429   0.7054861476  -0.0000022699
        0.0393660571  -0.4113896952   0.0000012811  -0.0466018634  -0.0526143231
        0.0000003130   0.0036092568   0.0232718018  -0.0000000884  -0.0065527696
       -0.0017308954   0.0000000526   0.0004190814   0.0004408978  -0.0000000077
       -0.0001667618   0.0003125375  -0.0000000056   0.0004456327  -0.0011635883
       -0.0000000009  -0.0003875121   0.0008610758  -0.0000000054  -0.0004644118
        0.0003662025   0.0000000042   0.0003225206  -0.0002188471  -0.0000000009
       -0.0000834236   0.0000313613   0.0000000010   0.0001526932   0.0000541866
        0.0000000010  -0.0001142061  -0.0000768867  -0.0000000008  -0.0004692148
        0.0000914359   0.0000000036   0.0010549080   0.0005180464  -0.0000000078
       -0.0018489549   0.0000010047   0.0000000045   0.0032546999  -0.0009394843
       -0.0000000153   0.0010786887   0.0022083575  -0.0000000155  -0.1296769669
       -0.1381834481   0.0000008079   0.0010487297  -0.0136121653   0.0000000322
        0.0005294653   0.0001838227   0.0000000009  -0.0000030692  -0.0000399379
        0.0000000033   0.0000162408   0.0000023855   0.0000000018  -0.0000048249
        0.0000025543  -0.0000000005  -0.0000998093   0.0000373437   0.0000000006
       -0.0000000019   0.0000000027   0.0004644690   0.0000000038   0.0000000012
        0.0013441052  -0.0000000045  -0.0000000872   0.0004947195   0.0000008665
       -0.0000001242  -0.0480423872  -0.0000023374  -0.0000022699   0.0986620641
        0.0000000179   0.0000014763  -0.0350246070   0.0000001886   0.0000000869
        0.0054602636   0.0000001709   0.0000001067   0.0031713556   0.0000000400
        0.0000000388   0.0054757929  -0.0000000011  -0.0000000113  -0.0001257748
       -0.0000000015   0.0000000018  -0.0005930095  -0.0000000103   0.0000000008
        0.0000046601   0.0000000035  -0.0000000026  -0.0000069269   0.0000000067
        0.0000000007   0.0000797420  -0.0000000020  -0.0000000016   0.0000249536
        0.0000000006   0.0000000014  -0.0000451541   0.0000000011  -0.0000000016
        0.0000047530  -0.0000000006  -0.0000000002   0.0000148023   0.0000000009
        0.0000000013   0.0002000589   0.0000000009   0.0000000025  -0.0000535292
       -0.0000000032  -0.0000000030  -0.0006634183  -0.0000000055   0.0000000196
        0.0004489518  -0.0000000142  -0.0000000014  -0.0013000447   0.0000010848
        0.0000008267  -0.0275506081  -0.0000000049  -0.0000000624  -0.0023951704
       -0.0000000011  -0.0000000003  -0.0000388628   0.0000000008   0.0000000001
       -0.0000470033   0.0000000001  -0.0000000001  -0.0000012944   0.0000000004
        0.0000000000   0.0000115674   0.0000000010  -0.0000000019   0.0000255317
       -0.0001757868  -0.0000193486   0.0000000017  -0.0016015298   0.0006886796
       -0.0000000231  -0.0048039216  -0.0011381068   0.0000000672  -0.0045950631
        0.0279668521  -0.0000000666  -0.0756073026   0.0393660571   0.0000000179
        0.5104208259  -0.1360633110  -0.0000009491  -0.1632498757  -0.0516334856
        0.0000004850  -0.0293389478   0.0083952897   0.0000000655  -0.0005039989
        0.0014173508  -0.0000000276  -0.0001084354   0.0006823081  -0.0000000080
       -0.0000948199  -0.0001082235   0.0000000066  -0.0006896597   0.0017006569
       -0.0000000111   0.0003764426  -0.0012630146  -0.0000000040   0.0007781788
       -0.0008431025  -0.0000000035   0.0001139896   0.0010545550  -0.0000000047
       -0.0000096925   0.0001526932   0.0000000003  -0.0004131960  -0.0001513429
        0.0000000003   0.0002697779  -0.0001613631   0.0000000014  -0.0007242563
       -0.0002894660   0.0000000040   0.0006104855   0.0003004842  -0.0000000044
       -0.0007589316  -0.0002587150   0.0000000042  -0.0001665928   0.0001576014
        0.0000000074  -0.0001647012  -0.0004985222   0.0000000032   0.0006544340
       -0.0225639721   0.0000000580  -0.2301539063   0.1328967014   0.0000003782
        0.0000003603   0.0002050358  -0.0000000005   0.0000055653   0.0000565235
       -0.0000000030  -0.0000403743  -0.0000159608  -0.0000000015   0.0000005078
       -0.0000002509   0.0000000005  -0.0000295756  -0.0000326035   0.0000000059
        0.0000877389  -0.0018476201   0.0000000150   0.0030055920   0.0007222059
       -0.0000000447   0.0002781857   0.0007941731   0.0000000111   0.0760138611
       -0.0306794028  -0.0000001786  -0.0129633641  -0.4113896952   0.0000014763
       -0.1360633110   0.6758126444  -0.0000014402  -0.0668551306  -0.0566781069
        0.0000001952   0.0000372941  -0.0192906792   0.0000000991   0.0020927794
       -0.0045149043  -0.0000000133  -0.0006855667  -0.0006136225   0.0000000065
       -0.0003497186   0.0002107841   0.0000000058  -0.0003609119   0.0008176697
       -0.0000000001   0.0002524738  -0.0005801894   0.0000000008   0.0003173847
       -0.0002297977  -0.0000000064  -0.0001661190   0.0001608684   0.0000000001
        0.0000650920   0.0000541866  -0.0000000011  -0.0001513429  -0.0000644017
       -0.0000000002   0.0000339758   0.0000454478   0.0000000044   0.0002359523
       -0.0000186204   0.0000000003  -0.0007852046  -0.0006571120   0.0000000079
        0.0014078361  -0.0000669575  -0.0000000044  -0.0017049183  -0.0007532372
        0.0000000179   0.0002067708  -0.0005413346   0.0000000065  -0.0009162358
       -0.0191818561   0.0000000592   0.1372089400  -0.1317668283  -0.0000002073
       -0.0002806118   0.0002439837  -0.0000000054  -0.0000145613   0.0000338801
       -0.0000000076  -0.0000124739   0.0000085029  -0.0000000033   0.0000049184
        0.0000075557   0.0000000023   0.0000606756  -0.0000375366   0.0000000042
        0.0000000012   0.0000000130  -0.0002194404  -0.0000000109  -0.0000000151
        0.0008942965   0.0000000222   0.0000000490   0.0023709626  -0.0000002088
       -0.0000000877   0.0024101136   0.0000001722   0.0000012811  -0.0350246070
       -0.0000009491  -0.0000014402   0.0747297849   0.0000004481   0.0000002127
       -0.0245794632   0.0000001551   0.0000000215   0.0023955019   0.0000000007
        0.0000000035   0.0013576725   0.0000000040   0.0000000113   0.0000789897
        0.0000000071  -0.0000000059  -0.0001359209   0.0000000143  -0.0000000028
       -0.0000407023  -0.0000000042   0.0000000045   0.0000253330  -0.0000000094
        0.0000000029   0.0000005026   0.0000000025  -0.0000000006   0.0000046504
        0.0000000001   0.0000000012   0.0000056484  -0.0000000013  -0.0000000011
       -0.0000032104  -0.0000000014   0.0000000028   0.0000041695  -0.0000000010
       -0.0000000034   0.0000572633   0.0000000079   0.0000000015   0.0000343618
       -0.0000000133   0.0000000014  -0.0001929326   0.0000000221  -0.0000000084
       -0.0000119957   0.0000000001   0.0000000036  -0.0002273797  -0.0000000030
        0.0000001217  -0.0005823627   0.0000003449  -0.0000001657  -0.0233727662
        0.0000000015  -0.0000000024   0.0000562969  -0.0000000008  -0.0000000005
       -0.0000082527  -0.0000000001  -0.0000000001  -0.0000003503  -0.0000000001
        0.0000000002  -0.0000025984  -0.0000000008   0.0000000021  -0.0000235651
       -0.0007933735   0.0016310477   0.0000000003   0.0016761195  -0.0008175866
        0.0000000215  -0.0035159245   0.0025030173  -0.0000000116  -0.0043014814
        0.0042071090  -0.0000000086  -0.0155809087  -0.0466018634   0.0000001886
       -0.1632498757  -0.0668551306   0.0000004481   0.2804034546   0.0227217802
       -0.0000008458  -0.0600570395   0.0688743763   0.0000000396  -0.0118555586
        0.0228354025   0.0000000230   0.0011684608   0.0026242762  -0.0000000054
       -0.0002975990  -0.0004388416   0.0000000029   0.0000788772  -0.0001318763
        0.0000000068   0.0002232591   0.0001340217   0.0000000099  -0.0001181994
        0.0003303012   0.0000000003  -0.0001137380  -0.0004450365   0.0000000024
       -0.0000232452  -0.0001142061   0.0000000000   0.0002697779   0.0000339758
       -0.0000000021  -0.0000308642   0.0000619776  -0.0000000025   0.0003889244
        0.0000355900  -0.0000000017   0.0002048094  -0.0001945549   0.0000000022
        0.0000020705   0.0014441742  -0.0000000074  -0.0040751495  -0.0002899869
        0.0000000254  -0.0003837083  -0.0000408340   0.0000000036   0.0003453783
       -0.0018958823   0.0000000319  -0.0188918458  -0.0083166420   0.0000000759
       -0.0011552412  -0.0012637538   0.0000000081   0.0000115337  -0.0000255771
        0.0000000009   0.0000145046   0.0000022908   0.0000000008  -0.0000060441
       -0.0000097223  -0.0000000006  -0.0003373736   0.0000021538  -0.0000000063
        0.0013509992  -0.0006338090  -0.0000000173  -0.0066739539  -0.0001741483
        0.0000000572   0.0018477192  -0.0115327745   0.0000000130  -0.0288919760
       -0.0461847965   0.0000002236  -0.0057325745  -0.0526143231   0.0000000869
       -0.0516334856  -0.0566781069   0.0000002127   0.0227217802   0.3216586569
       -0.0000005168   0.0384771483  -0.1476632227   0.0000000249   0.0188687560
       -0.0102442841  -0.0000000470  -0.0049879622  -0.0003132327   0.0000000168
        0.0019194941  -0.0015573748  -0.0000000129  -0.0004209389  -0.0001094957
        0.0000000046  -0.0000881153   0.0000708397  -0.0000000037   0.0001288464
       -0.0003834286   0.0000000065  -0.0001484358   0.0002198296   0.0000000013
        0.0000855984  -0.0000768867   0.0000000001  -0.0001613631   0.0000454478
        0.0000000014   0.0000619776   0.0000085637  -0.0000000038   0.0002430752
       -0.0000912658  -0.0000000042  -0.0004884484   0.0012783890  -0.0000000045
       -0.0002908660  -0.0005919750   0.0000000097   0.0015503718   0.0046052890
       -0.0000000269   0.0011158940  -0.0004955545  -0.0000000060   0.0017594455
       -0.0042250106   0.0000000185   0.0095718562   0.0051567399  -0.0000000436
       -0.0001356347   0.0004616848   0.0000000049  -0.0000158541   0.0000061250
        0.0000000080  -0.0000096775  -0.0000075796   0.0000000031  -0.0000019862
        0.0000031630  -0.0000000029  -0.0000216897   0.0000625405  -0.0000000036
       -0.0000000087   0.0000000185  -0.0006275065   0.0000000222  -0.0000000291
        0.0002241071   0.0000000173   0.0000000327   0.0044866828   0.0000000532
        0.0000000638   0.0006862084   0.0000000933   0.0000003130   0.0054602636
        0.0000004850   0.0000001952  -0.0245794632  -0.0000008458  -0.0000005168
        0.0323092668   0.0000000646  -0.0000000698  -0.0230025782   0.0000000234
       -0.0000000702  -0.0029601619  -0.0000000017  -0.0000000064  -0.0003095441
        0.0000000023  -0.0000000013   0.0000410673   0.0000000046   0.0000000022
        0.0000980324  -0.0000000018  -0.0000000006   0.0000079940  -0.0000000037
        0.0000000027  -0.0000133807   0.0000000011  -0.0000000030  -0.0000022744