$hessian                                                                        
        0.5269911155  -0.0051358014   0.0131578537  -0.0648721386   0.0005690399
       -0.0015843073  -0.0059489306   0.0243786175   0.0118037349  -0.0019198833
        0.0020490912  -0.0018423183  -0.0008871450   0.0014805239   0.0005244145
        0.0000086921  -0.0005025154   0.0006740054   0.0002346550   0.0000820975
       -0.0002675080   0.0001713835  -0.0002404919   0.0001402157  -0.0002408997
        0.0000952173   0.0000569055  -0.0000479707   0.0001304942  -0.0001332624
       -0.0004370363   0.0000295245   0.0001738910   0.0003633240  -0.0001847977
       -0.0000107419  -0.0002690775   0.0002784675  -0.0002136965  -0.0001373311
       -0.0000508797   0.0001450137  -0.0002189163   0.0001649800  -0.0000501684
        0.0003048794  -0.0000294091  -0.0001667959   0.0000869628  -0.0002454304
        0.0002815848   0.0004683872   0.0002874618  -0.0005940078  -0.0007411237
        0.0004376007   0.0000199083  -0.0029229877  -0.0012656459  -0.0031269490
       -0.0002724573  -0.0188790957  -0.0111417828   0.0010865079   0.0003065372
       -0.0000297449   0.0000732282  -0.0000855854  -0.0002343440   0.0003318520
        0.0006526473   0.0000597589  -0.0004953467  -0.0003171592  -0.0000034497
        0.0001766424   0.0002925905  -0.0000265103  -0.0002114013   0.0000021043
       -0.0000359647   0.0001002996   0.0001138852  -0.0000137995   0.0000596576
        0.0000196401  -0.0000077921  -0.0000611851   0.0000118542   0.0000967114
       -0.0000029598  -0.0000335683  -0.0000568978  -0.0000541843  -0.0000121334
        0.0000212800   0.0000535008   0.0000392494   0.0000115467   0.0000283504
        0.0000027047  -0.0000310754   0.0000541976   0.0000540113   0.0000446434
       -0.0000735094  -0.0000597066   0.0000021720   0.0000658885   0.0000185534
       -0.0000397300   0.0000170322   0.0000266606   0.0000362908   0.0000511768
        0.0000294071  -0.0000097442  -0.0000364735  -0.0000470144  -0.0000220178
       -0.0000330769   0.0000125880   0.0000555746  -0.0000101186  -0.0000518296
       -0.0000831150  -0.0001434806  -0.0002576998   0.0000447929   0.0003485329
        0.0000389969   0.0000417939   0.0000543916  -0.0000105059   0.0000156643
        0.0000916956  -0.0008402520  -0.0000256585   0.0010369118   0.0004323006
       -0.0000447749  -0.0067230497  -0.0017743252  -0.0027784681  -0.1742053756
       -0.0074926714   0.1181048092  -0.2245221464  -0.0282908004  -0.0969845156
       -0.0473106519   0.0336526567  -0.0276783197   0.0007035567   0.0014719278
        0.0020945591  -0.0000483437  -0.0000205156   0.0000737596  -0.0000008186
        0.0000065890  -0.0000059398  -0.0000021216   0.0000064447   0.0000073635
        0.0000132082   0.0000094509  -0.0000094468   0.0000018183  -0.0000107154
        0.0000118698  -0.0000054787   0.0000091800  -0.0000066798  -0.0000078328
        0.0000052158  -0.0000116890  -0.0000141706   0.0000383647  -0.0001067441
        0.0000606595  -0.0001363754   0.0003628164  -0.0000667177  -0.0012013448
       -0.0006453405   0.0000482122   0.0000262604  -0.0000080394  -0.0000330851
        0.0000108732  -0.0000184746  -0.0000091935   0.0000044847  -0.0000106656
       -0.0000091099   0.0000005850   0.0000147542  -0.0000004536   0.0000029312
        0.0000067898  -0.0000091668   0.0000048268   0.0000061034  -0.0000192363
       -0.0000096011   0.0000020567  -0.0000154595  -0.0000119789  -0.0000039121
       -0.0000020107  -0.0000080768  -0.0000049571   0.0000031117  -0.0000016951
       -0.0000025293  -0.0000019277  -0.0000094541  -0.0000185021  -0.0000001080
       -0.0000080402   0.0000083770  -0.0000223203   0.0000028593   0.0000112951
       -0.0000129660  -0.0000101405  -0.0000075292   0.0000210147   0.0000045365
        0.0000143474  -0.0000314677  -0.0000587765  -0.0000287479
       -0.0051358014   0.4701424911  -0.0093714931   0.0060692495  -0.1719189371
       -0.0691002978   0.0099285935  -0.0225512675  -0.0132445930   0.0026657599
        0.0026331366  -0.0025155773   0.0004106270  -0.0007264771  -0.0004029409
       -0.0000726299   0.0001445832  -0.0003238662  -0.0001295000   0.0000459534
        0.0000701124  -0.0000063722   0.0000059615  -0.0000638312  -0.0000125385
       -0.0000098560   0.0000008993  -0.0000009244   0.0000249294  -0.0000110895
       -0.0000354715  -0.0000463976   0.0000946968   0.0000590190  -0.0000337452
       -0.0000205474   0.0000629581   0.0000813955  -0.0000476560  -0.0000218464
       -0.0000326043   0.0000211042   0.0000073003   0.0000147958  -0.0000107307
        0.0000310087  -0.0000275199   0.0000432838  -0.0000547004   0.0001034167
       -0.0000288470  -0.0001216489  -0.0000881188   0.0003515641   0.0005744090
       -0.0010675993  -0.0002198060  -0.0015584118   0.0025393054  -0.0022482811
       -0.0053399097  -0.0132455720  -0.0097479223   0.0017210764  -0.0008278292
        0.0009437736   0.0000662044  -0.0001668392   0.0000893824  -0.0001722342
       -0.0002564607   0.0000774884   0.0001981774   0.0001533620  -0.0001085736
        0.0000133686  -0.0000953893   0.0000251059   0.0000561931   0.0000759421
       -0.0000018339  -0.0000453376  -0.0000027531  -0.0000088943   0.0001130320
        0.0000241487   0.0000180868  -0.0001490382  -0.0000026176   0.0001222306
       -0.0000249586  -0.0000816964  -0.0001117038  -0.0001593515  -0.0000619684
        0.0000499717   0.0001363541   0.0001117277   0.0000533651   0.0000740184
       -0.0000108258  -0.0001165658   0.0001047715   0.0001713658   0.0001922497
       -0.0001763426  -0.0001395969   0.0000227493   0.0002037867   0.0000269807
       -0.0001923892   0.0000156582   0.0000770544   0.0001206415   0.0001383490
        0.0000681061  -0.0000430552  -0.0001259881  -0.0001088629  -0.0000610099
       -0.0000782192   0.0000145409   0.0001158853  -0.0000803445  -0.0001309693
       -0.0001471468   0.0000669680   0.0000183075   0.0000449929  -0.0000997415
       -0.0000406208   0.0000047297   0.0000036045   0.0000149898  -0.0000260198
        0.0003623183   0.0007897641  -0.0000477522  -0.0010617203  -0.0001910686
       -0.0000071798   0.0005574025   0.0010819339   0.0004548707  -0.0103991294
       -0.0383185182   0.0066092476  -0.0293766877  -0.0466582962  -0.0154669814
        0.0326253548  -0.1807567732   0.1126293282  -0.0018528425  -0.0000544795
        0.0012032267   0.0001072763  -0.0000075370  -0.0000762387   0.0000044468
       -0.0000055862   0.0000166224   0.0000224768  -0.0000193697   0.0000280886
        0.0000277074  -0.0000149128   0.0000108573   0.0000254382  -0.0000095186
       -0.0000120662   0.0000250399   0.0000000598  -0.0000304306   0.0000100627
        0.0000096843  -0.0000445705   0.0000631278  -0.0001462614   0.0000054817
       -0.0002042541  -0.0002800142   0.0006089235  -0.0000029829  -0.0005142112
       -0.0000743188   0.0001137982   0.0001508189  -0.0000743184  -0.0000082950
        0.0000165560  -0.0000235718  -0.0000153249  -0.0000040217  -0.0000014685
        0.0000143831  -0.0000066627  -0.0000130993   0.0000086786   0.0000140564
        0.0000182205  -0.0000164813   0.0000124385   0.0000133432  -0.0000380860
       -0.0000211021   0.0000041321  -0.0000370272  -0.0000288525  -0.0000008930
       -0.0000009927  -0.0000203623  -0.0000082929   0.0000161367   0.0000000242
       -0.0000051719  -0.0000012760   0.0000095491   0.0000079636  -0.0000172167
       -0.0000010379  -0.0000087731   0.0000040959  -0.0000001074  -0.0000139726
       -0.0000096064  -0.0000000541   0.0000069513   0.0000037732  -0.0000045656
        0.0000010485  -0.0000687708   0.0001604578   0.0000031521
        0.0131578537  -0.0093714931   0.4841005041   0.0022816857  -0.0738101069
       -0.1036042173   0.0023633855  -0.0080981109  -0.0009785752  -0.0015521474
       -0.0027328923   0.0053329397   0.0001366056  -0.0002600997   0.0000605428
        0.0000489137   0.0002176745  -0.0001340821  -0.0000549245   0.0000224000
        0.0000532163   0.0000016872   0.0000013741  -0.0000120858   0.0000275402
       -0.0000110830   0.0000033441  -0.0000015488  -0.0000096696   0.0000092466
        0.0000766487  -0.0000269929   0.0000052632  -0.0000416739  -0.0000116354
        0.0000524893  -0.0000045809  -0.0000272721  -0.0000234849   0.0000282064
        0.0000190020  -0.0000307083   0.0000483288  -0.0000456264   0.0000135841
       -0.0000643741  -0.0000000686   0.0000572862  -0.0000414580   0.0000799646
       -0.0000623628  -0.0001892675  -0.0000655162   0.0000490580   0.0002849259
       -0.0003094502  -0.0002599826  -0.0033405483  -0.0021852240   0.0030502317
       -0.0034266104  -0.0139438234  -0.0093080462   0.0019725758   0.0008853949
       -0.0006167324  -0.0004426482  -0.0000943278  -0.0000835728   0.0005177233
       -0.0002036139  -0.0000463908  -0.0001367209  -0.0000716973   0.0000576941
       -0.0000005792   0.0000500757   0.0000084097  -0.0000157073   0.0000100989
       -0.0000043037  -0.0000082761  -0.0000001376  -0.0000072432  -0.0000059270
        0.0000011669   0.0000308454   0.0000154404  -0.0000124594  -0.0000379674
       -0.0000035771  -0.0000061274   0.0000016552  -0.0000090848  -0.0000104665
       -0.0000088851   0.0000139637   0.0000082031   0.0000022285   0.0000071965
        0.0000042259  -0.0000062039  -0.0000083758  -0.0000050692   0.0000049680
        0.0000037509   0.0000102084   0.0000154911   0.0000037439   0.0000038442
       -0.0000065225   0.0000052387   0.0000025707   0.0000039213   0.0000001665
        0.0000067177   0.0000020698  -0.0000061221  -0.0000040633   0.0000076988
       -0.0000002381   0.0000067092  -0.0000011976  -0.0000068867  -0.0000079895
        0.0000088241   0.0000011483  -0.0000149563  -0.0000196370   0.0000549996
       -0.0000385937   0.0000228784   0.0000184235   0.0000267410  -0.0000081309
       -0.0005793967  -0.0000232633   0.0001703309   0.0007025620  -0.0002225530
       -0.0001202747  -0.0026718879   0.0000596899  -0.0008471169   0.1168865957
        0.0053161203  -0.1475287561  -0.0970924356  -0.0145963414  -0.0962112303
       -0.0291848121   0.1173546436  -0.1302916668  -0.0002079916   0.0021391825
       -0.0013706573   0.0000300929  -0.0000778879  -0.0000603955  -0.0000076597
       -0.0000142861   0.0000152569  -0.0000007748   0.0000006765   0.0000118819
       -0.0000041180  -0.0000042516   0.0000086502   0.0000122593  -0.0000034779
        0.0000040938   0.0000173941  -0.0000085609  -0.0000094450   0.0000059413
       -0.0000070004   0.0000117024   0.0000384673  -0.0000298724   0.0000533331
        0.0003086876   0.0006068357  -0.0009093738   0.0001682887  -0.0005029031
       -0.0005679534   0.0000021798   0.0000150342  -0.0000301877  -0.0000020509
        0.0000142670  -0.0000087553  -0.0000050816  -0.0000023978  -0.0000059331
        0.0000088627  -0.0000029209  -0.0000041208   0.0000033287   0.0000054955
        0.0000036515  -0.0000049776   0.0000063778   0.0000019904  -0.0000131418
       -0.0000051918   0.0000067944  -0.0000151411  -0.0000141312  -0.0000012412
       -0.0000006427  -0.0000096636   0.0000013382   0.0000046453  -0.0000000189
        0.0000039036  -0.0000004132  -0.0000039516   0.0000056670  -0.0000019750
       -0.0000037933   0.0000038587  -0.0000161491   0.0000001289  -0.0000065908
       -0.0000112301  -0.0000183896   0.0000039560   0.0000067385  -0.0000019550
        0.0000045731  -0.0000850396   0.0000565542  -0.0000313410
       -0.0648721386   0.0060692495   0.0022816857   0.5963807856  -0.0878929071
        0.0859656787  -0.2680569128   0.0815059829  -0.0203332272   0.0087843073
        0.0635084776   0.0417815504   0.0003927572   0.0008401789  -0.0013676255
       -0.0004516154  -0.0014804803   0.0025907407   0.0002697763   0.0003017691
       -0.0012589072   0.0005876433  -0.0009755066   0.0006231527  -0.0009716297
        0.0003398527   0.0002293095  -0.0002712621   0.0004747235  -0.0005221217
       -0.0012691919   0.0003613988   0.0004557319   0.0012465113  -0.0007440745
        0.0000536576  -0.0009648831   0.0009874003  -0.0004737438  -0.0005091680
       -0.0001719503   0.0004781910  -0.0006238817   0.0005513093  -0.0001728664
        0.0010930200  -0.0000826576  -0.0006874805  -0.0002273769  -0.0009855564
        0.0008352402   0.0014762219   0.0011036984  -0.0026343675  -0.0413061178
        0.0020670712  -0.0106369349   0.0231758805  -0.0454330310  -0.0232778152
       -0.1757754946  -0.0378752903  -0.0615141181  -0.0606783909  -0.0056433233
       -0.0110234541   0.0193216228   0.0037137603   0.0021995219  -0.0210793494
       -0.0063766586  -0.0003755890   0.0124321603   0.0068230737   0.0004390763
       -0.0029308726  -0.0064436133   0.0005565073   0.0042429701   0.0005502208
        0.0006085028  -0.0017973361  -0.0018166264   0.0001430598  -0.0007552703
       -0.0006294451  -0.0000328183   0.0006843817  -0.0003207063  -0.0016628425
        0.0000122515   0.0002611292   0.0006982606   0.0004665446   0.0000091953
       -0.0003831641  -0.0002391075  -0.0002281030  -0.0000674133  -0.0001886428
        0.0000034364   0.0002124916  -0.0005291981  -0.0003474876  -0.0000883843
        0.0004530274   0.0003239692   0.0000717572  -0.0005546443  -0.0002435047
        0.0000459099  -0.0001045219  -0.0001415117  -0.0002193142  -0.0004582796
       -0.0001310466   0.0000485146   0.0002041447   0.0003834237   0.0004029050
        0.0003736309  -0.0001373809  -0.0007097062  -0.0000452245   0.0007313413
        0.0016644056   0.0029896662   0.0044576926  -0.0005721318  -0.0071086349
       -0.0004528910  -0.0008125026   0.0003625799   0.0000883375   0.0000579368
        0.0087484602   0.0077176731   0.0003615569  -0.0087054479   0.0008075834
       -0.0012827296   0.0064044642  -0.0001957810  -0.0002609704  -0.0019006147
        0.0197348745   0.0125162090  -0.0023521423  -0.0223751749  -0.0150079902
        0.0002311593   0.0055260243   0.0024309892  -0.0254084053   0.0101182247
       -0.0023746795  -0.0000842441  -0.0002711004   0.0004326623  -0.0000001543
       -0.0000488225   0.0000292185   0.0000122560   0.0000522237   0.0000503177
       -0.0000898133   0.0001632267  -0.0000982887  -0.0001629020   0.0000175968
        0.0001090874  -0.0000135396  -0.0000326017  -0.0000509217   0.0000452539
        0.0000048582  -0.0000480894   0.0002994238   0.0002765026  -0.0002942706
       -0.0006182343   0.0001103727   0.0002571664   0.0010384929   0.0018355677
       -0.0001160117  -0.0003867179  -0.0001739626  -0.0003238295  -0.0000454172
       -0.0001746110   0.0000939754  -0.0000950400  -0.0001554830   0.0001571562
        0.0001300986  -0.0001480742  -0.0003087247   0.0000416644   0.0000106075
        0.0000046410  -0.0000495240   0.0000359247  -0.0000356989  -0.0001880539
       -0.0000720513   0.0000661134  -0.0001339521  -0.0001416499  -0.0000794773
       -0.0000053952  -0.0000507329   0.0000267845   0.0000357374   0.0000376010
        0.0000205813  -0.0001183792   0.0001599125   0.0003079268  -0.0001097974
        0.0000252219  -0.0001642762  -0.0000007278   0.0002752926   0.0000803538
        0.0000464657  -0.0000472567  -0.0002550876   0.0000009261   0.0001141133
        0.0000045897   0.0002533616  -0.0000390395   0.0001344569
        0.0005690399  -0.1719189371  -0.0738101069  -0.0878929071   0.4947044200
        0.1879141419   0.1417751401  -0.1359277509  -0.0117922730   0.0195809851
       -0.0379361753  -0.0153790003   0.0013531943  -0.0021812845  -0.0048908517
       -0.0000103701  -0.0002694195   0.0001431437   0.0000114817   0.0000435647
       -0.0000297148  -0.0000919233   0.0000426246   0.0000859364  -0.0000037433
       -0.0000105083  -0.0000184715   0.0000259571  -0.0000419136   0.0000548365
        0.0001572507   0.0001581920  -0.0000667591  -0.0001810999   0.0000801717
        0.0000113998   0.0002645878   0.0000660428  -0.0000283916   0.0001351008
       -0.0000236718   0.0000013083   0.0000133781  -0.0000327373   0.0000103942
       -0.0001130589   0.0001118904  -0.0000400356   0.0000334166  -0.0000915699
        0.0002538859   0.0009667607  -0.0007295661  -0.0004568472   0.0063740668
        0.0030248306   0.0058394421  -0.0215704432  -0.0178924496  -0.0173088267
       -0.0684165275  -0.1009182350  -0.0494509547   0.0038729054   0.0086442667
        0.0063466215   0.0033019077  -0.0007066475  -0.0011173308   0.0008390332
        0.0007194417  -0.0003127166  -0.0006232035  -0.0004901179   0.0001983249
        0.0002745425   0.0004735861  -0.0000954164  -0.0003718334  -0.0000963532
       -0.0000563993   0.0002179702   0.0001813646  -0.0000193139  -0.0000182468
       -0.0000478051   0.0000183934   0.0000447825   0.0000207489  -0.0000347446
        0.0000620053   0.0000521161   0.0000676796   0.0001375849   0.0000497831
       -0.0000331318  -0.0001002846  -0.0000838583  -0.0000336868  -0.0000833228
        0.0000143464   0.0001076850  -0.0000539681  -0.0001274474  -0.0001736572
        0.0001127888   0.0000913726   0.0000118807  -0.0001283544   0.0000113316
        0.0001723265  -0.0000356179  -0.0000688270  -0.0001251720  -0.0001349009
       -0.0000489297   0.0000233158   0.0001017674   0.0001003462   0.0000354729
        0.0001017380   0.0000195181  -0.0000668467   0.0000383368   0.0000270819
        0.0000282885  -0.0002578868  -0.0003894265   0.0000044663   0.0005978125
        0.0001677094   0.0000827542  -0.0000491809  -0.0000441627   0.0000281681
       -0.0007192290  -0.0004914122   0.0000387042   0.0008279385  -0.0000611983
       -0.0000234419  -0.0004164909  -0.0003932787  -0.0008124076   0.0055656017
       -0.0038892604  -0.0040715210  -0.0036179158  -0.0070509666  -0.0053064382
        0.0048214444  -0.0286817695  -0.0111476668  -0.0080935471   0.0044649668
       -0.0001741342   0.0000615995  -0.0003889830   0.0002210517   0.0000163339
        0.0000138545  -0.0000015797  -0.0000236390   0.0000355725  -0.0000262311
       -0.0000636667   0.0000402296  -0.0000214077  -0.0000558869   0.0000279479
       -0.0000049501  -0.0000474640  -0.0000116702   0.0000226419   0.0000088966
        0.0000015011   0.0000317215   0.0000393570   0.0001401187  -0.0002107987
        0.0000425476   0.0005191248   0.0004804772   0.0008232985  -0.0026686876
       -0.0052609800  -0.0001047254  -0.0002061202   0.0001422948  -0.0000522170
        0.0000030971   0.0000031574   0.0000156633   0.0000533292  -0.0000213767
       -0.0000052074   0.0000045813   0.0000219727   0.0000016084  -0.0000131875
       -0.0000166778   0.0000109216   0.0000026801  -0.0000207477  -0.0000018476
        0.0000089052   0.0000126747   0.0000069469  -0.0000021456  -0.0000150256
        0.0000046368   0.0000089186   0.0000167696  -0.0000075466   0.0000047947
        0.0000182169  -0.0000092319  -0.0000003268  -0.0000205010   0.0000700869
       -0.0000070833   0.0000369262   0.0000136979  -0.0000639447  -0.0000597014
       -0.0000217344   0.0000077998   0.0000754296   0.0000330505  -0.0000277235
        0.0000088428   0.0000500582  -0.0001066198  -0.0000145110
       -0.0015843073  -0.0691002978  -0.1036042173   0.0859656787   0.1879141419
        0.2832990538   0.0148709357  -0.0285492527  -0.0571305868   0.0155656768
       -0.0032265413   0.0009601558  -0.0010620683  -0.0050506575   0.0033090536
        0.0009340364  -0.0013041907   0.0004013863   0.0002063076   0.0001189155
       -0.0003794489   0.0000017929  -0.0001040051   0.0001226785  -0.0001678765
        0.0000617322   0.0000108286   0.0000625273   0.0000313312  -0.0000673933
       -0.0000814873  -0.0000892067   0.0003187137   0.0001071686  -0.0000664080
       -0.0000096817  -0.0002489932   0.0000937134   0.0002371573  -0.0001026347
        0.0000070585   0.0000372558  -0.0000923444   0.0000855586  -0.0000333427
        0.0001961032   0.0000400223  -0.0001738995  -0.0001494015  -0.0001406599
        0.0000634094  -0.0001588165   0.0006785280  -0.0005419534  -0.0087020756
        0.0047376396  -0.0031307564  -0.0044861373  -0.0273627140  -0.0190863852
       -0.0843595742  -0.0360860056  -0.0972604401  -0.0092167437   0.0008274410
        0.0008068561   0.0042231744  -0.0001439386   0.0025898145  -0.0026188897
       -0.0013352309  -0.0001363281   0.0016457508   0.0008850168  -0.0003238188
       -0.0003180343  -0.0007814396   0.0000545373   0.0005088041   0.0000492215
        0.0000987536  -0.0001503924  -0.0002079033   0.0000240317  -0.0001407909
       -0.0001435109  -0.0000016228   0.0001156322  -0.0000490374  -0.0002815552
        0.0000491780   0.0000766402   0.0001532512   0.0001588179   0.0000283468
       -0.0000765694  -0.0000962059  -0.0000816158  -0.0000209261  -0.0000867408
        0.0000042512   0.0000901215  -0.0001120048  -0.0001131666  -0.0000907429
        0.0001151418   0.0000927878   0.0000193690  -0.0001488072  -0.0000259686
        0.0000825816  -0.0000488876  -0.0000668342  -0.0001007419  -0.0001549442
       -0.0000501269   0.0000112806   0.0000901274   0.0001219025   0.0000847981
        0.0001314939  -0.0000029389  -0.0001561853  -0.0000048889   0.0001161412
        0.0002778894   0.0003365476   0.0006030074  -0.0000630150  -0.0009032273
       -0.0000635226  -0.0000099312   0.0000466617  -0.0000194103   0.0000226710
        0.0012524785   0.0010285552   0.0003191615  -0.0005598310   0.0000789980
       -0.0003418233   0.0008228653   0.0004541102  -0.0010332467   0.0044763529
       -0.0204923376  -0.0130380215  -0.0030556489  -0.0142531156  -0.0095491595
        0.0014570730   0.0103203944   0.0098779490  -0.0130179867   0.0053463023
       -0.0000670980  -0.0001111063  -0.0000132104   0.0001936859   0.0000088656
        0.0000053163   0.0000030847  -0.0000058686   0.0000326273  -0.0000025569
       -0.0000452374   0.0000410908  -0.0000114916  -0.0000952438   0.0000187836
        0.0000413333  -0.0000328616  -0.0000149861   0.0000060757   0.0000209225
       -0.0000003223   0.0000083063   0.0002434011   0.0000395214  -0.0003007832
       -0.0001597470   0.0003339837   0.0003285720  -0.0012291276  -0.0051029979
        0.0032901588  -0.0001749793  -0.0001474301  -0.0000769930  -0.0000382163
       -0.0000079945  -0.0000102533  -0.0000085082   0.0000044489   0.0000073380
        0.0000237051  -0.0000264455  -0.0000449501   0.0000080146  -0.0000075681
       -0.0000126759  -0.0000004555   0.0000072609  -0.0000218647  -0.0000307936
       -0.0000058962   0.0000205437  -0.0000174363  -0.0000276901  -0.0000212585
        0.0000026295  -0.0000060253   0.0000187304   0.0000015086   0.0000068909
        0.0000158925  -0.0000253111   0.0000247201   0.0000498455   0.0000143392
       -0.0000078518  -0.0000216141   0.0000104482   0.0000189955  -0.0000116786
       -0.0000007369  -0.0000101498  -0.0000110194   0.0000165240   0.0000133855
        0.0000017676   0.0001146855  -0.0000601776  -0.0000020631
       -0.0059489306   0.0099285935   0.0023633855  -0.2680569128   0.1417751401
        0.0148709357   0.6253001521  -0.0697633130   0.1174902394  -0.0774594323
       -0.0218494930  -0.0253881271  -0.0137090775   0.0293212658   0.0126054608
       -0.0007798677   0.0009932508   0.0027268330   0.0003680660  -0.0002039015
        0.0005527036  -0.0001923686   0.0000797926  -0.0001260132   0.0003184793
       -0.0000722280  -0.0001158564  -0.0001763304  -0.0003080651   0.0002058584
       -0.0004047932   0.0002431531  -0.0007689870   0.0000128864   0.0001013705
        0.0000221650  -0.0005899782  -0.0005448510   0.0001803679   0.0000258816
        0.0000797743  -0.0003528154   0.0001560884  -0.0002315135   0.0000888224
       -0.0003245214   0.0000777459   0.0000161436   0.0005522230   0.0002889936
        0.0000812634  -0.0002009694   0.0024211004  -0.0001413622   0.0222598430
       -0.0190885815  -0.0046248818  -0.0130090041   0.0163297845   0.0075711095
       -0.0613885900  -0.0089597401  -0.0240312488   0.0074335975  -0.0003319766
       -0.0024608102  -0.0088561076   0.0000099951  -0.0013427196   0.0074197471
        0.0029983041   0.0004757509  -0.0052144377  -0.0027521982   0.0000423741
        0.0012326112   0.0026781249  -0.0002336234  -0.0017626355  -0.0002546554
       -0.0002513560   0.0007733675   0.0007881238  -0.0000752870   0.0001437067
        0.0001657839   0.0000080017  -0.0000418587   0.0001200388   0.0003755729
        0.0000367619   0.0000021164  -0.0000932508   0.0000399666   0.0000696044
        0.0000467668  -0.0000655833  -0.0000537076  -0.0000525613  -0.0000325453
        0.0000299776   0.0000982290   0.0000513833  -0.0001139034  -0.0002398408
        0.0000830434   0.0000659985  -0.0000264611  -0.0000728297   0.0000523629
        0.0002604048   0.0000234061  -0.0000461423  -0.0000929491  -0.0000422047
       -0.0000312379   0.0000569437   0.0000829403   0.0000095553  -0.0000443175
       -0.0000175316   0.0000422891   0.0001025128   0.0001177021  -0.0001094372
       -0.0003639166  -0.0013030914  -0.0018835664   0.0001961210   0.0029955084
        0.0002055612   0.0002975020  -0.0001467149  -0.0000694471  -0.0000035158
       -0.0027704639  -0.0038388068  -0.0001532294   0.0030098493  -0.0001210422
        0.0004047251  -0.0017948993  -0.0017024026   0.0002163905   0.0003772383
       -0.0002444753  -0.0000877062   0.0010589727  -0.0021920333  -0.0009468974
        0.0003186495  -0.0008595924   0.0002708309  -0.2077931047  -0.0723336006
       -0.0969602399   0.0004820555   0.0001257322  -0.0001739984   0.0000153631
        0.0000093091  -0.0000347666   0.0000098213   0.0000262159  -0.0000095501
        0.0000261635   0.0000116364   0.0000057949   0.0000252605   0.0000099063
        0.0000245755  -0.0000131726   0.0000349455   0.0000512215  -0.0000061904
       -0.0000161499   0.0000305272  -0.0003301608  -0.0000052004   0.0011384667
       -0.0031905196  -0.0018557531  -0.0039732147   0.0004287929   0.0004698951
        0.0002584479   0.0003315708   0.0002919778   0.0000404679  -0.0000201671
        0.0001103095  -0.0000712073   0.0000478260   0.0000894829  -0.0000714906
       -0.0000492141   0.0000530060   0.0001194345  -0.0000137591  -0.0000096593
       -0.0000155234   0.0000202677  -0.0000080914  -0.0000045248   0.0000599551
        0.0000300119  -0.0000133952   0.0000487038   0.0000418707   0.0000170805
        0.0000045755   0.0000197081   0.0000086006  -0.0000165359  -0.0000093663
        0.0000116443   0.0000399498  -0.0000618672  -0.0001255454   0.0000730895
       -0.0000077806   0.0000825104  -0.0000079144  -0.0001282844  -0.0000420537
       -0.0000279690  -0.0000046057   0.0001278032   0.0000369365  -0.0000405149
        0.0000162492  -0.0000120155  -0.0000946237  -0.0000469945
        0.0243786175  -0.0225512675  -0.0080981109   0.0815059829  -0.1359277509
       -0.0285492527  -0.0697633130   0.5070936473   0.2173427289   0.0378952762
       -0.2289480782  -0.0996477613   0.0163618830  -0.0208388961  -0.0080411389
        0.0000579512  -0.0013699799   0.0010851438   0.0002168130   0.0006536795
       -0.0018807622   0.0005535195  -0.0007658385   0.0005713693  -0.0009381261
        0.0004317881   0.0002397102  -0.0000765490   0.0004974420  -0.0004967516
       -0.0008976643   0.0001903201   0.0007348230   0.0005648205  -0.0002926741
        0.0000187215  -0.0004813330   0.0007114315  -0.0004915515  -0.0004189888
       -0.0000858010   0.0006221747  -0.0007062615   0.0005575888  -0.0001602270
        0.0008287483   0.0000820846  -0.0006700827  -0.0006343481  -0.0013287600
        0.0015989305  -0.0004843885  -0.0006500144  -0.0012024321  -0.0590702696
       -0.0224891775  -0.0323134583   0.0241478902  -0.0234838023  -0.0055967612
        0.0252549105   0.0231183602   0.0208624427  -0.0137754035  -0.0026594571
       -0.0042134958   0.0105260311   0.0006899867   0.0012636165  -0.0113418843
       -0.0052867994  -0.0003927520   0.0077221244   0.0040078944   0.0002578171
       -0.0018211276  -0.0040008729   0.0003935728   0.0026053237   0.0003079601
        0.0003507533  -0.0010727200  -0.0011329367   0.0000849561  -0.0005247938
       -0.0004103908  -0.0000238544   0.0004684823  -0.0001953641  -0.0010807570
        0.0000329296   0.0002032254   0.0004904495   0.0003679617   0.0000342754
       -0.0002560080  -0.0002197491  -0.0001977467  -0.0000600303  -0.0001628266
        0.0000059780   0.0001946852  -0.0003741608  -0.0003000559  -0.0001480943
        0.0003592938   0.0002576996   0.0000383828  -0.0004338538  -0.0001648828
        0.0001173568  -0.0000864822  -0.0001288943  -0.0002062186  -0.0003628099
       -0.0001166829   0.0000405219   0.0001869454   0.0002950925   0.0002650428
        0.0002842988  -0.0000796818  -0.0004990922  -0.0000040350   0.0004915544
        0.0010839429   0.0018322532   0.0027750438  -0.0003549992  -0.0043211272
       -0.0002917874  -0.0005238292   0.0002567167   0.0000313686   0.0000235531
        0.0053097424   0.0054803972   0.0005766282  -0.0040892647   0.0011005066
       -0.0007947180   0.0013385226   0.0024282807  -0.0001619412   0.0004003428
       -0.0023257879  -0.0011714370   0.0019766973   0.0001806000   0.0008095791
        0.0004828166  -0.0020839126  -0.0013307089  -0.0723025093  -0.0734950675
       -0.0476968734  -0.0003506717  -0.0022142350   0.0017339515  -0.0000226659
       -0.0000493955  -0.0000031112  -0.0000180612   0.0000541261   0.0000079986
       -0.0001169081   0.0001242965  -0.0000867513  -0.0001949800   0.0000410532
        0.0000853202  -0.0001038992  -0.0000232517  -0.0000204105   0.0000233870
        0.0000232899  -0.0000303412   0.0002829511   0.0006714952  -0.0014609873
       -0.0009432301   0.0017211741  -0.0034326160   0.0004156252  -0.0002375208
        0.0003974551  -0.0003241083  -0.0002017178  -0.0002034648  -0.0000229082
       -0.0000963947   0.0000608491  -0.0000473453  -0.0000776495   0.0000908311
        0.0000759272  -0.0001014134  -0.0001880909   0.0000218270  -0.0000111651
       -0.0000083647  -0.0000200004   0.0000167040  -0.0000321975  -0.0001080747