 Entering Gaussian System
 *********************************************
 Gaussian 98:
 frequency output generated by the xtb code
 *********************************************
                         Standard orientation:
 --------------------------------------------------------------------
  Center     Atomic     Atomic              Coordinates (Angstroms)
  Number     Number      Type              X           Y           Z
 --------------------------------------------------------------------
    1          6             0        6.336804   -1.031831    3.028423
    2          6             0        5.910633   -1.335069    1.579333
    3          6             0        6.880284   -2.347635    0.940414
    4          6             0        4.523703   -1.942120    1.594742
    5          6             0        4.294997   -3.121682    2.290094
    6          6             0        3.048500   -3.719431    2.326155
    7          6             0        1.992951   -3.144257    1.635184
    8          6             0        2.193463   -1.981168    0.927338
    9          6             0        3.448051   -1.355165    0.910647
   10          7             0        3.607179   -0.172626    0.222635
   11          6             0        2.479111    0.392175   -0.441638
   12          6             0        1.574450    1.171242    0.309800
   13          6             0        0.440994    1.685005   -0.350514
   14          7             0       -0.559095    2.353852    0.412457
   15          6             0       -1.418911    1.588194    1.173008
   16          6             0       -1.266811    0.194276    1.204142
   17          6             0       -2.072556   -0.589635    1.998330
   18          6             0       -3.075156   -0.003122    2.754464
   19          6             0       -3.257632    1.366463    2.695432
   20          6             0       -2.447132    2.184156    1.919198
   21          6             0       -2.707941    3.675427    1.876306
   22          6             0       -2.618065    4.239892    3.306693
   23          6             0       -4.119105    3.904037    1.301742
   24          6             0       -1.702965    4.402143    1.007166
   25          6             0       -1.780153    5.780974    0.868436
   26          6             0       -0.871720    6.491232    0.105299
   27          6             0        0.157096    5.817773   -0.536131
   28          6             0        0.254941    4.449974   -0.422862
   29          6             0       -0.676157    3.723900    0.332638
   30          6             0        0.251376    1.495834   -1.695081
   31          6             0        1.171522    0.720278   -2.431422
   32         16             0        0.592868   -0.003593   -3.941015
   33          8             0        1.589637   -0.926550   -4.425372
   34          8             0        0.114426    1.013170   -4.844704
   35          6             0       -0.796477   -0.855540   -3.220105
   36          6             0       -2.026027   -0.183826   -3.192996
   37          6             0       -3.022499   -0.570566   -2.314904
   38          6             0       -2.760604   -1.631186   -1.461745
   39          6             0       -1.535758   -2.361540   -1.539231
   40          6             0       -0.539114   -1.941989   -2.403096
   41          6             0       -1.631440   -3.417548   -0.576202
   42          6             0       -0.766101   -4.435518   -0.192473
   43          6             0       -1.152769   -5.280770    0.835474
   44          6             0       -2.369687   -5.111126    1.483927
   45          6             0       -3.254838   -4.107597    1.108740
   46          6             0       -2.889660   -3.277866    0.060321
   47          7             0       -3.561339   -2.197949   -0.486320
   48          6             0       -4.794520   -1.702215   -0.063231
   49          6             0       -5.872122   -2.565983    0.143626
   50          6             0       -7.084310   -2.068242    0.577453
   51          6             0       -7.245170   -0.709587    0.805677
   52          6             0       -6.179746    0.152318    0.590424
   53          6             0       -4.962235   -0.333381    0.160006
   54          6             0        2.272276    0.144090   -1.774929
   55          6             0        4.819228    0.476144    0.150991
   56          6             0        4.912734    1.682833   -0.556979
   57          6             0        6.111356    2.351320   -0.653977
   58          6             0        7.243226    1.830636   -0.044538
   59          6             0        7.153191    0.646235    0.663409
   60          6             0        5.957826   -0.048966    0.781846
   61          1             0        6.335659   -1.936405    3.629621
   62          1             0        7.335573   -0.606022    3.056798
   63          1             0        5.646348   -0.319849    3.476524
   64          1             0        6.882293   -3.282612    1.493366
   65          1             0        6.577298   -2.554254   -0.084011
   66          1             0        7.893698   -1.956999    0.926839
   67          1             0        5.108233   -3.591564    2.821744
   68          1             0        2.903605   -4.632183    2.883245
   69          1             0        1.016458   -3.603451    1.642395
   70          1             0        1.379290   -1.548229    0.369590
   71          1             0        1.726879    1.336487    1.362765
   72          1             0       -0.510843   -0.268981    0.593030
   73          1             0       -1.922510   -1.657974    2.021970
   74          1             0       -3.718613   -0.608250    3.373917
   75          1             0       -4.057748    1.804001    3.272301
   76          1             0       -1.620740    4.072085    3.708527
   77          1             0       -2.816139    5.307719    3.314857
   78          1             0       -3.337690    3.756308    3.960809
   79          1             0       -4.867791    3.408419    1.913606
   80          1             0       -4.177382    3.503710    0.291293
   81          1             0       -4.354603    4.963861    1.264634
   82          1             0       -2.568971    6.322585    1.367816
   83          1             0       -0.962270    7.562797    0.016735
   84          1             0        0.880772    6.360172   -1.124705
   85          1             0        1.052309    3.921712   -0.920534
   86          1             0       -0.617796    1.890403   -2.195230
   87          1             0       -2.169076    0.633101   -3.881227
   88          1             0       -3.974961   -0.062780   -2.303884
   89          1             0        0.421855   -2.430028   -2.454627
   90          1             0        0.184902   -4.558135   -0.687609
   91          1             0       -0.494898   -6.079605    1.145730
   92          1             0       -2.636628   -5.770700    2.296063
   93          1             0       -4.187849   -3.974739    1.634205
   94          1             0       -5.757270   -3.618518   -0.066565
   95          1             0       -7.914234   -2.742480    0.729540
   96          1             0       -8.195324   -0.325261    1.143739
   97          1             0       -6.298240    1.211513    0.765168
   98          1             0       -4.125894    0.333264    0.018384
   99          1             0        2.935573   -0.488812   -2.341948
  100          1             0        4.031259    2.081504   -1.032781
  101          1             0        6.165849    3.277203   -1.205523
  102          1             0        8.189090    2.344654   -0.118478
  103          1             0        8.043278    0.258202    1.134576
 --------------------------------------------------------------------
     1 basis functions        1 primitive gaussians
     1 alpha electrons        1 beta electrons
 
 Harmonic frequencies (cm**-1), IR intensities (km*mol⁻¹),
 Raman scattering activities (A**4/amu), Raman depolarization ratios,
 reduced masses (AMU), force constants (mDyne/A) and normal coordinates:
                      1                      2                      3
                        a                      a                      a 
 Frequencies --     9.6786                13.2969                16.5265
 Red. masses --    11.2940                10.9437                10.9413
 Frc consts  --     0.0000                 0.0000                 0.0000
 IR Inten    --     4.5899                 0.5092                 1.2611
 Raman Activ --     0.0000                 0.0000                 0.0000
 Depolar     --     0.0000                 0.0000                 0.0000
 Atom AN      X      Y      Z        X      Y      Z        X      Y      Z
   1   6     0.13  -0.11  -0.08    -0.17   0.03   0.12    -0.04   0.25   0.07
   2   6     0.10   0.00  -0.09    -0.07   0.03   0.09     0.04   0.13   0.07
   3   6     0.11   0.10  -0.21    -0.00   0.07   0.14     0.10   0.11   0.20
   4   6     0.12  -0.04  -0.10    -0.06  -0.01   0.00     0.06   0.09   0.06
   5   6     0.18  -0.10  -0.19    -0.06  -0.03  -0.03     0.07   0.11   0.11
   6   6     0.19  -0.14  -0.19    -0.05  -0.06  -0.10     0.08   0.08   0.09
   7   6     0.15  -0.12  -0.11    -0.03  -0.07  -0.14     0.09   0.01   0.02
   8   6     0.10  -0.06  -0.03    -0.02  -0.05  -0.12     0.08  -0.01  -0.02
   9   6     0.08  -0.03  -0.04    -0.03  -0.03  -0.05     0.06   0.02  -0.01
  10   7     0.03   0.02   0.04    -0.03  -0.02  -0.03     0.06  -0.00  -0.06
  11   6     0.02  -0.01   0.04    -0.01  -0.01  -0.05     0.04  -0.02  -0.04
  12   6     0.01   0.00   0.02    -0.01  -0.01  -0.06     0.03  -0.04  -0.03
  13   6     0.01  -0.02   0.02    -0.01  -0.01  -0.06     0.02  -0.06  -0.01
  14   7     0.01  -0.02   0.01    -0.01  -0.02  -0.07     0.02  -0.09   0.01
  15   6    -0.01  -0.01  -0.00     0.03  -0.02  -0.02     0.03  -0.10   0.00
  16   6    -0.01  -0.01   0.02     0.04  -0.02  -0.02     0.05  -0.10  -0.01
  17   6    -0.03   0.00   0.00     0.09  -0.02   0.02     0.05  -0.12  -0.03
  18   6    -0.05   0.01  -0.03     0.13  -0.03   0.08     0.04  -0.15  -0.03
  19   6    -0.04   0.01  -0.04     0.12  -0.03   0.09     0.03  -0.15  -0.00
  20   6    -0.02   0.00  -0.02     0.07  -0.03   0.04     0.02  -0.12   0.02
  21   6    -0.01   0.00  -0.04     0.05  -0.03   0.04     0.01  -0.12   0.05
  22   6    -0.04   0.01  -0.04     0.15  -0.02   0.03     0.01  -0.16   0.07
  23   6    -0.00   0.01  -0.06     0.01  -0.04   0.15     0.01  -0.11   0.06
  24   6     0.00  -0.01  -0.02    -0.02  -0.03  -0.04     0.01  -0.10   0.07
  25   6     0.01  -0.01  -0.03    -0.06  -0.03  -0.06     0.01  -0.09   0.11
  26   6     0.03  -0.02  -0.02    -0.12  -0.03  -0.12     0.00  -0.07   0.12
  27   6     0.03  -0.02  -0.00    -0.14  -0.02  -0.17    -0.00  -0.05   0.10
  28   6     0.02  -0.02   0.00    -0.10  -0.01  -0.15     0.00  -0.06   0.06
  29   6     0.01  -0.01  -0.00    -0.04  -0.02  -0.08     0.01  -0.08   0.05
  30   6     0.00  -0.06   0.02    -0.00  -0.01  -0.06    -0.00  -0.05  -0.01
  31   6     0.00  -0.07   0.04     0.00  -0.02  -0.06    -0.00  -0.04  -0.02
  32  16     0.02  -0.12   0.06     0.00  -0.04  -0.09    -0.01  -0.06  -0.03
  33   8     0.01  -0.11   0.07    -0.00  -0.04  -0.05    -0.02  -0.06  -0.01
  34   8     0.05  -0.09   0.02     0.01  -0.03  -0.07     0.01  -0.04  -0.03
  35   6    -0.01  -0.05   0.03    -0.00  -0.02  -0.05    -0.03  -0.02  -0.02
  36   6     0.00  -0.03   0.00     0.01   0.01  -0.01    -0.02  -0.00  -0.05
  37   6    -0.02  -0.01  -0.01     0.03   0.03   0.01    -0.03   0.02  -0.05
  38   6    -0.04  -0.00   0.01     0.02   0.02  -0.00    -0.05   0.03  -0.03
  39   6    -0.05  -0.02   0.04    -0.00  -0.02  -0.05    -0.06   0.02  -0.01
  40   6    -0.03  -0.04   0.05    -0.01  -0.03  -0.07    -0.04  -0.01  -0.00
  41   6    -0.07  -0.01   0.05    -0.01  -0.03  -0.06    -0.08   0.03   0.01
  42   6    -0.09  -0.01   0.07    -0.03  -0.07  -0.11    -0.09   0.04   0.05
  43   6    -0.11   0.01   0.08    -0.03  -0.07  -0.11    -0.11   0.06   0.06
  44   6    -0.12   0.03   0.06     0.00  -0.04  -0.07    -0.13   0.07   0.03
  45   6    -0.10   0.04   0.04     0.02  -0.00  -0.02    -0.12   0.07  -0.01
  46   6    -0.08   0.02   0.03     0.02   0.00  -0.02    -0.09   0.05  -0.01
  47   7    -0.06   0.02   0.01     0.04   0.03   0.02    -0.08   0.05  -0.04
  48   6    -0.06   0.04  -0.01     0.07   0.07   0.06    -0.06   0.09  -0.05
  49   6    -0.07   0.06  -0.01     0.05   0.10   0.10    -0.09   0.12  -0.05
  50   6    -0.07   0.09  -0.03     0.08   0.13   0.15    -0.08   0.16  -0.07
  51   6    -0.05   0.09  -0.05     0.13   0.14   0.16    -0.04   0.16  -0.08
  52   6    -0.04   0.07  -0.06     0.15   0.11   0.13    -0.01   0.13  -0.07
  53   6    -0.04   0.05  -0.04     0.12   0.07   0.08    -0.02   0.09  -0.05
  54   6     0.01  -0.04   0.04    -0.01  -0.02  -0.05     0.02  -0.02  -0.04
  55   6     0.00   0.08   0.07    -0.04   0.02   0.05     0.04   0.01  -0.07
  56   6    -0.06   0.13   0.16    -0.03   0.02   0.06     0.04  -0.03  -0.15
  57   6    -0.09   0.20   0.21    -0.04   0.06   0.14     0.03  -0.02  -0.17
  58   6    -0.06   0.20   0.16    -0.06   0.09   0.21     0.03   0.03  -0.11
  59   6    -0.00   0.14   0.07    -0.07   0.08   0.19     0.03   0.08  -0.04
  60   6     0.03   0.08   0.02    -0.06   0.04   0.11     0.04   0.07  -0.02
  61   1     0.05  -0.05  -0.05    -0.05   0.01   0.03    -0.01   0.08   0.04
  62   1     0.03  -0.02  -0.02    -0.05   0.02   0.05    -0.01   0.08   0.03
  63   1     0.03  -0.05   0.00    -0.06  -0.00   0.03    -0.02   0.08  -0.00
  64   1     0.05   0.01  -0.09    -0.00   0.02   0.04     0.03   0.04   0.08
  65   1     0.03   0.05  -0.06     0.02   0.02   0.03     0.05   0.01   0.06
  66   1     0.03   0.04  -0.06    -0.00   0.03   0.06     0.03   0.04   0.06
  67   1     0.06  -0.04  -0.07    -0.02  -0.00   0.00     0.02   0.05   0.05
  68   1     0.07  -0.06  -0.07    -0.02  -0.02  -0.04     0.03   0.03   0.04
  69   1     0.05  -0.04  -0.03    -0.01  -0.03  -0.06     0.03  -0.01   0.00
  70   1     0.02  -0.01   0.01    -0.00  -0.02  -0.04     0.03  -0.02  -0.02
  71   1     0.01   0.01   0.01    -0.01  -0.00  -0.02     0.01  -0.01  -0.01
  72   1     0.00  -0.00   0.01     0.00  -0.00  -0.02     0.02  -0.02  -0.00
  73   1    -0.01   0.00   0.00     0.03  -0.01   0.00     0.02  -0.03  -0.01
  74   1    -0.02   0.00  -0.01     0.05  -0.01   0.03     0.01  -0.05  -0.01
  75   1    -0.02   0.00  -0.02     0.04  -0.01   0.04     0.01  -0.05   0.00
  76   1    -0.01   0.00  -0.01     0.05  -0.00  -0.01     0.00  -0.05   0.02
  77   1    -0.01   0.00  -0.01     0.04  -0.01   0.01     0.00  -0.05   0.03
  78   1    -0.01   0.00  -0.01     0.06  -0.01   0.03     0.01  -0.05   0.02
  79   1    -0.00   0.00  -0.02     0.02  -0.01   0.06     0.00  -0.04   0.01
  80   1     0.00   0.00  -0.02    -0.02  -0.02   0.05     0.00  -0.03   0.01
  81   1     0.00   0.00  -0.02    -0.00  -0.01   0.05     0.00  -0.03   0.03
  82   1     0.00  -0.00  -0.01    -0.01  -0.01  -0.01     0.00  -0.03   0.04
  83   1     0.01  -0.00  -0.01    -0.04  -0.01  -0.04     0.00  -0.02   0.04
  84   1     0.01  -0.01   0.00    -0.05  -0.00  -0.06    -0.00  -0.01   0.03
  85   1     0.01  -0.01   0.00    -0.03  -0.00  -0.05     0.00  -0.01   0.01
  86   1    -0.00  -0.02   0.01     0.00  -0.00  -0.02    -0.00  -0.02   0.00
  87   1     0.01  -0.01  -0.00     0.00   0.01  -0.00    -0.00  -0.00  -0.02
  88   1    -0.00  -0.00  -0.01     0.01   0.02   0.01    -0.01   0.01  -0.02
  89   1    -0.01  -0.01   0.02    -0.01  -0.02  -0.03    -0.01  -0.00   0.00
  90   1    -0.03  -0.01   0.02    -0.02  -0.03  -0.04    -0.02   0.01   0.02
  91   1    -0.04   0.00   0.03    -0.01  -0.03  -0.04    -0.03   0.02   0.03
  92   1    -0.04   0.01   0.02     0.00  -0.01  -0.02    -0.04   0.03   0.01
  93   1    -0.03   0.02   0.01     0.01   0.01   0.00    -0.04   0.02  -0.01
  94   1    -0.02   0.02   0.00     0.00   0.03   0.02    -0.03   0.03  -0.01
  95   1    -0.02   0.03  -0.01     0.02   0.05   0.05    -0.03   0.05  -0.02
  96   1    -0.01   0.03  -0.02     0.04   0.05   0.06    -0.01   0.06  -0.03
  97   1    -0.01   0.02  -0.02     0.05   0.03   0.04     0.01   0.04  -0.02
  98   1    -0.01   0.01  -0.01     0.04   0.01   0.01     0.00   0.02  -0.01
  99   1     0.00  -0.01   0.02    -0.00  -0.01  -0.01     0.00  -0.00  -0.01
 100   1    -0.02   0.04   0.06    -0.00   0.00   0.00     0.01  -0.02  -0.06
 101   1    -0.04   0.07   0.08    -0.01   0.02   0.04     0.01  -0.02  -0.07
 102   1    -0.03   0.07   0.06    -0.02   0.03   0.08     0.01   0.01  -0.04
 103   1     0.01   0.04   0.01    -0.03   0.03   0.07     0.01   0.04   0.00
                      4                      5                      6
                        a                      a                      a 
 Frequencies --    17.3748                23.1848                25.4036
 Red. masses --    11.3493                10.7835                11.2398
 Frc consts  --     0.0000                 0.0000                 0.0000
 IR Inten    --     3.6182                 2.0905                 3.7113
 Raman Activ --     0.0000                 0.0000                 0.0000
 Depolar     --     0.0000                 0.0000                 0.0000
 Atom AN      X      Y      Z        X      Y      Z        X      Y      Z
   1   6     0.13  -0.12  -0.09    -0.11   0.07   0.09     0.01   0.04  -0.02
   2   6     0.03  -0.09  -0.07     0.00   0.01   0.06    -0.02   0.03  -0.01
   3   6    -0.03  -0.11  -0.14     0.08   0.03   0.16    -0.01   0.05  -0.03
   4   6     0.02  -0.05  -0.00     0.02  -0.03  -0.01    -0.00  -0.00   0.03
   5   6     0.02  -0.04  -0.00     0.02  -0.03  -0.02     0.04  -0.00   0.05
   6   6     0.00  -0.01   0.05     0.03  -0.07  -0.08     0.05  -0.03   0.08
   7   6    -0.01   0.01   0.09     0.05  -0.09  -0.13     0.03  -0.06   0.09
   8   6    -0.01   0.01   0.08     0.05  -0.09  -0.12    -0.01  -0.06   0.07
   9   6     0.00  -0.01   0.04     0.04  -0.06  -0.06    -0.03  -0.04   0.04
  10   7     0.00  -0.01   0.05     0.04  -0.06  -0.06    -0.07  -0.05   0.02
  11   6    -0.00  -0.00   0.05     0.03  -0.04  -0.03    -0.08  -0.08   0.02
  12   6    -0.02  -0.03   0.06     0.06  -0.05   0.00    -0.10  -0.10   0.02
  13   6    -0.01  -0.02   0.05     0.05  -0.02   0.03    -0.09  -0.10   0.02
  14   7    -0.04  -0.05   0.04     0.07  -0.02   0.05    -0.08  -0.07   0.01
  15   6    -0.02  -0.06   0.04     0.04  -0.02   0.02    -0.10  -0.03   0.02
  16   6     0.03  -0.05   0.07     0.07  -0.01   0.09    -0.14  -0.03   0.05
  17   6     0.05  -0.06   0.09     0.04  -0.00   0.07    -0.18   0.01   0.05
  18   6     0.03  -0.08   0.07    -0.03   0.00  -0.02    -0.18   0.05   0.02
  19   6    -0.02  -0.09   0.03    -0.06  -0.01  -0.09    -0.13   0.05  -0.00
  20   6    -0.05  -0.08   0.01    -0.03  -0.01  -0.07    -0.09   0.02   0.00
  21   6    -0.12  -0.09  -0.04    -0.09  -0.03  -0.17    -0.03   0.03  -0.00
  22   6    -0.14  -0.04  -0.06    -0.30   0.05  -0.18    -0.05   0.02   0.00
  23   6    -0.13  -0.18  -0.04    -0.03  -0.12  -0.36     0.00   0.09  -0.05
  24   6    -0.15  -0.08  -0.06    -0.01  -0.02  -0.08     0.03  -0.01   0.03
  25   6    -0.23  -0.09  -0.12    -0.02  -0.03  -0.11     0.11  -0.01   0.06
  26   6    -0.25  -0.07  -0.14     0.04  -0.03  -0.03     0.17  -0.04   0.09
  27   6    -0.21  -0.04  -0.09     0.12  -0.02   0.08     0.14  -0.09   0.10
  28   6    -0.13  -0.03  -0.03     0.12  -0.02   0.11     0.06  -0.10   0.07
  29   6    -0.11  -0.05  -0.02     0.06  -0.02   0.03     0.00  -0.06   0.04
  30   6     0.02   0.01   0.04     0.03   0.02   0.03    -0.08  -0.08   0.01
  31   6     0.04   0.04   0.03     0.00   0.02  -0.00    -0.06  -0.06   0.01
  32  16     0.10   0.08   0.03    -0.09   0.11  -0.00     0.01   0.01  -0.08
  33   8     0.08   0.06   0.03    -0.10   0.07  -0.06     0.05   0.06  -0.07
  34   8     0.08   0.07   0.02    -0.08   0.11   0.04     0.03   0.05  -0.02
  35   6     0.05   0.05  -0.00    -0.05   0.07   0.02     0.00  -0.04  -0.12
  36   6     0.06   0.05  -0.01    -0.04   0.09   0.07    -0.01  -0.07  -0.14
  37   6     0.05   0.06  -0.01    -0.02   0.08   0.09    -0.00  -0.07  -0.13
  38   6     0.05   0.07   0.00    -0.02   0.06   0.06     0.02  -0.04  -0.10
  39   6     0.04   0.06   0.01    -0.03   0.05   0.01     0.03  -0.03  -0.10
  40   6     0.04   0.05   0.01    -0.04   0.05  -0.01     0.02  -0.03  -0.11
  41   6     0.03   0.07   0.02    -0.01   0.03  -0.01     0.06   0.01  -0.06
  42   6     0.03   0.07   0.03    -0.02   0.01  -0.07     0.08   0.03  -0.04
  43   6     0.02   0.09   0.04     0.01  -0.01  -0.07     0.12   0.07   0.00
  44   6     0.02   0.10   0.03     0.03  -0.01  -0.03     0.13   0.08   0.02
  45   6     0.03   0.10   0.02     0.04   0.02   0.03     0.11   0.05   0.00
  46   6     0.03   0.09   0.02     0.01   0.03   0.03     0.07   0.02  -0.04
  47   7     0.05   0.09   0.01     0.01   0.05   0.07     0.05  -0.01  -0.07
  48   6     0.05   0.11   0.01     0.00   0.02   0.09     0.08   0.03  -0.01
  49   6     0.04   0.12   0.01     0.02  -0.01   0.10     0.08   0.06   0.11
  50   6     0.04   0.14   0.01     0.02  -0.04   0.12     0.12   0.11   0.18
  51   6     0.06   0.15  -0.01    -0.01  -0.04   0.12     0.16   0.13   0.11
  52   6     0.07   0.13  -0.01    -0.04  -0.01   0.10     0.16   0.10  -0.02
  53   6     0.07   0.11  -0.01    -0.03   0.02   0.08     0.12   0.05  -0.08
  54   6     0.03   0.03   0.04     0.01  -0.01  -0.04    -0.06  -0.06   0.01
  55   6     0.01  -0.04   0.01     0.03  -0.04  -0.02    -0.08  -0.01  -0.00
  56   6     0.01  -0.03   0.03     0.05  -0.05  -0.05    -0.13  -0.01  -0.00
  57   6     0.02  -0.06  -0.02     0.04  -0.04  -0.01    -0.15   0.02  -0.02
  58   6     0.04  -0.10  -0.09     0.02   0.00   0.05    -0.12   0.06  -0.04
  59   6     0.04  -0.11  -0.10     0.01   0.01   0.08    -0.08   0.06  -0.04
  60   6     0.03  -0.08  -0.05     0.02  -0.01   0.03    -0.06   0.02  -0.01
  61   1     0.04  -0.04  -0.03    -0.04   0.02   0.03     0.01   0.01  -0.00
  62   1     0.04  -0.04  -0.04    -0.04   0.03   0.04     0.00   0.02  -0.01
  63   1     0.05  -0.03  -0.01    -0.05   0.02   0.01     0.00   0.01  -0.00
  64   1    -0.01  -0.03  -0.05     0.02   0.01   0.05     0.01   0.01  -0.01
  65   1    -0.03  -0.02  -0.04     0.05  -0.00   0.04    -0.01   0.01  -0.00
  66   1    -0.01  -0.04  -0.06     0.02   0.02   0.06    -0.00   0.02  -0.02
  67   1     0.01  -0.02  -0.01     0.00  -0.00   0.01     0.02   0.01   0.01
  68   1     0.00  -0.00   0.01     0.01  -0.02  -0.02     0.02  -0.01   0.03
  69   1    -0.01   0.01   0.03     0.02  -0.03  -0.05     0.01  -0.02   0.03
  70   1    -0.01   0.01   0.03     0.02  -0.03  -0.05    -0.01  -0.03   0.02
  71   1    -0.01  -0.01   0.02     0.02  -0.02   0.00    -0.03  -0.03   0.01
  72   1     0.01  -0.01   0.02     0.04  -0.00   0.05    -0.04  -0.02   0.02
  73   1     0.03  -0.02   0.03     0.02   0.00   0.03    -0.06   0.00   0.02
  74   1     0.01  -0.03   0.02    -0.01   0.00  -0.01    -0.06   0.02   0.00
  75   1    -0.01  -0.03   0.00    -0.03  -0.00  -0.05    -0.04   0.02  -0.01
  76   1    -0.04   0.01  -0.02    -0.10   0.03  -0.01    -0.02  -0.01   0.01
  77   1    -0.06  -0.01  -0.03    -0.10   0.01  -0.07    -0.00   0.01   0.00
  78   1    -0.04  -0.01  -0.01    -0.11   0.01  -0.07    -0.03   0.01  -0.01
  79   1    -0.03  -0.05  -0.01    -0.02  -0.03  -0.12    -0.01   0.04  -0.02
  80   1    -0.03  -0.06  -0.01     0.03  -0.05  -0.10     0.01   0.03  -0.01
  81   1    -0.05  -0.05  -0.02    -0.02  -0.04  -0.13     0.02   0.03  -0.02
  82   1    -0.08  -0.03  -0.04    -0.02  -0.01  -0.06     0.04   0.01   0.02
  83   1    -0.09  -0.02  -0.05     0.01  -0.01  -0.02     0.07  -0.01   0.03
  84   1    -0.06  -0.01  -0.03     0.05  -0.01   0.04     0.05  -0.03   0.04
  85   1    -0.03  -0.00   0.00     0.05  -0.01   0.06     0.01  -0.04   0.02
  86   1     0.01   0.01   0.01     0.01   0.01   0.02    -0.02  -0.02   0.00
  87   1     0.02   0.01  -0.01    -0.01   0.03   0.03    -0.01  -0.02  -0.04
  88   1     0.02   0.02  -0.00    -0.01   0.03   0.03    -0.00  -0.03  -0.04
  89   1     0.01   0.01   0.00    -0.02   0.01  -0.01     0.01  -0.00  -0.03
  90   1     0.01   0.02   0.01    -0.01  -0.00  -0.03     0.02   0.01  -0.02
  91   1     0.00   0.02   0.01     0.00  -0.01  -0.03     0.04   0.03   0.00
  92   1     0.00   0.03   0.01     0.02  -0.01  -0.01     0.05   0.03   0.02
  93   1     0.01   0.03   0.01     0.02   0.01   0.02     0.04   0.02   0.01
  94   1     0.01   0.03   0.01     0.01  -0.00   0.03     0.01   0.01   0.05
  95   1     0.01   0.04   0.00     0.01  -0.02   0.04     0.04   0.04   0.08
  96   1     0.02   0.05  -0.00    -0.01  -0.02   0.04     0.06   0.05   0.05
  97   1     0.02   0.04  -0.01    -0.02  -0.00   0.03     0.06   0.03  -0.02
  98   1     0.02   0.03  -0.00    -0.02   0.01   0.02     0.04   0.01  -0.05
  99   1     0.01   0.01   0.01    -0.00   0.00  -0.02    -0.01  -0.01   0.00
 100   1    -0.00   0.00   0.02     0.02  -0.02  -0.03    -0.04  -0.01   0.00
 101   1     0.01  -0.01  -0.00     0.01  -0.01  -0.01    -0.05   0.01  -0.01
 102   1     0.02  -0.04  -0.04     0.00   0.00   0.03    -0.04   0.02  -0.02
 103   1     0.02  -0.04  -0.04    -0.00   0.01   0.04    -0.02   0.02  -0.01
                      7                      8                      9
                        a                      a                      a 
 Frequencies --    33.9597                40.2006                46.5024
 Red. masses --    11.2913                11.6905                10.9574
 Frc consts  --     0.0000                 0.0000                 0.0000
 IR Inten    --     1.2572                 0.1165                 0.1071
 Raman Activ --     0.0000                 0.0000                 0.0000
 Depolar     --     0.0000                 0.0000                 0.0000
 Atom AN      X      Y      Z        X      Y      Z        X      Y      Z
   1   6     0.00  -0.10  -0.04    -0.01   0.12   0.00     0.25  -0.09  -0.03
   2   6    -0.05  -0.02  -0.04     0.04   0.04   0.00     0.06   0.00   0.01
   3   6    -0.11  -0.05  -0.10     0.08   0.02   0.09    -0.06  -0.01  -0.16
   4   6    -0.07   0.04  -0.03     0.05   0.02  -0.00     0.04   0.06   0.12
   5   6    -0.12   0.05  -0.04     0.07  -0.00  -0.04     0.03   0.11   0.21
   6   6    -0.15   0.10  -0.04     0.08  -0.03  -0.06     0.02   0.13   0.26
   7   6    -0.12   0.14  -0.05     0.07  -0.02  -0.04     0.02   0.08   0.22
   8   6    -0.07   0.13  -0.04     0.04   0.02   0.02     0.03   0.03   0.13
   9   6    -0.05   0.09  -0.03     0.04   0.04   0.04     0.04   0.02   0.09
  10   7     0.00   0.09  -0.02     0.01   0.07   0.09     0.05  -0.03   0.01
  11   6     0.03   0.11  -0.04     0.00   0.06   0.09     0.04  -0.04  -0.01
  12   6     0.03   0.13  -0.06    -0.01   0.05   0.08     0.05  -0.03  -0.01
  13   6     0.01   0.08  -0.07    -0.01   0.03   0.07     0.06  -0.02  -0.01
  14   7    -0.02   0.04  -0.07    -0.02   0.05   0.06     0.06  -0.02  -0.02
  15   6     0.00  -0.00  -0.09    -0.05   0.05   0.03     0.04  -0.03  -0.05
  16   6     0.04   0.00  -0.12    -0.07   0.05   0.03     0.02  -0.03  -0.08
  17   6     0.07  -0.04  -0.13    -0.10   0.06   0.01     0.01  -0.04  -0.10
  18   6     0.04  -0.09  -0.13    -0.10   0.07  -0.00     0.01  -0.04  -0.10
  19   6    -0.00  -0.09  -0.11    -0.08   0.07   0.00     0.02  -0.04  -0.08
  20   6    -0.02  -0.05  -0.08    -0.06   0.06   0.01     0.03  -0.03  -0.06
  21   6    -0.06  -0.05  -0.04    -0.05   0.06  -0.00     0.03  -0.03  -0.05
  22   6    -0.20  -0.10  -0.02    -0.04   0.08  -0.01     0.05  -0.04  -0.04
  23   6    -0.02  -0.08  -0.15    -0.05   0.07  -0.00     0.03  -0.02  -0.03
  24   6    -0.02   0.00   0.05    -0.04   0.05  -0.01     0.02  -0.03  -0.05
  25   6     0.00   0.02   0.16    -0.05   0.05  -0.05     0.01  -0.03  -0.07
  26   6     0.03   0.06   0.24    -0.05   0.03  -0.05     0.00  -0.03  -0.08
  27   6     0.04   0.10   0.21    -0.03   0.03  -0.02     0.02  -0.02  -0.05
  28   6     0.02   0.09   0.10    -0.02   0.03   0.02     0.04  -0.02  -0.03
  29   6    -0.01   0.05   0.03    -0.03   0.04   0.02     0.04  -0.02  -0.03
  30   6    -0.01   0.03  -0.06    -0.01   0.01   0.07     0.06  -0.02  -0.01
  31   6     0.01   0.02  -0.05     0.00   0.01   0.09     0.04  -0.04  -0.00
  32  16     0.03  -0.13  -0.01     0.08  -0.03   0.14    -0.04   0.04  -0.01
  33   8     0.05  -0.09   0.06     0.09  -0.01   0.15    -0.10  -0.02  -0.06
  34   8     0.00  -0.16  -0.08     0.07  -0.04   0.06     0.02   0.09   0.04
  35   6     0.03  -0.08   0.02     0.04  -0.03   0.05    -0.06   0.07  -0.01
  36   6     0.03  -0.08  -0.01     0.05  -0.01   0.05    -0.05   0.08  -0.00
  37   6     0.02  -0.07  -0.01     0.03  -0.03   0.01    -0.07   0.05  -0.03
  38   6     0.01  -0.06   0.01    -0.00  -0.06  -0.01    -0.09   0.02  -0.06
  39   6     0.01  -0.06   0.02    -0.01  -0.08  -0.02    -0.08   0.03  -0.06
  40   6     0.02  -0.07   0.03     0.01  -0.06   0.02    -0.07   0.05  -0.04
  41   6    -0.00  -0.06   0.03    -0.06  -0.12  -0.07    -0.08   0.01  -0.09
  42   6    -0.01  -0.06   0.04    -0.09  -0.16  -0.10    -0.05   0.03  -0.08
  43   6    -0.02  -0.05   0.05    -0.13  -0.21  -0.17    -0.05   0.00  -0.11
  44   6    -0.02  -0.03   0.05    -0.15  -0.23  -0.19    -0.07  -0.05  -0.14
  45   6    -0.01  -0.02   0.04    -0.11  -0.18  -0.15    -0.09  -0.06  -0.13
  46   6    -0.00  -0.04   0.03    -0.07  -0.12  -0.09    -0.09  -0.03  -0.11
  47   7     0.00  -0.04   0.01    -0.03  -0.09  -0.05    -0.10  -0.02  -0.09
  48   6     0.03   0.01   0.04     0.01  -0.02  -0.01    -0.07  -0.02  -0.02
  49   6     0.02   0.05   0.12    -0.04   0.04   0.01    -0.06  -0.02   0.04
  50   6     0.05   0.10   0.16     0.01   0.11   0.07    -0.02  -0.03   0.18
  51   6     0.10   0.12   0.11     0.10   0.11   0.11     0.02  -0.04   0.27
  52   6     0.11   0.08   0.02     0.14   0.05   0.08    -0.00  -0.04   0.19
  53   6     0.08   0.03  -0.02     0.09  -0.01   0.02    -0.05  -0.03   0.05
  54   6     0.02   0.06  -0.03     0.01   0.04   0.09     0.03  -0.06  -0.00
  55   6     0.02   0.05   0.01     0.03   0.02  -0.01     0.03   0.01   0.04
  56   6     0.06   0.06   0.04     0.03  -0.00  -0.05     0.00   0.03   0.06
  57   6     0.08   0.03   0.06     0.05  -0.05  -0.15    -0.02   0.06   0.09
  58   6     0.06  -0.02   0.06     0.07  -0.07  -0.20    -0.01   0.07   0.09
  59   6     0.02  -0.04   0.03     0.06  -0.04  -0.14     0.02   0.06   0.06
  60   6    -0.00  -0.00   0.00     0.05   0.00  -0.06     0.03   0.03   0.05
  61   1    -0.01  -0.03  -0.02    -0.00   0.05   0.01     0.08  -0.03  -0.02
  62   1     0.01  -0.04  -0.01    -0.00   0.04   0.00     0.08  -0.04  -0.04
  63   1     0.01  -0.02   0.00    -0.01   0.04  -0.02     0.10  -0.02   0.03
  64   1    -0.04  -0.02  -0.04     0.02   0.01   0.04    -0.01  -0.01  -0.06
  65   1    -0.04   0.00  -0.03     0.03  -0.01   0.03    -0.06   0.01  -0.04
  66   1    -0.03  -0.03  -0.03     0.02   0.01   0.03    -0.01  -0.02  -0.07
  67   1    -0.04   0.00  -0.01     0.02  -0.00  -0.01     0.01   0.04   0.06
  68   1    -0.05   0.03  -0.01     0.03  -0.02  -0.03     0.00   0.05   0.10
  69   1    -0.04   0.05  -0.02     0.02  -0.01  -0.02     0.01   0.03   0.07
  70   1    -0.01   0.05  -0.01     0.01   0.01   0.02     0.01  -0.00   0.03
  71   1     0.01   0.05  -0.02    -0.00   0.02   0.02     0.02  -0.01  -0.00
  72   1     0.02   0.01  -0.04    -0.02   0.01   0.01     0.01  -0.01  -0.02
  73   1     0.03  -0.01  -0.04    -0.04   0.02  -0.00    -0.00  -0.01  -0.04
  74   1     0.02  -0.03  -0.04    -0.03   0.02  -0.00    -0.00  -0.01  -0.03
  75   1    -0.01  -0.04  -0.03    -0.02   0.02  -0.00     0.00  -0.01  -0.02
  76   1    -0.07  -0.02   0.02    -0.01   0.02  -0.00     0.02  -0.01  -0.02
  77   1    -0.07  -0.03   0.00    -0.01   0.02  -0.01     0.02  -0.01  -0.01
  78   1    -0.07  -0.04  -0.03    -0.01   0.03  -0.00     0.02  -0.01  -0.01
  79   1    -0.02  -0.03  -0.06    -0.01   0.03   0.00     0.01  -0.01  -0.00
  80   1     0.02  -0.02  -0.05    -0.02   0.01   0.00     0.00  -0.01  -0.01
  81   1    -0.01  -0.02  -0.04    -0.01   0.02  -0.01     0.01  -0.01  -0.01
  82   1    -0.00  -0.00   0.05    -0.02   0.02  -0.02    -0.00  -0.01  -0.02
  83   1     0.01   0.02   0.09    -0.02   0.01  -0.02    -0.00  -0.01  -0.03
  84   1     0.02   0.04   0.08    -0.01   0.00  -0.01     0.01  -0.01  -0.02
  85   1     0.00   0.03   0.02    -0.00   0.01   0.01     0.02  -0.00  -0.00
  86   1    -0.01  -0.00  -0.02    -0.00  -0.00   0.02     0.02  -0.00  -0.00
  87   1     0.01  -0.03  -0.01     0.02   0.00   0.02    -0.01   0.03   0.01
  88   1     0.00  -0.02  -0.01     0.01  -0.01   0.00    -0.02   0.02  -0.01
  89   1     0.01  -0.02   0.01     0.00  -0.02   0.01    -0.02   0.01  -0.01
  90   1    -0.00  -0.02   0.01    -0.02  -0.04  -0.02    -0.01   0.02  -0.01
  91   1    -0.01  -0.02   0.02    -0.05  -0.07  -0.06    -0.01   0.00  -0.03
  92   1    -0.01  -0.00   0.02    -0.05  -0.08  -0.07    -0.02  -0.02  -0.05
  93   1    -0.00  -0.00   0.01    -0.03  -0.05  -0.05    -0.03  -0.03  -0.04
  94   1    -0.01   0.01   0.05    -0.03   0.01  -0.01    -0.03  -0.00  -0.01
  95   1     0.01   0.04   0.07    -0.01   0.04   0.03    -0.00  -0.01   0.07
  96   1     0.04   0.05   0.04     0.04   0.05   0.05     0.02  -0.02   0.11
  97   1     0.04   0.03  -0.01     0.06   0.02   0.03     0.01  -0.01   0.07
  98   1     0.03  -0.00  -0.03     0.04  -0.02  -0.00    -0.02  -0.01  -0.00
  99   1     0.00   0.01  -0.00     0.01   0.01   0.03     0.01  -0.02  -0.00
 100   1     0.02   0.03   0.01     0.00   0.00  -0.00    -0.00   0.00   0.02
 101   1     0.03   0.01   0.03     0.02  -0.02  -0.05    -0.01   0.02   0.03
 102   1     0.02  -0.01   0.02     0.02  -0.03  -0.08    -0.01   0.03   0.03
 103   1     0.00  -0.02   0.01     0.02  -0.01  -0.05     0.01   0.02   0.01
                     10                     11                     12
                        a                      a                      a 
 Frequencies --    50.1304                56.8139                63.3574
 Red. masses --    10.6289                12.6211                11.7415
 Frc consts  --     0.0000                 0.0000                 0.0000
 IR Inten    --     1.8203                 0.6747                 0.5187
 Raman Activ --     0.0000                 0.0000                 0.0000
 Depolar     --     0.0000                 0.0000                 0.0000
 Atom AN      X      Y      Z        X      Y      Z        X      Y      Z
   1   6     0.09  -0.01  -0.06     0.04  -0.08   0.01    -0.02   0.02   0.02
   2   6    -0.03   0.03  -0.03     0.01  -0.01   0.00     0.00  -0.02   0.02
   3   6    -0.09   0.03  -0.13    -0.03  -0.02  -0.04     0.06   0.02   0.04
   4   6    -0.03   0.05   0.04    -0.01   0.04  -0.01     0.03  -0.08   0.03
   5   6    -0.03   0.08   0.10    -0.06   0.06   0.02     0.09  -0.10   0.02
   6   6    -0.02   0.08   0.13    -0.08   0.10   0.01     0.11  -0.13   0.06
   7   6    -0.02   0.03   0.09    -0.04   0.11  -0.04     0.06  -0.14   0.13
   8   6    -0.03  -0.01   0.03     0.02   0.07  -0.08    -0.00  -0.12   0.13
   9   6    -0.04   0.01   0.01     0.03   0.04  -0.06    -0.01  -0.10   0.07
  10   7    -0.05  -0.02  -0.03     0.09   0.03  -0.09    -0.07  -0.11   0.06
  11   6    -0.05  -0.04  -0.04     0.07   0.05  -0.05    -0.06  -0.10   0.05
  12   6    -0.06  -0.06  -0.03     0.10   0.03   0.00     0.02   0.04   0.00
  13   6    -0.04  -0.04  -0.04     0.03  -0.03   0.08     0.08   0.13  -0.03
  14   7    -0.03  -0.03  -0.03     0.07  -0.03   0.13     0.08   0.14  -0.04
  15   6     0.02  -0.01   0.05     0.04  -0.00   0.11     0.09   0.07  -0.07
  16   6     0.03  -0.01   0.08     0.04  -0.00   0.15     0.11   0.08  -0.14
  17   6     0.09   0.02   0.17    -0.01   0.01   0.11     0.15   0.02  -0.15
  18   6     0.16   0.04   0.24    -0.03   0.03   0.07     0.16  -0.03  -0.10
  19   6     0.14   0.04   0.19    -0.02   0.03   0.05     0.12  -0.03  -0.06
  20   6     0.07   0.02   0.10     0.01   0.01   0.06     0.08   0.02  -0.04
  21   6     0.01   0.00  -0.01     0.01   0.01   0.01     0.01   0.01  -0.02
  22   6    -0.16   0.11  -0.04     0.02   0.06  -0.00    -0.04  -0.01  -0.01
  23   6     0.05  -0.12  -0.16     0.01  -0.01   0.01     0.01  -0.06  -0.04
  24   6     0.04  -0.01   0.02     0.01  -0.01  -0.01    -0.01   0.07   0.00
  25   6     0.07  -0.00   0.03    -0.02  -0.02  -0.10    -0.07   0.07   0.03
  26   6     0.10  -0.01   0.05    -0.02  -0.05  -0.13    -0.10   0.12   0.05
  27   6     0.09  -0.03   0.06     0.01  -0.06  -0.06    -0.07   0.18   0.04
  28   6     0.05  -0.03   0.03     0.04  -0.05   0.03    -0.01   0.18   0.00
  29   6     0.02  -0.02   0.00     0.04  -0.03   0.05     0.02   0.12  -0.01
  30   6    -0.02   0.01  -0.05    -0.06  -0.06   0.09     0.07   0.10  -0.02
  31   6    -0.01   0.02  -0.06    -0.07  -0.01   0.03     0.01  -0.02   0.02
  32  16    -0.01  -0.04  -0.05    -0.18   0.10   0.03    -0.10   0.08   0.03
  33   8     0.00  -0.03  -0.02    -0.10   0.17  -0.12    -0.09   0.09  -0.10
  34   8    -0.04  -0.08  -0.07    -0.24   0.13   0.14    -0.14   0.12   0.12
  35   6     0.02  -0.02   0.02    -0.06  -0.05  -0.01    -0.02   0.00   0.03
  36   6     0.05   0.03   0.08    -0.11  -0.14  -0.07    -0.05  -0.05   0.01
  37   6     0.07   0.06   0.12    -0.11  -0.19  -0.09    -0.05  -0.09  -0.02
  38   6     0.07   0.03   0.09    -0.05  -0.14  -0.06    -0.02  -0.08  -0.01
  39   6     0.04  -0.01   0.04    -0.01  -0.08  -0.01     0.01  -0.03   0.02
  40   6     0.02  -0.03   0.00    -0.01  -0.03   0.01     0.01   0.01   0.04
  41   6     0.02  -0.04   0.01     0.01  -0.06   0.01     0.03  -0.03   0.03
  42   6    -0.02  -0.09  -0.05     0.04  -0.03   0.05     0.06   0.01   0.06
  43   6    -0.07  -0.15  -0.11     0.05  -0.02   0.06     0.07   0.01   0.06
  44   6    -0.07  -0.15  -0.12     0.03  -0.06   0.03     0.04  -0.05   0.02
  45   6    -0.02  -0.09  -0.05     0.00  -0.10  -0.01     0.01  -0.09  -0.01
  46   6     0.02  -0.03   0.01    -0.01  -0.10  -0.01     0.00  -0.07   0.00
  47   7     0.07   0.03   0.08    -0.04  -0.15  -0.05    -0.02  -0.10  -0.02
  48   6     0.05   0.03   0.03    -0.01  -0.06  -0.04     0.00  -0.04  -0.01
  49   6    -0.00   0.05  -0.14    -0.07   0.02  -0.01    -0.04   0.02   0.01
  50   6    -0.03   0.07  -0.25    -0.04   0.14  -0.06    -0.02   0.10  -0.02
  51   6    -0.01   0.06  -0.18     0.05   0.16  -0.15     0.04   0.12  -0.09
  52   6     0.05   0.03   0.01     0.12   0.07  -0.15     0.09   0.06  -0.09
  53   6     0.08   0.02   0.11     0.09  -0.04  -0.10     0.07  -0.03  -0.05
  54   6    -0.02  -0.00  -0.05    -0.00   0.04  -0.04    -0.07  -0.13   0.05
  55   6    -0.07   0.01  -0.02     0.09   0.02  -0.02    -0.08  -0.07   0.02
  56   6    -0.10   0.03  -0.01     0.13   0.02  -0.01    -0.13  -0.08  -0.00
  57   6    -0.12   0.06   0.00     0.13   0.02   0.07    -0.15  -0.05  -0.04
  58   6    -0.11   0.08  -0.01     0.10   0.02   0.13    -0.13   0.00  -0.04
  59   6    -0.07   0.07  -0.02     0.06   0.01   0.11    -0.08   0.01  -0.02
  60   6    -0.06   0.04  -0.02     0.05   0.01   0.04    -0.05  -0.03   0.00
  61   1     0.04  -0.01  -0.02     0.01  -0.03  -0.01     0.01   0.01   0.01
  62   1     0.03  -0.01  -0.04     0.02  -0.03   0.00    -0.01   0.02   0.01
  63   1     0.04  -0.00   0.00     0.02  -0.02   0.01    -0.02  -0.00   0.00
  64   1    -0.02   0.00  -0.04    -0.02  -0.01  -0.02     0.03   0.01   0.01
  65   1    -0.05   0.02  -0.03    -0.02   0.01  -0.01     0.02  -0.00   0.01
  66   1    -0.03   0.00  -0.06    -0.01  -0.02  -0.01     0.01   0.02   0.01
  67   1    -0.01   0.03   0.03    -0.03   0.02   0.02     0.04  -0.02  -0.01
  68   1    -0.01   0.03   0.05    -0.04   0.04   0.01     0.05  -0.04   0.01
  69   1    -0.01   0.00   0.03    -0.02   0.04  -0.02     0.02  -0.04   0.05
  70   1    -0.01  -0.01  -0.00     0.01   0.02  -0.04    -0.01  -0.04   0.05
  71   1    -0.02  -0.03  -0.01     0.05   0.01  -0.00     0.01   0.02  -0.00
  72   1    -0.01  -0.01   0.01     0.02  -0.00   0.06     0.03   0.03  -0.05
  73   1     0.03   0.00   0.05    -0.01   0.00   0.04     0.05   0.01  -0.06
  74   1     0.06   0.02   0.09    -0.02   0.01   0.01     0.06  -0.02  -0.03
  75   1     0.05   0.02   0.06    -0.01   0.01   0.00     0.03  -0.02  -0.01
  76   1    -0.05   0.06   0.02     0.01   0.02  -0.00    -0.01   0.01   0.00
  77   1    -0.06   0.03  -0.04     0.00   0.02  -0.01    -0.03  -0.01   0.00
  78   1    -0.06   0.04  -0.02     0.01   0.02   0.00    -0.01  -0.02  -0.01
  79   1     0.01  -0.03  -0.05     0.00   0.01   0.01     0.01  -0.03  -0.02
  80   1     0.05  -0.06  -0.04     0.00  -0.01   0.01     0.01  -0.01  -0.01
  81   1    -0.00  -0.04  -0.08     0.00  -0.00  -0.01    -0.01  -0.02  -0.01
  82   1     0.02   0.00   0.00    -0.01  -0.00  -0.04    -0.03   0.01   0.01
  83   1     0.04  -0.00   0.02    -0.02  -0.02  -0.06    -0.04   0.03   0.02
  84   1     0.03  -0.01   0.02     0.00  -0.02  -0.02    -0.03   0.06   0.01
  85   1     0.01  -0.01   0.01     0.02  -0.02   0.02     0.00   0.06  -0.00
  86   1     0.00   0.01  -0.02    -0.04  -0.03   0.04     0.03   0.04  -0.02
  87   1     0.01   0.01   0.03    -0.04  -0.05  -0.03    -0.02  -0.01   0.00
  88   1     0.03   0.03   0.05    -0.04  -0.07  -0.04    -0.02  -0.04  -0.01
  89   1     0.00  -0.02  -0.01     0.01   0.01   0.01     0.01   0.01   0.01
  90   1    -0.01  -0.03  -0.01     0.01  -0.00   0.02     0.02   0.02   0.03
  91   1    -0.03  -0.06  -0.05     0.02   0.00   0.02     0.03   0.01   0.02
  92   1    -0.03  -0.06  -0.05     0.01  -0.02   0.01     0.01  -0.02   0.00
  93   1    -0.01  -0.03  -0.02    -0.01  -0.04  -0.01    -0.00  -0.04  -0.01
  94   1    -0.00   0.02  -0.05    -0.04   0.00   0.02    -0.03   0.00   0.02
  95   1    -0.02   0.03  -0.11    -0.03   0.06  -0.01    -0.02   0.04  -0.00
  96   1    -0.01   0.02  -0.08     0.02   0.07  -0.06     0.02   0.05  -0.04
  97   1     0.02   0.01   0.02     0.06   0.03  -0.06     0.04   0.02  -0.04
  98   1     0.03  -0.00   0.07     0.04  -0.03  -0.03     0.03  -0.02  -0.02
  99   1    -0.00   0.00  -0.01    -0.00   0.02  -0.02    -0.04  -0.06   0.02
 100   1    -0.03   0.00  -0.00     0.04   0.00  -0.02    -0.04  -0.03  -0.00
 101   1    -0.04   0.02   0.00     0.05   0.01   0.02    -0.06  -0.02  -0.02
 102   1    -0.03   0.03  -0.00     0.03   0.01   0.06    -0.04   0.01  -0.02
 103   1    -0.02   0.02  -0.01     0.01  -0.00   0.04    -0.02   0.01  -0.01
                     13                     14                     15
                        a                      a                      a 
 Frequencies --    66.1063                78.1193                89.5933
 Red. masses --    11.0126                11.1068                10.4493
 Frc consts  --     0.0000                 0.0000                 0.0000
 IR Inten    --     0.8188                 1.3537                 9.1583
 Raman Activ --     0.0000                 0.0000                 0.0000
 Depolar     --     0.0000                 0.0000                 0.0000
 Atom AN      X      Y      Z        X      Y      Z        X      Y      Z
   1   6     0.06  -0.01  -0.02     0.10  -0.02   0.01     0.09  -0.12   0.01
   2   6     0.00   0.01  -0.00     0.02   0.01   0.03    -0.03   0.03   0.02
   3   6    -0.03   0.00  -0.05    -0.04  -0.01  -0.03    -0.10   0.08  -0.16
   4   6    -0.00   0.02   0.03     0.01   0.03   0.06    -0.03   0.02   0.04
   5   6    -0.01   0.04   0.07     0.00   0.04   0.08    -0.03   0.03   0.07
   6   6    -0.00   0.03   0.07     0.01   0.02   0.05    -0.01  -0.00   0.02
   7   6     0.01  -0.01   0.01     0.03  -0.02  -0.01     0.01  -0.07  -0.06
   8   6     0.02  -0.04  -0.03     0.03  -0.01   0.00     0.01  -0.09  -0.09
   9   6     0.01  -0.02  -0.01     0.02   0.01   0.04    -0.01  -0.04  -0.04
  10   7     0.01  -0.03  -0.04     0.02   0.02   0.05    -0.01  -0.08  -0.09
  11   6     0.00  -0.03  -0.03     0.01   0.01   0.04    -0.03  -0.04  -0.02
  12   6    -0.01  -0.06  -0.01     0.07   0.12   0.01     0.03  -0.01   0.01
  13   6     0.01  -0.02  -0.01     0.03   0.04   0.03     0.04   0.05   0.05
  14   7    -0.00  -0.03  -0.01     0.04   0.06   0.05     0.07   0.06   0.10
  15   6    -0.05  -0.03  -0.06     0.06   0.04   0.06     0.04   0.04   0.05
  16   6    -0.04  -0.03  -0.05     0.09   0.05   0.08     0.06   0.04   0.07
  17   6    -0.10  -0.04  -0.11     0.09   0.03   0.05     0.03   0.03   0.02
  18   6    -0.18  -0.04  -0.21     0.04   0.01   0.01    -0.02   0.01  -0.03
  19   6    -0.17  -0.04  -0.21     0.02   0.01   0.01    -0.04   0.01  -0.05
  20   6    -0.09  -0.04  -0.13     0.03   0.02   0.04    -0.02   0.02  -0.01
  21   6    -0.01  -0.02  -0.03     0.00   0.02   0.03    -0.04   0.02  -0.01
  22   6     0.17  -0.14   0.01    -0.06   0.02   0.04     0.11   0.02  -0.01
  23   6    -0.04   0.13   0.11     0.02  -0.01  -0.01    -0.09   0.03   0.13
  24   6    -0.02  -0.03  -0.04     0.01   0.04   0.05    -0.08   0.02  -0.05
  25   6    -0.00  -0.03  -0.03    -0.02   0.04   0.06    -0.17   0.01  -0.15
  26   6     0.01  -0.03  -0.02    -0.05   0.05   0.03    -0.11   0.03  -0.06
  27   6     0.01  -0.03  -0.01    -0.08   0.06  -0.02     0.06   0.07   0.16
  28   6     0.01  -0.03  -0.01    -0.05   0.06  -0.02     0.13   0.08   0.23
  29   6    -0.00  -0.03  -0.02     0.00   0.05   0.03     0.04   0.05   0.09
  30   6     0.03   0.04  -0.02    -0.06  -0.10   0.06    -0.01   0.08   0.04
  31   6     0.03   0.05  -0.03    -0.10  -0.16   0.09    -0.05   0.06   0.01
  32  16    -0.06   0.05   0.00    -0.04  -0.12   0.02     0.06  -0.02   0.02
  33   8    -0.06   0.05  -0.06    -0.04  -0.13   0.08     0.14   0.02   0.13
  34   8    -0.13   0.02   0.03     0.14  -0.01   0.01     0.04  -0.10  -0.08
  35   6     0.02   0.03   0.10    -0.10  -0.03  -0.11     0.05  -0.05  -0.02
  36   6     0.04   0.06   0.16    -0.08   0.02  -0.05     0.07  -0.02  -0.02
  37   6     0.07   0.07   0.20    -0.05   0.03  -0.00     0.06  -0.01  -0.04
  38   6     0.08   0.06   0.19    -0.05   0.01  -0.03     0.03  -0.02  -0.04
  39   6     0.06   0.04   0.12    -0.10  -0.07  -0.15     0.01  -0.05  -0.04
  40   6     0.03   0.02   0.08    -0.13  -0.09  -0.19     0.03  -0.07  -0.03
  41   6     0.05  -0.01   0.07    -0.06  -0.06  -0.15    -0.01  -0.04  -0.02
  42   6     0.01  -0.08  -0.04    -0.07  -0.12  -0.27    -0.05  -0.06   0.01
  43   6    -0.01  -0.16  -0.11     0.01  -0.07  -0.20    -0.07  -0.00   0.05
  44   6     0.02  -0.16  -0.06     0.13   0.04  -0.01    -0.05   0.07   0.06
  45   6     0.06  -0.08   0.06     0.14   0.10   0.10    -0.02   0.08   0.03
  46   6     0.06  -0.01   0.11     0.04   0.04   0.01    -0.00   0.02  -0.01
  47   7     0.10   0.06   0.21     0.03   0.07   0.08     0.02   0.01  -0.04
  48   6     0.07   0.05   0.13     0.02   0.04   0.07     0.02   0.01  -0.04
  49   6     0.07   0.05   0.15     0.08  -0.01   0.18     0.02  -0.01  -0.07
  50   6     0.02   0.07  -0.01     0.03  -0.04   0.06     0.03  -0.04  -0.02
  51   6    -0.03   0.10  -0.19    -0.09  -0.01  -0.17     0.03  -0.05   0.05
  52   6    -0.03   0.09  -0.18    -0.14   0.03  -0.24     0.02  -0.03   0.06
  53   6     0.02   0.07  -0.02    -0.08   0.05  -0.11     0.01  -0.00   0.01
  54   6     0.02   0.02  -0.04    -0.08  -0.12   0.08    -0.07   0.00  -0.02
  55   6    -0.00  -0.01  -0.02     0.02   0.01   0.04    -0.02  -0.06  -0.09
  56   6    -0.01  -0.01  -0.02     0.02   0.00   0.02     0.00  -0.16  -0.26
  57   6    -0.02   0.01   0.00     0.03  -0.02  -0.02    -0.02  -0.10  -0.20
  58   6    -0.02   0.03   0.01     0.03  -0.02  -0.03    -0.08   0.07   0.06
  59   6    -0.01   0.03   0.01     0.03  -0.01  -0.01    -0.10   0.14   0.18
  60   6    -0.01   0.01   0.00     0.02   0.01   0.03    -0.06   0.06   0.08
  61   1     0.02  -0.00  -0.01     0.03  -0.01  -0.00     0.04  -0.05  -0.02
  62   1     0.02  -0.01  -0.01     0.03  -0.01  -0.01     0.03  -0.04  -0.00
  63   1     0.03  -0.00   0.00     0.04  -0.00   0.01     0.04  -0.05   0.04
  64   1    -0.01  -0.00  -0.02    -0.01  -0.00  -0.01    -0.02   0.01  -0.07
  65   1    -0.02   0.00  -0.01    -0.03   0.00  -0.01    -0.06   0.05  -0.04
  66   1    -0.01  -0.00  -0.02    -0.01  -0.01  -0.02    -0.03   0.02  -0.06
  67   1    -0.00   0.02   0.03    -0.00   0.02   0.03    -0.01   0.02   0.03
  68   1    -0.00   0.02   0.03     0.00   0.01   0.02    -0.00   0.00   0.01
  69   1     0.01  -0.01  -0.00     0.01  -0.01  -0.02     0.01  -0.03  -0.03
  70   1     0.01  -0.02  -0.02     0.01  -0.01  -0.01     0.01  -0.04  -0.05
  71   1    -0.01  -0.03   0.00     0.04   0.06  -0.00     0.02  -0.01   0.00
  72   1     0.01  -0.01   0.01     0.04   0.02   0.03     0.03   0.02   0.04
  73   1    -0.02  -0.01  -0.02     0.03   0.01   0.02     0.02   0.01   0.01
  74   1    -0.07  -0.01  -0.08     0.01  -0.00  -0.00    -0.01   0.00  -0.02
  75   1    -0.06  -0.01  -0.08    -0.00  -0.00  -0.00    -0.02  -0.00  -0.02
  76   1     0.05  -0.07  -0.03    -0.02   0.01   0.02     0.04   0.00  -0.03
  77   1     0.08  -0.04   0.03    -0.02   0.00   0.01     0.03   0.01   0.00
  78   1     0.05  -0.04   0.01    -0.02  -0.00   0.00     0.05   0.00   0.02
  79   1    -0.01   0.04   0.04     0.00  -0.01  -0.02    -0.01   0.01   0.06
  80   1    -0.04   0.07   0.02     0.02   0.00  -0.01    -0.05   0.01   0.04
  81   1     0.01   0.04   0.07    -0.00  -0.00  -0.00    -0.03   0.01   0.05
  82   1     0.00  -0.01  -0.01    -0.00   0.01   0.02    -0.08  -0.01  -0.08
  83   1     0.00  -0.01  -0.00    -0.02   0.01   0.01    -0.05   0.00  -0.04
  84   1     0.01  -0.01   0.00    -0.03   0.02  -0.02     0.04   0.03   0.08
  85   1     0.01  -0.01   0.00    -0.02   0.02  -0.02     0.07   0.03   0.11
  86   1     0.01   0.02  -0.01    -0.03  -0.04   0.02    -0.00   0.03   0.02
  87   1     0.01   0.02   0.05    -0.02   0.01  -0.00     0.03  -0.00  -0.00
  88   1     0.02   0.02   0.06    -0.01   0.02   0.01     0.02   0.00  -0.01
  89   1     0.00  -0.00   0.01    -0.04  -0.04  -0.07     0.00  -0.03  -0.01
  90   1    -0.00  -0.02  -0.02    -0.04  -0.05  -0.11    -0.02  -0.03   0.00
  91   1    -0.01  -0.07  -0.06    -0.00  -0.03  -0.08    -0.03  -0.00   0.02
  92   1     0.00  -0.06  -0.03     0.06   0.03   0.02    -0.02   0.03   0.03
  93   1     0.03  -0.02   0.03     0.07   0.05   0.07    -0.00   0.04   0.01
  94   1     0.03   0.01   0.08     0.05  -0.01   0.10     0.01   0.00  -0.03
  95   1     0.01   0.02  -0.00     0.02  -0.02   0.04     0.01  -0.01  -0.01
  96   1    -0.02   0.03  -0.09    -0.04  -0.01  -0.08     0.01  -0.02   0.03
  97   1    -0.02   0.03  -0.09    -0.06   0.01  -0.11     0.00  -0.01   0.03
  98   1     0.00   0.02  -0.00    -0.03   0.03  -0.04     0.00   0.00   0.00
  99   1     0.01   0.01  -0.02    -0.04  -0.05   0.03    -0.03  -0.00  -0.01
 100   1    -0.00  -0.01  -0.01     0.00   0.00   0.01     0.01  -0.08  -0.13
 101   1    -0.01   0.00   0.00     0.01  -0.01  -0.01     0.00  -0.05  -0.10
 102   1    -0.01   0.01   0.01     0.01  -0.01  -0.02    -0.03   0.04   0.04
 103   1    -0.00   0.01   0.01     0.01  -0.01  -0.01    -0.04   0.07   0.10
                     16                     17                     18
                        a                      a                      a 
 Frequencies --    93.5994                94.3129                99.4343
 Red. masses --    10.1139                11.1116                11.2327
 Frc consts  --     0.0000                 0.0000                 0.0000
 IR Inten    --     8.7463                14.7014                 2.3010
 Raman Activ --     0.0000                 0.0000                 0.0000
 Depolar     --     0.0000                 0.0000                 0.0000
 Atom AN      X      Y      Z        X      Y      Z        X      Y      Z
   1   6    -0.01  -0.17   0.08     0.10  -0.06   0.02     0.03   0.02  -0.03
   2   6     0.01   0.01   0.03     0.01   0.02   0.04    -0.02  -0.01  -0.01
   3   6     0.05   0.13  -0.10    -0.05   0.02  -0.06    -0.06  -0.04  -0.02
   4   6     0.02  -0.02  -0.03     0.00   0.02   0.06    -0.02  -0.00   0.02
   5   6     0.06  -0.10  -0.16     0.00   0.03   0.07    -0.04   0.06   0.12
   6   6     0.04  -0.07  -0.10     0.02  -0.01   0.01    -0.03   0.03   0.08
   7   6    -0.02   0.08   0.11     0.04  -0.07  -0.07     0.02  -0.10  -0.11
   8   6    -0.04   0.13   0.19     0.04  -0.06  -0.06     0.04  -0.16  -0.20
   9   6    -0.01   0.06   0.08     0.01  -0.01   0.01     0.00  -0.09  -0.10
  10   7     0.01   0.03   0.02     0.01  -0.01   0.01    -0.01  -0.09  -0.10
  11   6     0.01   0.02   0.01     0.00  -0.01   0.01    -0.01  -0.04  -0.04
  12   6    -0.01   0.02  -0.00     0.01   0.01   0.00     0.00  -0.07   0.01
  13   6    -0.03  -0.02  -0.01    -0.00  -0.00   0.00     0.02   0.01   0.03
  14   7    -0.05  -0.02  -0.03    -0.01   0.01  -0.01     0.06   0.02   0.08
  15   6    -0.04  -0.01  -0.01     0.02   0.02   0.03     0.08   0.02   0.11
  16   6    -0.07  -0.01  -0.03     0.05   0.02   0.07     0.11   0.03   0.16
  17   6    -0.06  -0.01  -0.02     0.01   0.02   0.03     0.04   0.02   0.09
  18   6    -0.03   0.01   0.02    -0.07   0.00  -0.07    -0.05   0.01  -0.03
  19   6    -0.01   0.01   0.03    -0.07   0.00  -0.07    -0.03   0.01  -0.03
  20   6    -0.01   0.00   0.02    -0.01   0.01  -0.01     0.04   0.02   0.05
  21   6    -0.00   0.00   0.02     0.01   0.01   0.03     0.03   0.02   0.05
  22   6    -0.09   0.00   0.03    -0.14  -0.05   0.06    -0.08   0.00   0.06
  23   6     0.03  -0.00  -0.06     0.08   0.06  -0.12     0.07   0.01  -0.06
  24   6     0.02  -0.00   0.05     0.07   0.03   0.10     0.06   0.02   0.09
  25   6     0.07   0.01   0.10     0.14   0.04   0.22     0.06   0.02   0.11
  26   6     0.03  -0.01   0.04     0.03   0.04   0.09    -0.03   0.02   0.00
  27   6    -0.07  -0.03  -0.08    -0.17   0.00  -0.20    -0.12   0.01  -0.13
  28   6    -0.09  -0.03  -0.11    -0.19  -0.00  -0.25    -0.09   0.01  -0.11
  29   6    -0.04  -0.02  -0.03    -0.05   0.01  -0.06     0.01   0.02   0.02
  30   6    -0.02  -0.04  -0.01    -0.00  -0.02   0.01     0.02   0.09   0.02
  31   6    -0.00  -0.04   0.01     0.01  -0.01   0.01     0.01   0.12  -0.03
  32  16    -0.01  -0.04   0.01     0.02   0.09  -0.02     0.06  -0.01   0.03
  33   8    -0.07  -0.13   0.06     0.09   0.24  -0.19     0.06  -0.11   0.23
  34   8     0.09  -0.02  -0.04    -0.16   0.12   0.14     0.13  -0.15  -0.18
  35   6    -0.05   0.06   0.01     0.09  -0.09  -0.02     0.02   0.07   0.06
  36   6    -0.06   0.05   0.03     0.10  -0.07  -0.03    -0.03  -0.01  -0.03
  37   6    -0.04   0.03   0.04     0.09  -0.01  -0.02    -0.05  -0.04  -0.07
  38   6    -0.02   0.04   0.04     0.07  -0.01  -0.01    -0.03   0.02  -0.00
  39   6     0.00   0.08   0.04     0.04  -0.06  -0.00     0.04   0.11   0.10
  40   6    -0.02   0.09   0.03     0.06  -0.10  -0.01     0.05   0.14   0.14
  41   6     0.04   0.06   0.02    -0.02  -0.05   0.02     0.04   0.10   0.07
  42   6     0.09   0.11   0.00    -0.11  -0.12   0.04     0.09   0.14   0.08
  43   6     0.11   0.03  -0.05    -0.18  -0.07   0.06     0.07   0.04  -0.01
  44   6     0.07  -0.08  -0.10    -0.15   0.05   0.08    -0.00  -0.09  -0.12
  45   6     0.02  -0.10  -0.07    -0.07   0.11   0.06    -0.04  -0.12  -0.11
  46   6     0.01  -0.01  -0.01    -0.01   0.04   0.02    -0.02  -0.02  -0.03
  47   7    -0.01  -0.01   0.03     0.05   0.05  -0.00    -0.06  -0.05  -0.06
  48   6    -0.01  -0.01   0.03     0.03   0.04  -0.03    -0.05  -0.04  -0.04
  49   6    -0.03   0.01   0.03     0.05  -0.00  -0.08    -0.03  -0.03   0.11
  50   6    -0.03   0.04  -0.01     0.05  -0.06  -0.02    -0.00  -0.00   0.16
  51   6    -0.01   0.05  -0.04     0.03  -0.08   0.08    -0.01   0.02   0.03
  52   6     0.01   0.03  -0.02    -0.00  -0.04   0.09    -0.04   0.01  -0.15
  53   6     0.01  -0.00   0.02    -0.00   0.02   0.03    -0.06  -0.02  -0.16
  54   6    -0.00  -0.02   0.02     0.01  -0.02   0.01     0.00   0.08  -0.06
  55   6     0.04  -0.03  -0.05     0.01  -0.01   0.00    -0.03  -0.04  -0.04
  56   6     0.12  -0.17  -0.28     0.03  -0.06  -0.07    -0.06  -0.01  -0.00
  57   6     0.12  -0.15  -0.23     0.03  -0.06  -0.08    -0.07   0.02   0.03
  58   6     0.02   0.04   0.11     0.01  -0.01   0.00    -0.06   0.02   0.00
  59   6    -0.04   0.13   0.26    -0.01   0.03   0.07    -0.04  -0.00  -0.03
  60   6    -0.01   0.07   0.13    -0.00   0.03   0.06    -0.03  -0.02  -0.03
  61   1    -0.00  -0.07  -0.01     0.03  -0.02  -0.00     0.01   0.01  -0.00
  62   1    -0.00  -0.05   0.04     0.03  -0.02  -0.00     0.01   0.01  -0.02
  63   1    -0.01  -0.07   0.05     0.04  -0.02   0.03     0.01   0.01  -0.01
  64   1     0.03   0.02  -0.06    -0.01  -0.00  -0.03    -0.02  -0.01   0.00
  65   1     0.01   0.07  -0.03    -0.03   0.02  -0.02    -0.03  -0.02  -0.00
  66   1     0.01   0.05  -0.02    -0.01   0.00  -0.03    -0.02  -0.02  -0.02
  67   1     0.03  -0.05  -0.09    -0.00   0.02   0.03    -0.02   0.04   0.07
  68   1     0.02  -0.04  -0.06     0.01  -0.00   0.00    -0.01   0.03   0.05
  69   1    -0.01   0.04   0.06     0.02  -0.03  -0.04     0.01  -0.04  -0.05
  70   1    -0.03   0.06   0.10     0.02  -0.03  -0.03     0.02  -0.07  -0.10
  71   1    -0.00   0.01  -0.00     0.00   0.01  -0.00     0.00  -0.04   0.01
  72   1    -0.03  -0.01  -0.02     0.03   0.01   0.04     0.05   0.01   0.07
  73   1    -0.02  -0.00  -0.01     0.01   0.01   0.02     0.02   0.01   0.03
  74   1    -0.01   0.00   0.01    -0.03  -0.00  -0.04    -0.03   0.00  -0.03
  75   1     0.00   0.01   0.01    -0.03  -0.00  -0.04    -0.02   0.00  -0.03
  76   1    -0.03   0.00   0.03    -0.05  -0.02   0.05    -0.03   0.01   0.04
  77   1    -0.03   0.00   0.00    -0.04  -0.02   0.03    -0.03  -0.00   0.02
  78   1    -0.04   0.00  -0.01    -0.06  -0.02  -0.01    -0.03  -0.01   0.00
  79   1    -0.00  -0.00  -0.03    -0.00   0.02  -0.06     0.01   0.01  -0.03
  80   1     0.03  -0.00  -0.02     0.05   0.03  -0.04     0.04   0.00  -0.02
  81   1     0.01  -0.00  -0.02     0.03   0.02  -0.03     0.02   0.00  -0.02
  82   1     0.04   0.01   0.05     0.07   0.02   0.11     0.03   0.01   0.05
  83   1     0.02   0.00   0.02     0.02   0.01   0.05    -0.01   0.01   0.00
  84   1    -0.03  -0.01  -0.04    -0.08  -0.00  -0.11    -0.06  -0.00  -0.07
  85   1    -0.04  -0.01  -0.06    -0.09  -0.00  -0.13    -0.04   0.00  -0.05
  86   1    -0.01  -0.02  -0.00    -0.00  -0.01  -0.00     0.01   0.04   0.01
  87   1    -0.02   0.01   0.01     0.04  -0.02  -0.01    -0.02  -0.02  -0.02
  88   1    -0.02   0.00   0.01     0.03   0.00  -0.01    -0.03  -0.03  -0.05
  89   1    -0.00   0.03   0.01     0.01  -0.04   0.00     0.03   0.06   0.06
  90   1     0.03   0.06   0.01    -0.04  -0.07   0.01     0.04   0.07   0.04
  91   1     0.04   0.02  -0.02    -0.07  -0.03   0.02     0.03   0.02  -0.00
  92   1     0.02  -0.04  -0.04    -0.06   0.03   0.03    -0.01  -0.05  -0.06
  93   1     0.00  -0.06  -0.03    -0.02   0.06   0.02    -0.02  -0.07  -0.05
  94   1    -0.01   0.00   0.01     0.02   0.00  -0.04    -0.01  -0.01   0.05
  95   1    -0.01   0.02  -0.00     0.02  -0.03  -0.01     0.01   0.00   0.09
  96   1    -0.00   0.02  -0.02     0.01  -0.04   0.04     0.00   0.01   0.02
  97   1     0.01   0.01  -0.01    -0.01  -0.02   0.04    -0.01   0.01  -0.07
  98   1     0.01  -0.01   0.01    -0.01   0.02   0.01    -0.02  -0.01  -0.07
  99   1    -0.00  -0.01   0.01     0.00  -0.00   0.00    -0.00   0.03  -0.03
 100   1     0.05  -0.08  -0.14     0.01  -0.03  -0.04    -0.02  -0.00   0.00
 101   1     0.05  -0.08  -0.12     0.01  -0.03  -0.04    -0.03   0.01   0.02
 102   1     0.00   0.03   0.06     0.00  -0.00   0.00    -0.02   0.01   0.00
 103   1    -0.03   0.07   0.13    -0.01   0.02   0.03    -0.01   0.00  -0.01
                     19                     20                     21
                        a                      a                      a 
 Frequencies --   100.1406               109.4712               115.9686
 Red. masses --    10.6667                10.3536                10.7343
 Frc consts  --     0.0000                 0.0000                 0.0000
 IR Inten    --     2.4037                18.1408                 9.1869
 Raman Activ --     0.0000                 0.0000                 0.0000
 Depolar     --     0.0000                 0.0000                 0.0000
 Atom AN      X      Y      Z        X      Y      Z        X      Y      Z
   1   6    -0.02  -0.01   0.01    -0.18   0.04  -0.05    -0.11   0.04  -0.07
   2   6    -0.00   0.01  -0.00     0.00  -0.04  -0.09     0.02  -0.04  -0.09
   3   6     0.01   0.04  -0.02     0.14   0.00   0.05     0.11  -0.02   0.03
   4   6     0.00  -0.00  -0.01     0.02  -0.08  -0.14     0.03  -0.07  -0.11
   5   6     0.01  -0.03  -0.05     0.02  -0.09  -0.15     0.01  -0.03  -0.06
   6   6     0.01  -0.02  -0.03    -0.03   0.03   0.05    -0.03   0.07   0.09
   7   6    -0.02   0.03   0.05    -0.10   0.17   0.26    -0.06   0.11   0.17
   8   6    -0.03   0.05   0.08    -0.08   0.13   0.20    -0.03   0.05   0.07
   9   6    -0.01   0.03   0.04    -0.02   0.00  -0.00     0.01  -0.04  -0.06
  10   7    -0.01   0.02   0.02     0.00  -0.04  -0.07     0.03  -0.09  -0.14
  11   6    -0.00   0.00   0.01     0.00  -0.02  -0.04     0.01  -0.04  -0.05
  12   6    -0.05  -0.06   0.01     0.09   0.08  -0.04     0.02  -0.10   0.03
  13   6    -0.02  -0.02  -0.02     0.03   0.02   0.02     0.05  -0.00   0.07
  14   7    -0.02  -0.03  -0.03     0.08   0.02   0.08     0.09   0.01   0.13
  15   6    -0.02  -0.02  -0.02     0.09   0.01   0.09     0.03   0.00   0.05
  16   6    -0.10  -0.03  -0.13     0.20   0.03   0.23    -0.08  -0.01  -0.08
  17   6    -0.04  -0.02  -0.06     0.15   0.02   0.16    -0.16  -0.03  -0.17
  18   6     0.11   0.01   0.12    -0.03  -0.01  -0.05    -0.10  -0.02  -0.10
  19   6     0.15   0.01   0.18    -0.09  -0.03  -0.13     0.01   0.00   0.03
  20   6     0.08  -0.00   0.09    -0.02  -0.01  -0.04     0.06   0.01   0.09
  21   6     0.04  -0.01   0.03    -0.01  -0.01  -0.02     0.06   0.01   0.08
  22   6     0.00   0.10  -0.02     0.04  -0.08   0.01    -0.10   0.05   0.07
  23   6     0.03  -0.13   0.00    -0.01   0.06   0.02     0.11  -0.06  -0.07
  24   6     0.01  -0.02  -0.02     0.00   0.00   0.00     0.08   0.01   0.10
  25   6    -0.01  -0.02  -0.07    -0.01  -0.00  -0.01     0.03  -0.00   0.03
  26   6     0.01  -0.03  -0.05    -0.02   0.00  -0.01    -0.07  -0.02  -0.10
  27   6     0.06  -0.03   0.03    -0.01   0.01   0.00    -0.09  -0.02  -0.13
  28   6     0.06  -0.03   0.06     0.02   0.02   0.02    -0.00  -0.01  -0.01
  29   6     0.02  -0.02   0.01     0.03   0.01   0.03     0.07   0.00   0.08
  30   6     0.04   0.05  -0.03    -0.07  -0.08   0.04     0.03   0.12   0.05
  31   6     0.07   0.08  -0.03    -0.09  -0.08   0.02     0.01   0.14  -0.02
  32  16     0.07   0.09  -0.01    -0.00  -0.05  -0.07     0.02   0.04   0.06
  33   8     0.10   0.17  -0.10     0.07   0.04  -0.05     0.07   0.03   0.15
  34   8    -0.10   0.05   0.05    -0.00  -0.02  -0.03    -0.01  -0.08  -0.07
  35   6     0.10  -0.03   0.04     0.02  -0.07  -0.08     0.03   0.01   0.04
  36   6     0.07  -0.08  -0.06     0.01  -0.08  -0.12     0.08   0.12   0.16
  37   6     0.04  -0.05  -0.08     0.03  -0.02  -0.06     0.06   0.08   0.11
  38   6     0.02   0.01  -0.01     0.06   0.05   0.01    -0.01  -0.05  -0.02
  39   6     0.03   0.01   0.05     0.06   0.05   0.05    -0.06  -0.12  -0.11
  40   6     0.07   0.00   0.09     0.05   0.00   0.01    -0.05  -0.12  -0.10
  41   6    -0.03   0.00   0.04     0.04   0.06   0.05    -0.07  -0.13  -0.11
  42   6    -0.09  -0.06   0.01    -0.01   0.01   0.03    -0.06  -0.11  -0.07
  43   6    -0.15  -0.10  -0.04    -0.10  -0.07  -0.07     0.01   0.02   0.06
  44   6    -0.14  -0.04  -0.04    -0.13  -0.09  -0.12     0.06   0.10   0.13
  45   6    -0.07   0.03   0.01    -0.06  -0.00  -0.06     0.04   0.05   0.07
  46   6    -0.04   0.03   0.02     0.02   0.06   0.02    -0.03  -0.06  -0.04
  47   7    -0.01   0.04  -0.01     0.05   0.09   0.03    -0.02  -0.05  -0.03
  48   6    -0.02   0.02  -0.02     0.03   0.05  -0.01     0.00  -0.02  -0.00
  49   6     0.07  -0.04   0.24     0.06   0.01  -0.01    -0.01  -0.00   0.00
  50   6     0.07  -0.09   0.29     0.05  -0.05   0.02    -0.01   0.02  -0.01
  51   6    -0.06  -0.06   0.02     0.00  -0.06   0.05     0.01   0.03  -0.03
  52   6    -0.17   0.01  -0.28    -0.04  -0.01   0.01     0.03   0.00  -0.02
  53   6    -0.15   0.04  -0.26    -0.03   0.05  -0.02     0.03  -0.02   0.00
  54   6     0.05   0.07  -0.02    -0.08  -0.09  -0.01     0.01   0.09  -0.07
  55   6    -0.01   0.00  -0.01    -0.01  -0.03  -0.07     0.02  -0.06  -0.12
  56   6     0.00  -0.02  -0.05    -0.04   0.00  -0.01    -0.01  -0.03  -0.05
  57   6     0.00  -0.02  -0.05    -0.07   0.06   0.07    -0.05   0.06   0.07
  58   6    -0.01   0.01   0.00    -0.06   0.07   0.06    -0.06   0.09   0.11
  59   6    -0.02   0.03   0.03    -0.02   0.01  -0.03    -0.02   0.03   0.00
  60   6    -0.01   0.02   0.01     0.00  -0.04  -0.09     0.02  -0.05  -0.10
  61   1    -0.01  -0.01  -0.00    -0.05   0.02  -0.01    -0.04   0.02  -0.01
  62   1    -0.01  -0.00   0.01    -0.06   0.04   0.01    -0.04   0.02   0.00
  63   1    -0.01  -0.01   0.00    -0.09   0.00  -0.05    -0.05   0.01  -0.05
  64   1     0.01   0.01  -0.01     0.04   0.00   0.02     0.04   0.00   0.02
  65   1     0.01   0.01  -0.01     0.08  -0.01   0.01     0.06  -0.03   0.01
  66   1     0.00   0.02  -0.00     0.03   0.02   0.05     0.03   0.01   0.03
  67   1     0.01  -0.02  -0.03     0.02  -0.05  -0.08     0.01  -0.02  -0.03
  68   1     0.01  -0.01  -0.02    -0.01   0.01   0.02    -0.01   0.03   0.05
  69   1    -0.01   0.01   0.02    -0.04   0.08   0.13    -0.03   0.06   0.09
  70   1    -0.01   0.03   0.04    -0.04   0.06   0.09    -0.01   0.02   0.03
  71   1    -0.03  -0.03   0.01     0.05   0.04  -0.02     0.01  -0.05   0.01
  72   1    -0.06  -0.01  -0.08     0.09   0.01   0.11    -0.04  -0.00  -0.04
  73   1    -0.03  -0.01  -0.04     0.07   0.01   0.07    -0.07  -0.01  -0.08
  74   1     0.05   0.00   0.06    -0.03  -0.01  -0.04    -0.04  -0.01  -0.05
  75   1     0.07   0.01   0.08    -0.06  -0.01  -0.08     0.01   0.00   0.02
  76   1     0.00   0.05   0.00     0.01  -0.04  -0.01    -0.05   0.01   0.06
  77   1    -0.01   0.03  -0.03     0.02  -0.02   0.02    -0.03   0.01   0.00
  78   1     0.01   0.03   0.00     0.01  -0.03   0.00    -0.06   0.02  -0.00
  79   1     0.02  -0.04   0.00    -0.00   0.02   0.00     0.02  -0.03  -0.05
  80   1     0.02  -0.05   0.01    -0.01   0.04   0.00     0.07  -0.02  -0.02
  81   1    -0.01  -0.04  -0.01     0.01   0.02   0.02     0.02  -0.02  -0.03
  82   1    -0.01  -0.01  -0.03    -0.01  -0.00  -0.00     0.01  -0.00   0.01
  83   1    -0.00  -0.01  -0.03    -0.01   0.00  -0.01    -0.04  -0.01  -0.06
  84   1     0.03  -0.01   0.02    -0.01   0.01  -0.00    -0.05  -0.01  -0.07
  85   1     0.03  -0.01   0.03     0.01   0.01   0.01    -0.00  -0.00  -0.01
  86   1     0.02   0.02  -0.02    -0.03  -0.04   0.02     0.01   0.06   0.03
  87   1     0.02  -0.03  -0.03    -0.00  -0.04  -0.05     0.04   0.06   0.08
  88   1     0.01  -0.02  -0.05     0.01  -0.01  -0.02     0.03   0.04   0.05
  89   1     0.02   0.00   0.05     0.02   0.00   0.01    -0.03  -0.06  -0.05
  90   1    -0.02  -0.02   0.01     0.00   0.00   0.02    -0.02  -0.04  -0.03
  91   1    -0.06  -0.05  -0.02    -0.04  -0.04  -0.03     0.01   0.02   0.03
  92   1    -0.05  -0.02  -0.02    -0.06  -0.05  -0.06     0.04   0.06   0.07
  93   1    -0.01   0.02   0.01    -0.02  -0.00  -0.02     0.02   0.04   0.04
  94   1     0.04  -0.02   0.11     0.03   0.00  -0.01    -0.01  -0.00   0.01
  95   1     0.05  -0.04   0.15     0.02  -0.03   0.01    -0.00   0.01  -0.00
  96   1    -0.02  -0.03   0.01    -0.00  -0.03   0.02     0.00   0.01  -0.01
  97   1    -0.08   0.01  -0.14    -0.03  -0.01   0.01     0.01   0.00  -0.01
  98   1    -0.06   0.03  -0.12    -0.02   0.02  -0.01     0.01  -0.01   0.00
  99   1     0.03   0.03  -0.01    -0.04  -0.04  -0.00    -0.00   0.04  -0.04
 100   1     0.00  -0.01  -0.02    -0.01  -0.00  -0.00    -0.00  -0.01  -0.02
 101   1     0.00  -0.01  -0.02    -0.03   0.03   0.04    -0.02   0.03   0.04
 102   1    -0.00   0.01   0.00    -0.02   0.03   0.04    -0.03   0.05   0.06
 103   1    -0.01   0.02   0.02    -0.00   0.00  -0.01    -0.00   0.01   0.01
                     22                     23                     24
                        a                      a                      a 
 Frequencies --   127.8780               130.3176               132.2651
 Red. masses --    10.5991                 2.9587                 3.3560
 Frc consts  --     0.0000                 0.0000                 0.0000
 IR Inten    --     0.9212                 0.9208                 0.6027
 Raman Activ --     0.0000                 0.0000                 0.0000
 Depolar     --     0.0000                 0.0000                 0.0000
 Atom AN      X      Y      Z        X      Y      Z        X      Y      Z
   1   6    -0.05  -0.03   0.02     0.10   0.14  -0.06    -0.00   0.01   0.01
   2   6    -0.02   0.01   0.00     0.01  -0.01  -0.01    -0.03   0.03   0.01
   3   6     0.01   0.06  -0.03    -0.09  -0.14   0.06    -0.06   0.02  -0.02
   4   6    -0.01  -0.00  -0.01    -0.01   0.03   0.05    -0.03   0.02   0.02
   5   6     0.00  -0.03  -0.05     0.03  -0.04  -0.06    -0.03  -0.01  -0.02
   6   6    -0.01  -0.02  -0.03     0.04  -0.07  -0.09    -0.02  -0.02  -0.06
   7   6    -0.03   0.03   0.05     0.01  -0.01   0.00    -0.03  -0.00  -0.04
   8   6    -0.04   0.05   0.09    -0.01   0.04   0.08    -0.03   0.03   0.01
   9   6    -0.03   0.03   0.05    -0.01   0.03   0.05    -0.03   0.03   0.03
  10   7    -0.03   0.03   0.06     0.00  -0.00  -0.00    -0.02   0.03   0.04
  11   6    -0.01   0.01   0.02    -0.00  -0.00  -0.00    -0.01   0.01   0.02
  12   6    -0.08  -0.07   0.02    -0.02  -0.02  -0.00     0.00   0.02   0.02
  13   6    -0.02  -0.01  -0.04    -0.01  -0.00  -0.01     0.01   0.00   0.01
  14   7    -0.05  -0.03  -0.08    -0.02  -0.00  -0.02     0.01  -0.01   0.01
  15   6     0.03  -0.02   0.02    -0.00   0.00   0.00    -0.01  -0.02  -0.03
  16   6     0.18  -0.00   0.22     0.03   0.01   0.04     0.02  -0.02  -0.02
  17   6     0.22   0.01   0.27     0.04   0.01   0.06     0.07  -0.01   0.04
  18   6     0.08  -0.00   0.09     0.01   0.01   0.03     0.10  -0.01   0.07
  19   6    -0.06  -0.03  -0.10    -0.02   0.00  -0.02     0.04  -0.02   0.02
  20   6    -0.05  -0.03  -0.10    -0.02   0.00  -0.02    -0.02  -0.02  -0.05
  21   6    -0.03  -0.03  -0.09    -0.02   0.00  -0.02     0.02  -0.01  -0.01
  22   6     0.11  -0.09  -0.07     0.02  -0.01  -0.02    -0.04  -0.19   0.06
  23   6    -0.05   0.07   0.02    -0.03   0.02   0.01     0.08   0.14  -0.08
  24   6    -0.03  -0.03  -0.09    -0.02  -0.00  -0.02     0.06  -0.00   0.05
  25   6     0.07  -0.01   0.01     0.00   0.00   0.01    -0.00  -0.02  -0.07
  26   6     0.13  -0.01   0.09     0.02   0.01   0.04    -0.04  -0.04  -0.14
  27   6     0.07  -0.03   0.01     0.00   0.01   0.02     0.02  -0.04  -0.06
  28   6    -0.03  -0.05  -0.09    -0.02   0.00  -0.02     0.07  -0.02   0.05
  29   6    -0.05  -0.04  -0.11    -0.02  -0.00  -0.03     0.06  -0.01   0.05
  30   6     0.10   0.12  -0.07     0.02   0.02  -0.02     0.01   0.01   0.01
  31   6     0.13   0.15  -0.05     0.02   0.03  -0.02     0.01   0.01   0.02
  32  16     0.05   0.08   0.06     0.00   0.01  -0.00     0.02   0.02   0.03
  33   8    -0.01   0.02   0.03    -0.01  -0.00   0.00     0.01   0.01   0.02
  34   8    -0.02   0.01   0.02    -0.01  -0.01  -0.01     0.02   0.02   0.03
  35   6     0.03   0.07   0.09     0.00   0.01   0.01     0.01   0.01   0.02
  36   6     0.06   0.12   0.16     0.00   0.01   0.01     0.00   0.01   0.01
  37   6     0.01   0.04   0.05    -0.00  -0.00  -0.00    -0.00  -0.00  -0.00
  38   6    -0.07  -0.08  -0.06    -0.01  -0.01  -0.01    -0.01  -0.01  -0.01
  39   6    -0.09  -0.09  -0.10    -0.01  -0.01  -0.01    -0.01  -0.00  -0.00
  40   6    -0.05  -0.05  -0.03    -0.01  -0.00  -0.00     0.00   0.01   0.01
  41   6    -0.09  -0.11  -0.11    -0.01  -0.01  -0.01    -0.01  -0.01  -0.01
  42   6    -0.06  -0.07  -0.07    -0.01  -0.01  -0.01    -0.00   0.00   0.00
  43   6     0.02   0.03   0.04    -0.00   0.00   0.00     0.01   0.01   0.01
  44   6     0.06   0.08   0.10     0.01   0.01   0.01     0.01   0.01   0.01
  45   6     0.01   0.00   0.03     0.00   0.00   0.01    -0.00  -0.01  -0.00
  46   6    -0.07  -0.09  -0.08    -0.01  -0.01  -0.01    -0.01  -0.01  -0.01
  47   7    -0.09  -0.12  -0.10    -0.01  -0.02  -0.01    -0.01  -0.02  -0.02
  48   6    -0.06  -0.08  -0.04    -0.01  -0.01  -0.01    -0.01  -0.01  -0.00
  49   6    -0.07  -0.04   0.06    -0.01  -0.01   0.01    -0.01  -0.00   0.00
  50   6    -0.04   0.02   0.08    -0.01   0.00   0.01    -0.01   0.00   0.01
  51   6    -0.01   0.04  -0.02    -0.00   0.00  -0.00     0.00   0.01   0.00
  52   6     0.01  -0.00  -0.10     0.00  -0.00  -0.01     0.01  -0.00  -0.01
  53   6    -0.01  -0.07  -0.09    -0.00  -0.01  -0.01     0.00  -0.01  -0.00
  54   6     0.10   0.11  -0.02     0.02   0.02  -0.01     0.00   0.00   0.02
  55   6    -0.03   0.02   0.03     0.02  -0.04  -0.06    -0.03   0.03   0.03
  56   6    -0.04   0.01  -0.00     0.03  -0.05  -0.07    -0.04   0.02   0.01
  57   6    -0.03  -0.01  -0.06     0.00   0.01   0.03    -0.03  -0.00  -0.04
  58   6    -0.02  -0.01  -0.06    -0.02   0.07   0.13    -0.03  -0.00  -0.05
  59   6    -0.03   0.02  -0.01    -0.01   0.03   0.06    -0.02   0.02  -0.02
  60   6    -0.03   0.03   0.03     0.02  -0.04  -0.06    -0.03   0.03   0.02
  61   1     0.04  -0.03  -0.02    -0.31   0.12   0.10    -0.02   0.01   0.01
  62   1    -0.04   0.05   0.01     0.17  -0.30  -0.02     0.01  -0.02  -0.00
  63   1    -0.05  -0.06   0.03     0.25   0.33  -0.15     0.02   0.02  -0.00
  64   1    -0.03  -0.01  -0.05     0.20   0.09   0.24     0.00   0.01   0.01
  65   1     0.04   0.07  -0.03    -0.23  -0.31   0.13    -0.04  -0.01   0.00
  66   1     0.01   0.01   0.04    -0.07   0.07  -0.30    -0.02   0.01  -0.03
  67   1     0.00  -0.02  -0.03     0.01  -0.02  -0.04    -0.01  -0.01  -0.01
  68   1     0.00  -0.01  -0.02     0.02  -0.04  -0.05    -0.00  -0.02  -0.03
  69   1    -0.01   0.01   0.02     0.00  -0.00  -0.00    -0.01  -0.00  -0.02
  70   1    -0.02   0.02   0.04    -0.01   0.02   0.03    -0.01   0.01   0.01
  71   1    -0.04  -0.04   0.01    -0.01  -0.01   0.00    -0.00   0.01   0.00
  72   1     0.08  -0.00   0.09     0.01   0.00   0.02     0.00  -0.00  -0.01
  73   1     0.10   0.01   0.12     0.02   0.00   0.03     0.03  -0.00   0.02
  74   1     0.02   0.00   0.03     0.00   0.00   0.01     0.05  -0.00   0.04
  75   1    -0.04  -0.01  -0.06    -0.01   0.00  -0.01     0.02  -0.01   0.01
  76   1     0.05  -0.01  -0.06     0.01   0.01  -0.02    -0.13  -0.42   0.17
  77   1     0.00  -0.03   0.00    -0.01  -0.01   0.00     0.37   0.02   0.01
  78   1     0.07  -0.06   0.00     0.02  -0.02   0.00    -0.29   0.19  -0.10
  79   1    -0.01   0.05   0.03    -0.01   0.02   0.02     0.02  -0.19  -0.21
  80   1    -0.05   0.00   0.01    -0.02  -0.01   0.01     0.11   0.31  -0.14
  81   1     0.01   0.03  -0.01     0.00   0.01  -0.01    -0.06   0.03   0.26
  82   1     0.03   0.00   0.02     0.00   0.00   0.01    -0.01  -0.00  -0.04
  83   1     0.06   0.00   0.06     0.01   0.00   0.02    -0.03  -0.02  -0.08
  84   1     0.03  -0.01   0.02     0.00   0.00   0.01     0.00  -0.01  -0.02
  85   1    -0.02  -0.02  -0.04    -0.01   0.00  -0.01     0.03  -0.01   0.03
  86   1     0.04   0.05  -0.03     0.01   0.01  -0.01     0.00   0.00   0.00
  87   1     0.03   0.06   0.07     0.00   0.00   0.01     0.00   0.00   0.01
  88   1     0.01   0.02   0.02    -0.00  -0.00  -0.00    -0.00  -0.00  -0.00
  89   1    -0.02  -0.03  -0.02    -0.00  -0.00  -0.00     0.00   0.00   0.00
  90   1    -0.02  -0.03  -0.03    -0.00  -0.00  -0.01     0.00   0.00   0.00
  91   1     0.02   0.03   0.03     0.00   0.00   0.00     0.00   0.01   0.01
  92   1     0.04   0.05   0.06     0.00   0.01   0.01     0.00   0.00   0.00
  93   1     0.01   0.01   0.02     0.00   0.00   0.00    -0.00  -0.00  -0.00
  94   1    -0.03  -0.02   0.04    -0.00  -0.00   0.01    -0.01  -0.00   0.00
  95   1    -0.01   0.01   0.05    -0.00   0.00   0.01    -0.00   0.00   0.01
  96   1     0.00   0.03  -0.01     0.00   0.00  -0.00     0.00   0.00   0.00
  97   1     0.01   0.00  -0.05     0.00   0.00  -0.01     0.00   0.00  -0.00
  98   1     0.00  -0.03  -0.03     0.00  -0.00  -0.00     0.00  -0.00  -0.00
  99   1     0.04   0.05  -0.00     0.01   0.01  -0.00     0.00  -0.00   0.01
 100   1    -0.01   0.00   0.00     0.01  -0.02  -0.03    -0.01   0.01   0.01
 101   1    -0.01  -0.01  -0.03    -0.00   0.01   0.02    -0.01  -0.00  -0.02
 102   1    -0.01  -0.01  -0.03    -0.01   0.04   0.07    -0.01  -0.01  -0.03
 103   1    -0.01   0.01  -0.00    -0.01   0.02   0.04    -0.01   0.01  -0.01
                     25                     26                     27
                        a                      a                      a 
 Frequencies --   136.6786               150.1255               167.3484
 Red. masses --    10.4830                11.0618                12.8531
 Frc consts  --     0.0000                 0.0000                 0.0000
 IR Inten    --     2.5878                 6.4759                 0.8187
 Raman Activ --     0.0000                 0.0000                 0.0000
 Depolar     --     0.0000                 0.0000                 0.0000
 Atom AN      X      Y      Z        X      Y      Z        X      Y      Z
   1   6     0.04  -0.03  -0.01     0.00  -0.00   0.01    -0.09   0.03  -0.10
   2   6     0.11  -0.08  -0.03    -0.00   0.01   0.01    -0.00  -0.04  -0.11
   3   6     0.17  -0.07   0.06     0.00   0.02  -0.00     0.05  -0.04  -0.03
   4   6     0.10  -0.06  -0.05    -0.00   0.00   0.02    -0.00  -0.06  -0.11
   5   6     0.10   0.01   0.07     0.02  -0.02  -0.01    -0.08   0.03   0.03
   6   6     0.09   0.04   0.18     0.02  -0.03  -0.01    -0.13   0.13   0.10
   7   6     0.10  -0.02   0.11    -0.00  -0.00   0.05    -0.08   0.05  -0.05
   8   6     0.11  -0.09  -0.01    -0.02   0.03   0.09     0.00  -0.05  -0.19
   9   6     0.10  -0.08  -0.07    -0.02   0.02   0.06     0.02  -0.07  -0.13
  10   7     0.06  -0.08  -0.11    -0.01  -0.00   0.03     0.03  -0.03  -0.03
  11   6     0.01  -0.04  -0.06    -0.00   0.01   0.01     0.01   0.02   0.10
  12   6    -0.06  -0.11  -0.05    -0.05  -0.10   0.05     0.06   0.08   0.10
  13   6    -0.04  -0.00  -0.06     0.01   0.01   0.01     0.03   0.00   0.08
  14   7    -0.10   0.02  -0.10     0.02  -0.01   0.01    -0.05  -0.00  -0.03
  15   6    -0.11   0.05  -0.07     0.02  -0.02  -0.01    -0.08  -0.02  -0.11
  16   6    -0.11   0.05  -0.01     0.02  -0.02  -0.03    -0.06  -0.02  -0.15
  17   6    -0.02   0.09   0.12     0.02  -0.03  -0.04     0.06  -0.02  -0.03
  18   6     0.04   0.11   0.18     0.01  -0.04  -0.06     0.15  -0.02   0.09
  19   6    -0.01   0.09   0.07    -0.00  -0.03  -0.05     0.05  -0.03   0.03
  20   6    -0.10   0.06  -0.05     0.01  -0.02  -0.01    -0.06  -0.03  -0.08
[...]
  71   1     0.00   0.00   0.01    -0.00   0.00   0.01    -0.01  -0.01  -0.08
  72   1    -0.06   0.04   0.05     0.02  -0.01  -0.02    -0.01   0.01   0.01
  73   1     0.06  -0.40   0.01     0.00  -0.00   0.00    -0.00   0.01  -0.00
  74   1    -0.30  -0.28   0.29     0.00   0.00  -0.00    -0.00  -0.00   0.00
  75   1    -0.21   0.12   0.15     0.00  -0.00  -0.00    -0.00   0.00   0.00
  76   1     0.00   0.00  -0.00    -0.00   0.00  -0.00     0.00  -0.00   0.00
  77   1     0.00   0.00  -0.00     0.00  -0.00   0.00    -0.00   0.00   0.00
  78   1    -0.01  -0.01   0.01     0.00   0.00  -0.00    -0.00  -0.00   0.00
  79   1    -0.01  -0.01   0.01     0.00   0.00  -0.00    -0.00  -0.00   0.00
  80   1     0.00   0.00   0.00     0.00   0.00   0.00    -0.00  -0.00  -0.00
  81   1     0.00  -0.00  -0.00     0.00  -0.00   0.00    -0.00   0.00   0.00
  82   1    -0.01   0.01   0.01    -0.01   0.00   0.00     0.01  -0.01  -0.01
  83   1    -0.00   0.02  -0.00    -0.00   0.03  -0.00     0.01  -0.08   0.01
  84   1     0.01   0.01  -0.01     0.05   0.04  -0.04    -0.12  -0.09   0.10
  85   1    -0.00   0.00   0.00     0.14  -0.09  -0.09    -0.31   0.21   0.19
  86   1    -0.01   0.00  -0.00     0.16  -0.07   0.09    -0.60   0.27  -0.35
  87   1     0.00  -0.00   0.00     0.01  -0.07   0.06     0.03  -0.17   0.14
  88   1    -0.03   0.02   0.00     0.01  -0.01  -0.00     0.04  -0.02  -0.00
  89   1    -0.01   0.00   0.00     0.03  -0.01  -0.00     0.00  -0.00  -0.00
  90   1    -0.02   0.00   0.01     0.02  -0.00  -0.01     0.02  -0.00  -0.01
  91   1    -0.00   0.01  -0.00     0.00  -0.01   0.00     0.01  -0.01   0.00
  92   1     0.00   0.00  -0.00    -0.00  -0.01   0.01    -0.00  -0.01   0.01
  93   1    -0.01   0.00   0.01    -0.01   0.00   0.00    -0.01   0.00   0.01
  94   1     0.01  -0.07  -0.01     0.00  -0.01  -0.00     0.00  -0.01  -0.00
  95   1    -0.05  -0.04   0.01    -0.00  -0.00   0.00    -0.00  -0.00   0.00
  96   1    -0.15   0.06   0.05    -0.01   0.00   0.00    -0.01   0.00   0.00
  97   1    -0.02   0.21   0.03    -0.00   0.00   0.00    -0.00   0.00   0.00
  98   1     0.43   0.34  -0.07     0.01   0.01  -0.00    -0.00  -0.00   0.00
  99   1    -0.00   0.00   0.00     0.55  -0.52  -0.47     0.17  -0.16  -0.15
 100   1     0.03  -0.01   0.02     0.13  -0.06   0.07    -0.10   0.05  -0.05
 101   1     0.00   0.02  -0.01    -0.00  -0.06   0.04     0.00   0.03  -0.02
 102   1     0.04   0.02  -0.00    -0.03  -0.01   0.00     0.01   0.00  -0.00
 103   1     0.02  -0.01   0.01    -0.01   0.00  -0.00    -0.00   0.00  -0.00
                    298                    299                    300
                        a                      a                      a 
 Frequencies --  3111.7721              3112.1989              3113.6912
 Red. masses --     1.8460                 1.8330                 1.8571
 Frc consts  --     0.0000                 0.0000                 0.0000
 IR Inten    --   305.7654               102.5617               194.2699
 Raman Activ --     0.0000                 0.0000                 0.0000
 Depolar     --     0.0000                 0.0000                 0.0000
 Atom AN      X      Y      Z        X      Y      Z        X      Y      Z
   1   6    -0.00  -0.00  -0.00     0.00  -0.00   0.00     0.00   0.00   0.00
   2   6    -0.00   0.00  -0.00     0.00  -0.00   0.00     0.00   0.00   0.00
   3   6    -0.00   0.00  -0.00     0.00  -0.00   0.00     0.00  -0.00  -0.00
   4   6     0.00  -0.00   0.00     0.00   0.00  -0.00    -0.00   0.00  -0.00
   5   6    -0.00   0.00  -0.00     0.00  -0.00   0.00     0.00  -0.00   0.00
   6   6     0.00   0.00  -0.00    -0.00  -0.00   0.00    -0.00   0.00  -0.00
   7   6     0.00   0.00  -0.00    -0.00  -0.00   0.00     0.01   0.00  -0.00
   8   6    -0.00  -0.00   0.00     0.00  -0.00   0.00     0.02  -0.01   0.01
   9   6     0.00   0.00  -0.00     0.00  -0.00   0.00    -0.00  -0.00   0.00
  10   7    -0.00   0.00   0.00     0.00  -0.00   0.00     0.00  -0.00   0.00
  11   6     0.00  -0.00  -0.00    -0.00   0.00  -0.00     0.00   0.00  -0.00
  12   6    -0.01   0.00  -0.01    -0.01  -0.01  -0.08     0.01   0.01   0.07
  13   6     0.00  -0.00  -0.00    -0.00   0.00  -0.00    -0.00   0.00   0.00
  14   7    -0.00   0.00   0.00     0.00  -0.00   0.00    -0.00   0.00   0.00
  15   6    -0.00  -0.00   0.00     0.00   0.00  -0.00     0.00  -0.00  -0.00
  16   6    -0.00   0.00   0.00     0.00  -0.00  -0.00     0.00  -0.00  -0.00
  17   6     0.00  -0.01   0.00     0.00  -0.00  -0.00    -0.00   0.00  -0.00
  18   6    -0.00  -0.00   0.00     0.00   0.00  -0.00     0.00   0.00  -0.00
  19   6    -0.00   0.00   0.00     0.00  -0.00  -0.00     0.00  -0.00  -0.00
  20   6     0.00   0.00  -0.00    -0.00  -0.00   0.00    -0.00  -0.00   0.00
  21   6    -0.00   0.00   0.00     0.00  -0.00  -0.00     0.00   0.00  -0.00
  22   6    -0.00   0.00   0.00    -0.00  -0.00  -0.00     0.00  -0.00  -0.00
  23   6    -0.00   0.00   0.00     0.00  -0.00  -0.00     0.00  -0.00  -0.00
  24   6     0.00  -0.00  -0.00    -0.00   0.00   0.00     0.00  -0.00  -0.00
  25   6     0.00  -0.00  -0.00    -0.00   0.00   0.00     0.00  -0.00  -0.00
  26   6     0.00  -0.02   0.00    -0.00   0.02  -0.00     0.00  -0.01   0.00
  27   6    -0.05  -0.03   0.04     0.03   0.02  -0.02    -0.02  -0.02   0.02
  28   6    -0.12   0.08   0.08     0.08  -0.05  -0.05    -0.06   0.04   0.04
  29   6    -0.00   0.01   0.00     0.00  -0.00  -0.00    -0.00   0.00   0.00
  30   6     0.07  -0.03   0.05    -0.10   0.04  -0.06    -0.01   0.01  -0.01
  31   6     0.00  -0.00  -0.00    -0.00   0.00  -0.00    -0.00   0.00  -0.00
  32  16     0.00   0.00   0.00    -0.00   0.00   0.00    -0.00   0.00   0.00
  33   8    -0.00  -0.00  -0.00     0.00  -0.00  -0.00     0.00  -0.00  -0.00
  34   8     0.00   0.00  -0.00     0.00  -0.00   0.00     0.00  -0.00  -0.00
  35   6     0.00   0.00  -0.00     0.00   0.00  -0.00     0.00   0.00  -0.00
  36   6    -0.02   0.13  -0.11    -0.02   0.14  -0.12    -0.00   0.01  -0.01
  37   6    -0.03   0.02  -0.00    -0.03   0.02  -0.00    -0.00   0.00  -0.00
  38   6     0.00  -0.00   0.00     0.00  -0.00   0.00     0.00  -0.00   0.00
  39   6    -0.00   0.00  -0.00    -0.00   0.00  -0.00     0.00   0.00  -0.00
  40   6     0.00  -0.00   0.00     0.00  -0.00   0.00    -0.00   0.00   0.00
  41   6    -0.00  -0.00   0.00    -0.00  -0.00   0.00     0.00  -0.00   0.00
  42   6    -0.01   0.00   0.00    -0.01   0.00   0.00    -0.00   0.00   0.00
  43   6    -0.00   0.00  -0.00    -0.00   0.00  -0.00    -0.00   0.00  -0.00
  44   6     0.00   0.00  -0.00     0.00   0.00  -0.00     0.00   0.00  -0.00
  45   6     0.00  -0.00  -0.00     0.00  -0.00  -0.00     0.00  -0.00  -0.00
  46   6     0.00   0.00  -0.00     0.00   0.00  -0.00     0.00   0.00  -0.00
  47   7     0.00   0.00  -0.00     0.00   0.00  -0.00     0.00   0.00  -0.00
  48   6    -0.00   0.00   0.00    -0.00   0.00   0.00    -0.00   0.00   0.00
  49   6    -0.00   0.00   0.00    -0.00   0.00   0.00    -0.00   0.00   0.00
  50   6     0.00   0.00  -0.00     0.00   0.00  -0.00     0.00   0.00  -0.00
  51   6     0.00  -0.00  -0.00     0.00  -0.00  -0.00     0.00  -0.00  -0.00
  52   6     0.00  -0.00  -0.00    -0.00  -0.00  -0.00     0.00  -0.00  -0.00
  53   6    -0.00  -0.00   0.00    -0.00  -0.00   0.00    -0.00  -0.00   0.00
  54   6     0.03  -0.03  -0.03     0.01  -0.01  -0.00    -0.02   0.02   0.02
  55   6    -0.00  -0.00  -0.00     0.00   0.00  -0.00     0.01   0.00   0.00
  56   6    -0.04   0.02  -0.02     0.03  -0.02   0.02     0.19  -0.09   0.10
  57   6     0.00   0.02  -0.01    -0.00  -0.01   0.01    -0.00  -0.07   0.04
  58   6     0.00   0.00   0.00    -0.00  -0.00  -0.00    -0.03  -0.01   0.00
  59   6     0.00  -0.00   0.00     0.00  -0.00   0.00    -0.00   0.00  -0.00
  60   6     0.00  -0.00   0.00    -0.00  -0.00  -0.00    -0.00   0.00  -0.00
  61   1    -0.00  -0.00   0.00     0.00   0.00  -0.00     0.00   0.00  -0.00
  62   1     0.00   0.00   0.00    -0.00  -0.00  -0.00    -0.00  -0.00  -0.00
  63   1    -0.00   0.00   0.00     0.00  -0.00  -0.00     0.00  -0.00  -0.00
  64   1    -0.00  -0.00   0.00     0.00   0.00  -0.00     0.00   0.00  -0.00
  65   1    -0.00  -0.00  -0.00     0.00   0.00   0.00     0.00   0.00   0.00
  66   1     0.00   0.00  -0.00    -0.00  -0.00   0.00    -0.00  -0.00   0.00
  67   1     0.01  -0.00   0.00    -0.01   0.00  -0.00    -0.00   0.00  -0.00
  68   1    -0.00  -0.01   0.01     0.00   0.01  -0.01     0.00  -0.00   0.00
  69   1    -0.00  -0.00   0.00     0.01   0.01  -0.00    -0.02  -0.01   0.00
  70   1     0.00   0.00   0.00    -0.01   0.00  -0.00    -0.06   0.03  -0.04
  71   1     0.01   0.01   0.05     0.04   0.05   0.28    -0.03  -0.04  -0.24
  72   1     0.00  -0.00  -0.00    -0.01   0.00   0.00    -0.01   0.00   0.00
  73   1    -0.00   0.02  -0.00    -0.00   0.00   0.00     0.00  -0.01   0.00
  74   1     0.01   0.01  -0.01    -0.00  -0.00   0.00    -0.01  -0.01   0.01
  75   1     0.01  -0.01  -0.01    -0.00   0.00   0.00    -0.01   0.00   0.00
  76   1    -0.00   0.00  -0.00     0.00  -0.00   0.00    -0.00   0.00  -0.00
  77   1     0.00  -0.00  -0.00    -0.00   0.00   0.00    -0.00   0.00  -0.00
  78   1     0.00   0.00  -0.00    -0.00  -0.00   0.00    -0.00  -0.00   0.00
  79   1     0.00   0.00  -0.00    -0.00  -0.00   0.00    -0.00  -0.00   0.00
  80   1     0.00   0.00   0.00     0.00  -0.00  -0.00     0.00   0.00   0.00
  81   1     0.00  -0.00   0.00    -0.00   0.00  -0.00    -0.00   0.00  -0.00
  82   1    -0.01   0.01   0.01     0.01  -0.00  -0.00    -0.01   0.01   0.01
  83   1    -0.01   0.08  -0.01     0.00  -0.05   0.00    -0.00   0.05  -0.00
  84   1     0.15   0.11  -0.12    -0.10  -0.07   0.08     0.07   0.05  -0.06
  85   1     0.43  -0.29  -0.27    -0.28   0.18   0.17     0.20  -0.13  -0.12
  86   1    -0.26   0.11  -0.15     0.35  -0.16   0.21     0.04  -0.02   0.03
  87   1     0.08  -0.44   0.37     0.09  -0.51   0.42     0.01  -0.04   0.04
  88   1     0.08  -0.05  -0.00     0.09  -0.05  -0.00     0.01  -0.00  -0.00
  89   1    -0.02   0.01   0.00    -0.01   0.00  -0.00     0.01  -0.00  -0.00
  90   1     0.02  -0.00  -0.01     0.02  -0.00  -0.01     0.01  -0.00  -0.00
  91   1     0.01  -0.01   0.00     0.01  -0.01   0.00     0.00  -0.00   0.00
  92   1    -0.00  -0.01   0.01    -0.00  -0.01   0.01    -0.00  -0.00   0.00
  93   1    -0.01   0.00   0.01    -0.01   0.00   0.01    -0.01   0.00   0.00
  94   1     0.00  -0.01  -0.00     0.00  -0.01  -0.00     0.00  -0.01  -0.00
  95   1    -0.01  -0.00   0.00    -0.00  -0.00   0.00    -0.00  -0.00   0.00
  96   1    -0.01   0.00   0.00    -0.01   0.00   0.00    -0.01   0.00   0.00
  97   1    -0.00   0.01   0.00    -0.00   0.01   0.00    -0.00   0.00   0.00
  98   1     0.01   0.01  -0.00     0.01   0.01  -0.00     0.01   0.00  -0.00
  99   1    -0.11   0.10   0.09    -0.03   0.03   0.02     0.06  -0.06  -0.05
 100   1     0.15  -0.07   0.08    -0.12   0.05  -0.06    -0.67   0.30  -0.36
 101   1    -0.00  -0.05   0.03     0.00   0.03  -0.02     0.01   0.23  -0.14
 102   1    -0.01  -0.01   0.00     0.00   0.00  -0.00     0.08   0.04  -0.01
 103   1     0.00  -0.00   0.00    -0.00   0.00  -0.00     0.01  -0.01   0.01
                    301                    302                    303
                        a                      a                      a 
 Frequencies --  3115.4457              3116.3717              3127.9139
 Red. masses --     1.8331                 1.8452                 1.8299
 Frc consts  --     0.0000                 0.0000                 0.0000
 IR Inten    --    34.1243               335.0984                88.9602
 Raman Activ --     0.0000                 0.0000                 0.0000
 Depolar     --     0.0000                 0.0000                 0.0000
 Atom AN      X      Y      Z        X      Y      Z        X      Y      Z
   1   6    -0.00   0.00   0.00     0.00  -0.00   0.00    -0.00  -0.00  -0.00
   2   6    -0.00  -0.00   0.00     0.00  -0.00   0.00    -0.00  -0.00   0.00
   3   6     0.00  -0.00   0.00     0.00  -0.00  -0.00    -0.00  -0.00   0.00
   4   6    -0.00   0.00  -0.00    -0.00   0.00  -0.00    -0.00   0.00  -0.00
   5   6    -0.00   0.00  -0.00    -0.00   0.00  -0.00    -0.00   0.00  -0.00
   6   6     0.00   0.01  -0.01    -0.00   0.02  -0.01    -0.00   0.00  -0.00
   7   6     0.04   0.02  -0.00     0.07   0.03  -0.00     0.01   0.00   0.00
   8   6     0.09  -0.05   0.06     0.17  -0.09   0.12     0.04  -0.02   0.03
   9   6    -0.00  -0.00   0.00     0.00  -0.01   0.00     0.00  -0.00   0.00
  10   7    -0.00  -0.00  -0.00     0.00  -0.00   0.00     0.00  -0.00   0.00
  11   6     0.00  -0.00   0.01    -0.00   0.00  -0.00    -0.00  -0.00  -0.00
  12   6     0.03   0.03   0.21    -0.02  -0.02  -0.12    -0.00  -0.00  -0.01
  13   6    -0.01   0.00   0.01     0.00  -0.00  -0.00     0.00  -0.00  -0.00
  14   7     0.00  -0.00  -0.00     0.00   0.00   0.00    -0.00   0.00   0.00
  15   6     0.00   0.00  -0.00     0.00   0.00  -0.00    -0.01  -0.00   0.01
  16   6     0.01  -0.00  -0.01     0.04  -0.02  -0.03    -0.18   0.11   0.15
  17   6    -0.00   0.00  -0.00     0.00  -0.02   0.00    -0.01   0.05  -0.00
  18   6     0.00   0.00  -0.00    -0.00  -0.00   0.00     0.01   0.00  -0.01
  19   6     0.00  -0.00  -0.00     0.00   0.00  -0.00    -0.00  -0.00   0.00
  20   6    -0.00  -0.00   0.00    -0.00   0.00   0.00     0.00   0.00  -0.00
  21   6     0.00  -0.00  -0.00     0.00  -0.00  -0.00    -0.00  -0.00   0.00
  22   6     0.00  -0.00   0.00    -0.00   0.00  -0.00    -0.00  -0.00   0.00
  23   6     0.00  -0.00  -0.00     0.00   0.00  -0.00    -0.00  -0.00   0.00
  24   6    -0.00   0.00   0.00    -0.00   0.00  -0.00     0.00  -0.00   0.00
  25   6    -0.00   0.00   0.00     0.00  -0.00  -0.00    -0.00   0.00   0.00
  26   6    -0.00   0.00   0.00     0.00  -0.00   0.00    -0.00   0.00  -0.00
  27   6     0.01   0.01  -0.01    -0.01  -0.00   0.00     0.00   0.00  -0.00
  28   6     0.02  -0.02  -0.01    -0.01   0.01   0.01     0.00  -0.00  -0.00
  29   6     0.00  -0.00   0.00    -0.00   0.00  -0.00    -0.00   0.00  -0.00
  30   6    -0.04   0.02  -0.03     0.01  -0.00   0.01     0.00  -0.00   0.00
  31   6    -0.00  -0.00  -0.00    -0.00   0.00   0.00    -0.00  -0.00  -0.00
  32  16    -0.00   0.00  -0.00     0.00   0.00   0.00     0.00   0.00   0.00
  33   8     0.00  -0.00   0.00     0.00  -0.00  -0.00    -0.00  -0.00  -0.00
  34   8     0.00  -0.00   0.00    -0.00   0.00  -0.00    -0.00   0.00  -0.00
  35   6     0.00   0.00  -0.00    -0.00  -0.00   0.00    -0.00  -0.00   0.00
  36   6    -0.01   0.04  -0.03     0.00  -0.02   0.02     0.00  -0.00   0.00
  37   6    -0.01   0.01   0.00     0.01  -0.00  -0.00     0.00  -0.00  -0.00
  38   6    -0.00  -0.00   0.00     0.00  -0.00  -0.00     0.00  -0.00  -0.00
  39   6     0.00  -0.00   0.00    -0.00   0.00  -0.00    -0.00   0.00  -0.00
  40   6     0.00  -0.00   0.00    -0.00   0.00   0.00     0.00  -0.00  -0.00
  41   6    -0.00   0.00  -0.00    -0.00  -0.00   0.00     0.00  -0.00   0.00
  42   6     0.00  -0.00  -0.00    -0.01   0.00   0.00    -0.00   0.00   0.00
  43   6     0.00  -0.00   0.00    -0.00   0.00  -0.00     0.00  -0.00  -0.00
  44   6    -0.00  -0.00   0.00     0.00   0.00  -0.00    -0.00   0.00  -0.00
  45   6    -0.00   0.00   0.00     0.00  -0.00  -0.00    -0.00  -0.00   0.00
  46   6    -0.00  -0.00   0.00     0.00   0.00  -0.00    -0.00   0.00  -0.00
  47   7    -0.00   0.00   0.00     0.00  -0.00  -0.00     0.00  -0.00   0.00
  48   6     0.00  -0.00  -0.00    -0.00   0.00   0.00    -0.00   0.00   0.00
  49   6    -0.00  -0.00  -0.00     0.00   0.00   0.00     0.00   0.00   0.00
  50   6    -0.00  -0.00   0.00     0.00   0.00  -0.00     0.00   0.00   0.00
  51   6    -0.00   0.00   0.00     0.00  -0.00  -0.00     0.00  -0.00  -0.00
  52   6     0.00   0.00   0.00    -0.00  -0.00  -0.00    -0.00   0.00   0.00
  53   6     0.00   0.00  -0.00    -0.00  -0.00   0.00     0.00  -0.00  -0.00
  54   6     0.01  -0.01  -0.01    -0.01   0.01   0.01     0.00  -0.00  -0.00
  55   6    -0.00  -0.00   0.00     0.00   0.00  -0.00     0.00  -0.00  -0.00
  56   6    -0.05   0.02  -0.03     0.00  -0.00   0.00     0.00  -0.00   0.00
  57   6     0.00   0.02  -0.01     0.00   0.00  -0.00    -0.00  -0.00   0.00
  58   6     0.01   0.00  -0.00     0.00   0.00  -0.00    -0.00  -0.00   0.00
  59   6     0.00  -0.00   0.00     0.00  -0.00   0.00    -0.00   0.00  -0.00
  60   6     0.00  -0.00   0.00    -0.00  -0.00  -0.00     0.00  -0.00   0.00
  61   1    -0.00   0.00  -0.00    -0.00   0.00  -0.00    -0.00   0.00  -0.00
  62   1    -0.00  -0.00   0.00    -0.00  -0.00   0.00     0.00   0.00   0.00
  63   1     0.00  -0.00  -0.00     0.00  -0.00  -0.00    -0.00   0.00   0.00
  64   1    -0.00   0.00  -0.00    -0.00   0.00  -0.00    -0.00   0.00  -0.00
  65   1     0.00   0.00   0.00     0.00   0.00   0.00    -0.00  -0.00  -0.00
  66   1    -0.00  -0.00   0.00    -0.00  -0.00   0.00     0.00   0.00   0.00
  67   1     0.00  -0.00   0.00     0.00  -0.00   0.00     0.00  -0.00   0.00
  68   1    -0.00  -0.03   0.02    -0.01  -0.05   0.03    -0.00  -0.01   0.00
  69   1    -0.12  -0.06   0.00    -0.20  -0.10   0.00    -0.03  -0.01   0.00
  70   1    -0.32   0.17  -0.21    -0.60   0.32  -0.41    -0.13   0.07  -0.09
  71   1    -0.11  -0.12  -0.75     0.06   0.07   0.41     0.01   0.01   0.05
  72   1    -0.02   0.02   0.02    -0.12   0.08   0.10     0.66  -0.40  -0.52
  73   1     0.00  -0.00   0.00    -0.01   0.05  -0.00     0.02  -0.16   0.00
  74   1    -0.00  -0.00   0.00     0.01   0.01  -0.01    -0.02  -0.02   0.02
  75   1    -0.00   0.00   0.00    -0.00   0.00   0.00     0.00  -0.00  -0.00
  76   1    -0.00   0.00  -0.00     0.00  -0.00   0.00    -0.00   0.00  -0.00
  77   1    -0.00   0.00   0.00    -0.00   0.00  -0.00     0.00  -0.00   0.00
  78   1    -0.00  -0.00   0.00    -0.00  -0.00   0.00     0.00   0.00  -0.00
  79   1    -0.00  -0.00   0.00    -0.00  -0.00   0.00     0.00   0.00  -0.00
  80   1     0.00   0.00   0.00    -0.00  -0.00  -0.00     0.00   0.00   0.00
  81   1    -0.00   0.00  -0.00    -0.00   0.00  -0.00     0.00  -0.00   0.00
  82   1    -0.00   0.00   0.00    -0.00   0.00   0.00     0.00  -0.00  -0.00
  83   1     0.00  -0.01   0.00    -0.00   0.01  -0.00     0.00  -0.00   0.00
  84   1    -0.02  -0.02   0.02     0.02   0.01  -0.01    -0.00  -0.00   0.00
  85   1    -0.08   0.05   0.05     0.05  -0.03  -0.03    -0.00   0.00   0.00
  86   1     0.14  -0.06   0.08    -0.04   0.02  -0.02    -0.01   0.01  -0.01
  87   1     0.03  -0.14   0.12    -0.01   0.08  -0.07    -0.00   0.01  -0.00
  88   1     0.03  -0.02  -0.00    -0.02   0.01   0.00    -0.00   0.00   0.00
  89   1    -0.01   0.00   0.00     0.00  -0.00  -0.00    -0.01   0.01   0.00
  90   1    -0.01   0.00   0.00     0.03  -0.00  -0.01    -0.00   0.00   0.00
  91   1    -0.01   0.01  -0.00     0.01  -0.01   0.00    -0.00   0.00  -0.00
  92   1     0.00   0.01  -0.01    -0.00  -0.01   0.01     0.00   0.00  -0.00
  93   1     0.01  -0.00  -0.01    -0.01   0.00   0.01     0.00  -0.00  -0.00
  94   1    -0.00   0.00   0.00     0.00  -0.01  -0.00     0.00  -0.00  -0.00
  95   1     0.00   0.00  -0.00    -0.00  -0.00   0.00    -0.00  -0.00   0.00
  96   1     0.01  -0.00  -0.00    -0.01   0.00   0.00    -0.00   0.00   0.00
  97   1     0.00  -0.00  -0.00    -0.00   0.01   0.00     0.00  -0.00  -0.00
  98   1    -0.00  -0.00   0.00     0.00   0.00  -0.00    -0.00  -0.00   0.00
  99   1    -0.02   0.02   0.02     0.05  -0.04  -0.04    -0.00   0.00   0.00
 100   1     0.18  -0.08   0.10    -0.02   0.01  -0.01    -0.01   0.00  -0.00
 101   1    -0.00  -0.06   0.04    -0.00  -0.00   0.00     0.00   0.00  -0.00
 102   1    -0.02  -0.01   0.00    -0.01  -0.01   0.00     0.00   0.00  -0.00
 103   1    -0.01   0.00  -0.00    -0.01   0.00  -0.00     0.00  -0.00   0.00
