$hessian                                                                        
        0.6286075583   0.0962615723   0.1128833390  -0.1847050751  -0.1349016342
        0.0727571056  -0.0547322444  -0.0147393278  -0.0066543926   0.0068846341
       -0.0074104586   0.0117426946  -0.0051434091   0.0004413259  -0.0013404446
        0.0008124725   0.0007556389  -0.0004336794   0.0000454707  -0.0001924981
       -0.0000457288  -0.0001821599  -0.0001530367  -0.0000545487   0.0003250695
       -0.0003668641  -0.0000367073  -0.0000578359   0.0005615102   0.0000971272
       -0.0000350710  -0.0004139890  -0.0001080936  -0.0003848777   0.0000675348
        0.0000322455   0.0003934739  -0.0000109052  -0.0000115055  -0.0001536934
       -0.0001621931   0.0000792234   0.0001191318  -0.0001327471   0.0000167516
       -0.0001931913   0.0000126967   0.0000256455   0.0001706348  -0.0000027438
       -0.0000221146   0.0000043149  -0.0000589687   0.0000240152   0.0000001217
        0.0000303852  -0.0000067184  -0.0000231681   0.0000150011   0.0000255725
       -0.0000063034  -0.0000153376   0.0000015042   0.0000185815  -0.0000154568
       -0.0000437201   0.0000286936   0.0000096462   0.0000041441  -0.0000009837
        0.0000622392  -0.0000116304  -0.0000040567  -0.0000291190   0.0000027546
       -0.0000262875  -0.0000102783  -0.0000145840  -0.0000052713   0.0000153679
        0.0000051406   0.0000240424   0.0000155167   0.0000205995   0.0000309604
       -0.0000078227  -0.0000027322   0.0001281697   0.0001215552  -0.0000331358
       -0.0001659777   0.0001635957  -0.0000321157  -0.0001782255   0.0004158800
       -0.0002372034  -0.0003508446  -0.0007465876  -0.0000337171   0.0002234043
        0.0005624783  -0.0000654566   0.0005757253   0.0003873543   0.0003158728
        0.0002440062  -0.0015491329   0.0008941910  -0.0126314061   0.0194798669
       -0.0249914037  -0.1108576492   0.0628501412  -0.0834038755  -0.2694734236
       -0.0097542806  -0.0844541329   0.0051905483   0.0041994694  -0.0031366165
       -0.0046277407  -0.0018019286  -0.0034136989  -0.0002114019  -0.0000330436
       -0.0000710607  -0.0000323656   0.0000084263  -0.0000094498   0.0000177701
        0.0000089085   0.0000227353   0.0000255488  -0.0000040072   0.0000133811
        0.0000022016   0.0000301986  -0.0000152045   0.0000157466   0.0000186162
       -0.0000057938   0.0000076594  -0.0000098159  -0.0000004554   0.0000214727
        0.0000061615  -0.0000110231   0.0000164792   0.0000151896  -0.0000008849
        0.0000023497   0.0000190607   0.0000104599  -0.0000012970   0.0000015733
        0.0000013588   0.0000082156   0.0000125088   0.0000051421   0.0000180348
       -0.0000048796   0.0000116831   0.0000163735  -0.0000137691   0.0000026546
        0.0000011172  -0.0000169218  -0.0000065738   0.0000004338   0.0000022005
        0.0000006730   0.0000162974  -0.0000150431   0.0000050809   0.0000105947
       -0.0000093301   0.0000080869  -0.0044399272  -0.0013310070  -0.0037540146
        0.0046165787  -0.0126384922   0.0134532341
        0.0962615723   0.4164512465  -0.2420415322  -0.0795450210  -0.1765665598
        0.0910540474  -0.0577417917   0.0109568744  -0.0321893890  -0.0071281318
       -0.0360360601   0.0237203269   0.0000648095  -0.0003018418  -0.0000145596
        0.0000520996  -0.0001501504  -0.0000382723  -0.0001563441  -0.0001412728
        0.0000452053  -0.0001219815  -0.0000503964   0.0000632889   0.0000557095
       -0.0000946236  -0.0000824643  -0.0000118902   0.0000669271   0.0000050167
        0.0001301540  -0.0000568731  -0.0000782414  -0.0000847544   0.0000533231
        0.0000410903   0.0000435357   0.0000046679  -0.0000373793  -0.0000012964
       -0.0000284848   0.0000119672   0.0000076627  -0.0000021197   0.0000084892
       -0.0000138070  -0.0000011484  -0.0000061291  -0.0000073057  -0.0000021184
        0.0000028084  -0.0000027882   0.0000015296   0.0000016755  -0.0000008344
        0.0000010970   0.0000036260  -0.0000008967   0.0000025681   0.0000026688
       -0.0000011939  -0.0000055317  -0.0000007889   0.0000034082  -0.0000053490
       -0.0000001499   0.0000049794  -0.0000004329  -0.0000045757  -0.0000080962
        0.0000008491   0.0000019445  -0.0000006988  -0.0000023213  -0.0000039120
       -0.0000024846   0.0000039064  -0.0000006775   0.0000013790   0.0000008174
        0.0000005653  -0.0000007595   0.0000030958   0.0000007896   0.0000023543
        0.0000002905   0.0000036861   0.0000160951   0.0000146666  -0.0000107093
       -0.0000304106   0.0000089761  -0.0000062933  -0.0001124045   0.0000215620
        0.0000258175   0.0000373191  -0.0001621184  -0.0001139308   0.0000573978
        0.0001348272   0.0000876377  -0.0001530207   0.0001615575  -0.0000313228
        0.0001801371   0.0000526311   0.0001484879   0.0624655700   0.0169044477
        0.0103666211   0.0063120736  -0.1701025507   0.1148974351  -0.0098055714
       -0.0398485618   0.0018557696  -0.0117385460  -0.0151016532   0.0094538173
       -0.0013692489   0.0045740662   0.0032835393  -0.0000927414   0.0001088239
       -0.0000834883  -0.0000141250   0.0000004329   0.0000013933  -0.0000041434
        0.0000097340  -0.0000223227   0.0000004385  -0.0000121671   0.0000401515
        0.0000052112   0.0000046919  -0.0000052461   0.0000030065   0.0000043636
       -0.0000028099   0.0000009829  -0.0000012925  -0.0000013422   0.0000019448
       -0.0000002894  -0.0000012444   0.0000026533   0.0000017232  -0.0000010818
        0.0000018005   0.0000016566  -0.0000000855  -0.0000004024   0.0000011367
        0.0000019329   0.0000020797   0.0000008309   0.0000003765   0.0000020596
       -0.0000014253  -0.0000000392  -0.0000008332  -0.0000007303  -0.0000003103
       -0.0000004694  -0.0000006499  -0.0000004524  -0.0000013328  -0.0000006757
       -0.0000010523  -0.0000000125  -0.0000000093   0.0000028895  -0.0000078384
        0.0000016707   0.0000025113  -0.0016675484   0.0043271891   0.0034259784
        0.0041122915  -0.0152047725   0.0162182473
        0.1128833390  -0.2420415322   0.3835232629   0.0185504828   0.0672889435
       -0.1045421327   0.0326948448  -0.0152840056   0.0290063902   0.0114365086
        0.0245353333  -0.0236620091  -0.0017178033   0.0003064536  -0.0008805436
        0.0002519498   0.0004858305  -0.0000717822   0.0001714065   0.0001532081
        0.0001239294   0.0000467579  -0.0000563779  -0.0000916989   0.0001127768
       -0.0000840859   0.0000575385  -0.0000310287   0.0002052014   0.0000379648
       -0.0001641505  -0.0001284556   0.0000241561  -0.0000722537  -0.0000237342
       -0.0000322805   0.0001099499  -0.0000113786   0.0000335829  -0.0000591419
       -0.0000438000   0.0000241685   0.0000298009  -0.0000469395  -0.0000018086
       -0.0000651976   0.0000064814   0.0000147957   0.0000739450  -0.0000009064
       -0.0000097772   0.0000021912  -0.0000267244   0.0000076097   0.0000058515
        0.0000149717  -0.0000080786  -0.0000113164   0.0000065139   0.0000117029
       -0.0000054054  -0.0000071724   0.0000018943   0.0000083055  -0.0000004250
       -0.0000196720   0.0000056475   0.0000084760   0.0000084559   0.0000054848
        0.0000230060  -0.0000071253   0.0000018443  -0.0000111791   0.0000059601
       -0.0000107089  -0.0000076950  -0.0000061280  -0.0000034964   0.0000082892
        0.0000023414   0.0000117926   0.0000041302   0.0000085897   0.0000091798
       -0.0000076743  -0.0000062692   0.0000354297   0.0000300525  -0.0000002946
       -0.0000426600   0.0000625210  -0.0000093912   0.0000686913   0.0001231179
       -0.0001066720  -0.0002267531  -0.0001058473   0.0000785552   0.0000104908
        0.0000342502  -0.0000948805   0.0000495940   0.0000792250   0.0001648460
       -0.0000715716  -0.0004606680   0.0002075437  -0.0638305652  -0.0068603918
       -0.0182962106  -0.0296288638   0.1372636398  -0.1857079804  -0.0844315240
        0.0019106270  -0.0689178339   0.0130585695   0.0169542783  -0.0094159306
       -0.0037450534   0.0029747619   0.0035472832   0.0001279879  -0.0000698257
        0.0001302016   0.0000034922   0.0000056264  -0.0000026008   0.0000155204
       -0.0000021597   0.0000336533   0.0000081012   0.0000120071  -0.0000333852
       -0.0000041099   0.0000087475  -0.0000018195   0.0000035176   0.0000024729
        0.0000003038   0.0000008744  -0.0000027979   0.0000014681   0.0000065706
        0.0000021445  -0.0000040834   0.0000044869   0.0000064900   0.0000004987
       -0.0000016703   0.0000063474   0.0000045577  -0.0000003186  -0.0000012442
       -0.0000019326   0.0000009932   0.0000045053   0.0000013392   0.0000066844
       -0.0000005921   0.0000048820   0.0000066549  -0.0000048932   0.0000011355
       -0.0000003887  -0.0000056333  -0.0000027406   0.0000023938   0.0000015934
        0.0000018078   0.0000061875  -0.0000056371  -0.0000021168   0.0000124837
       -0.0000067848   0.0000034145  -0.0033862435   0.0029140047   0.0036006758
       -0.0023305582   0.0098653095  -0.0087373304
       -0.1847050751  -0.0795450210   0.0185504828   0.6108371563   0.0931040644
        0.1117694233  -0.3057530651  -0.0449950204  -0.0641718779  -0.0190616553
        0.0553836407  -0.0587876289   0.0085835642  -0.0004472238   0.0005535082
       -0.0013512762  -0.0010720151   0.0010670846   0.0001080423   0.0005652922
        0.0000710620   0.0006313085   0.0003487975  -0.0000382081  -0.0006016417
        0.0007071545   0.0001077213   0.0001460103  -0.0010235321  -0.0002088531
        0.0001914629   0.0007070376   0.0004040853   0.0006661238  -0.0002352794
       -0.0000835337  -0.0005658096   0.0000266481   0.0000550820   0.0002425116
        0.0001925855  -0.0000816947  -0.0002082392   0.0001557198  -0.0000184697
        0.0002227364  -0.0000064508  -0.0000246385  -0.0001192267   0.0000098462
        0.0000220102  -0.0000234423   0.0000082168  -0.0000119037   0.0000209866
       -0.0000168500  -0.0000054512   0.0000079027  -0.0000162411  -0.0000110690
       -0.0000022527  -0.0000015309  -0.0000008515  -0.0000108123  -0.0000021399
        0.0000266456  -0.0000263279   0.0000111459   0.0000025105  -0.0000161745
       -0.0000220195   0.0000082536   0.0000195006   0.0000179522  -0.0000009332
        0.0000109786   0.0000145891   0.0000063993  -0.0000050016  -0.0000007856
       -0.0000040767  -0.0000203377  -0.0000028724  -0.0000108530  -0.0000298482
       -0.0000073910  -0.0000032954  -0.0001964086  -0.0001435809   0.0000445151
        0.0002473361  -0.0001951427   0.0000381116   0.0004035434  -0.0005351149
        0.0003084036   0.0004656909   0.0011592480   0.0001013636  -0.0004393960
       -0.0010863301   0.0000414844  -0.0006680841  -0.0006744700  -0.0001850318
       -0.0005474696   0.0024426914  -0.0018332993  -0.0504440272  -0.0183315339
        0.0011268341   0.0493058966  -0.0281978758   0.0460594223  -0.0215728645
       -0.0193586879   0.0089349151  -0.0647977979   0.0453143282  -0.0538085063
       -0.0216147216  -0.0036136875  -0.0064134935  -0.0002598778  -0.0004772650
       -0.0003893606   0.0000074262   0.0000147495  -0.0000010863   0.0000178114
        0.0000143513   0.0000177837   0.0000066335   0.0000262218  -0.0000755919
       -0.0000085845  -0.0000077880  -0.0000134313   0.0000003528  -0.0000018815
       -0.0000269641  -0.0000017296   0.0000000122  -0.0000094201  -0.0000055575
       -0.0000033109  -0.0000004749  -0.0000017199  -0.0000037437  -0.0000021356
        0.0000020002  -0.0000050237  -0.0000039565   0.0000020678   0.0000017449
        0.0000072098   0.0000008142  -0.0000015494   0.0000056692  -0.0000082541
        0.0000009790  -0.0000033728  -0.0000065009   0.0000028770  -0.0000015378
       -0.0000019732   0.0000065392   0.0000018818  -0.0000037578  -0.0000033317
       -0.0000090215   0.0000017702   0.0000010421   0.0000183104  -0.0000085701
        0.0000036767   0.0000031937  -0.0002134672  -0.0005856347  -0.0002006313
        0.0011513207   0.0003791736  -0.0029127134
       -0.1349016342  -0.1765665598   0.0672889435   0.0931040644   0.4202303497
       -0.2549947098   0.0117169178  -0.0730404051   0.0302052463   0.0153059964
        0.0157290439  -0.0057039221   0.0036889151   0.0004761442   0.0063099734
        0.0000903903  -0.0005369334   0.0003848671  -0.0000378704   0.0000588106
       -0.0001642447   0.0001077890   0.0001762970   0.0000982291  -0.0002822473
        0.0003126477   0.0000185758   0.0000962819  -0.0005089540  -0.0000811632
        0.0001994381   0.0004156661   0.0000356964   0.0003491511   0.0000264913
        0.0001204503  -0.0003953425   0.0000284499  -0.0001203311   0.0001654877
        0.0001247411  -0.0001102365  -0.0001197649   0.0001742754  -0.0000183753
        0.0002468831   0.0000058699  -0.0000328724  -0.0002216358  -0.0000044331
        0.0000244812   0.0000281532   0.0000887915  -0.0000412683   0.0000021362
       -0.0000391574  -0.0000019427   0.0000291267  -0.0000054835  -0.0000247106
        0.0000050499   0.0000139847  -0.0000002018  -0.0000136393   0.0000243998
        0.0000374515  -0.0000336617  -0.0000142363   0.0000034262   0.0000262173
       -0.0000809538   0.0000182783   0.0000112886   0.0000368590   0.0000047536
        0.0000311669   0.0000104296   0.0000189297   0.0000040219  -0.0000166391
       -0.0000048943  -0.0000199900  -0.0000259969  -0.0000203821  -0.0000386001
        0.0000114815   0.0000017020  -0.0001584556  -0.0001216877   0.0000624947
        0.0001605917  -0.0002049586   0.0000390629   0.0004084588  -0.0005264797
       -0.0001792251   0.0002217766   0.0007093836   0.0003294143  -0.0004693040
       -0.0003548757   0.0000163646  -0.0002625492  -0.0004644724  -0.0002149657
       -0.0000373971   0.0014441720  -0.0013552925  -0.0223304706  -0.0085488040
       -0.0044135783   0.0114887254  -0.0379906500   0.0408028083  -0.0025390441
       -0.0008283364   0.0009842665   0.0443420883  -0.1397623261   0.1204204820
       -0.0195497056  -0.0015576109  -0.0053368958  -0.0000768885   0.0000331891
       -0.0000789277   0.0000123266  -0.0000197736  -0.0000015747  -0.0000212531
       -0.0000129096  -0.0000402503  -0.0000186837  -0.0000107404   0.0000283522
        0.0000224662  -0.0000223380  -0.0000024502  -0.0000115091  -0.0000126132
        0.0000083607  -0.0000062436   0.0000111346  -0.0000011762  -0.0000204458
       -0.0000052332   0.0000127144  -0.0000153203  -0.0000163081   0.0000018490
       -0.0000003905  -0.0000187838  -0.0000091796   0.0000038654   0.0000003662
        0.0000043680  -0.0000050104  -0.0000109530   0.0000000047  -0.0000183078
        0.0000058673  -0.0000093356  -0.0000135285   0.0000172703  -0.0000016541
        0.0000025435   0.0000181998   0.0000066216   0.0000044889  -0.0000035424
       -0.0000066660  -0.0000166374   0.0000165676   0.0000037903  -0.0000000424
        0.0000090044  -0.0000142089  -0.0002620771   0.0001711405  -0.0005328805
        0.0000218439   0.0009521206   0.0062255570
        0.0727571056   0.0910540474  -0.1045421327   0.1117694233  -0.2549947098
        0.4039539235  -0.1150869401   0.0092118267  -0.1014744420  -0.0247338764
        0.0065014274  -0.0155479528  -0.0012758658   0.0059881787   0.0005652248
        0.0006501161  -0.0000240654   0.0001577239   0.0000227846  -0.0000196424
        0.0000934725   0.0000057681  -0.0001819239  -0.0000337807   0.0000415971
       -0.0000554477  -0.0000188450  -0.0000078067   0.0000414442   0.0000181345
        0.0000298954   0.0001309122  -0.0000386875  -0.0000827387   0.0000102447
        0.0000191044   0.0001059098  -0.0000126957  -0.0000372054  -0.0000516014
       -0.0000611373   0.0000323470   0.0000351876  -0.0000747432   0.0000187271
       -0.0001085611   0.0000058017   0.0000152926   0.0001114467   0.0000037488
       -0.0000117025  -0.0000160310  -0.0000537625   0.0000158594   0.0000025864
        0.0000305935  -0.0000026165  -0.0000226785   0.0000078875   0.0000233329
       -0.0000080614  -0.0000193368  -0.0000006804   0.0000154962  -0.0000208947
       -0.0000307923   0.0000239206   0.0000138898   0.0000027732  -0.0000143556
        0.0000451133  -0.0000087847  -0.0000031853  -0.0000265494  -0.0000003779
       -0.0000252303  -0.0000089471  -0.0000149764  -0.0000080050   0.0000178204
        0.0000036500   0.0000186437   0.0000173853   0.0000183203   0.0000230784
       -0.0000106710  -0.0000031268   0.0000479996   0.0000697146  -0.0000071743
       -0.0000624266   0.0000637961  -0.0000202188  -0.0000200302   0.0003064383
       -0.0001152408  -0.0000900600   0.0001525618   0.0000519270   0.0000741486
       -0.0002437081  -0.0000280256  -0.0002242243  -0.0002828610   0.0000521342
       -0.0015857917   0.0005088793  -0.0004922362   0.0031574259  -0.0036790967
       -0.0008064881   0.0081113984   0.0247983811  -0.0182772605  -0.0067264964
       -0.0060261997   0.0037954879  -0.0546058686   0.1199309263  -0.1720027724
        0.0102966092   0.0011641303   0.0037643975  -0.0001757981  -0.0002573049
       -0.0001550822  -0.0000085236   0.0000564183   0.0000116036   0.0000270593
        0.0000268450   0.0000061359   0.0000283364   0.0000050875   0.0000371744
       -0.0000214444   0.0000111334  -0.0000093545   0.0000125843   0.0000166964
       -0.0000084298   0.0000045737  -0.0000096361  -0.0000016412   0.0000171707
        0.0000035167  -0.0000114804   0.0000137962   0.0000146116  -0.0000027790
        0.0000005651   0.0000156039   0.0000074526  -0.0000031221   0.0000008573
       -0.0000019478   0.0000051334   0.0000098655   0.0000022904   0.0000149576
       -0.0000048504   0.0000082328   0.0000102867  -0.0000140383   0.0000015875
       -0.0000036229  -0.0000131717  -0.0000048791  -0.0000044299   0.0000022746
        0.0000023201   0.0000121570  -0.0000112800   0.0000066094   0.0000035481
       -0.0000069096   0.0000041756   0.0001662347  -0.0005829766   0.0001830298
       -0.0026401685   0.0064585001   0.0008386695
       -0.0547322444  -0.0577417917   0.0326948448  -0.3057530651   0.0117169178
       -0.1150869401   0.6321721266   0.1115542390   0.0968844273  -0.0880305935
        0.0105264653  -0.0276168181  -0.0289226802   0.0192803970  -0.0256068412
        0.0014832515   0.0031046374  -0.0010424367  -0.0008987692  -0.0013785759
       -0.0007778937  -0.0002901336  -0.0000662735  -0.0002138256   0.0006181837
       -0.0008283066  -0.0000189188  -0.0001054808   0.0012923584   0.0002747124
       -0.0004191281  -0.0008748668  -0.0001914964  -0.0005667230   0.0002339678
       -0.0000676943   0.0007574798  -0.0000869635   0.0000402878  -0.0003244093
       -0.0001600173   0.0001040587   0.0002220487  -0.0001758507   0.0000334736
       -0.0003386905  -0.0000059818   0.0000258752   0.0001601107  -0.0000258633
       -0.0000052861  -0.0000119793   0.0000232131   0.0000182289  -0.0000428323
       -0.0000051071   0.0000275579   0.0000021838   0.0000014056  -0.0000000813
        0.0000074628   0.0000109989  -0.0000008946  -0.0000116415  -0.0000029496
        0.0000194043   0.0000264952  -0.0000328787  -0.0000209795  -0.0000174341
       -0.0000025113  -0.0000188441  -0.0000456791  -0.0000010520  -0.0000125916
        0.0000030576   0.0000007072  -0.0000006341   0.0000133957  -0.0000142739
        0.0000005392  -0.0000107796   0.0000061679  -0.0000015941   0.0000316835
        0.0000230688   0.0000121542   0.0002628137   0.0001254342  -0.0000860629
       -0.0003045222   0.0002857540  -0.0000501803  -0.0010027918   0.0017273406
        0.0000864489  -0.0011519737  -0.0011845213  -0.0002779765   0.0004636522
        0.0011862786   0.0000074812   0.0013868198   0.0012498006   0.0002644423
       -0.0032361288  -0.0055950682   0.0001868671   0.0422517453   0.0038570350
        0.0080451928  -0.0298128010   0.0181074149  -0.0267044737  -0.0013988671
       -0.0043382693   0.0002427765  -0.0104936644   0.0007088862  -0.0063582098
       -0.1506871529  -0.1084689594   0.0651544643   0.0002183500  -0.0008272642
       -0.0006220178   0.0000385889  -0.0000496323  -0.0000607262   0.0000138679
       -0.0000267954   0.0000505889   0.0000022346  -0.0000093694  -0.0000199525
       -0.0000042009  -0.0000043949   0.0000272177  -0.0000227799  -0.0000091929
        0.0000291460  -0.0000015099   0.0000047962   0.0000088374  -0.0000049421
       -0.0000003299   0.0000033459  -0.0000084029  -0.0000025309   0.0000012783
       -0.0000051300  -0.0000025710  -0.0000031895  -0.0000032154   0.0000033599
       -0.0000100493  -0.0000032199  -0.0000039512  -0.0000116333  -0.0000014730
        0.0000006447  -0.0000037731  -0.0000016781   0.0000009235  -0.0000013394
        0.0000016621  -0.0000032983  -0.0000024652   0.0000037068  -0.0000007704
        0.0000066238  -0.0000082245  -0.0000105979  -0.0000296236   0.0000354895
       -0.0000216885   0.0000177692  -0.0015576836  -0.0038948146   0.0009015385
        0.0000562153   0.0008250711  -0.0002441394
       -0.0147393278   0.0109568744  -0.0152840056  -0.0449950204  -0.0730404051
        0.0092118267   0.1115542390   0.3981218318  -0.2335389707   0.0366599499
       -0.1550060873   0.1139991237   0.0225103788   0.0001063893   0.0086218882
       -0.0027933978  -0.0039581772   0.0008204123  -0.0021897984  -0.0003175629
       -0.0010956821   0.0003235665   0.0004385247   0.0002518136  -0.0009531292
        0.0009009256  -0.0000082195   0.0002292275  -0.0015707546  -0.0003262092
        0.0008943404   0.0009206513   0.0000491313   0.0007010453  -0.0000767827
       -0.0000162494  -0.0009803961   0.0000099936   0.0001107596   0.0004272136
        0.0004451345  -0.0001867214  -0.0003996865   0.0003539395  -0.0000501961
        0.0007186027  -0.0000267668  -0.0000705906  -0.0004128734  -0.0000095249
        0.0000527405   0.0000500365   0.0000439121  -0.0000532049   0.0000768691
       -0.0000624626  -0.0000404947   0.0000359781  -0.0000134759  -0.0000448158
       -0.0000019530   0.0000160893   0.0000074311  -0.0000112729   0.0000500408
        0.0000183491  -0.0000994734   0.0000265996   0.0000367305   0.0000456826
       -0.0000217840   0.0000380510   0.0000934171   0.0000542553   0.0000235879
        0.0000454103   0.0000184433   0.0000380614  -0.0000023485  -0.0000180581
       -0.0000034053  -0.0000228083  -0.0000436556  -0.0000304410  -0.0001179120
       -0.0000353160  -0.0000098620  -0.0003689913  -0.0003458810   0.0001319104
        0.0004570558  -0.0004068861   0.0000619465   0.0010287196  -0.0007601950
        0.0004590716   0.0005586675   0.0016656522  -0.0001243418  -0.0013193227
       -0.0007047958  -0.0000849764  -0.0005069030  -0.0018930836  -0.0002047450
       -0.0018003403   0.0047516560  -0.0013697924  -0.0205008368  -0.0301074151
        0.0241163169   0.0144390539  -0.0061959169   0.0071507435  -0.0044175113
        0.0006501325   0.0045537850   0.0175884143  -0.0002216053   0.0079701644
       -0.1083179806  -0.1445094474   0.0715881359  -0.0000965840  -0.0002926530
       -0.0008008030   0.0000478533  -0.0000702790  -0.0000226576  -0.0000339014
       -0.0000000812  -0.0000636216   0.0000210907   0.0000088824   0.0000326088
       -0.0000096439  -0.0000830067   0.0000019577  -0.0000175250  -0.0000421676
       -0.0000306279  -0.0000107525   0.0000150688  -0.0000143155  -0.0000283195
       -0.0000045630   0.0000144659  -0.0000158361  -0.0000226663   0.0000020877
        0.0000029018  -0.0000282994  -0.0000132198   0.0000108026  -0.0000019924
        0.0000160097  -0.0000037651  -0.0000087200   0.0000178533  -0.0000240646
        0.0000083915  -0.0000065623  -0.0000102756   0.0000247905   0.0000010431
        0.0000079810   0.0000309728   0.0000114016   0.0000130153   0.0000039624
       -0.0000203548   0.0000087729   0.0000257876   0.0000411749  -0.0000112005
        0.0000068279   0.0000182593  -0.0040323037   0.0001384665   0.0044547628
        0.0006951699   0.0001062720  -0.0004085194
       -0.0066543926  -0.0321893890   0.0290063902  -0.0641718779   0.0302052463
       -0.1014744420   0.0968844273  -0.2335389707   0.3837471727  -0.0649692544
        0.1059988863  -0.1743927002  -0.0196786640   0.0087189429  -0.0122342478
        0.0024263843   0.0013850206  -0.0015461235  -0.0001936023  -0.0011146622
       -0.0012090799  -0.0004991207  -0.0001057820  -0.0001629591   0.0004964062
       -0.0006853221   0.0000564039  -0.0000968144   0.0008973430   0.0002195392
       -0.0000889683  -0.0003529584  -0.0001202003  -0.0004710896   0.0001584590
       -0.0001175111   0.0006207318  -0.0000084396   0.0000804093  -0.0002386230
       -0.0001971751   0.0001279962   0.0002037781  -0.0001829017   0.0000340812
       -0.0003485854   0.0000098505   0.0000165180   0.0001695592   0.0000070444
       -0.0000110392  -0.0000424357  -0.0000176127   0.0000263666  -0.0000377864
        0.0000201879   0.0000278202  -0.0000119280  -0.0000040543   0.0000163637
        0.0000018193  -0.0000044655  -0.0000023451  -0.0000053293  -0.0000252630
        0.0000117159   0.0000431543  -0.0000173630  -0.0000251265  -0.0000361346
        0.0000005377  -0.0000179183  -0.0000485629  -0.0000170604  -0.0000143672
       -0.0000138921  -0.0000000926  -0.0000130741   0.0000037553   0.0000047162
        0.0000012160  -0.0000018166   0.0000192253   0.0000091283   0.0000489801
        0.0000196891   0.0000061250   0.0002087592   0.0001457246  -0.0000983703
       -0.0002471390   0.0002389514  -0.0000441709  -0.0008129514   0.0009267326
       -0.0002031518  -0.0005362029  -0.0009760536  -0.0002412879   0.0004829323
        0.0009819353  -0.0001716627   0.0010282693   0.0010696212   0.0005015723
       -0.0003417249  -0.0043371348   0.0029811581   0.0389879455   0.0335275778
       -0.0174148639  -0.0244321637   0.0090261804  -0.0237620484   0.0007445493
        0.0048947705   0.0034539853  -0.0216164141   0.0012584789  -0.0095680821
        0.0649734533   0.0709903936  -0.0795893911  -0.0013189591  -0.0014651064
       -0.0012831511  -0.0000399432   0.0000431253  -0.0000487974  -0.0000522178
       -0.0000167141   0.0000134411  -0.0000149580   0.0000084548  -0.0000037532
        0.0000102450   0.0000306266  -0.0000022312   0.0000006093   0.0000121716
        0.0000123583   0.0000034758  -0.0000045127   0.0000070519   0.0000079470
        0.0000008275  -0.0000033397   0.0000032091   0.0000075910   0.0000006025
       -0.0000019690   0.0000104107   0.0000050079  -0.0000056780   0.0000007406
       -0.0000056486   0.0000013678   0.0000016586  -0.0000081516   0.0000071792
       -0.0000031341   0.0000014464   0.0000017450  -0.0000090572  -0.0000006865
       -0.0000033059  -0.0000111139  -0.0000055460  -0.0000046703  -0.0000043317
        0.0000065847  -0.0000060530  -0.0000135575  -0.0000229306   0.0000102890
       -0.0000081540   0.0000002986   0.0002146845   0.0046369170   0.0033330115
       -0.0005424281   0.0000523429   0.0001146345
        0.0068846341  -0.0071281318   0.0114365086  -0.0190616553   0.0153059964
       -0.0247338764  -0.0880305935   0.0366599499  -0.0649692544   0.5617704021
        0.0847055182   0.0918891642  -0.1981497742  -0.0081020185  -0.0513931813
       -0.0258289312  -0.0205856530  -0.0015748370  -0.0026276062   0.0040689093
       -0.0000663352   0.0007010457   0.0005956175   0.0006509560  -0.0023476062
        0.0030107649   0.0000019371  -0.0001413132  -0.0049741523  -0.0010754761
        0.0031853475   0.0013160536  -0.0006488241   0.0015748382  -0.0003762005
        0.0005166825  -0.0023388419   0.0001020699  -0.0002066711   0.0010550085
        0.0007171450  -0.0004831169  -0.0007707359   0.0007498018  -0.0000669969
        0.0009849096   0.0000057874  -0.0001232359  -0.0004955393   0.0000042301
        0.0000756453  -0.0000052843   0.0000790539  -0.0000646544   0.0000992760
       -0.0000822369  -0.0000396408   0.0000553564  -0.0000574785  -0.0000488519
        0.0000009737   0.0000056064   0.0000021392  -0.0000545570   0.0000071086
        0.0001149924  -0.0001243770   0.0000561357   0.0000605090  -0.0000107286
       -0.0000744730   0.0000244084   0.0001278599   0.0000776563   0.0000259908
        0.0000623760   0.0000666585   0.0000452012  -0.0000104822  -0.0000129240
       -0.0000134814  -0.0000716388  -0.0000326322  -0.0000425580  -0.0001566763
       -0.0000499017  -0.0000347808  -0.0008560879  -0.0006053828   0.0002804613
        0.0010524831  -0.0009896678   0.0001450755   0.0040641968  -0.0017948340
        0.0000440771   0.0021693572   0.0059517100   0.0007962935  -0.0030881081
       -0.0028717140   0.0003531139  -0.0036491042  -0.0071885957  -0.0006798678
       -0.0249912906   0.0273825405  -0.0191738743  -0.1574210884  -0.1032434547
        0.0644644811  -0.0551934772  -0.0128763575  -0.0097550762   0.0006953790
        0.0000933239   0.0005277881  -0.0046826768  -0.0007511414  -0.0032047139
        0.0040166747  -0.0105656491   0.0142082639   0.0009058358   0.0003164951
       -0.0000445999   0.0000505680   0.0001948210   0.0001234061   0.0000811952
        0.0001235732  -0.0001923475  -0.0000045114  -0.0001383449   0.0002710103
       -0.0000072108  -0.0000813493  -0.0000644781   0.0000342770  -0.0000092174
       -0.0000702733  -0.0000065108   0.0000065198  -0.0000344436  -0.0000219796
       -0.0000099546   0.0000084576  -0.0000078498  -0.0000249127   0.0000008342
        0.0000055061  -0.0000304423  -0.0000080928   0.0000174220  -0.0000051062
        0.0000263658   0.0000013633  -0.0000088250   0.0000338761  -0.0000338584
        0.0000084701  -0.0000024641  -0.0000097511   0.0000249822  -0.0000019058
        0.0000039002   0.0000321018   0.0000079115   0.0000077750  -0.0000014349
       -0.0000346882   0.0000339986   0.0000317080   0.0000966016  -0.0000435899
       -0.0000032625  -0.0000239040   0.0050801112   0.0029667550  -0.0032814140
       -0.0044786348  -0.0019916150  -0.0040742364
       -0.0074104586  -0.0360360601   0.0245353333   0.0553836407   0.0157290439
        0.0065014274   0.0105264653  -0.1550060873   0.1059988863   0.0847055182
        0.4334126860  -0.2179588176  -0.0047520324  -0.0657783341   0.0032564274