145
 energy: -197.198432548419 gnorm: 0.000040122402 xtb: 6.7.1 (edcfbbe)
C           -0.02461505910242        8.22105576392191       -0.03752117920299
C           -0.02639967853818        6.72205708337217       -0.01928597078910
C           -0.98409780854422        6.00579128540671        0.68672895831020
C           -0.97932276511849        4.62411175196796        0.70105061848225
C           -0.01320323563832        3.91381763034859       -0.00906744932425
N           -0.00892841930037        2.51537467345937       -0.00704296371666
C            1.19515517519490        1.80343122538636       -0.06281987224071
C            1.28332583293050        0.64017087934508       -0.82808260787527
C            2.45345734670265       -0.08843629973077       -0.86087268415500
C            3.57337593299896        0.32192956129822       -0.14369218223129
C            4.81013861260298       -0.55074893017977       -0.11234869029712
C            5.13091316174729       -1.14349079189868       -1.46614959810327
C            4.98516346456827       -0.39489684412090       -2.63066676933246
C            5.35509825495070       -0.94904015152703       -3.84413490756101
C            5.86491657873382       -2.23828011394099       -3.85115926056810
N            6.01392520046631       -2.96011409361325       -2.75254902959520
C            5.66003193326771       -2.42409184428580       -1.59733874744921
C            4.61841263120750       -1.59747120602584        0.97174777212285
C            3.60952338937314       -2.52306479553534        1.09547673650158
C            3.58641729550532       -3.39546970347800        2.18677964376030
C            2.45007886225519       -4.40170743750642        2.29617032596080
C            1.11770625039260       -3.63987576321736        2.36718895255348
C            2.55830192281707       -5.28893683772240        3.53996316732709
C            2.46252606051006       -5.31086781210236        1.05789643142050
C            4.60472090521902       -3.29839543853757        3.13033912726305
C            5.62289333438449       -2.36355586279659        3.01857689751312
C            5.63011892659339       -1.50214875217493        1.93667027693508
C            6.53038043150696       -0.42711363008441        1.55892770011135
C            7.68058284777671        0.06491433565717        2.15272071570522
C            8.34004451975341        1.12420699270098        1.55560345470821
C            7.88657569287210        1.71495592772945        0.37557910090908
C            8.66539288239351        2.87732586808362       -0.22293501771028
C            8.03435147073655        3.40880581484370       -1.51377030841814
C            8.71275110369374        4.02812820101662        0.79368013489694
C           10.09267723027765        2.41064452934841       -0.54675825710266
C            6.72879863062620        1.20944556341998       -0.21289092069678
C            6.06204370407115        0.15703657902067        0.37646771901143
C            3.48713430276670        1.48729546020617        0.60775725886709
C            2.31820994926655        2.22269782624617        0.64765947531480
C           -1.20900522269693        1.79672834346099        0.04834569673277
C           -1.29007043835905        0.63156267667592        0.81150952748990
C           -2.45626562022596       -0.10343649293811        0.84424046693589
C           -3.57935948224799        0.30257980421245        0.12959916013466
C           -4.81267118565350       -0.57494498326880        0.09962982012838
C           -5.12959728835306       -1.17074955123352        1.45296699097335
C           -4.98125394568399       -0.42506070050147        2.61893760823376
C           -5.34943727099729       -0.98151992831245        3.83185703795118
C           -5.85986310863011       -2.27051662050156        3.83689590477243
N           -6.01091801195927       -2.98987969233091        2.73699210738320
C           -5.65905673081804       -2.45140993259974        1.58236327598697
C           -4.62121943778224       -1.61973430415473       -0.98635301190781
C           -3.61010517972075       -2.54252199921229       -1.11291082414553
C           -3.58759724146165       -3.41489460620577       -2.20422376719373
C           -2.44942976793754       -4.41875685627226       -2.31611182296636
C           -2.55800933673624       -5.30547673576111       -3.56022924590371
C           -2.45844336381108       -5.32859898853333       -1.07830103651658
C           -1.11849408797911       -3.65457716847524       -2.38872587222377
C           -4.60872018729705       -3.32048235167712       -3.14501014775875
C           -5.62909447136865       -2.38839399173787       -3.03041836624882
C           -5.63592761509295       -1.52708154615594       -1.94839801055712
C           -6.53885822915812       -0.45503709202958       -1.56820012125276
C           -7.69022214123254        0.03447247185703       -2.15731878611797
C           -8.35648470950437        1.09420554120826       -1.56055952985962
C           -7.90162638794893        1.68244059068313       -0.38429902558178
C           -8.61406306972673        2.84744731890454        0.28697050683379
C           -9.88336216179949        3.27603568744357       -0.45546636027447
C           -9.01233990797612        2.43635399107681        1.71275126139835
C           -7.66078835818618        4.05120084555921        0.33915421187952
C           -6.73774296951675        1.17738215901365        0.20132362585097
C           -6.06769204547801        0.12972751772438       -0.38486579588807
C           -3.50015746590473        1.46971563218679       -0.61997290459677
C           -2.33508799659947        2.21104597098624       -0.66031418391760
C            0.94911809163743        4.62781393453280       -0.72369950798079
C            0.94063475535752        6.00753911739259       -0.71967123062960
H           -0.83245295431047        8.61850850824689        0.57175472494536
H            0.92092155118512        8.60550971570869        0.34387545920470
H           -0.14488317124296        8.58825881552424       -1.05660831985548
H           -1.74440924494417        6.53512188129204        1.24377781350170
H           -1.72693735805246        4.08657303257965        1.26616771452443
H            0.42385370829215        0.31083000976586       -1.39396801356328
H            2.49943267334486       -0.98347853267922       -1.46499272544031
H            4.57639130103755        0.60477185164284       -2.58691985774352
H            5.25098014222552       -0.39291465454127       -4.76332799052488
H            6.16888284112945       -2.72047119367404       -4.77138193176245
H            5.80541887048630       -3.05565559332623       -0.73003290196915
H            2.83685143008685       -2.56876048828629        0.34362815826876
H            0.29157852871113       -4.34078844219738        2.46866429494256
H            1.11112600329869       -2.97138497914880        3.22640043916230
H            0.95443458930365       -3.04501880334819        1.47279118828891
H            2.52278428263141       -4.69423732592490        4.45011634951431
H            1.72168306480954       -5.98468793088833        3.56128650488960
H            3.47748062717832       -5.87026615267717        3.52791668161986
H            3.40899197501560       -5.84422640341469        0.99154002478367
H            2.33084405250698       -4.73910779230165        0.14333544527877
H            1.65814586444998       -6.04080020459785        1.12239067420310
H            4.61802392302430       -3.95794049913287        3.98271302177971
H            6.39546571411049       -2.31110374295431        3.77187957420523
H            8.06055286119880       -0.36947950207942        3.06584638484700
H            9.23627114589068        1.49734399091935        2.02813233468404
H            7.02744131662222        3.77955134959530       -1.33417486973916
H            8.00079495303983        2.63721021409815       -2.28013738095011
H            8.63269700106168        4.23410223079617       -1.89487653823903
H            9.21013544220651        3.72729165723532        1.71163148129586
H            9.25401870492565        4.87404658335849        0.37495330574027
H            7.70409684118407        4.35258508011846        1.04286357446471
H           10.61635314944925        2.08324247543723        0.34716948577856
H           10.65969630606707        3.22434265109161       -0.99441044991477
H           10.06650696099706        1.58005661692322       -1.24988069891310
H            6.33921232791768        1.63180296094632       -1.12420573937609
H            4.34073594608705        1.81950728622514        1.18018777536795
H            2.26591631676081        3.12252463770656        1.24322655537858
H           -0.42829967933668        0.30582344011822        1.37598556557469
H           -2.49669056693119       -0.99992304231797        1.44665872398731
H           -4.57153475044507        0.57439719081031        2.57651626961437
H           -5.24346983098928       -0.42753431463117        4.75213979570102
H           -6.16245375134392       -2.75447055890042        4.75660725528425
H           -5.80628891687098       -3.08091256314461        0.71387846592553
H           -2.83536162563622       -2.58608262500195       -0.36305912266120
H           -2.52550638635094       -4.71011284699232       -4.47005360585205
H           -3.47588002243105       -5.88883957621132       -3.54685077853284
H           -1.71991964309971       -5.99938979445544       -3.58351487751052
H           -2.32716115338710       -4.75695380759211       -0.16360892971423
H           -1.65244556723854       -6.05663293020761       -1.14400595861852
H           -3.40360660450567       -5.86417393174213       -1.01119282695582
H           -1.11438222324158       -2.98560395405950       -3.24756469416759
H           -0.95472111196042       -3.05994472643479       -1.49426544863650
H           -0.29136731500087       -4.35405958284891       -2.49188886024066
H           -4.62265329771837       -3.98011899884137       -3.99729897219071
H           -6.40399046758321       -2.33811138126681       -3.78146584135419
H           -8.07120962584126       -0.40012922900827       -3.06998394466341
H           -9.25202610378351        1.45830731101563       -2.03700712873311
H          -10.34895353520253        4.10514821962271        0.07390027955236
H           -9.65412177339341        3.60967186496919       -1.46507491695070
H          -10.60320016829502        2.46187958786343       -0.50220634778269
H           -9.66151110547834        1.56301482931087        1.68521895458430
H           -9.54683829783279        3.24886017294784        2.20072038883798
H           -8.14189504211654        2.19198000908790        2.31564374063338
H           -7.36232256811481        4.33893764045392       -0.66728751270545
H           -8.15503592707007        4.89946401003938        0.80826846594172
H           -6.76312290064388        3.82302459584891        0.90759677970086
H           -6.35375271496151        1.60814842768010        1.11346244782736
H           -4.35629864769071        1.79913177355230       -1.19014533723629
H           -2.28868285394914        3.11208926219969       -1.25443560624637
H            1.70102332038020        4.09188600828671       -1.28469466952264
H            1.69391241196523        6.54337839330963       -1.28007886327461
