$hessian                                                                        
        0.5063400979   0.0341798956   0.0189893802  -0.0968119167   0.0353226166
        0.0312069761   0.0007437667   0.0010346397   0.0021160503   0.0032104103
        0.0036278375  -0.0018346072  -0.0003923398  -0.0010381117   0.0009064984
        0.0002563316   0.0003512032   0.0001800588  -0.0001150031  -0.0000754034
        0.0000400012   0.0001184641  -0.0001146952  -0.0002336421  -0.0000036589
        0.0000737265   0.0000391749  -0.0000074149  -0.0000279968  -0.0000007849
        0.0003703246  -0.0001151756  -0.0001348823  -0.0008447173  -0.0012865095
       -0.0009724800  -0.0011102142  -0.0009918340  -0.0000162752   0.0008947307
        0.0007989465  -0.0000673432   0.0000045900  -0.0000057344  -0.0000840965
       -0.0000291620  -0.0000314266  -0.0000178297  -0.0000418898   0.0000200827
       -0.0000035867   0.0000402650   0.0000403965   0.0000294738   0.0000340904
       -0.0000715849   0.0000212350   0.0000287351   0.0001210367  -0.0000431659
       -0.0000804739  -0.0004292200   0.0001036077  -0.0001865135   0.0001763333
       -0.0001551340  -0.0010819153   0.0006378536  -0.0010490974  -0.0003063692
        0.0003767600  -0.0001554773   0.0005511070   0.0006259795  -0.0003142206
       -0.0022712658   0.0000817397   0.0010805083  -0.0276993304   0.0177823823
        0.0112134947  -0.0038369100  -0.0030435256   0.0005696079  -0.1042609377
       -0.0419079405  -0.0976942733  -0.0563700143   0.0445006000  -0.0353667328
       -0.2160222358  -0.0899975127   0.0717834168   0.0003358745  -0.0002737279
       -0.0001218686   0.0006157161   0.0002605174  -0.0002323744   0.0001884845
        0.0002070232  -0.0004758097  -0.0000097609  -0.0000799959  -0.0000032170
        0.0000137111  -0.0000408114  -0.0000471127   0.0000064558   0.0000269017
        0.0000711921  -0.0000161544  -0.0000377835   0.0000206063   0.0000382771
        0.0000178598  -0.0000055031  -0.0007010275  -0.0009120555  -0.0002328088
        0.0000096720   0.0000145882   0.0000126677  -0.0000037523   0.0000190181
        0.0000041630  -0.0000013550   0.0000094414  -0.0000012797   0.0000058702
       -0.0000024961  -0.0000037215  -0.0000580347   0.0000401529   0.0001506274
        0.0000188056   0.0000103688   0.0000009951  -0.0015634125   0.0001256396
        0.0007275892
        0.0341798956   0.4815630325  -0.0357607193   0.0385012545  -0.1062947456
       -0.0366130360   0.0013508699  -0.0011751427  -0.0032803496   0.0139808074
       -0.0275622424  -0.0089650700  -0.0036354587  -0.0027356707  -0.0002925762
        0.0005852329  -0.0005492346   0.0015248748   0.0003381209   0.0000418812
       -0.0000171715   0.0004732461   0.0007461062  -0.0000226377  -0.0002580940
        0.0000997594  -0.0000631019   0.0000157385  -0.0003387244   0.0002185161
        0.0005659630   0.0000560117  -0.0003185908  -0.0013032696  -0.0015721103
       -0.0012248613   0.0007281558  -0.0005710256  -0.0006361397   0.0009403427
        0.0007495375  -0.0003904036  -0.0001041698   0.0001761221   0.0000289891
       -0.0000406808  -0.0000512403  -0.0000663840  -0.0000540749   0.0000323672
        0.0000060729   0.0000761809   0.0000524989   0.0000393442   0.0000731959
       -0.0000866001  -0.0000222024  -0.0000130149   0.0001645901   0.0000367853
        0.0001426392  -0.0003390079   0.0000222620  -0.0000358810   0.0000991282
       -0.0000230985   0.0000678687   0.0002226198   0.0000246013  -0.0002578718
       -0.0000244140  -0.0000461905   0.0002686762   0.0002815294   0.0004472414
       -0.0020856017  -0.0012610166   0.0003788660   0.0048585084   0.0022340152
       -0.0003878709  -0.0005571486  -0.0002729698  -0.0007166523  -0.0416930614
       -0.0716155078  -0.0634632472   0.0449203713  -0.1848564978   0.1106210796
       -0.0895269390  -0.0877372798   0.0379181742   0.0001207989   0.0002298289
        0.0003527012   0.0000816030   0.0003535882   0.0001039706  -0.0007303457
        0.0005792169   0.0009776699  -0.0000601224  -0.0002526102   0.0002373294
        0.0000051564  -0.0000928486  -0.0001692338  -0.0000110265   0.0000395312
        0.0000217298  -0.0000224941  -0.0000104853   0.0000316305  -0.0000759345
       -0.0000025255   0.0000049410  -0.0007327877  -0.0004414789  -0.0004949378
        0.0000063270   0.0000543387   0.0000484405   0.0000043669   0.0000066600
        0.0000011772   0.0000043338   0.0000069910   0.0000050985   0.0000038130
       -0.0000055511  -0.0000030271  -0.0000118441   0.0000257951  -0.0000547152
        0.0000025113  -0.0000201594  -0.0000679459  -0.0010861569   0.0000539400
        0.0000486675
        0.0189893802  -0.0357607193   0.4973530389   0.0294782115  -0.0325226933
       -0.0841545188   0.0161856052  -0.0170335134  -0.0192817333  -0.0025240566
        0.0021602967   0.0032625130   0.0009113724   0.0008215564  -0.0006011717
       -0.0001382143  -0.0000281479  -0.0003917287  -0.0000484373  -0.0000458845
        0.0000292703   0.0001444525   0.0001268622   0.0001471999  -0.0002384938
       -0.0000669029  -0.0000318316  -0.0001148813  -0.0000881003   0.0002921085
        0.0001416431  -0.0003034839   0.0000226424  -0.0011081761  -0.0003371427
       -0.0018647957  -0.0000467886   0.0005540992   0.0003979467  -0.0002499092
       -0.0001484496   0.0000861760   0.0001729345  -0.0002078764  -0.0000240527
       -0.0000400382   0.0000910241   0.0000524520   0.0000599184  -0.0000300890
       -0.0000030294  -0.0000418125  -0.0000294410  -0.0000116200   0.0000171640
        0.0000305287   0.0000137224  -0.0000766211  -0.0000872028  -0.0000392801
        0.0000200044   0.0000708353   0.0002029671  -0.0000480561  -0.0000255231
       -0.0000985737   0.0000354532   0.0001410659   0.0001025814   0.0000816241
       -0.0001112579   0.0000612426  -0.0001146834  -0.0000803927  -0.0000812627
        0.0000365931  -0.0000967439  -0.0000064216   0.0012637045   0.0010570959
        0.0018261062  -0.0010720257   0.0001546424  -0.0006068338  -0.0989796985
       -0.0643050725  -0.1930216444  -0.0356912020   0.1110154746  -0.1276830501
        0.0725067648   0.0384434661  -0.0714962774   0.0003711595  -0.0002027996
        0.0011310621   0.0002308211  -0.0001667847  -0.0060797196   0.0002464834
       -0.0009136965   0.0008773946  -0.0000110269   0.0001118503  -0.0000203650
        0.0000094481   0.0000366365   0.0000465822   0.0000204828  -0.0000293895
       -0.0000672008  -0.0000216888  -0.0000532364   0.0000633271   0.0000272715
       -0.0000642041  -0.0000455078  -0.0010575373  -0.0019133358  -0.0004952617
        0.0000141633  -0.0000007561  -0.0000070118   0.0000044555   0.0000002308
       -0.0000008714   0.0000004754   0.0000037822   0.0000003137   0.0000012535
       -0.0000025058  -0.0000000774  -0.0000029545  -0.0000092596   0.0000378941
        0.0000242762  -0.0000167395  -0.0000605780   0.0006311863  -0.0001381027
        0.0001678780
       -0.0968119167   0.0385012545   0.0294782115   0.4598162498   0.0090613907
       -0.0051789272  -0.0577413569   0.0004467322  -0.0048214503  -0.0714945916
       -0.0264660279   0.0086176846   0.0071600471   0.0150021002  -0.0069106900
       -0.0030350559   0.0022340959  -0.0015015550  -0.0000076841   0.0000219059
        0.0000480080  -0.0047524753  -0.0010322547  -0.0002489171   0.0000878617
       -0.0010791730   0.0006459146   0.0001319363   0.0003008891  -0.0001779225
        0.0000781775  -0.0000736851   0.0001409337   0.0018303364  -0.0002297987
        0.0010577681  -0.0073918931  -0.0227909074   0.0088183644   0.0000516316
       -0.0034939303   0.0011042813   0.0001331939  -0.0001347530  -0.0000219443
        0.0000561034   0.0000194455   0.0000303468   0.0001584503  -0.0000752595
        0.0000065271  -0.0001071112  -0.0000744707  -0.0000588061  -0.0000819011
        0.0001028665   0.0000458244   0.0000048343  -0.0003847785  -0.0001643216
       -0.0008014057   0.0001119440   0.0003008257  -0.0001483077   0.0000851738
       -0.0002202157  -0.0000600182   0.0024809051  -0.0012068885  -0.0006078380
       -0.0000504216  -0.0000970970   0.0017439986  -0.0013131641  -0.0010936259
       -0.0147052719  -0.0121849187  -0.0029222220  -0.1686018128  -0.0218589288
       -0.0291187863  -0.0247903771   0.0050266529  -0.0059039841   0.0060187971
       -0.0065683427  -0.0043126446  -0.0047650815   0.0067370302   0.0033942079
       -0.0167737013   0.0148935995   0.0131810399  -0.0036535174   0.0023859025
       -0.0271691757   0.0001192896  -0.0011642441   0.0176989532   0.0001611327
       -0.0010913023   0.0070138787   0.0000489520   0.0009333086  -0.0006918505
       -0.0000268702   0.0000289624   0.0000513561  -0.0003407510  -0.0001809083
        0.0000411770  -0.0000104575   0.0000353929  -0.0000414208   0.0000554570
        0.0000653508  -0.0000462917  -0.0010497275   0.0002466620  -0.0007066538
        0.0000440570  -0.0000144875  -0.0000270924   0.0000018568  -0.0000069615
        0.0000039342   0.0000053026  -0.0000157411  -0.0000119184   0.0000250003
       -0.0000128476  -0.0000056530   0.0000351403   0.0001227920   0.0003694644
       -0.0002545362   0.0001269200  -0.0001189358   0.0002458534   0.0013260298
        0.0007302888
        0.0353226166  -0.1062947456  -0.0325226933   0.0090613907   0.4673042407
       -0.0045146795   0.0004576099  -0.0578042264   0.0075457329  -0.0252886606
       -0.1616888721   0.0319589209   0.0038504592  -0.0271303863   0.0099756066
        0.0031101982   0.0004986894   0.0015981141  -0.0003160634  -0.0003717166
        0.0002761508  -0.0006082037   0.0015494708  -0.0000487428  -0.0000979094
       -0.0003761069   0.0003462551   0.0001321197   0.0000568691  -0.0001387686
       -0.0002277142  -0.0002803436   0.0001293350   0.0015169433  -0.0000985660
       -0.0005973310  -0.0105693099  -0.0106794280   0.0021497244  -0.0026652070
        0.0003316782  -0.0009533273  -0.0001272590   0.0000722604  -0.0001180323
        0.0000621424  -0.0000045109  -0.0001019537  -0.0000840527   0.0000334275
        0.0000018786   0.0000279827   0.0000265498   0.0000149965  -0.0000671000
        0.0000021643  -0.0000059420  -0.0000739574   0.0001001099   0.0000964736
        0.0003327382   0.0005025400  -0.0000742495   0.0005607027  -0.0002293024
        0.0002142632   0.0026016576  -0.0033064265   0.0005700734   0.0000262931
        0.0002373280   0.0000058969  -0.0006131759  -0.0049602982  -0.0000342033
       -0.0266318335  -0.0081631021  -0.0065646276  -0.0208616307  -0.0690128556
       -0.0053023407   0.0165523096   0.0061402630   0.0048753390   0.0057495764
       -0.0090007823  -0.0082037603   0.0145334702  -0.0188585400  -0.0099162559
       -0.0040530008   0.0065967869   0.0049767856  -0.0003762258   0.0003982726
       -0.0046608630  -0.0000407930   0.0011123858  -0.0179927905   0.0004967361
       -0.0061739499   0.0273787055  -0.0002523642  -0.0007182221   0.0002504036
        0.0000110637  -0.0000559533  -0.0004537243  -0.0000281721   0.0001358935
        0.0001018382   0.0000423229  -0.0000130813  -0.0000221150   0.0000931650
        0.0000185997   0.0001153244   0.0001500374   0.0003043928   0.0001524566
       -0.0000017808  -0.0000550546   0.0000265421  -0.0000059129   0.0000001051
       -0.0000031387  -0.0000073221   0.0000041449  -0.0000027550  -0.0000247425
        0.0000231722   0.0000090833   0.0000002091  -0.0000487067  -0.0000329293
       -0.0013125342  -0.0005037066  -0.0001397289  -0.0003568189   0.0003795395
       -0.0003649477
        0.0312069761  -0.0366130360  -0.0841545188  -0.0051789272  -0.0045146795
        0.4175527902  -0.0099617746   0.0153999989  -0.1656323925   0.0082573215
        0.0243836362  -0.0599583140  -0.0041381331   0.0132822927  -0.0025743644
       -0.0011195079   0.0017349864   0.0072428490   0.0014660875   0.0007443412
       -0.0004964359  -0.0006036755   0.0025088405   0.0037841441   0.0001507445
       -0.0001051679  -0.0000380898  -0.0000179560  -0.0002070386  -0.0001791534
        0.0005533389   0.0001919694  -0.0002225795  -0.0006287845  -0.0009687452
       -0.0019531143   0.0037980482   0.0014518570  -0.0003960336   0.0011350898
       -0.0004510096  -0.0032370029   0.0003149642  -0.0000129530   0.0002064246
        0.0001025150   0.0001484326  -0.0001303047   0.0000193623  -0.0000446285
       -0.0000085751  -0.0000174461   0.0000172428  -0.0000382836   0.0000082820
       -0.0000144415  -0.0000334075   0.0000149042  -0.0001052245   0.0001100089
        0.0000260981  -0.0001283148  -0.0004331111  -0.0000833191   0.0000267522
        0.0001272661   0.0002735491   0.0012042730   0.0054986587  -0.0004071950
       -0.0010673185  -0.0001780977  -0.0015608198   0.0006766894   0.0063332412
       -0.0007122273  -0.0024108400  -0.0012297197  -0.0258496725  -0.0049365970
       -0.0584840628  -0.0067470477  -0.0004815051   0.0001922250   0.0113593126
       -0.0176885488  -0.0137852099  -0.0068627025   0.0081664314   0.0062791206
        0.0068588147  -0.0052718131  -0.0046208563  -0.0038078692   0.0010376921
       -0.0135189216   0.0014914341  -0.0004922786  -0.0185385464   0.0003183148
        0.0050438241  -0.0132163027   0.0000155873  -0.0001322148  -0.0000738789
        0.0000272435  -0.0009066566  -0.0012991771  -0.0000771758   0.0000927389
        0.0003561784  -0.0000255281   0.0000259634   0.0000363245  -0.0000664667
        0.0001207724   0.0001461300  -0.0004798194   0.0001807316   0.0003545726
       -0.0000767983  -0.0000356469  -0.0000219173  -0.0000087978  -0.0000111767
        0.0000266277  -0.0000067303  -0.0000067795   0.0000065549   0.0000055944
       -0.0000086661   0.0000089372   0.0003660191  -0.0000149699  -0.0013853008
        0.0000204232   0.0000993499   0.0001389256   0.0006483492   0.0000914347
       -0.0025633071
        0.0007437667   0.0013508699   0.0161856052  -0.0577413569   0.0004576099
       -0.0099617746   0.5258266308   0.0044808805   0.0055035573   0.0026537947
       -0.0012069361   0.0060922056  -0.0009359800  -0.0002046467   0.0001599612
        0.0000873058  -0.0003406338  -0.0003810699   0.0000593589  -0.0000881662
        0.0000695073   0.0001228309   0.0000734677  -0.0002272381   0.0000385211
        0.0000396988  -0.0000128410  -0.0000758998   0.0000946995  -0.0000640947
       -0.0000057674  -0.0002510085   0.0002213989   0.0000077192   0.0006435601
       -0.0004660070  -0.0005654762  -0.0003473133  -0.0001045334   0.0007475592
        0.0018006797   0.0004260805   0.0002165382  -0.0002466337  -0.0000730834
       -0.0000974280   0.0000300925   0.0000263725   0.0000240456   0.0000005589
       -0.0000065376   0.0000195351   0.0000551510   0.0000272817   0.0000730015
       -0.0000803114  -0.0000234205  -0.0000670237   0.0001088733   0.0000639866
        0.0002385114  -0.0004371997  -0.0002105653  -0.0001927814   0.0001455167
        0.0000610165  -0.0000717520   0.0006778592   0.0010176662  -0.0001686855
       -0.0004480609  -0.0000601371  -0.0005210584   0.0003531655   0.0011565959
       -0.0004865940   0.0006775229  -0.0012916401  -0.0122395317   0.0013696614
       -0.0282794936  -0.0021957074  -0.0031816243  -0.0010135988  -0.0013389429
        0.0012109854   0.0019130493   0.0010411176  -0.0005791696   0.0004403838
       -0.0006248227   0.0003992405   0.0008046833  -0.2527958434  -0.0428555190
       -0.0745996997  -0.1393677728   0.0957102094   0.0656202434  -0.0605870115
       -0.0585546569   0.0160949904  -0.0000098051  -0.0000474154   0.0000181661
        0.0000170624   0.0000600725   0.0000869066   0.0000107011  -0.0000073969
       -0.0000305214  -0.0000206565  -0.0000377868   0.0000173635  -0.0000195757
        0.0000214380   0.0000074906  -0.0019431450  -0.0008953724   0.0016301638
        0.0000534224   0.0000645857   0.0000151787  -0.0000013398   0.0000247539
        0.0000057775   0.0000054906   0.0000068084   0.0000080447   0.0000096508
        0.0000000402  -0.0000059490   0.0001149488  -0.0000091265  -0.0002441243
       -0.0000200484   0.0000064525   0.0000528875  -0.0000175066  -0.0000454759
       -0.0006702351
        0.0010346397  -0.0011751427  -0.0170335134   0.0004467322  -0.0578042264
        0.0153999989   0.0044808805   0.5187591774   0.0106660129   0.0006649915
       -0.0103024566   0.0262584665  -0.0019524651  -0.0025799256   0.0012847723
        0.0003117957  -0.0006066200  -0.0013761815  -0.0002540554  -0.0002177237
        0.0000776217   0.0001992269  -0.0006109236  -0.0006678108  -0.0000567806
        0.0000747398  -0.0000426008   0.0000391345   0.0000018608   0.0000854134
        0.0000893646   0.0001464971   0.0000142923  -0.0001853550   0.0000438855
        0.0005059509   0.0004307163  -0.0001219820   0.0004295691   0.0008558494
        0.0009007183  -0.0001598011  -0.0001219892   0.0001033910   0.0000317738
       -0.0000260287  -0.0000389245  -0.0000437960  -0.0000486333   0.0000461459
       -0.0000037503   0.0000332026   0.0000269019   0.0000235554   0.0000317973
       -0.0000410024  -0.0000118142   0.0000147251   0.0000889360  -0.0000167613
       -0.0000665667  -0.0001338266  -0.0000055639   0.0000481309   0.0000623515
        0.0000140517   0.0000084259   0.0000711946   0.0002881692  -0.0001307656
        0.0001018829  -0.0001236185   0.0003423576   0.0001279168   0.0001735360
       -0.0009189048  -0.0004788891  -0.0002101651  -0.0007972568   0.0029079689
       -0.0038337807  -0.0001964144  -0.0009922444  -0.0001941425   0.0015085387
       -0.0018547809  -0.0025115966   0.0000416469   0.0010190650  -0.0014959974
        0.0003475775  -0.0005701589  -0.0009171262  -0.0425521015  -0.0525121074
       -0.0156224623   0.0961718323  -0.1421879584  -0.0662925621  -0.0590803912
       -0.2520259566   0.0550906099  -0.0000254789  -0.0000625221   0.0001455319
       -0.0000019018   0.0001949614   0.0002472535   0.0000012839  -0.0000211075
       -0.0000812321  -0.0000102847  -0.0000036892  -0.0000140478  -0.0000417156
       -0.0000279756  -0.0000352955  -0.0004942872  -0.0000964804   0.0002679465
       -0.0000022485  -0.0000029448   0.0000484766   0.0000026750  -0.0000027801
       -0.0000033972   0.0000025557   0.0000044893   0.0000071488  -0.0000000533
       -0.0000016277   0.0000011987   0.0000087634   0.0000034420  -0.0000529902
       -0.0000124293  -0.0000340320   0.0000184163  -0.0001407364  -0.0001775166
       -0.0003297593
        0.0021160503  -0.0032803496  -0.0192817333  -0.0048214503   0.0075457329
       -0.1656323925   0.0055035573   0.0106660129   0.4284057345   0.0016656204
        0.0130027952  -0.0133220853   0.0012378889  -0.0007970458  -0.0003666159
        0.0001717262   0.0007715717   0.0002087907  -0.0000777759  -0.0000418849
        0.0000003252  -0.0001193832   0.0005319533   0.0002451417   0.0001084281
        0.0000011538  -0.0000067435   0.0000823276   0.0002277541  -0.0000575976
       -0.0001445375   0.0001793159  -0.0001835343   0.0011067774  -0.0008479975
       -0.0004119555  -0.0010726804  -0.0002709818  -0.0000001117  -0.0001310121
        0.0000982986  -0.0003102129   0.0001292157  -0.0001023776   0.0001592616
        0.0000335432  -0.0000331212  -0.0000389073  -0.0000247889   0.0000133873
       -0.0000064314   0.0000018320   0.0000031766  -0.0000064230  -0.0000294010
        0.0000051897  -0.0000087172   0.0000527017  -0.0000164640   0.0000070178
       -0.0001532722   0.0000515268  -0.0000509077   0.0000460704   0.0000015143
        0.0000469663  -0.0004544797  -0.0001304736   0.0003880055   0.0000560537
        0.0000049869   0.0000596642  -0.0005906684   0.0000150302   0.0004848137
        0.0008790195   0.0014612685  -0.0002278779  -0.0148163242  -0.0013804964
       -0.0163921069   0.0006985819  -0.0012183150  -0.0004519453   0.0015732602
       -0.0011987993  -0.0018717517  -0.0010697755   0.0015940450   0.0007347878
        0.0003697152  -0.0004732295  -0.0008450831  -0.0739105016  -0.0156601761
       -0.0669507870   0.0654307996  -0.0662140746  -0.0875653674   0.0157726985
        0.0546492239  -0.0560945014   0.0000167050   0.0000424540   0.0000113715
       -0.0000013472  -0.0000608842  -0.0000768524   0.0000033057  -0.0000117903
        0.0000081751   0.0000101507   0.0000563628   0.0000004851  -0.0000014946
        0.0000289184  -0.0000164002   0.0002992713   0.0005912609  -0.0002727710
       -0.0000167904  -0.0000143880  -0.0000057069  -0.0000091625   0.0000090680
        0.0000061873  -0.0000004035  -0.0000071424   0.0000053302   0.0000010413
        0.0000031892   0.0000049091   0.0000328124   0.0000113554  -0.0001068300
       -0.0000069647   0.0000305194  -0.0000047493   0.0000530592   0.0001629259
       -0.0002098678
        0.0032104103   0.0139808074  -0.0025240566  -0.0714945916  -0.0252886606
        0.0082573215   0.0026537947   0.0006649915   0.0016656204   0.6052788679
       -0.0422297089   0.0259782008  -0.1993215989   0.0924010671  -0.0213238341
        0.0354767163   0.0459223171  -0.0194638271  -0.0455581006   0.0069820972
       -0.0051173432   0.0085094291  -0.0484758377   0.0208595234  -0.0111631161
        0.0006130992  -0.0011745198   0.0024356087  -0.0138862085   0.0085088705
        0.0142639291   0.0177272871  -0.0080151164  -0.0621344288   0.0072634172
       -0.0064391889  -0.2118784072  -0.0491299436   0.0028202311  -0.0520642542
        0.0174179065  -0.0041808025  -0.0028203943  -0.0043373637  -0.0017201935
        0.0009178005  -0.0006985582  -0.0007257397  -0.0003136333   0.0001053870
       -0.0003916380   0.0003849627   0.0001487716   0.0001955295  -0.0000901286
       -0.0004298268  -0.0001337068  -0.0019329709   0.0009792212   0.0005949077
        0.0007316858   0.0004097813   0.0004156300  -0.0002816527  -0.0001220585
       -0.0002423250  -0.0001751672  -0.0005584810  -0.0003226132   0.0001998271
        0.0004404420   0.0002951297   0.0000862514  -0.0012539473  -0.0004916680
       -0.0051398860  -0.0010107101  -0.0011003395  -0.0109822372  -0.0239981180
        0.0050602305   0.0028945091   0.0041648655  -0.0009648258  -0.0005406530
        0.0007637111   0.0003904954  -0.0016500080   0.0028410148   0.0011726671
       -0.0000567762   0.0015109915  -0.0004660749   0.0001137044   0.0006371017
       -0.0002040885  -0.0000359966  -0.0003893255   0.0002312892   0.0003221853
        0.0002103704  -0.0008183843   0.0002951072  -0.0025279734  -0.0001036246
       -0.0004612255   0.0002324892  -0.0001967667  -0.0001317610   0.0001042251
       -0.0002534794   0.0001669178  -0.0000344301  -0.0000092321  -0.0007563273
       -0.0005731930  -0.0006027913   0.0009924461  -0.0010708598  -0.0000109119
        0.0004156638   0.0002914746   0.0001974584   0.0000325613   0.0000932376
        0.0000210313  -0.0000053559   0.0000240133   0.0000935593  -0.0000879196
        0.0000904711   0.0000376418  -0.0000016521   0.0000098195   0.0000975976
       -0.0003066614  -0.0001450054  -0.0000468976   0.0000025257   0.0001298314
        0.0001510540
        0.0036278375  -0.0275622424   0.0021602967  -0.0264660279  -0.1616888721
        0.0243836362  -0.0012069361  -0.0103024566   0.0130027952  -0.0422297089
        0.5452545812  -0.1327336429   0.1436908414  -0.1945835085   0.0511542933
        0.0073791828  -0.0423862206   0.0178742924   0.0113009243   0.0015311550
       -0.0024187535  -0.0281359130  -0.0099841940   0.0026220333   0.0003094964
       -0.0036724130   0.0045568252  -0.0001831032   0.0008226799  -0.0004358279
        0.0021596701  -0.0010811449   0.0038115531   0.0128710315   0.0067881469
       -0.0020804421  -0.0743192016  -0.0946058628   0.0146728928   0.0049779880
        0.0082444843  -0.0002027285  -0.0011968235  -0.0008194452   0.0002164327
       -0.0001313447   0.0008389197   0.0002701408   0.0005439056  -0.0002792588
        0.0001053794  -0.0004656564  -0.0002170708  -0.0002360659  -0.0002935636
        0.0003296460  -0.0000267227  -0.0006227520  -0.0005461482   0.0000134453
        0.0003452537   0.0010403925   0.0001988751  -0.0003616035  -0.0003742068
       -0.0000969152   0.0000114077  -0.0000361392   0.0001036812   0.0003227241
       -0.0003981942   0.0000788419  -0.0008731531  -0.0003577822  -0.0002949141
       -0.0000152080   0.0007877037   0.0007081805  -0.0127974070  -0.0103100186
        0.0003781914   0.0015438810   0.0001949379   0.0002727747  -0.0000856205
       -0.0006740264  -0.0002689539   0.0012650045  -0.0034095917  -0.0017052769
       -0.0007686450   0.0003848675   0.0010380785   0.0004035857   0.0003922369
       -0.0004854174  -0.0001076743   0.0006275111  -0.0007635198  -0.0001032591
       -0.0000692812   0.0008923531  -0.0010899794  -0.0028600730   0.0045665295
        0.0000393304   0.0003978215  -0.0002853514  -0.0012420983  -0.0007082187
        0.0001019311   0.0001631187  -0.0002874883  -0.0005058807   0.0010048354
        0.0001859292   0.0001652099   0.0008138474  -0.0002925485  -0.0007454270
       -0.0001677960  -0.0003392087  -0.0000485996  -0.0000103297  -0.0000203080
        0.0000255987  -0.0000303054   0.0000000742  -0.0000236746  -0.0000295596
        0.0000254452   0.0000193196   0.0000642110   0.0000577157  -0.0000019457
        0.0000453826   0.0000775165  -0.0000183159   0.0000502099  -0.0001158416
       -0.0000152057
       -0.0018346072  -0.0089650700   0.0032625130   0.0086176846   0.0319589209
       -0.0599583140   0.0060922056   0.0262584665  -0.0133220853   0.0259782008
       -0.1327336429   0.1887786929  -0.0496262972   0.0467511256  -0.0582977818
        0.0000591425   0.0222902343  -0.0103604093  -0.0076211921  -0.0001439014
       -0.0018723807   0.0140805456   0.0026593032   0.0001840292  -0.0021359525
        0.0044018423   0.0033223274   0.0008621107  -0.0013938122   0.0007135913
       -0.0010302910   0.0051220867   0.0025259802  -0.0122429437  -0.0038720507
        0.0002287686   0.0139585837   0.0139476573  -0.0547197894   0.0028793610
       -0.0037385759   0.0017616437   0.0012908112   0.0008715389   0.0005330115
        0.0003258001  -0.0003550733   0.0000150354  -0.0002159661   0.0002074499
       -0.0000187812   0.0002049332   0.0001046355   0.0000907824   0.0001591390
       -0.0001337387  -0.0000066917   0.0003399169   0.0000207669  -0.0000300774
       -0.0002094076  -0.0004022523  -0.0001739117   0.0001907720   0.0001560268
        0.0000902887   0.0001497482  -0.0000654026  -0.0001319472  -0.0000773957
        0.0001871184  -0.0000626751   0.0002025284  -0.0003414385   0.0000123195
       -0.0020674204  -0.0003095713   0.0001026468   0.0001642775  -0.0044877349
        0.0018173081  -0.0000446257  -0.0005924349   0.0001312308   0.0005903356
       -0.0007790040  -0.0004763451   0.0007151152  -0.0015370529  -0.0007159129
       -0.0002367299  -0.0006978742   0.0006720324  -0.0000426650   0.0002415782
        0.0008779552   0.0002233174   0.0006362821   0.0004446365   0.0000736277
        0.0020729761  -0.0059068946   0.0003759676   0.0040895222   0.0026025528
       -0.0001077596  -0.0001175172   0.0003389859   0.0005249548   0.0001810480
       -0.0002353847   0.0001073532  -0.0006260011  -0.0010890339  -0.0006819478
       -0.0000233234   0.0001866720   0.0000841216  -0.0010035513  -0.0012395373
       -0.0000228891   0.0001040460   0.0000540857   0.0000005678  -0.0000012045
       -0.0000416663   0.0000085869  -0.0000192606   0.0000134749   0.0000304348
       -0.0000333149   0.0000027305  -0.0000217800  -0.0000079379   0.0000119738
       -0.0001476633  -0.0000628616  -0.0000881392   0.0000773902   0.0001809773
       -0.0000275100
       -0.0003923398  -0.0036354587   0.0009113724   0.0071600471   0.0038504592
       -0.0041381331  -0.0009359800  -0.0019524651   0.0012378889  -0.1993215989
        0.1436908414  -0.0496262972   0.6170824653  -0.0465587262  -0.0179472078
       -0.0834280206  -0.0530263113   0.0295006690  -0.0049216492  -0.0278005220
        0.0164569784  -0.0006078134   0.0099240647  -0.0036379117   0.0008715507
       -0.0006598583   0.0006069206   0.0002102717   0.0035255808  -0.0020799155
       -0.0053573299  -0.0034881037   0.0007622447   0.0045786143  -0.0037965378
        0.0019153212  -0.0600025811   0.0056479027  -0.0044362808  -0.2221201562
       -0.0268140527   0.0292450973  -0.0331605492   0.0100926359   0.0026979796
        0.0001384633  -0.0023459769   0.0001523740  -0.0001062678   0.0001899530
        0.0006505975   0.0000774069  -0.0000095262  -0.0001810483  -0.0017724663
       -0.0001287207  -0.0004189639  -0.0000649459   0.0028551164   0.0015374753
       -0.0032233476  -0.0003510754  -0.0013447108   0.0020918799   0.0003809716
        0.0007946749   0.0028588253   0.0004349914   0.0014156640  -0.0009616316
       -0.0005292420  -0.0007507267   0.0005631003   0.0002454553   0.0002009760
       -0.0009758374  -0.0015698130  -0.0004844064   0.0002118882   0.0042402115
        0.0003478858  -0.0166150725  -0.0287918741   0.0063583862   0.0000986172
       -0.0001196900  -0.0003095920   0.0005730580  -0.0007660152  -0.0001660677
       -0.0008652509   0.0003501799   0.0005399415  -0.0007168690   0.0001208533
       -0.0007138704   0.0003332172   0.0001297928   0.0004878057  -0.0001011022
       -0.0006239649   0.0007953676   0.0023296585   0.0186208426  -0.0107766873
       -0.0046266513  -0.0017737418   0.0007260798   0.0002853033   0.0003921466
       -0.0001694299   0.0003163411   0.0000105492  -0.0000193282  -0.0001314893
       -0.0002000306   0.0002711949   0.0002133966  -0.0001019877   0.0003288135
        0.0002469059  -0.0000742454  -0.0002015738   0.0000472675  -0.0004912400
       -0.0002278068   0.0001666697  -0.0002439558  -0.0001814039  -0.0000431812
        0.0001711084  -0.0000015483   0.0000841324   0.0000612528  -0.0000560331
       -0.0000831473   0.0002910061   0.0001019681  -0.0000038016   0.0006272199
       -0.0001747333
       -0.0010381117  -0.0027356707   0.0008215564   0.0150021002  -0.0271303863
        0.0132822927  -0.0002046467  -0.0025799256  -0.0007970458   0.0924010671