      -----------------------------------------------------------      
     |                   =====================                   |     
     |                           x T B                           |     
     |                   =====================                   |     
     |                         S. Grimme                         |     
     |          Mulliken Center for Theoretical Chemistry        |     
     |                    University of Bonn                     |     
      -----------------------------------------------------------      

   * xtb version 6.7.1 (edcfbbe) compiled by 'albert@albert-system' on 2024-07-22

   xtb is free software: you can redistribute it and/or modify it under
   the terms of the GNU Lesser General Public License as published by
   the Free Software Foundation, either version 3 of the License, or
   (at your option) any later version.
   
   xtb is distributed in the hope that it will be useful,
   but WITHOUT ANY WARRANTY; without even the implied warranty of
   MERCHANTABILITY or FITNESS FOR A PARTICULAR PURPOSE.  See the
   GNU Lesser General Public License for more details.
   
   Cite this work as:
   * C. Bannwarth, E. Caldeweyher, S. Ehlert, A. Hansen, P. Pracht,
     J. Seibert, S. Spicher, S. Grimme, WIREs Comput. Mol. Sci., 2020, 11,
     e01493. DOI: 10.1002/wcms.1493
   
   for GFN2-xTB:
   * C. Bannwarth, S. Ehlert and S. Grimme., J. Chem. Theory Comput., 2019,
     15, 1652-1671. DOI: 10.1021/acs.jctc.8b01176
   for GFN1-xTB:
   * S. Grimme, C. Bannwarth, P. Shushkov, J. Chem. Theory Comput., 2017,
     13, 1989-2009. DOI: 10.1021/acs.jctc.7b00118
   for GFN0-xTB:
   * P. Pracht, E. Caldeweyher, S. Ehlert, S. Grimme, ChemRxiv, 2019, preprint.
     DOI: 10.26434/chemrxiv.8326202.v1
   for GFN-FF:
   * S. Spicher and S. Grimme, Angew. Chem. Int. Ed., 2020, 59, 15665-15673.
     DOI: 10.1002/anie.202004239
   
   for ALPB and GBSA implicit solvation:
   * S. Ehlert, M. Stahn, S. Spicher, S. Grimme, J. Chem. Theory Comput.,
     2021, 17, 4250-4261. DOI: 10.1021/acs.jctc.1c00471
   
   for ddCOSMO and CPCM-X implicit solvation:
   * M. Stahn, S. Ehlert, S. Grimme, J. Phys. Chem. A,
     2023, XX, XXXX-XXXX. DOI: 10.1021/acs.jpca.3c04382
   
   for DFT-D4:
   * E. Caldeweyher, C. Bannwarth and S. Grimme, J. Chem. Phys., 2017,
     147, 034112. DOI: 10.1063/1.4993215
   * E. Caldeweyher, S. Ehlert, A. Hansen, H. Neugebauer, S. Spicher,
     C. Bannwarth and S. Grimme, J. Chem. Phys., 2019, 150, 154122.
     DOI: 10.1063/1.5090222
   * E. Caldeweyher, J.-M. Mewes, S. Ehlert and S. Grimme, Phys. Chem. Chem. Phys.
     2020, 22, 8499-8512. DOI: 10.1039/D0CP00502A
   
   for sTDA-xTB:
   * S. Grimme and C. Bannwarth, J. Chem. Phys., 2016, 145, 054103.
     DOI: 10.1063/1.4959605
   
   in the mass-spec context:
   * V. Asgeirsson, C. Bauer and S. Grimme, Chem. Sci., 2017, 8, 4879.
     DOI: 10.1039/c7sc00601b
   * J. Koopman and S. Grimme, ACS Omega 2019, 4, 12, 15120-15133.
     DOI: 10.1021/acsomega.9b02011
   
   for metadynamics refer to:
   * S. Grimme, J. Chem. Theory Comput., 2019, 155, 2847-2862
     DOI: 10.1021/acs.jctc.9b00143
   
   for SPH calculations refer to:
   * S. Spicher and S. Grimme, J. Chem. Theory Comput., 2021, 17, 1701-1714
     DOI: 10.1021/acs.jctc.0c01306
   
   for ONIOM refer to:
   * C. Plett, A. Katbashev, S. Ehlert, S. Grimme, M. Bursch,
     Phys. Chem. Chem. Phys., 2023, 25, 17860-17868. DOI: 10.1039/D3CP02178E
   
   for DIPRO refer to:
   * J. Kohn, N. Gildemeister, S. Grimme, D. Fazzi, A. Hansen,
     J. Chem. Phys., 2023, just accepted.
   
   for PTB refer to:
   * S. Grimme, M. Mueller, A. Hansen, J. Chem. Phys., 2023, 158, 124111.
     DOI: 10.1063/5.0137838
   
   with help from (in alphabetical order)
   P. Atkinson, C. Bannwarth, F. Bohle, G. Brandenburg, E. Caldeweyher
   M. Checinski, S. Dohm, S. Ehlert, S. Ehrlich, I. Gerasimov, C. Hölzer
   A. Katbashev, J. Kohn, J. Koopman, C. Lavigne, S. Lehtola, F. März, M. Müller,
   F. Musil, H. Neugebauer, J. Pisarek, C. Plett, P. Pracht, F. Pultar,
   J. Seibert, P. Shushkov, S. Spicher, M. Stahn, M. Steiner, T. Strunk,
   J. Stückrath, T. Rose, and J. Unsleber
   
 * started run on 2025/07/17 at 21:45:36.944     
   ID    Z sym.   atoms
    1    6 C      1-13, 15-21, 23-28
    2    7 N      14
    3    8 O      22
    4    1 H      29-47

           -------------------------------------------------
          |                Calculation Setup                |
           -------------------------------------------------

          program call               : xtb data2507/gas/BACQ/BACQ_gas_S0_crest.xyz --gfn 2 --ohess vtight --parallel 40 --molden --ceasefiles --namespace data2507/gas/BACQ/BACQ_gas_S0_finalOpt
          calculation namespace      : data2507/gas/BACQ/BACQ_gas_S0_finalOpt
          coordinate file            : data2507/gas/BACQ/BACQ_gas_S0_crest.xyz
          omp threads                :                    40


           -------------------------------------------------
          |                 G F N 2 - x T B                 |
           -------------------------------------------------

        Reference                      10.1021/acs.jctc.8b01176
      * Hamiltonian:
        H0-scaling (s, p, d)           1.850000    2.230000    2.230000
        zeta-weighting                 0.500000
      * Dispersion:
        s8                             2.700000
        a1                             0.520000
        a2                             5.000000
        s9                             5.000000
      * Repulsion:
        kExp                           1.500000    1.000000
        rExp                           1.000000
      * Coulomb:
        alpha                          2.000000
        third order                    shell-resolved
        anisotropic                    true
        a3                             3.000000
        a5                             4.000000
        cn-shift                       1.200000
        cn-exp                         4.000000
        max-rad                        5.000000


          ...................................................
          :                      SETUP                      :
          :.................................................:
          :  # basis functions                 131          :
          :  # atomic orbitals                 131          :
          :  # shells                           75          :
          :  # electrons                       134          :
          :  max. iterations                   250          :
          :  Hamiltonian                  GFN2-xTB          :
          :  restarted?                      false          :
          :  GBSA solvation                  false          :
          :  PC potential                    false          :
          :  electronic temp.          300.0000000     K    :
          :  accuracy                    1.0000000          :
          :  -> integral cutoff          0.2500000E+02      :
          :  -> integral neglect         0.1000000E-07      :
          :  -> SCF convergence          0.1000000E-05 Eh   :
          :  -> wf. convergence          0.1000000E-03 e    :
          :  Broyden damping             0.4000000          :
          :  net charge                          0          :
          :  unpaired electrons                  0          :
          ...................................................

 iter      E             dE          RMSdq      gap      omega  full diag
   1    -73.5832867 -0.735833E+02  0.425E+00    2.00       0.0  T
   2    -73.6595678 -0.762811E-01  0.258E+00    2.30       1.0  T
   3    -73.6366261  0.229416E-01  0.127E+00    2.16       1.0  T
   4    -73.6705548 -0.339286E-01  0.421E-01    2.35       1.0  T
   5    -73.6787099 -0.815509E-02  0.114E-01    2.28       1.0  T
   6    -73.6791647 -0.454883E-03  0.512E-02    2.31       1.0  T
   7    -73.6792326 -0.679010E-04  0.208E-02    2.30       1.0  T
   8    -73.6792328 -0.203320E-06  0.101E-02    2.30       1.4  T
   9    -73.6792356 -0.280777E-05  0.225E-03    2.30       6.5  T
  10    -73.6792357 -0.617546E-07  0.130E-03    2.30      11.2  T
  11    -73.6792357 -0.393561E-07  0.645E-04    2.30      22.6  T
  12    -73.6792357  0.429225E-09  0.336E-04    2.30      43.4  T

   *** convergence criteria satisfied after 12 iterations ***

         #    Occupation            Energy/Eh            Energy/eV
      -------------------------------------------------------------
         1        2.0000           -0.6854601             -18.6523
       ...           ...                  ...                  ...
        61        2.0000           -0.4136678             -11.2565
        62        2.0000           -0.4119205             -11.2089
        63        2.0000           -0.4084008             -11.1132
        64        2.0000           -0.4059024             -11.0452
        65        2.0000           -0.3885678             -10.5735
        66        2.0000           -0.3744191             -10.1885
        67        2.0000           -0.3623996              -9.8614 (HOMO)
        68                         -0.2778701              -7.5612 (LUMO)
        69                         -0.2654135              -7.2223
        70                         -0.2410967              -6.5606
        71                         -0.2360191              -6.4224
        72                         -0.2292410              -6.2380
       ...                                ...                  ...
       131                          0.7207297              19.6121
      -------------------------------------------------------------
                  HL-Gap            0.0845295 Eh            2.3002 eV
             Fermi-level           -0.3201349 Eh           -8.7113 eV

 SCC (total)                   0 d,  0 h,  0 min,  0.068 sec
 SCC setup                      ...        0 min,  0.000 sec (  0.643%)
 Dispersion                     ...        0 min,  0.002 sec (  2.538%)
 classical contributions        ...        0 min,  0.000 sec (  0.220%)
 integral evaluation            ...        0 min,  0.004 sec (  5.260%)
 iterations                     ...        0 min,  0.057 sec ( 82.999%)
 molecular gradient             ...        0 min,  0.005 sec (  7.579%)
 printout                       ...        0 min,  0.000 sec (  0.633%)

         :::::::::::::::::::::::::::::::::::::::::::::::::::::
         ::                     SUMMARY                     ::
         :::::::::::::::::::::::::::::::::::::::::::::::::::::
         :: total energy             -72.399061615169 Eh    ::
         :: gradient norm              0.000384385828 Eh/a0 ::
         :: HOMO-LUMO gap              2.300164290298 eV    ::
         ::.................................................::
         :: SCC energy               -73.678586817278 Eh    ::
         :: -> isotropic ES            0.035336612582 Eh    ::
         :: -> anisotropic ES          0.006222729554 Eh    ::
         :: -> anisotropic XC          0.035432837632 Eh    ::
         :: -> dispersion             -0.065577944402 Eh    ::
         :: repulsion energy           1.279525202110 Eh    ::
         :: add. restraining           0.000000000000 Eh    ::
         :: total charge               0.000000000000 e     ::
         :::::::::::::::::::::::::::::::::::::::::::::::::::::

      ----------------------------------------------------------- 
     |                   =====================                   |
     |                        A N C O P T                        |
     |                   =====================                   |
     |               Approximate Normal Coordinate               |
     |                Rational Function Optimizer                |
      ----------------------------------------------------------- 

Optimization log is written to '/dev/null'
      ----------------------------------------------------------- 
     |                   =====================                   |
     |                        A N C O P T                        |
     |                   =====================                   |
     |               Approximate Normal Coordinate               |
     |                Rational Function Optimizer                |
      ----------------------------------------------------------- 

          ...................................................
          :                      SETUP                      :
          :.................................................:
          :   optimization level         verytight          :
          :   max. optcycles                   940          :
          :   ANC micro-cycles                  20          :
          :   degrees of freedom               135          :
          :.................................................:
          :   RF solver                   davidson          :
          :   write xtbopt.log                true          :
          :   linear?                        false          :
          :   energy convergence         0.1000000E-06 Eh   :
          :   grad. convergence          0.2000000E-03 Eh/α :
          :   maxmium RF displ.          1.0000000          :
          :   Hlow (freq-cutoff)         0.1000000E-01      :
          :   Hmax (freq-cutoff)         5.0000000          :
          :   S6 in model hess.         20.0000000          :
          ...................................................

generating ANC from exact Hessian ...
Using Lindh-Hessian (1995)
 Shifting diagonal of input Hessian by   9.501314612545426E-003
 Lowest  eigenvalues of input Hessian
    0.000000    0.000000    0.000000    0.000000    0.000000    0.000000
    0.010000    0.010388    0.011143    0.011501    0.011851    0.013054
    0.014382    0.014576    0.015580    0.016590    0.018270    0.018569
 Highest eigenvalues
    2.009762    2.023457    2.069976    2.145065    2.200032    2.278726
 

........................................................................
.............................. CYCLE    1 ..............................
........................................................................

 iter      E             dE          RMSdq      gap      omega  full diag
   1    -73.6792358 -0.736792E+02  0.706E-05    2.30       0.0  T
   2    -73.6792358 -0.255653E-10  0.489E-05    2.30     298.3  T
   3    -73.6792358 -0.556923E-10  0.287E-05    2.30     507.4  T
     SCC iter.                  ...        0 min,  0.012 sec
     gradient                   ...        0 min,  0.005 sec
 * total energy  :   -72.3990616 Eh     change       -0.5193044E-08 Eh
   gradient norm :     0.0003872 Eh/α   predicted     0.0000000E+00 (-100.00%)
   displ. norm   :     0.0109221 α      lambda       -0.9968318E-06
   maximum displ.:     0.0054363 α      in ANC's #4, #6, #3, ...

........................................................................
.............................. CYCLE    2 ..............................
........................................................................

 iter      E             dE          RMSdq      gap      omega  full diag
   1    -73.6792565 -0.736793E+02  0.378E-03    2.30       0.0  T
   2    -73.6792565 -0.819351E-08  0.222E-03    2.30       6.6  T
   3    -73.6792565  0.596619E-08  0.430E-04    2.30      33.9  T
   4    -73.6792565 -0.719368E-08  0.122E-04    2.30     119.7  T
     SCC iter.                  ...        0 min,  0.016 sec
     gradient                   ...        0 min,  0.005 sec
 * total energy  :   -72.3990621 Eh     change       -0.5283892E-06 Eh
   gradient norm :     0.0002176 Eh/α   predicted    -0.5196144E-06 (  -1.66%)
   displ. norm   :     0.0069289 α      lambda       -0.4261203E-06
   maximum displ.:     0.0031753 α      in ANC's #1, #8, #13, ...

........................................................................
.............................. CYCLE    3 ..............................
........................................................................

 iter      E             dE          RMSdq      gap      omega  full diag
   1    -73.6792656 -0.736793E+02  0.213E-03    2.30       0.0  T
   2    -73.6792656 -0.175466E-08  0.126E-03    2.30      11.6  T
   3    -73.6792656  0.315497E-08  0.232E-04    2.30      62.8  T
   4    -73.6792656 -0.334565E-08  0.747E-05    2.30     195.3  T
     SCC iter.                  ...        0 min,  0.015 sec
     gradient                   ...        0 min,  0.005 sec
 * total energy  :   -72.3990626 Eh     change       -0.4888261E-06 Eh
   gradient norm :     0.0001054 Eh/α   predicted    -0.2132464E-06 ( -56.38%)
   displ. norm   :     0.0179145 α      lambda       -0.5513197E-06
   maximum displ.:     0.0088750 α      in ANC's #4, #13, #1, ...

........................................................................
.............................. CYCLE    4 ..............................
........................................................................

 iter      E             dE          RMSdq      gap      omega  full diag
   1    -73.6792622 -0.736793E+02  0.491E-03    2.30       0.0  T
   2    -73.6792622 -0.460017E-08  0.290E-03    2.30       5.0  T
   3    -73.6792621  0.151610E-07  0.495E-04    2.30      29.5  T
   4    -73.6792622 -0.170607E-07  0.111E-04    2.30     131.7  T
     SCC iter.                  ...        0 min,  0.015 sec
     gradient                   ...        0 min,  0.005 sec
 * total energy  :   -72.3990632 Eh     change       -0.5869517E-06 Eh
   gradient norm :     0.0001722 Eh/α   predicted    -0.2842011E-06 ( -51.58%)
   displ. norm   :     0.0185224 α      lambda       -0.3384869E-06
   maximum displ.:     0.0098308 α      in ANC's #4, #13, #1, ...

........................................................................
.............................. CYCLE    5 ..............................
........................................................................

 iter      E             dE          RMSdq      gap      omega  full diag
   1    -73.6792576 -0.736793E+02  0.491E-03    2.30       0.0  T
   2    -73.6792576 -0.271490E-08  0.290E-03    2.30       5.0  T
   3    -73.6792576  0.154153E-07  0.537E-04    2.30      27.2  T
   4    -73.6792576 -0.176018E-07  0.899E-05    2.30     162.2  T
     SCC iter.                  ...        0 min,  0.016 sec
     gradient                   ...        0 min,  0.005 sec
 * total energy  :   -72.3990636 Eh     change       -0.3762820E-06 Eh
   gradient norm :     0.0001634 Eh/α   predicted    -0.1728849E-06 ( -54.05%)
   displ. norm   :     0.0182640 α      lambda       -0.2883542E-06
   maximum displ.:     0.0095101 α      in ANC's #4, #13, #1, ...

........................................................................
.............................. CYCLE    6 ..............................
........................................................................

 iter      E             dE          RMSdq      gap      omega  full diag
   1    -73.6792569 -0.736793E+02  0.472E-03    2.30       0.0  T
   2    -73.6792569 -0.261542E-08  0.279E-03    2.30       5.2  T
   3    -73.6792569  0.193046E-07  0.603E-04    2.30      24.2  T
   4    -73.6792569 -0.217897E-07  0.913E-05    2.30     159.8  T
     SCC iter.                  ...        0 min,  0.016 sec
     gradient                   ...        0 min,  0.005 sec
 * total energy  :   -72.3990639 Eh     change       -0.3300952E-06 Eh
   gradient norm :     0.0000806 Eh/α   predicted    -0.1460074E-06 ( -55.77%)
   displ. norm   :     0.0221676 α      lambda       -0.3212467E-06
   maximum displ.:     0.0114610 α      in ANC's #13, #1, #4, ...

........................................................................
.............................. CYCLE    7 ..............................
........................................................................

 iter      E             dE          RMSdq      gap      omega  full diag
   1    -73.6792547 -0.736793E+02  0.579E-03    2.30       0.0  T
   2    -73.6792547 -0.328873E-08  0.341E-03    2.30       4.3  T
   3    -73.6792547  0.172639E-07  0.595E-04    2.30      24.5  T
   4    -73.6792547 -0.197879E-07  0.990E-05    2.30     147.3  T
     SCC iter.                  ...        0 min,  0.015 sec
     gradient                   ...        0 min,  0.005 sec
 * total energy  :   -72.3990643 Eh     change       -0.3501924E-06 Eh
   gradient norm :     0.0001183 Eh/α   predicted    -0.1648149E-06 ( -52.94%)
   displ. norm   :     0.0241671 α      lambda       -0.2806965E-06
   maximum displ.:     0.0122225 α      in ANC's #1, #13, #4, ...

........................................................................
.............................. CYCLE    8 ..............................
........................................................................

 iter      E             dE          RMSdq      gap      omega  full diag
   1    -73.6792512 -0.736793E+02  0.638E-03    2.30       0.0  T
   2    -73.6792512 -0.403638E-08  0.376E-03    2.30       3.9  T
   3    -73.6792512  0.143799E-07  0.529E-04    2.30      27.6  T
   4    -73.6792512 -0.167188E-07  0.102E-04    2.30     143.6  T
     SCC iter.                  ...        0 min,  0.015 sec
     gradient                   ...        0 min,  0.005 sec
 * total energy  :   -72.3990646 Eh     change       -0.2934152E-06 Eh
   gradient norm :     0.0001429 Eh/α   predicted    -0.1454949E-06 ( -50.41%)
   displ. norm   :     0.0161569 α      lambda       -0.1636734E-06
   maximum displ.:     0.0074815 α      in ANC's #1, #13, #2, ...

........................................................................
.............................. CYCLE    9 ..............................
........................................................................

 iter      E             dE          RMSdq      gap      omega  full diag
   1    -73.6792592 -0.736793E+02  0.434E-03    2.30       0.0  T
   2    -73.6792592 -0.186212E-08  0.256E-03    2.30       5.7  T
   3    -73.6792592  0.171141E-08  0.198E-04    2.30      73.7  T
   4    -73.6792592 -0.217105E-08  0.678E-05    2.30     215.3  T
     SCC iter.                  ...        0 min,  0.015 sec
     gradient                   ...        0 min,  0.005 sec
 * total energy  :   -72.3990647 Eh     change       -0.1685504E-06 Eh
   gradient norm :     0.0000824 Eh/α   predicted    -0.8520223E-07 ( -49.45%)
   displ. norm   :     0.0119891 α      lambda        0.1244329E-07
   maximum displ.:     0.0055760 α      in ANC's #1, #13, #2, ...

........................................................................
.............................. CYCLE   10 ..............................
........................................................................

 iter      E             dE          RMSdq      gap      omega  full diag
   1    -73.6792610 -0.736793E+02  0.322E-03    2.30       0.0  T
   2    -73.6792610 -0.980734E-09  0.189E-03    2.30       7.7  T
   3    -73.6792610  0.120068E-08  0.163E-04    2.30      89.7  T
   4    -73.6792610 -0.151536E-08  0.459E-05    2.30     318.1  T
     SCC iter.                  ...        0 min,  0.015 sec
     gradient                   ...        0 min,  0.005 sec
 * total energy  :   -72.3990647 Eh     change        0.1081759E-08 Eh
   gradient norm :     0.0001072 Eh/α   predicted     0.5127555E-08 ( 374.00%)
   displ. norm   :     0.0032310 α      lambda       -0.9194246E-07
   maximum displ.:     0.0013850 α      in ANC's #4, #11, #1, ...

........................................................................
.............................. CYCLE   11 ..............................
........................................................................

 iter      E             dE          RMSdq      gap      omega  full diag
   1    -73.6792589 -0.736793E+02  0.116E-03    2.30       0.0  T
   2    -73.6792589 -0.178204E-09  0.683E-04    2.30      21.4  T
   3    -73.6792589  0.771465E-09  0.128E-04    2.30     114.2  T
     SCC iter.                  ...        0 min,  0.012 sec
     gradient                   ...        0 min,  0.005 sec
 * total energy  :   -72.3990648 Eh     change       -0.9507824E-07 Eh
   gradient norm :     0.0000398 Eh/α   predicted    -0.4889058E-07 ( -48.58%)
   displ. norm   :     0.0032310 α      lambda        0.0000000E+00
   maximum displ.:     0.0013850 α      in ANC's #4, #11, #1, ...

   *** GEOMETRY OPTIMIZATION CONVERGED AFTER 11 ITERATIONS ***

------------------------------------------------------------------------
 total energy gain   :        -0.0000032 Eh       -0.0020 kcal/mol
 total RMSD          :         0.0187636 a0        0.0099 Å
 total power (kW/mol):        -0.0007690 (step)   -0.0301 (real)
------------------------------------------------------------------------

 ANCopt (total)                0 d,  0 h,  0 min,  0.281 sec
 optimizer setup                ...        0 min,  0.000 sec (  0.072%)
 model hessian                  ...        0 min,  0.028 sec ( 10.041%)
 ANC generation                 ...        0 min,  0.002 sec (  0.697%)
 coordinate transformation      ...        0 min,  0.001 sec (  0.367%)
 single point calculation       ...        0 min,  0.245 sec ( 87.130%)
 optimization log               ...        0 min,  0.002 sec (  0.649%)
 hessian update                 ...        0 min,  0.001 sec (  0.392%)
 rational function              ...        0 min,  0.001 sec (  0.299%)

================
 final structure:
================
47
 xtb: 6.7.1 (edcfbbe)
C            2.06528055449927       -2.75420731193202       -0.32931035502278
C            1.18198743402594       -1.74221317482225        0.44008748917476
C            1.28648520648631       -1.91194156666438        1.96979943300691
C            1.55501609890756       -0.31864805267024        0.05137322350439
C            0.55963141489361        0.58567413933191       -0.26650931433823
C            0.86353139855941        1.80257830100535       -0.91664950009105
C            2.15405239781976        2.17300742924336       -1.12127053764618
C            3.20718865716050        1.38029709171241       -0.62048802017148
C            4.53972438274324        1.82693166963803       -0.71812360250605
C            5.56978317680373        1.09216585921148       -0.20464127005816
C            5.28787924770090       -0.11625054717639        0.44344355070056
C            4.00584460273376       -0.58610712931772        0.52926708431909
C            2.91140237933349        0.12509900152552       -0.01893828237308
N           -0.79264477446673        0.29215077624045       -0.03732988807440
C           -1.72597692173955        1.28023511192770        0.22082401961844
C           -1.35668187651899        2.50026382644146        0.80109480725976
C           -2.30005977258965        3.47253232503344        1.04658028048256
C           -3.63854975692251        3.26268501464419        0.72777793614910
C           -4.02264583778034        2.05062428905813        0.20414532206831
C           -3.08551837376978        1.04409707300868       -0.03885803461053
C           -3.54554682728102       -0.26672603378289       -0.51196369774864
O           -4.66815806771056       -0.46446142998916       -0.94946084186671
C           -2.55037089405151       -1.33213402892810       -0.34315560325679
C           -2.95445254513414       -2.66524802028252       -0.40448440563223
C           -2.04169655017527       -3.67252333332845       -0.19963499337858
C           -0.71304712172186       -3.35670987754856        0.05575361486349
C           -0.26860205028522       -2.04560148878002        0.09332535122074
C           -1.20381161432280       -1.02393911292719       -0.09605274768933
H            1.52349439363143       -3.13345543785285       -1.19331739837617
H            2.33677368815593       -3.59579978537073        0.30331359017910
H            2.97509576104975       -2.29995789902153       -0.70464645054461
H            2.28780067374555       -1.71068767804087        2.33693837172150
H            0.60381888194450       -1.21874623371943        2.45921016988842
H            1.00428250998751       -2.92335209811663        2.25425271106694
H            0.05182142149116        2.41255569007527       -1.28258285852044
H            2.38739160925098        3.08516696800487       -1.64972957935745
H            4.72581881678282        2.77720417959170       -1.19789224836901
H            6.58916936754745        1.44005015215832       -0.27797042860976
H            6.09458778864048       -0.68236950384991        0.88603954236270
H            3.84290213555427       -1.50817815666772        1.06008008101407
H           -0.32735147076002        2.66838030245082        1.08053767004109
H           -1.99423385460217        4.40303404403897        1.50162537914546
H           -4.36716678420917        4.03700184741192        0.91173838859206
H           -5.05537228345725        1.83280650067371       -0.02339503079963
H           -3.99601997126521       -2.86811344346796       -0.60066685580565
H           -2.35028360956379       -4.70634929829566       -0.22640257556309
H           -0.01760343262178       -4.16030604507455        0.24198561903049
 
 Bond Distances (Angstroems)
 ---------------------------
C1-C2=1.5480         C1-H29=1.0881        C1-H30=1.0873        C1-H31=1.0840        C2-C1=1.5480         C2-C3=1.5426         
C2-C4=1.5221         C2-C27=1.5220        C3-C2=1.5426         C3-H32=1.0853        C3-H33=1.0891        C3-H34=1.0879        
C4-C2=1.5221         C4-C5=1.3819         C4-C13=1.4289        C5-C4=1.3819         C5-C6=1.4128         C5-N14=1.4026        
C6-C5=1.4128         C6-C7=1.3581         C6-H35=1.0793        C7-C6=1.3581         C7-C8=1.4101         C7-H36=1.0797        
C8-C7=1.4101         C8-C9=1.4088         C8-C13=1.4230        C9-C8=1.4088         C9-C10=1.3655        C9-H37=1.0807        
C10-C9=1.3655        C10-C11=1.3999       C10-H38=1.0796       C11-C10=1.3999       C11-C12=1.3681       C11-H39=1.0804       
C12-C11=1.3681       C12-C13=1.4157       C12-H40=1.0763       C13-C4=1.4289        C13-C8=1.4230        C13-C12=1.4157       
N14-C5=1.4026        N14-C15=1.3835       N14-C28=1.3801       C15-N14=1.3835       C15-C16=1.4006       C15-C20=1.4041       
C16-C15=1.4006       C16-C17=1.3768       C16-H41=1.0798       C17-C16=1.3768       C17-C18=1.3918       C17-H42=1.0800       
C18-C17=1.3918       C18-C19=1.3751       C18-H43=1.0790       C19-C18=1.3751       C19-C20=1.3966       C19-H44=1.0797       
C20-C15=1.4041       C20-C19=1.3966       C20-C21=1.4676       C21-C20=1.4676       C21-O22=1.2210       C21-C23=1.4676       
O22-C21=1.2210       C23-C21=1.4676       C23-C24=1.3944       C23-C28=1.4033       C24-C23=1.3944       C24-C25=1.3747       
C24-H45=1.0791       C25-C24=1.3747       C25-C26=1.3893       C25-H46=1.0792       C26-C25=1.3893       C26-C27=1.3849       
C26-H47=1.0789       C27-C2=1.5220        C27-C26=1.3849       C27-C28=1.3980       C28-N14=1.3801       C28-C23=1.4033       
C28-C27=1.3980       H29-C1=1.0881        H30-C1=1.0873        H31-C1=1.0840        H32-C3=1.0853        H33-C3=1.0891        
H34-C3=1.0879        H35-C6=1.0793        H36-C7=1.0797        H37-C9=1.0807        H38-C10=1.0796       H39-C11=1.0804       
H40-C12=1.0763       H41-C16=1.0798       H42-C17=1.0800       H43-C18=1.0790       H44-C19=1.0797       H45-C24=1.0791       
H46-C25=1.0792       H47-C26=1.0789       
 C  H  Rav=1.0818 sigma=0.0037  Rmin=1.0763  Rmax=1.0891    19
 C  C  Rav=1.4183 sigma=0.0525  Rmin=1.3581  Rmax=1.5480    29
 N  C  Rav=1.3887 sigma=0.0099  Rmin=1.3801  Rmax=1.4026     3
 O  C  Rav=1.2210 sigma=0.0000  Rmin=1.2210  Rmax=1.2210     1
 
 selected bond angles (degree)
 --------------------
H29-C1-C2=109.78               H30-C1-C2=111.06               H30-C1-H29=108.46              H31-C1-C2=112.15               
H31-C1-H29=106.80              H31-C1-H30=108.44              C3-C2-C1=112.47                C4-C2-C1=110.16                
C4-C2-C3=109.85                C27-C2-C1=107.47               C27-C2-C3=105.58               C27-C2-C4=111.21               
H32-C3-C2=112.18               H33-C3-C2=109.46               H33-C3-H32=107.96              H34-C3-C2=110.12               
H34-C3-H32=108.86              H34-C3-H33=108.16              C5-C4-C2=119.62                C13-C4-C2=122.39               
C13-C4-C5=117.98               C6-C5-C4=120.97                N14-C5-C4=121.33               N14-C5-C6=117.57               
C7-C6-C5=120.58                H35-C6-C5=118.75               H35-C6-C7=120.62               C8-C7-C6=120.19                
H36-C7-C6=120.63               H36-C7-C8=119.17               C9-C8-C7=120.24                C13-C8-C7=119.39               
C13-C8-C9=120.37               C10-C9-C8=121.12               H37-C9-C8=118.19               H37-C9-C10=120.68              
C11-C10-C9=119.12              H38-C10-C9=120.89              H38-C10-C11=119.98             
 
 selected dihedral angles (degree)
 ---------------------------------
C3-C2-C1-H29=138.72           C3-C2-C1-H30= 18.79           C3-C2-C1-H31=257.28           C4-C2-C1-H29=261.63           
C4-C2-C1-H30=141.70           C4-C2-C1-H31= 20.19           C27-C2-C1-H29= 22.94          C27-C2-C1-H30=263.01          
C27-C2-C1-H31=141.50          H32-C3-C2-C1= 63.53           H32-C3-C2-C4=300.44           H32-C3-C2-C27=180.45          
H33-C3-C2-C1=183.34           H33-C3-C2-C4= 60.25           H33-C3-C2-C27=300.26          H34-C3-C2-C1=302.12           
H34-C3-C2-C4=179.03           H34-C3-C2-C27= 59.04          C5-C4-C2-C1=132.77            C5-C4-C2-C3=257.21            
C5-C4-C2-C27= 13.72           C13-C4-C2-C1=313.71           C13-C4-C2-C3= 78.14           C13-C4-C2-C27=194.65          
C6-C5-C4-C2=194.54            C6-C5-C4-C13= 13.65           N14-C5-C4-C2= 10.26           N14-C5-C4-C13=189.37          
C7-C6-C5-C4=353.22            C7-C6-C5-N14=177.35           H35-C6-C5-C4=170.79           H35-C6-C5-N14=354.92          
C8-C7-C6-C5=356.50            C8-C7-C6-H35=178.98           H36-C7-C6-C5=177.76           H36-C7-C6-H35=  0.24          
C9-C8-C7-C6=186.15            C9-C8-C7-H36=  4.91           C13-C8-C7-C6=  6.29           C13-C8-C7-H36=185.04          
C10-C9-C8-C7=178.07           C10-C9-C8-C13=357.94          H37-C9-C8-C7=359.02           H37-C9-C8-C13=178.89          
C11-C10-C9-C8=359.18          C11-C10-C9-H37=178.21         H38-C10-C9-C8=180.26          H38-C10-C9-H37=359.28         
           -------------------------------------------------
          |                Final Singlepoint                |
           -------------------------------------------------

          ...................................................
          :                      SETUP                      :
          :.................................................:
          :  # basis functions                 131          :
          :  # atomic orbitals                 131          :
          :  # shells                           75          :
          :  # electrons                       134          :
          :  max. iterations                   250          :
          :  Hamiltonian                  GFN2-xTB          :
          :  restarted?                      false          :
          :  GBSA solvation                  false          :
          :  PC potential                    false          :
          :  electronic temp.          300.0000000     K    :
          :  accuracy                    1.0000000          :
          :  -> integral cutoff          0.2500000E+02      :
          :  -> integral neglect         0.1000000E-07      :
          :  -> SCF convergence          0.1000000E-05 Eh   :
          :  -> wf. convergence          0.1000000E-03 e    :
          :  Broyden damping             0.4000000          :
          :  net charge                          0          :
          :  unpaired electrons                  0          :
          ...................................................

 iter      E             dE          RMSdq      gap      omega  full diag
   1    -73.6792589 -0.736793E+02  0.215E-05    2.30       0.0  T
   2    -73.6792589 -0.139266E-11  0.165E-05    2.30     883.6  T
   3    -73.6792589 -0.989075E-11  0.760E-06    2.30    1918.3  T

   *** convergence criteria satisfied after 3 iterations ***

         #    Occupation            Energy/Eh            Energy/eV
      -------------------------------------------------------------
         1        2.0000           -0.6854600             -18.6523
       ...           ...                  ...                  ...
        61        2.0000           -0.4136804             -11.2568
        62        2.0000           -0.4119278             -11.2091
        63        2.0000           -0.4083993             -11.1131
        64        2.0000           -0.4059111             -11.0454
        65        2.0000           -0.3885531             -10.5731
        66        2.0000           -0.3744658             -10.1897
        67        2.0000           -0.3624054              -9.8616 (HOMO)
        68                         -0.2778575              -7.5609 (LUMO)
        69                         -0.2653628              -7.2209
        70                         -0.2410601              -6.5596
        71                         -0.2359894              -6.4216
        72                         -0.2292528              -6.2383
       ...                                ...                  ...
       131                          0.7208370              19.6150
      -------------------------------------------------------------
                  HL-Gap            0.0845478 Eh            2.3007 eV
             Fermi-level           -0.3201315 Eh           -8.7112 eV

 SCC (total)                   0 d,  0 h,  0 min,  0.019 sec
 SCC setup                      ...        0 min,  0.000 sec (  0.514%)
 Dispersion                     ...        0 min,  0.000 sec (  1.756%)
 classical contributions        ...        0 min,  0.000 sec (  0.136%)
 integral evaluation            ...        0 min,  0.002 sec (  9.122%)
 iterations                     ...        0 min,  0.012 sec ( 61.435%)
 molecular gradient             ...        0 min,  0.005 sec ( 25.402%)
 printout                       ...        0 min,  0.000 sec (  1.247%)

         :::::::::::::::::::::::::::::::::::::::::::::::::::::
         ::                     SUMMARY                     ::
         :::::::::::::::::::::::::::::::::::::::::::::::::::::
         :: total energy             -72.399064837953 Eh    ::
         :: gradient norm              0.000040022811 Eh/a0 ::
         :: HOMO-LUMO gap              2.300663552951 eV    ::
         ::.................................................::
         :: SCC energy               -73.678610317211 Eh    ::
         :: -> isotropic ES            0.035301105752 Eh    ::
         :: -> anisotropic ES          0.006222563454 Eh    ::
         :: -> anisotropic XC          0.035436512008 Eh    ::
         :: -> dispersion             -0.065577091498 Eh    ::
         :: repulsion energy           1.279545479258 Eh    ::
         :: add. restraining           0.000000000000 Eh    ::
         :: total charge               0.000000000000 e     ::
         :::::::::::::::::::::::::::::::::::::::::::::::::::::

           ------------------------------------------------- 
          |                Numerical Hessian                |
           ------------------------------------------------- 
step length          :   0.00500
SCC accuracy         :   0.30000
Hessian scale factor :   1.00000
frozen atoms in %    :   0.00000    0
RMS gradient         :   0.00004
estimated CPU  time      2.52 min
estimated wall time      0.06 min

writing file <hessian>.

 projected vibrational frequencies (cm⁻¹)
eigval :       -0.00    -0.00    -0.00     0.00     0.00     0.00
eigval :       36.77    43.70    61.76    78.41    97.45   126.57
eigval :      134.28   152.38   155.04   173.68   196.55   201.07
eigval :      241.52   258.30   277.91   286.64   300.10   311.01
eigval :      325.79   345.18   366.00   377.18   397.29   416.54
eigval :      421.95   439.27   464.28   484.04   495.63   501.36
eigval :      513.29   526.09   542.92   562.15   571.83   573.80
eigval :      607.25   628.29   638.94   652.52   665.84   698.27
eigval :      709.88   728.68   734.36   736.12   770.57   787.67
eigval :      800.89   813.25   840.77   842.48   855.18   884.66
eigval :      886.81   904.59   913.03   917.03   920.95   924.28
eigval :      924.43   931.31   936.71   940.25   965.36   975.38
eigval :      996.62  1026.91  1050.54  1090.74  1094.87  1117.96
eigval :     1125.20  1131.27  1150.17  1156.59  1175.41  1177.61
eigval :     1186.94  1191.39  1201.60  1211.01  1225.01  1236.27
eigval :     1244.21  1251.18  1257.06  1277.75  1305.72  1323.56
eigval :     1337.96  1346.27  1352.03  1374.22  1390.38  1407.71
eigval :     1412.92  1423.57  1427.44  1443.07  1453.14  1462.03
eigval :     1472.56  1487.63  1498.63  1501.77  1507.07  1522.97
eigval :     1553.13  1562.63  1575.92  1585.91  1594.80  1600.89
eigval :     1610.42  1673.69  3021.77  3030.57  3031.77  3034.86
eigval :     3059.74  3072.65  3078.01  3079.81  3080.00  3083.18
eigval :     3087.79  3089.71  3092.77  3094.52  3097.47  3100.66
eigval :     3102.27  3105.92  3129.53
           -------------------------------------------------
          |                Property Printout                |
           -------------------------------------------------

    * Orbital Energies and Occupations

         #    Occupation            Energy/Eh            Energy/eV
      -------------------------------------------------------------
         1        2.0000           -0.6854600             -18.6523
       ...           ...                  ...                  ...
        55        2.0000           -0.4385142             -11.9326
        56        2.0000           -0.4354927             -11.8504
        57        2.0000           -0.4342872             -11.8176
        58        2.0000           -0.4271299             -11.6228
        59        2.0000           -0.4223703             -11.4933
        60        2.0000           -0.4163408             -11.3292
        61        2.0000           -0.4136803             -11.2568
        62        2.0000           -0.4119278             -11.2091
        63        2.0000           -0.4083993             -11.1131
        64        2.0000           -0.4059111             -11.0454
        65        2.0000           -0.3885531             -10.5731
        66        2.0000           -0.3744658             -10.1897
        67        2.0000           -0.3624053              -9.8616 (HOMO)
        68                         -0.2778575              -7.5609 (LUMO)
        69                         -0.2653628              -7.2209
        70                         -0.2410601              -6.5596
        71                         -0.2359894              -6.4216
        72                         -0.2292528              -6.2383
        73                         -0.2105960              -5.7306
        74                         -0.1976298              -5.3778
        75                         -0.1737627              -4.7283
        76                         -0.1523945              -4.1469
        77                         -0.1042697              -2.8373
        78                         -0.0732173              -1.9923
       ...                                ...                  ...
       131                          0.7208370              19.6150
      -------------------------------------------------------------
                  HL-Gap            0.0845478 Eh            2.3007 eV
             Fermi-level           -0.3201314 Eh           -8.7112 eV

     #   Z          covCN         q      C6AA      α(0)
     1   6 C        3.758    -0.112    22.702     6.793
     2   6 C        3.906     0.024    20.121     6.376
     3   6 C        3.762    -0.100    22.457     6.755
     4   6 C        2.970    -0.016    28.415     8.744
     5   6 C        2.931     0.053    26.811     8.492
     6   6 C        2.919    -0.046    29.147     8.853
     7   6 C        2.919    -0.039    28.960     8.825
     8   6 C        2.991     0.007    27.847     8.656
     9   6 C        2.923    -0.034    28.844     8.807
    10   6 C        2.915    -0.031    28.775     8.796
    11   6 C        2.917    -0.032    28.790     8.799
    12   6 C        2.918    -0.040    29.003     8.831
    13   6 C        2.982     0.008    27.830     8.654
    14   7 N        2.758    -0.037    21.957     6.959
    15   6 C        2.931     0.061    26.631     8.463
    16   6 C        2.920    -0.049    29.216     8.864
    17   6 C        2.920    -0.025    28.639     8.776
    18   6 C        2.916    -0.036    28.905     8.816
    19   6 C        2.924    -0.019    28.487     8.753
    20   6 C        2.981    -0.034    28.842     8.809
    21   6 C        2.833     0.217    23.417     7.930
    22   8 O        0.857    -0.407    21.814     6.262
    23   6 C        2.981    -0.036    28.889     8.817
    24   6 C        2.924    -0.023    28.570     8.766
    25   6 C        2.915    -0.039    28.967     8.826
    26   6 C        2.927    -0.034    28.857     8.810
    27   6 C        2.984    -0.011    28.281     8.723
    28   6 C        2.946     0.055    26.770     8.486
    29   1 H        0.925     0.040     2.453     2.449
    30   1 H        0.925     0.040     2.451     2.448
    31   1 H        0.925     0.049     2.332     2.388
    32   1 H        0.925     0.044     2.394     2.420
    33   1 H        0.925     0.033     2.547     2.496
    34   1 H        0.925     0.040     2.444     2.445
    35   1 H        0.926     0.041     2.441     2.443
    36   1 H        0.926     0.037     2.485     2.465
    37   1 H        0.926     0.032     2.553     2.498
    38   1 H        0.926     0.031     2.574     2.509
    39   1 H        0.926     0.030     2.584     2.514
    40   1 H        0.926     0.044     2.399     2.422
    41   1 H        0.926     0.038     2.479     2.462
    42   1 H        0.926     0.037     2.488     2.466
    43   1 H        0.926     0.038     2.476     2.460
    44   1 H        0.926     0.062     2.173     2.305
    45   1 H        0.926     0.061     2.188     2.313
    46   1 H        0.926     0.037     2.489     2.467
    47   1 H        0.926     0.042     2.423     2.434

 Mol. C6AA /au·bohr⁶  :      30615.684027
 Mol. C8AA /au·bohr⁸  :     769786.679216
 Mol. α(0) /au        :        279.846683


MOs/occ written to file <molden.input>


molecular dipole:
                 x           y           z       tot (Debye)
 q only:        1.875       0.100       0.641
   full:        2.035       0.187       0.727       5.513
molecular quadrupole (traceless):
                xx          xy          yy          xz          yz          zz
 q only:      -16.233      -5.929      14.652      -6.806      -1.495       1.581
  q+dip:      -14.128      -6.094      19.926      -5.923      -3.859      -5.798
   full:      -18.643      -6.008      16.974      -7.969      -2.634       1.669

           -------------------------------------------------
          |                Geometry Summary                 |
           -------------------------------------------------

      molecular mass/u    :      361.4361158
   center of mass at/Å    :        0.0002396       0.0003235      -0.0007156
  moments of inertia/u·Å² :        0.1596443E+04   0.3307710E+04   0.4554646E+04
rotational constants/cm⁻¹ :        0.1055949E-01   0.5096466E-02   0.3701195E-02

 * 46 selected distances

     #   Z          #   Z                                           value/Å
     4   6 C        5   6 C                                       1.3818969
     5   6 C        6   6 C                                       1.4127610
     6   6 C        7   6 C                                       1.3581356
     7   6 C        8   6 C                                       1.4100600
     8   6 C        9   6 C                                       1.4087821
     9   6 C       10   6 C                                       1.3654913
    10   6 C       11   6 C                                       1.3999123
    11   6 C       12   6 C                                       1.3681170
     4   6 C       13   6 C                                       1.4288594 (max)
     8   6 C       13   6 C                                       1.4229808
    12   6 C       13   6 C                                       1.4156791
     5   6 C       14   7 N                                       1.4026156
    14   7 N       15   6 C                                       1.3834968
    15   6 C       16   6 C                                       1.4005583
    16   6 C       17   6 C                                       1.3767830
    17   6 C       18   6 C                                       1.3918429
    18   6 C       19   6 C                                       1.3750682
    15   6 C       20   6 C                                       1.4041187
    19   6 C       20   6 C                                       1.3965514
    21   6 C       22   8 O                                       1.2209665
    23   6 C       24   6 C                                       1.3943588
    24   6 C       25   6 C                                       1.3746602
    25   6 C       26   6 C                                       1.3893420
    26   6 C       27   6 C                                       1.3849002
    14   7 N       28   6 C                                       1.3800723
    23   6 C       28   6 C                                       1.4033055
    27   6 C       28   6 C                                       1.3979540
     1   6 C       29   1 H                                       1.0880578
     1   6 C       30   1 H                                       1.0872901
     1   6 C       31   1 H                                       1.0839666
     3   6 C       32   1 H                                       1.0853235
     3   6 C       33   1 H                                       1.0890712
     3   6 C       34   1 H                                       1.0878895
     6   6 C       35   1 H                                       1.0792835
     7   6 C       36   1 H                                       1.0796997
     9   6 C       37   1 H                                       1.0806605
    10   6 C       38   1 H                                       1.0796060
    11   6 C       39   1 H                                       1.0803522
    12   6 C       40   1 H                                       1.0763493 (min)
    16   6 C       41   1 H                                       1.0797559
    17   6 C       42   1 H                                       1.0800135
    18   6 C       43   1 H                                       1.0790232
    19   6 C       44   1 H                                       1.0796959
    24   6 C       45   1 H                                       1.0791223
    25   6 C       46   1 H                                       1.0792307
    26   6 C       47   1 H                                       1.0789306

 * 4 distinct bonds (by element types)

   Z      Z             #   av. dist./Å        max./Å        min./Å
   1 H    6 C          19     1.0817538     1.0890712     1.0763493
   6 C    6 C          23     1.3940051     1.4288594     1.3581356
   6 C    7 N           3     1.3887282     1.4026156     1.3800723
   6 C    8 O           1     1.2209665     1.2209665     1.2209665

           -------------------------------------------------
          |               Frequency Printout                |
           -------------------------------------------------
 projected vibrational frequencies (cm⁻¹)
eigval :       -0.00    -0.00    -0.00     0.00     0.00     0.00
eigval :       36.77    43.70    61.76    78.41    97.45   126.57
eigval :      134.28   152.38   155.04   173.68   196.55   201.07
eigval :      241.52   258.30   277.91   286.64   300.10   311.01
eigval :      325.79   345.18   366.00   377.18   397.29   416.54
eigval :      421.95   439.27   464.28   484.04   495.63   501.36
eigval :      513.29   526.09   542.92   562.15   571.83   573.80
eigval :      607.25   628.29   638.94   652.52   665.84   698.27
eigval :      709.88   728.68   734.36   736.12   770.57   787.67
eigval :      800.89   813.25   840.77   842.48   855.18   884.66
eigval :      886.81   904.59   913.03   917.03   920.95   924.28
eigval :      924.43   931.31   936.71   940.25   965.36   975.38
eigval :      996.62  1026.91  1050.54  1090.74  1094.87  1117.96
eigval :     1125.20  1131.27  1150.17  1156.59  1175.41  1177.61
eigval :     1186.94  1191.39  1201.60  1211.01  1225.01  1236.27
eigval :     1244.21  1251.18  1257.06  1277.75  1305.72  1323.56
eigval :     1337.96  1346.27  1352.03  1374.22  1390.38  1407.71
eigval :     1412.92  1423.57  1427.44  1443.07  1453.14  1462.03
eigval :     1472.56  1487.63  1498.63  1501.77  1507.07  1522.97
eigval :     1553.13  1562.63  1575.92  1585.91  1594.80  1600.89
eigval :     1610.42  1673.69  3021.77  3030.57  3031.77  3034.86
eigval :     3059.74  3072.65  3078.01  3079.81  3080.00  3083.18
eigval :     3087.79  3089.71  3092.77  3094.52  3097.47  3100.66
eigval :     3102.27  3105.92  3129.53
 reduced masses (amu)
   1: 10.85   2: 11.71   3: 11.56   4: 11.67   5: 11.26   6: 11.73   7:  9.94   8: 11.60
   9: 10.52  10:  9.46  11:  9.00  12:  9.74  13:  7.64  14: 10.77  15: 10.28  16:  2.78
  17:  8.98  18: 10.02  19:  9.96  20: 10.89  21: 10.73  22:  9.99  23: 10.40  24: 12.97
  25: 10.68  26: 11.40  27:  9.36  28: 10.74  29: 10.48  30: 10.61  31: 10.52  32:  9.88
  33: 11.07  34: 10.11  35: 10.24  36: 11.08  37: 11.83  38: 10.99  39: 10.79  40: 10.81
  41: 10.92  42: 10.83  43: 11.05  44: 11.26  45: 11.34  46: 11.11  47: 11.32  48: 11.43
  49: 10.99  50: 11.52  51: 10.74  52: 10.71  53:  3.45  54:  4.10  55: 10.53  56:  4.40
  57:  6.63  58:  8.88  59: 10.39  60:  3.75  61:  3.65  62: 11.04  63:  3.92  64:  3.60
  65:  3.77  66:  3.65  67:  3.38  68:  9.22  69:  3.16  70:  2.94  71:  9.62  72:  4.52
  73:  9.40  74:  3.43  75:  8.96  76:  5.96  77:  6.73  78:  5.41  79:  7.66  80:  6.33
  81:  8.23  82:  7.98  83:  2.56  84:  2.18  85:  2.72  86:  3.67  87:  5.50  88:  6.12
  89:  6.21  90:  8.70  91:  4.91  92:  7.80  93:  4.81  94: 10.46  95: 10.29  96: 10.18
  97: 10.43  98: 11.47  99: 10.74 100: 10.76 101:  9.18 102:  3.12 103:  9.77 104:  7.33
 105:  5.58 106: 10.10 107:  9.83 108: 10.22 109: 10.61 110:  1.82 111:  1.81 112:  3.31
 113:  8.82 114:  1.64 115: 11.69 116: 11.72 117: 11.66 118: 11.58 119: 11.51 120: 11.62
 121: 11.42 122: 13.42 123:  1.89 124:  1.83 125:  1.68 126:  1.66 127:  1.62 128:  1.78
 129:  1.81 130:  1.63 131:  1.76 132:  1.78 133:  1.77 134:  1.81 135:  1.90 136:  1.85
 137:  1.88 138:  1.83 139:  1.91 140:  1.89 141:  1.83
 IR intensities (km·mol⁻¹)
   1:  0.08   2:  0.29   3:  0.24   4:  0.04   5:  0.13   6:  0.03   7:  0.76   8:  1.68
   9:  1.06  10:  1.27  11:  0.24  12:  0.77  13:  0.19  14:  0.95  15:  2.11  16:  0.19
  17:  0.13  18:  0.19  19:  0.84  20:  2.05  21:  1.61  22:  0.94  23:  1.55  24:  5.32
  25:  0.26  26:  1.11  27:  2.77  28:  0.96  29:  0.13  30:  2.54  31:  7.72  32:  1.61
  33:  1.11  34:  1.58  35:  0.48  36:  0.99  37:  1.06  38:  0.64  39:  0.98  40:  0.44
  41:  2.24  42:  0.79  43:  0.31  44:  2.20  45:  2.33  46:  0.12  47:  3.20  48:  2.40
  49:  2.83  50:  0.91  51:  2.87  52: 38.88  53: 11.44  54: 10.88  55:  1.55  56: 14.07
  57: 16.12  58:  3.88  59:  0.91  60:  0.59  61:  0.52  62: 12.71  63:  0.30  64:  0.66
  65:  0.04  66:  0.20  67:  0.74  68:  0.73  69:  0.88  70:  0.35  71:  6.98  72:  0.01
  73:  6.83  74:  1.79  75:  8.84  76:  0.98  77:  0.03  78:  5.63  79:  7.83  80: 10.46
  81:  4.73  82:  8.83  83:  0.65  84:  0.77  85:  0.89  86:  5.32  87:  0.67  88:  5.10
  89:  0.46  90:  7.84  91:  6.70  92:  2.41  93:  1.94  94:  9.18  95:124.73  96:154.66
  97: 81.24  98:  5.10  99: 14.37 100: 38.50 101: 23.13 102:  2.74 103: 49.60 104: 16.02
 105: 10.82 106: 61.89 107: 39.95 108:270.28 109:182.83 110:  0.53 111:  4.11 112:  2.92
 113:  2.87 114:  3.08 115: 35.06 116:  9.96 117: 45.19 118: 52.87 119: 56.69 120: 53.34
 121:  5.86 122:610.27 123: 21.50 124: 14.04 125: 17.23 126: 34.52 127: 20.46 128:  3.42
 129: 32.35 130: 12.26 131:  9.38 132: 18.49 133: 15.52 134: 28.25 135: 93.56 136: 20.90
 137: 31.70 138: 16.83 139: 46.56 140: 32.41 141: 14.45
 Raman intensities (Ä⁴*amu⁻¹)
   1:  0.00   2:  0.00   3:  0.00   4:  0.00   5:  0.00   6:  0.00   7:  0.00   8:  0.00
   9:  0.00  10:  0.00  11:  0.00  12:  0.00  13:  0.00  14:  0.00  15:  0.00  16:  0.00
  17:  0.00  18:  0.00  19:  0.00  20:  0.00  21:  0.00  22:  0.00  23:  0.00  24:  0.00
  25:  0.00  26:  0.00  27:  0.00  28:  0.00  29:  0.00  30:  0.00  31:  0.00  32:  0.00
  33:  0.00  34:  0.00  35:  0.00  36:  0.00  37:  0.00  38:  0.00  39:  0.00  40:  0.00
  41:  0.00  42:  0.00  43:  0.00  44:  0.00  45:  0.00  46:  0.00  47:  0.00  48:  0.00
  49:  0.00  50:  0.00  51:  0.00  52:  0.00  53:  0.00  54:  0.00  55:  0.00  56:  0.00
  57:  0.00  58:  0.00  59:  0.00  60:  0.00  61:  0.00  62:  0.00  63:  0.00  64:  0.00
  65:  0.00  66:  0.00  67:  0.00  68:  0.00  69:  0.00  70:  0.00  71:  0.00  72:  0.00
  73:  0.00  74:  0.00  75:  0.00  76:  0.00  77:  0.00  78:  0.00  79:  0.00  80:  0.00
  81:  0.00  82:  0.00  83:  0.00  84:  0.00  85:  0.00  86:  0.00  87:  0.00  88:  0.00
  89:  0.00  90:  0.00  91:  0.00  92:  0.00  93:  0.00  94:  0.00  95:  0.00  96:  0.00
  97:  0.00  98:  0.00  99:  0.00 100:  0.00 101:  0.00 102:  0.00 103:  0.00 104:  0.00
 105:  0.00 106:  0.00 107:  0.00 108:  0.00 109:  0.00 110:  0.00 111:  0.00 112:  0.00
 113:  0.00 114:  0.00 115:  0.00 116:  0.00 117:  0.00 118:  0.00 119:  0.00 120:  0.00
 121:  0.00 122:  0.00 123:  0.00 124:  0.00 125:  0.00 126:  0.00 127:  0.00 128:  0.00
 129:  0.00 130:  0.00 131:  0.00 132:  0.00 133:  0.00 134:  0.00 135:  0.00 136:  0.00
 137:  0.00 138:  0.00 139:  0.00 140:  0.00 141:  0.00
 output can be read by thermo (or use thermo option).
 writing <g98.out> molden fake output.
 recommended (thermochemical) frequency scaling factor: 1.0
           -------------------------------------------------
          |             Thermodynamic Functions             |
           -------------------------------------------------

Molecule has no symmetry elements
It seems to be the C1 point group
c1  symmetry found (for desy threshold:  0.10E+00) used in thermo

          ...................................................
          :                      SETUP                      :
          :.................................................:
          :  # frequencies                         135      :
          :  # imaginary freq.                       0      :
          :  linear?                             false      :
          :  only rotor calc.                    false      :
          :  symmetry                               c1      :
          :  rotational number                       1      :
          :  scaling factor                  1.0000000      :
          :  rotor cutoff                   50.0000000 cm⁻¹ :
          :  imag. cutoff                  -20.0000000 cm⁻¹ :
          :.................................................:

    mode    ω/cm⁻¹     T·S(HO)/kcal·mol⁻¹    T·S(FR)/kcal·mol⁻¹   T·S(vib)
   ------------------------------------------------------------------------
       1     36.77    -1.61774 ( 22.63%)    -1.14756 ( 77.37%)    -1.25395
       2     43.70    -1.51580 ( 36.84%)    -1.09643 ( 63.16%)    -1.25094
       3     61.76    -1.31191 ( 69.95%)    -0.99395 ( 30.05%)    -1.21636
       4     78.41    -1.17183 ( 85.81%)    -0.92325 ( 14.19%)    -1.13656
       5     97.45    -1.04489 ( 93.52%)    -0.85883 (  6.48%)    -1.03284
       6    126.57    -0.89371 ( 97.62%)    -0.78140 (  2.38%)    -0.89104
       7    134.28    -0.85980 ( 98.11%)    -0.76388 (  1.89%)    -0.85799
       8    152.38    -0.78779 ( 98.85%)    -0.72642 (  1.15%)    -0.78709
       9    155.04    -0.77799 ( 98.93%)    -0.72129 (  1.07%)    -0.77739
      10    173.68    -0.71417 ( 99.32%)    -0.68767 (  0.68%)    -0.71399
      11    196.55    -0.64555 ( 99.58%)    -0.65103 (  0.42%)    -0.64558
      12    201.07    -0.63306 ( 99.62%)    -0.64429 (  0.38%)    -0.63311
      13    241.52    -0.53418 ( 99.82%)    -0.58998 (  0.18%)    -0.53428
      14    258.30    -0.49888 ( 99.86%)    -0.57009 (  0.14%)    -0.49898
      15    277.91    -0.46109 ( 99.90%)    -0.54841 (  0.10%)    -0.46118
      16    286.64    -0.44536 ( 99.91%)    -0.53925 (  0.09%)    -0.44545
   ------------------------------------------------------------------------

   temp. (K)  partition function   enthalpy   heat capacity  entropy
                                   cal/mol     cal/K/mol   cal/K/mol   J/K/mol
 298.15  VIB  0.105E+08            11776.649     82.132     69.016
         ROT  0.118E+08              888.752      2.981     35.349
         INT  0.124E+15            12665.401     85.113    104.365
         TR   0.665E+28             1481.254      4.968     43.528
         TOT                       14146.6554    90.0811   147.8930   618.7845

       T/K    H(0)-H(T)+PV         H(T)/Eh          T*S/Eh         G(T)/Eh
   ------------------------------------------------------------------------
    298.15    0.225441E-01    0.389900E+00    0.702688E-01    0.319632E+00
   ------------------------------------------------------------------------

         :::::::::::::::::::::::::::::::::::::::::::::::::::::
         ::                  THERMODYNAMIC                  ::
         :::::::::::::::::::::::::::::::::::::::::::::::::::::
         :: total free energy         -72.079433128029 Eh   ::
         ::.................................................::
         :: total energy              -72.399064837953 Eh   ::
         :: zero point energy           0.367356332954 Eh   ::
         :: G(RRHO) w/o ZPVE           -0.047724623030 Eh   ::
         :: G(RRHO) contrib.            0.319631709924 Eh   ::
         :::::::::::::::::::::::::::::::::::::::::::::::::::::

optimized geometry written to: xtbopt.xyz


           -------------------------------------------------
          | TOTAL ENERGY              -72.399064837953 Eh   |
          | TOTAL ENTHALPY            -72.009164374663 Eh   |
          | TOTAL FREE ENERGY         -72.079433128029 Eh   |
          | GRADIENT NORM               0.000040058966 Eh/α |
          | HOMO-LUMO GAP               2.300662606834 eV   |
           -------------------------------------------------

------------------------------------------------------------------------
 * finished run on 2025/07/17 at 21:45:38.364     
------------------------------------------------------------------------
 total:
 * wall-time:     0 d,  0 h,  0 min,  1.418 sec
 *  cpu-time:     0 d,  0 h,  0 min, 52.539 sec
 * ratio c/w:    37.039 speedup
 SCF:
 * wall-time:     0 d,  0 h,  0 min,  0.068 sec
 *  cpu-time:     0 d,  0 h,  0 min,  2.719 sec
 * ratio c/w:    39.707 speedup
 ANC optimizer:
 * wall-time:     0 d,  0 h,  0 min,  0.302 sec
 *  cpu-time:     0 d,  0 h,  0 min, 12.067 sec
 * ratio c/w:    39.998 speedup
 analytical hessian:
 * wall-time:     0 d,  0 h,  0 min,  0.968 sec
 *  cpu-time:     0 d,  0 h,  0 min, 35.080 sec
 * ratio c/w:    36.238 speedup

