$hessian                                                                        
        0.5054669319   0.0348899279   0.0208891742  -0.0939156943   0.0326550252
        0.0320262162   0.0015262762   0.0009232274   0.0015588741   0.0036816206
        0.0051375631  -0.0019628841   0.0006190805  -0.0002103730   0.0005143749
       -0.0001527553  -0.0001903791   0.0000730015   0.0001407716   0.0000724324
       -0.0000601096   0.0002109570   0.0003755665  -0.0003051546  -0.0006599001
        0.0002392470  -0.0002138535   0.0003262131  -0.0006422304   0.0004173357
        0.0009323531   0.0002018841  -0.0005664320  -0.0010217717  -0.0019246931
       -0.0009429764  -0.0021902917  -0.0011376466   0.0003966393  -0.0004048517
       -0.0004339710   0.0003036776   0.0000887173  -0.0001524614   0.0000430147
        0.0000111055   0.0002147431   0.0001911432   0.0002266084  -0.0000971854
       -0.0001028225  -0.0000409271  -0.0000028841  -0.0001343149   0.0001652486
        0.0000560277  -0.0004618847   0.0000123370  -0.0001282181   0.0006541226
       -0.0009370796  -0.0001012788  -0.0005707102   0.0004855924   0.0001790500
        0.0002994581  -0.0011496220  -0.0001945452  -0.0016154960  -0.0002956462
        0.0009982553   0.0003012607   0.0005563298   0.0004316904   0.0001098570
       -0.0021490966   0.0001880757   0.0008578995  -0.0268322976   0.0166714045
        0.0111953635  -0.0038112533  -0.0011415875   0.0005630254  -0.1019729307
       -0.0345897974  -0.0995933714  -0.0514617742   0.0377792218  -0.0276713838
       -0.2261468535  -0.0896761064   0.0638734165   0.0002611928  -0.0002476576
        0.0000187729   0.0006187494   0.0002525432  -0.0003444389   0.0001736958
        0.0001955742  -0.0004723600   0.0000006329  -0.0000242483  -0.0000029594
        0.0000047194   0.0000023522   0.0000547400  -0.0000096180  -0.0000089690
       -0.0000247729   0.0000102444   0.0000086855   0.0000999345   0.0000497915
       -0.0000047526  -0.0000151919  -0.0007106317  -0.0007696694  -0.0000673792
        0.0000072669   0.0000589712  -0.0000652364  -0.0000115902   0.0000236407
        0.0000167311  -0.0000514160  -0.0000565544   0.0001689718  -0.0000321486
       -0.0000500482   0.0000005347  -0.0000263479  -0.0000024820  -0.0000192690
        0.0000468765   0.0000229015  -0.0000117131  -0.0016388144   0.0002097287
        0.0005971746
        0.0348899279   0.4809421893  -0.0381466096   0.0362748963  -0.1025518001
       -0.0383795754   0.0017797549  -0.0014461760  -0.0031537243   0.0134682548
       -0.0297323867  -0.0076659395  -0.0038180088  -0.0010174108  -0.0011658010
       -0.0002588565  -0.0015520518   0.0011590688   0.0005596119   0.0004188787
       -0.0003670921   0.0007138283   0.0003675819   0.0003033396  -0.0009296690
        0.0002740144  -0.0002713315   0.0004051045  -0.0012438267   0.0008025730
        0.0015857748   0.0008443722  -0.0007658504  -0.0023724196  -0.0015602439
       -0.0014708628   0.0017615444  -0.0003272081   0.0001089918   0.0000437705
       -0.0006253172  -0.0000339730  -0.0003093649  -0.0002412369  -0.0001591364
       -0.0002751889   0.0006512153   0.0001639693   0.0005894716  -0.0005274689
       -0.0000850093  -0.0003719246  -0.0002047066  -0.0002086687   0.0003933623
        0.0001148126   0.0000500557   0.0001993119   0.0006809924   0.0002596813
       -0.0028550421  -0.0005645180  -0.0007405392   0.0022600010   0.0004730753
        0.0005745934   0.0003143989  -0.0008783369   0.0001171049  -0.0000848341
        0.0007962651   0.0000302767   0.0007635075  -0.0000316847   0.0004272297
       -0.0022051023  -0.0009839964   0.0005665885   0.0058931440   0.0016098376
       -0.0001657428  -0.0008913847   0.0020388913  -0.0010788707  -0.0341490405
       -0.0632093079  -0.0546454647   0.0382512000  -0.1985309287   0.1105101406
       -0.0891415802  -0.0843446116   0.0321390218   0.0001131251   0.0002118358
        0.0002938520   0.0000612610   0.0003005622  -0.0000531811  -0.0006862768
        0.0005423270   0.0010686443  -0.0000445447  -0.0001561013   0.0002865315
       -0.0000011909  -0.0000468045   0.0000223981  -0.0000246653  -0.0000657474
       -0.0000538984  -0.0000439844  -0.0000002952   0.0000740917  -0.0000325715
       -0.0000010462  -0.0000410866  -0.0006589509  -0.0004476802  -0.0003932181
        0.0000040999   0.0000749670  -0.0000058002  -0.0000054645  -0.0000001986
        0.0000330084   0.0000211976   0.0000005602   0.0000315839  -0.0000096827
       -0.0000721907   0.0000363531  -0.0000146281   0.0000630904  -0.0000287258
        0.0000205232  -0.0000176127  -0.0000553925  -0.0011826965  -0.0000245739
        0.0000763959
        0.0208891742  -0.0381466096   0.4933176502   0.0289738122  -0.0319425050
       -0.0818839864   0.0159943524  -0.0169482009  -0.0207957714  -0.0024918064
        0.0011492100   0.0030319465   0.0003433468   0.0006930183  -0.0012429659
       -0.0001192495   0.0001007563   0.0000297064   0.0000488307  -0.0000752005
        0.0000904911  -0.0000565339  -0.0000413824   0.0001812069   0.0001363231
       -0.0000307304  -0.0000376957  -0.0002300785   0.0000633534   0.0001384744
       -0.0000250160  -0.0003901537   0.0001426484  -0.0010269823  -0.0001306457
       -0.0018804329   0.0001210798   0.0007970726   0.0004364315   0.0001137148
       -0.0003405846  -0.0000599126   0.0000170842   0.0002401490   0.0003357272
        0.0001262349  -0.0001099127   0.0000830428  -0.0000526634   0.0001587617
       -0.0000234947   0.0000431651   0.0000423325  -0.0000311139   0.0000982713
        0.0000419928  -0.0002899364  -0.0000157985  -0.0001701691   0.0003217854
        0.0000357648   0.0000401157  -0.0000449016  -0.0000708113  -0.0000707864
        0.0000041930  -0.0001074735   0.0000282175  -0.0002736175   0.0000423333
       -0.0000872933   0.0003877302  -0.0001072670  -0.0001072503   0.0001165609
       -0.0000509815  -0.0002482691   0.0000154250   0.0021009962   0.0008439809
        0.0009851581  -0.0007752275   0.0003163496  -0.0008396709  -0.1007046668
       -0.0555746510  -0.2042128027  -0.0279771781   0.1108756755  -0.1195360414
        0.0642162572   0.0325697496  -0.0639744529   0.0003534789  -0.0002130416
        0.0012624011   0.0001108288  -0.0001610398  -0.0060802696   0.0002965850
       -0.0010222101   0.0009983024  -0.0000431835   0.0000865174  -0.0000430259
        0.0000063786  -0.0000279659  -0.0000180019   0.0000160752  -0.0000235371
        0.0000011165  -0.0000424862  -0.0000556780   0.0000387507   0.0000356921
       -0.0000366001  -0.0000408499  -0.0009965301  -0.0019328287  -0.0005226165
        0.0000095855   0.0000599404  -0.0000485401  -0.0000032283   0.0000037440
       -0.0000127032  -0.0000100791  -0.0000362448   0.0001099144   0.0000003206
       -0.0000502570  -0.0000027412   0.0000434272  -0.0000158608  -0.0000301679
        0.0000578618  -0.0000120325  -0.0001871141   0.0006762668  -0.0001092962
        0.0000841644
       -0.0939156943   0.0362748963   0.0289738122   0.4614772273   0.0164883242
       -0.0053622315  -0.0557872670   0.0002693318  -0.0060683519  -0.0731765298
       -0.0301196699   0.0087778599   0.0061111822   0.0144774778  -0.0067968779
       -0.0030773727   0.0023317278  -0.0012236082   0.0001055104  -0.0001392871
        0.0001570995  -0.0049307991  -0.0015220549  -0.0002329480   0.0005572768
       -0.0012163625   0.0007269676  -0.0000685720   0.0004582611  -0.0002851095
        0.0000028186   0.0000458104  -0.0000013382   0.0014921914   0.0000834180
        0.0007926391  -0.0061966981  -0.0228277949   0.0085732527   0.0008079579
       -0.0048348632   0.0008606474  -0.0010753164   0.0010964121   0.0004025187
        0.0001858087  -0.0003089191   0.0002301377  -0.0001185517   0.0000134225
       -0.0001370810   0.0001207874   0.0000227661  -0.0001305720   0.0004269971
        0.0000264452  -0.0005514820   0.0005184164   0.0003000207   0.0008855371
       -0.0012453425  -0.0010839864  -0.0007604384   0.0002083887   0.0002008618
        0.0002870046  -0.0011617727   0.0029717473  -0.0020432773  -0.0005663281
        0.0001017064   0.0006947269   0.0022425590  -0.0015435810  -0.0001881618
       -0.0152586275  -0.0135666601  -0.0027031614  -0.1728901126  -0.0220525338
       -0.0277883888  -0.0251025508   0.0067094851  -0.0054073824   0.0056971564
       -0.0064389806  -0.0041443896  -0.0038535890   0.0057302064   0.0029974000
       -0.0172603787   0.0155846449   0.0140097054  -0.0041497605   0.0024911982
       -0.0266754567   0.0005015681  -0.0014500503   0.0168533514   0.0003339739
       -0.0010186661   0.0062615510   0.0000630475   0.0008594870  -0.0006185750
       -0.0000541962   0.0000145624   0.0000104352  -0.0003590268  -0.0001899499
        0.0000216867  -0.0000023725   0.0000427445  -0.0000270252   0.0000327101
        0.0000461753  -0.0000234541  -0.0009925014   0.0002079508  -0.0006002318
        0.0000784236   0.0001532667  -0.0000776894   0.0000311404   0.0000123016
        0.0000014394  -0.0000564422  -0.0000356073   0.0002597401   0.0000029095
       -0.0002028479  -0.0000384575   0.0000752534   0.0001961385   0.0000144280
       -0.0001194873   0.0000672144  -0.0002676985   0.0003459852   0.0012738100
        0.0003614474
        0.0326550252  -0.1025518001  -0.0319425050   0.0164883242   0.4622355712
       -0.0040684462   0.0003418597  -0.0538433718   0.0054383514  -0.0272910506
       -0.1612047815   0.0333712001   0.0076425707  -0.0281549193   0.0111318036
        0.0040209819   0.0010349465  -0.0005336797  -0.0005177811  -0.0009184688
        0.0005708495  -0.0017983674   0.0026612879  -0.0004794521   0.0011361052
       -0.0008620862   0.0005833974  -0.0006010689   0.0018054524  -0.0010119401
       -0.0019042217  -0.0019679681   0.0007705669   0.0039338063  -0.0002657525
       -0.0002649297  -0.0132005604  -0.0122070142   0.0020356194  -0.0032947591
        0.0024029846  -0.0002259842   0.0008095650  -0.0000633274  -0.0003612625
       -0.0000351706  -0.0006038732  -0.0004294366  -0.0005013657   0.0005424963
        0.0001715384   0.0002034880   0.0000146120   0.0002862944  -0.0008753411
        0.0000578413   0.0004951392  -0.0007150450  -0.0012358921  -0.0010310731
        0.0053985458   0.0010113615   0.0012294044  -0.0029880542  -0.0005839691
       -0.0005735612   0.0028069331  -0.0008229271   0.0012043758  -0.0003595900
       -0.0014649201  -0.0009922782  -0.0015549208  -0.0043866359  -0.0002032016
       -0.0257929381  -0.0079023169  -0.0070253465  -0.0255783222  -0.0688530689
       -0.0052337496   0.0169467380   0.0023167717   0.0056358433   0.0050155128
       -0.0078287683  -0.0076852489   0.0146313647  -0.0196883253  -0.0109407636
       -0.0034458414   0.0055473776   0.0045710823  -0.0004458886   0.0004672551
       -0.0043277044  -0.0004387853   0.0013735146  -0.0167622229   0.0010130931
       -0.0061767998   0.0264324294  -0.0001180860  -0.0005926794   0.0002123396
        0.0000461747   0.0001548933   0.0000393447  -0.0000378068  -0.0000597092
       -0.0000309137  -0.0000327786   0.0000192451   0.0000240626   0.0001056575
        0.0000844813   0.0000403616   0.0000753194   0.0004571459   0.0002128673
       -0.0000117160  -0.0002298168   0.0000672680  -0.0000046523   0.0000092022
       -0.0000472295   0.0000598807   0.0000144413  -0.0002882414  -0.0000152421
        0.0002962604   0.0000292279   0.0000064110  -0.0000998812  -0.0000531244
       -0.0015131329  -0.0004152965   0.0003241622  -0.0002648703   0.0004772276
       -0.0003652344
        0.0320262162  -0.0383795754  -0.0818839864  -0.0053622315  -0.0040684462
        0.3926155992  -0.0135870714   0.0160725582  -0.1540805529   0.0088996755
        0.0215517571  -0.0533092469  -0.0079697181   0.0179952583  -0.0010876781
       -0.0034707313  -0.0011022358   0.0044620496   0.0009652989   0.0015239464
       -0.0015600492   0.0013200421   0.0003850675   0.0049284055  -0.0027081381
        0.0007455560  -0.0003812119   0.0015440247  -0.0034921229   0.0020895970
        0.0039521222   0.0033715664  -0.0015220897  -0.0047321072  -0.0008619916
       -0.0025551187   0.0082019815   0.0009883493   0.0000977710   0.0024783138
       -0.0006271018  -0.0027911241  -0.0015045197  -0.0017372030  -0.0022235339
       -0.0008144358   0.0014380129  -0.0001791563   0.0006292253  -0.0017913243
        0.0000214401  -0.0006854847  -0.0003093014  -0.0000134384   0.0005677813
       -0.0005771172   0.0020935903   0.0012559297   0.0038712067  -0.0014591031
       -0.0088429691  -0.0026615245  -0.0018381565   0.0064252383   0.0015436321
        0.0013855562   0.0003294725  -0.0009789466   0.0078674250   0.0006406527
        0.0017595397  -0.0017001316   0.0002167344  -0.0001227070   0.0054927885
       -0.0016463516  -0.0024101576  -0.0014166605  -0.0207577578  -0.0042864394
       -0.0538432780  -0.0073143580   0.0011857307   0.0023807406   0.0116296827
       -0.0178577293  -0.0144143316  -0.0054911407   0.0070073985   0.0055723902
        0.0061716081  -0.0047008598  -0.0038689399  -0.0038176323   0.0014285864
       -0.0138520936   0.0010507970  -0.0000908951  -0.0186229528  -0.0001031736
        0.0050466190  -0.0134477891   0.0001783973   0.0001675791   0.0002759943
        0.0000040921  -0.0004541391  -0.0006382362  -0.0000700900  -0.0001352785
       -0.0002071565   0.0000188311  -0.0000204250   0.0000075299  -0.0000267996
        0.0000078983   0.0000308403  -0.0004150277   0.0001939522   0.0004614167
       -0.0000093748  -0.0002585187   0.0002180896   0.0000528154  -0.0000495765
        0.0001346046   0.0001349238   0.0003284004  -0.0006313873   0.0000371912
       -0.0000193816   0.0000303661   0.0000459977   0.0003260076  -0.0011191781
       -0.0000012288   0.0000290959   0.0006717889   0.0005532963   0.0000252794
       -0.0021914023
        0.0015262762   0.0017797549   0.0159943524  -0.0557872670   0.0003418597
       -0.0135870714   0.5253785912   0.0052448769   0.0039562071   0.0034563187
       -0.0008980267   0.0055903685  -0.0003429563   0.0001562813   0.0005880751
       -0.0000947680  -0.0003699659   0.0000183776   0.0001005525   0.0000243492
       -0.0000305995   0.0004182705   0.0001484636  -0.0003224638  -0.0003256626
        0.0001958662  -0.0000335659   0.0001222720  -0.0002164097   0.0000384827
        0.0000937986   0.0000361078   0.0004490494  -0.0000635989   0.0006414461
       -0.0002847720  -0.0009738457  -0.0006021579  -0.0005484999   0.0002362470
        0.0009891661  -0.0001401397   0.0001973938  -0.0007443904  -0.0003749984
       -0.0000893265   0.0000317153  -0.0001423877  -0.0000509622  -0.0000920337
        0.0000830592  -0.0000505660  -0.0000052391   0.0000906332  -0.0001122200
       -0.0001958964   0.0005535322  -0.0000331500   0.0003761603  -0.0006449552
       -0.0011773473  -0.0003239689   0.0000387600   0.0007837179   0.0003274242
        0.0000558180  -0.0005884636  -0.0005753794   0.0016755643  -0.0001265176
        0.0013269764  -0.0005073642   0.0005047257  -0.0001853183   0.0007122389
       -0.0009552711   0.0006082425  -0.0006737543  -0.0126418733   0.0012952876
       -0.0266820251  -0.0027186714  -0.0018452431  -0.0009845784  -0.0013035545
        0.0013042094   0.0019683930   0.0010458170  -0.0006023099   0.0003161007
       -0.0004745916   0.0000257226   0.0005124686  -0.2556700338  -0.0452567616
       -0.0725334284  -0.1395814913   0.0940073951   0.0687831854  -0.0586774426
       -0.0558506832   0.0151099472  -0.0000096851  -0.0000292109  -0.0000009054
        0.0000001197  -0.0000250136   0.0000024687   0.0000026458   0.0000339756
        0.0000640346   0.0000110876  -0.0000831178  -0.0000760914   0.0000101286
        0.0000165571   0.0000167538  -0.0020555705  -0.0011491889   0.0015903307
        0.0000278776  -0.0000499582   0.0000530529   0.0000108366   0.0000135365
        0.0000152786   0.0000521725   0.0000845949  -0.0002202358   0.0000060565
        0.0000745165   0.0000022643  -0.0000187390  -0.0000055158  -0.0000520077
       -0.0000205865  -0.0000003457   0.0000390874  -0.0000407436   0.0000216493
       -0.0004780409
        0.0009232274  -0.0014461760  -0.0169482009   0.0002693318  -0.0538433718
        0.0160725582   0.0052448769   0.5178585847   0.0128918750   0.0009467875
       -0.0126216792   0.0251807961  -0.0011681558  -0.0020421266   0.0005633575
        0.0000184720  -0.0008026007  -0.0000957389   0.0002882849   0.0000260054
        0.0000176947   0.0000102585  -0.0004276731  -0.0008493174   0.0001501921
        0.0000879011  -0.0000237817  -0.0000666554   0.0000400525  -0.0000631832
        0.0001053453   0.0001062257   0.0002318938  -0.0003683934   0.0001936101
        0.0005960027   0.0005046236   0.0000559053   0.0001235256  -0.0003896528
       -0.0001652633  -0.0000634961   0.0002794105  -0.0005054601   0.0000388443
        0.0000305118   0.0004323690   0.0000757556   0.0002778920  -0.0001136862
       -0.0000427543  -0.0001322279   0.0000505747  -0.0000493487   0.0001720150
       -0.0001453120  -0.0001327003  -0.0001147548   0.0002684769   0.0001973466
       -0.0010479772  -0.0003979776  -0.0002812585   0.0009075633   0.0002238380
        0.0002169606  -0.0001413752  -0.0003595619   0.0001646584  -0.0001998072
        0.0004954477   0.0001450814   0.0004709291  -0.0000697418   0.0001650204
       -0.0008641107  -0.0006091881   0.0003749991   0.0001503726   0.0026858480
       -0.0033652404  -0.0004224615   0.0006411378  -0.0008170462   0.0015353723
       -0.0017948477  -0.0025644753   0.0000090488   0.0009673226  -0.0014836102
        0.0001971304  -0.0003311234  -0.0006664172  -0.0449197968  -0.0532463962
       -0.0160346794   0.0945496123  -0.1384460167  -0.0679266168  -0.0564714673
       -0.2562047729   0.0544707131  -0.0000672712  -0.0000896064   0.0000490977
        0.0000014148   0.0000178731   0.0000598763  -0.0000064155   0.0000253083
        0.0001085258  -0.0000134511  -0.0000299673  -0.0000566414  -0.0000185583
       -0.0000019766  -0.0000244236  -0.0004872715  -0.0002073160   0.0001922975
       -0.0000313944   0.0000028858   0.0000013521  -0.0000212284  -0.0000161667
        0.0000062239   0.0000206860  -0.0000240144   0.0000265711  -0.0000080183
       -0.0000217534   0.0000237939   0.0000123807  -0.0000222910  -0.0000247240
        0.0000281132  -0.0000272463  -0.0001466341  -0.0001434081  -0.0001660533
       -0.0003345331
        0.0015588741  -0.0031537243  -0.0207957714  -0.0060683519   0.0054383514
       -0.1540805529   0.0039562071   0.0128918750   0.4188395850   0.0021228736
        0.0163874189  -0.0137925918   0.0020331955  -0.0021249886  -0.0005430481
        0.0008767352   0.0012496266  -0.0001435332  -0.0004188701  -0.0002557335
        0.0002245368  -0.0002242873   0.0010676035   0.0000418129   0.0002771403
       -0.0001418836   0.0000898293  -0.0000307434   0.0008437131  -0.0004396787
       -0.0009726714  -0.0004673193   0.0001197308   0.0024547038  -0.0010213722
       -0.0002462704  -0.0027865067  -0.0006925045  -0.0000872056   0.0000146616
        0.0010537415  -0.0003090336   0.0006468144  -0.0000615984   0.0004324601
        0.0002082846  -0.0004508646  -0.0001490020  -0.0003807722   0.0004595378
        0.0000524587   0.0002808732   0.0001505302   0.0001529667  -0.0003384909
       -0.0000544350  -0.0001517605  -0.0003183185  -0.0008081959  -0.0001764474
        0.0025621257   0.0006595706   0.0008685069  -0.0021076254  -0.0004000049
       -0.0006192065  -0.0008296463   0.0002763305   0.0003083769  -0.0000280889
       -0.0002785491  -0.0000812161  -0.0009424688   0.0001308024   0.0002757668
        0.0011375782   0.0018101091  -0.0001744265  -0.0164809395  -0.0013563523
       -0.0161443653   0.0010101002  -0.0024438607  -0.0005881081   0.0017765878
       -0.0013850848  -0.0021277316  -0.0011243385   0.0017465349   0.0008093750
        0.0002456156  -0.0003736790  -0.0007031054  -0.0714906600  -0.0159276542
       -0.0641142662   0.0684518865  -0.0676987595  -0.0911823838   0.0146576205
        0.0538665648  -0.0548314021  -0.0000264162   0.0000342228  -0.0000158754
        0.0000002441  -0.0000146973  -0.0000935844   0.0000116440   0.0000365015
       -0.0000186100   0.0000459974   0.0000656360  -0.0000136684  -0.0000265070
        0.0000154486   0.0000151194   0.0003181566   0.0006860188  -0.0004119720
       -0.0000203399  -0.0000541724   0.0000384314  -0.0000005575   0.0000218676
       -0.0000217252  -0.0000342783  -0.0000151893   0.0000091949  -0.0000017133
        0.0000701184  -0.0000351155   0.0000042737  -0.0000506487  -0.0000283059
       -0.0000246579   0.0000302525  -0.0000255292   0.0000250561   0.0002388960
       -0.0001326585
        0.0036816206   0.0134682548  -0.0024918064  -0.0731765298  -0.0272910506
        0.0088996755   0.0034563187   0.0009467875   0.0021228736   0.5366853287
        0.0229153336   0.0149786002  -0.1166851032   0.0435717508  -0.0068076281
        0.0238836071   0.0339750141  -0.0154319962  -0.0152017678  -0.0050567646
        0.0033873488  -0.0322196970  -0.0454288289   0.0129645648   0.0356209651
       -0.0088804051   0.0083000160  -0.0205987753   0.0161062484  -0.0103900685
       -0.0039128884   0.0014046503   0.0000019418  -0.0571546855   0.0162884946
       -0.0116010971  -0.2023322405  -0.0532091965  -0.0038923862  -0.0643036063
        0.0157223187  -0.0034603439   0.0010171641   0.0043716752   0.0034713201
        0.0046706185  -0.0130067793  -0.0034393833  -0.0095806708   0.0092940146
        0.0013032217   0.0061805848   0.0021891844   0.0028562841  -0.0070817550
       -0.0000353099  -0.0018040331  -0.0042727825  -0.0136611626  -0.0026884792
        0.0518929485   0.0081937305   0.0133607629  -0.0375609212  -0.0069218250
       -0.0093502825  -0.0092205278   0.0149745729  -0.0006460458  -0.0062670483
       -0.0042208465  -0.0025347755   0.0058990965  -0.0009050140   0.0004129320
       -0.0088576067  -0.0137894534  -0.0019570905  -0.0128861964  -0.0104317587
        0.0054817273   0.0106821613  -0.0035393150  -0.0002946880  -0.0005253661
        0.0006242559   0.0004628531  -0.0016467739   0.0029234248   0.0012377061
       -0.0004367335   0.0012904042  -0.0007810233   0.0000569383   0.0005572406
        0.0000813560   0.0000302343  -0.0004040509   0.0000461844   0.0002557374
        0.0003416252  -0.0010747787   0.0004029868  -0.0025432346   0.0004054206
       -0.0002986830   0.0006135171   0.0002605423   0.0001236035   0.0002977749
        0.0003379958  -0.0000434597   0.0000125597  -0.0002012828  -0.0008823826
       -0.0003782361  -0.0001788618   0.0010472858  -0.0011609713  -0.0002346467
        0.0001579725  -0.0000030269  -0.0000017538   0.0001209594   0.0002184352
       -0.0005465531  -0.0001956950  -0.0002701424  -0.0003097184  -0.0000362145
        0.0014762084  -0.0002299188   0.0004467875  -0.0010120966  -0.0003114930
       -0.0008103904   0.0001579047   0.0003627643  -0.0001244183   0.0002140880
       -0.0000759567
        0.0051375631  -0.0297323867   0.0011492100  -0.0301196699  -0.1612047815
        0.0215517571  -0.0008980267  -0.0126216792   0.0163874189   0.0229153336
        0.4816315854  -0.1122818255   0.0619938627  -0.1266459463   0.0248238328
        0.0006575708  -0.0463145099   0.0200636344   0.0053617114   0.0105672472
       -0.0086556169  -0.0121196080  -0.0194292576   0.0078940072  -0.0204156538
        0.0013154146  -0.0005399657   0.0100499257  -0.0193525336   0.0114814744
        0.0206277780   0.0142777829  -0.0034090165  -0.0068957072   0.0064922522
       -0.0024262218  -0.0653467846  -0.0934269836   0.0194390706   0.0212033892
        0.0111238752  -0.0001053242  -0.0062855270  -0.0059535268  -0.0020357238
       -0.0026695379   0.0101362750   0.0025928136   0.0069190539  -0.0074944589
       -0.0013680019  -0.0043944574  -0.0011185743  -0.0022628222   0.0063983711
       -0.0009191758   0.0009079541   0.0034234412   0.0151074699   0.0040023801
       -0.0488379146  -0.0092048973  -0.0131575812   0.0360551430   0.0065527010
        0.0090364184   0.0079810433  -0.0128648867   0.0002592358   0.0065364806
        0.0024964665   0.0028628490  -0.0065307577  -0.0004230301  -0.0015767546
        0.0031884964   0.0110776568   0.0022015119  -0.0105282883  -0.0207927049
        0.0008010238  -0.0039045605   0.0035141944  -0.0007993097  -0.0002026007
       -0.0001842943  -0.0000696439   0.0012556387  -0.0034618665  -0.0016378435
       -0.0006819483   0.0005017856   0.0013800400   0.0004153426   0.0005390403
       -0.0009862157  -0.0001683257   0.0006094223  -0.0008202348   0.0000600635
       -0.0002620280   0.0012409055  -0.0013183082  -0.0025404156   0.0046747459
       -0.0000981750   0.0000580061  -0.0006088980  -0.0014226698  -0.0008126805
       -0.0001951913   0.0002970351  -0.0002781188  -0.0002867810   0.0010790068
        0.0000371511  -0.0001732636   0.0007846010  -0.0004790160  -0.0006936245
       -0.0000283272   0.0000135644   0.0001400102  -0.0000629557  -0.0001383274
        0.0005101955   0.0001264738   0.0003168259   0.0004646479   0.0000312705
       -0.0014459156   0.0001331673  -0.0003052926   0.0011587871   0.0003279065
        0.0006322946  -0.0002529917  -0.0005959571   0.0001042063  -0.0001725165
        0.0003596065
       -0.0019628841  -0.0076659395   0.0030319465   0.0087778599   0.0333712001
       -0.0533092469   0.0055903685   0.0251807961  -0.0137925918   0.0149786002
       -0.1122818255   0.1685518351  -0.0290570434   0.0268900297  -0.0484021041
        0.0019655592   0.0223710805  -0.0085348002  -0.0054808588  -0.0028698769
       -0.0002579615   0.0082737918   0.0048072090  -0.0012715095   0.0044156415
        0.0026358288   0.0041048327  -0.0026435286   0.0044347551  -0.0029348391
       -0.0058279094   0.0000792835   0.0043643626  -0.0069526450  -0.0029415965
        0.0009481874   0.0044223952   0.0122967350  -0.0511440905   0.0016279983
       -0.0040411929   0.0003367454   0.0036252816   0.0026586369   0.0037172166
        0.0009965056  -0.0025127434  -0.0005496641  -0.0015333032   0.0024347824
        0.0001652741   0.0010073744   0.0001825114   0.0003771411  -0.0011734559
        0.0007703710  -0.0009038447  -0.0010868535  -0.0050734975  -0.0003360600
        0.0125325100   0.0024952768   0.0032326538  -0.0092665513  -0.0017124928
       -0.0022398616  -0.0020439152   0.0030850975  -0.0009792059  -0.0014852561
       -0.0011123087  -0.0000155765   0.0007510267  -0.0001261028   0.0006417452
       -0.0021100507  -0.0023672977   0.0000897680  -0.0004128622  -0.0018874756
        0.0008076736   0.0014682874  -0.0013517708  -0.0012800003   0.0004254161
       -0.0007299100  -0.0004381225   0.0005385447  -0.0014828696  -0.0006163122
       -0.0003511289  -0.0008624108   0.0004432166   0.0000237002   0.0001771306
        0.0009781538   0.0001650258   0.0006506492   0.0002578564  -0.0000595735
        0.0020229873  -0.0054247934   0.0000131679   0.0036853776   0.0026824256
       -0.0000755913  -0.0001798903   0.0001396904   0.0005214023   0.0003727030
        0.0001531489   0.0000618295  -0.0004838619  -0.0009932037  -0.0006346398
       -0.0000661989   0.0001444404   0.0000981995  -0.0009335886  -0.0012239630
       -0.0001026613   0.0000511326   0.0000546891   0.0000026680   0.0000516295
       -0.0001960092  -0.0000921337  -0.0001898438   0.0002322092   0.0000646857
        0.0002356168  -0.0000890270   0.0001380346  -0.0002795317  -0.0001670718
       -0.0002123156   0.0000059162  -0.0001870450   0.0000792869   0.0002054894
       -0.0001683083
        0.0006190805  -0.0038180088   0.0003433468   0.0061111822   0.0076425707
       -0.0079697181  -0.0003429563  -0.0011681558   0.0020331955  -0.1166851032
        0.0619938627  -0.0290570434   0.5440407658   0.0338435677  -0.0539237690
       -0.0777507075  -0.0445995192   0.0282245722  -0.0288039433  -0.0185631627
        0.0088770747   0.0308201351   0.0035531956   0.0039238730  -0.0341645291
        0.0066948866  -0.0072911896   0.0169241176  -0.0220858569   0.0135121583
        0.0139195625   0.0125506452  -0.0067770738  -0.0092644916  -0.0092060649
        0.0035624121  -0.0571395664   0.0069244944   0.0015679709  -0.2293642349
       -0.0323468169   0.0392694953  -0.0410549943   0.0042343444  -0.0004199830
       -0.0062453287   0.0117099792   0.0031027131   0.0139696176  -0.0111057445
       -0.0009201027  -0.0097624471  -0.0057832467  -0.0054253819   0.0069926374
        0.0038598654   0.0030456584   0.0024262274   0.0158586052   0.0036923120
       -0.0565863343  -0.0091757852  -0.0143344518   0.0407115866   0.0075224700
        0.0099016064   0.0111635041  -0.0120810942   0.0008364556   0.0097003793
       -0.0003909537   0.0032313930  -0.0117042270   0.0022132334  -0.0021718383
        0.0070656847   0.0157050745   0.0015383591  -0.0009892108  -0.0134429601
        0.0003363344  -0.0236529503  -0.0257795713   0.0087503623  -0.0000659493
        0.0001236506  -0.0001041857   0.0002407990  -0.0006436445   0.0000491412
       -0.0001727714   0.0004024746   0.0005877102  -0.0002906969   0.0002476064
       -0.0006133482   0.0000047731   0.0001220719   0.0005719110  -0.0000980509
       -0.0003853642   0.0001917801   0.0026148089   0.0180345924  -0.0103795934
       -0.0049609056  -0.0025035516   0.0001268486  -0.0000507115  -0.0000439096
       -0.0006901574   0.0002922333   0.0000564085   0.0003280723  -0.0002833941
       -0.0001881463  -0.0001651925   0.0001251164  -0.0001611598   0.0006047773
        0.0008837549   0.0005000882   0.0004887149   0.0001842209  -0.0006206626
        0.0006749708   0.0002812972   0.0003640870   0.0005852107  -0.0000209350
       -0.0018002019   0.0000707711  -0.0004915807   0.0017285682   0.0004674895
        0.0006893682  -0.0002496813  -0.0003858655   0.0001651675   0.0002569199
        0.0001322036
       -0.0002103730  -0.0010174108   0.0006930183   0.0144774778  -0.0281549193
        0.0179952583   0.0001562813  -0.0020421266  -0.0021249886   0.0435717508