 Entering Gaussian System
 *********************************************
 Gaussian 98:
 frequency output generated by the xtb code
 *********************************************
                         Standard orientation:
 --------------------------------------------------------------------
  Center     Atomic     Atomic              Coordinates (Angstroms)
  Number     Number      Type              X           Y           Z
 --------------------------------------------------------------------
    1          6             0       -9.668564   -5.912797   -0.706393
    2          6             0       -8.529515   -5.980420   -1.490949
    3          6             0       -7.542483   -5.020409   -1.368711
    4          6             0       -7.679109   -3.972206   -0.461364
    5          6             0       -6.632195   -2.947364   -0.333655
    6          6             0       -5.281111   -3.320089   -0.341355
    7          6             0       -4.263816   -2.394839   -0.229184
    8          6             0       -4.610106   -1.055390   -0.122179
    9          6             0       -5.967049   -0.661220   -0.087086
   10          6             0       -6.973174   -1.608229   -0.194055
   11          6             0       -5.972646    0.765899    0.081318
   12          6             0       -6.985727    1.707239    0.170518
   13          6             0       -6.654695    3.049325    0.306468
   14          6             0       -7.710564    4.068091    0.406719
   15          6             0       -8.843227    3.839751    1.185063
   16          6             0       -9.836851    4.795735    1.282032
   17          6             0       -9.718719    5.995066    0.599925
   18          6             0       -8.598737    6.232131   -0.179181
   19          6             0       -7.602343    5.278678   -0.273895
   20          6             0       -5.306233    3.429427    0.338791
   21          6             0       -4.281969    2.508391    0.259173
   22          6             0       -4.618761    1.167107    0.145935
   23          7             0       -3.805781    0.057903    0.020778
   24          6             0       -2.406089    0.063040    0.029769
   25          6             0       -1.693709   -0.601878   -0.965055
   26          6             0       -0.314096   -0.598814   -0.949704
   27          6             0        0.389994    0.080578    0.043142
   28          6             0        1.857863    0.092963    0.045295
   29          6             0        2.581845   -1.060247   -0.255920
   30          6             0        3.960096   -1.046180   -0.254380
   31          6             0        4.658941    0.126134    0.030406
   32          6             0        6.125848    0.108712    0.006098
   33          6             0        6.887266    1.243431   -0.272375
   34          6             0        8.273773    1.095853   -0.273426
   35          6             0        9.189769    2.209894   -0.551672
   36          6             0       10.473839    2.181607   -0.010596
   37          6             0       11.356657    3.216917   -0.248023
   38          6             0       10.972858    4.289937   -1.036326
   39          6             0        9.703459    4.319262   -1.589697
   40          6             0        8.814403    3.288090   -1.349289
   41          7             0        8.835305   -0.079095   -0.000394
   42          6             0        8.035924   -1.111533    0.242269
   43          6             0        8.666981   -2.403617    0.527514
   44          6             0        7.891069   -3.492262    0.919867
   45          6             0        8.488755   -4.708423    1.188574
   46          6             0        9.862287   -4.850486    1.068848
   47          6             0       10.638990   -3.770744    0.678922
   48          6             0       10.047184   -2.551980    0.408969
   49          7             0        6.708821   -1.063205    0.246235
   50          6             0        3.938905    1.278339    0.337699
   51          6             0        2.559230    1.258214    0.350495
   52          6             0       -0.331892    0.748806    1.030662
   53          6             0       -1.711558    0.734461    1.032830
   54          6             0       -8.830368   -3.913585    0.320896
   55          6             0       -9.814729   -4.876435    0.200361
   56          1             0      -10.438666   -6.664167   -0.801194
   57          1             0       -8.411520   -6.784245   -2.203445
   58          1             0       -6.664314   -5.069679   -1.996382
   59          1             0       -5.031486   -4.368532   -0.411955
   60          1             0       -3.231413   -2.710149   -0.210879
   61          1             0       -8.009004   -1.304116   -0.188190
   62          1             0       -8.019329    1.401980    0.106980
   63          1             0       -8.933144    2.912768    1.732954
   64          1             0      -10.706739    4.606200    1.894455
   65          1             0      -10.495924    6.741351    0.674879
   66          1             0       -8.502986    7.164057   -0.717757
   67          1             0       -6.739816    5.463183   -0.898019
   68          1             0       -5.063120    4.476065    0.448013
   69          1             0       -3.251035    2.828464    0.275073
   70          1             0       -2.228921   -1.103473   -1.757425
   71          1             0        0.227914   -1.102795   -1.736262
   72          1             0        2.054581   -1.978420   -0.470122
   73          1             0        4.522915   -1.939098   -0.478529
   74          1             0        6.423684    2.193080   -0.479701
   75          1             0       10.757163    1.337957    0.599542
   76          1             0       12.347759    3.188921    0.180622
   77          1             0       11.662709    5.099624   -1.223741
   78          1             0        9.405736    5.149078   -2.214188
   79          1             0        7.835258    3.312471   -1.804819
   80          1             0        6.824020   -3.362806    1.011978
   81          1             0        7.884473   -5.550527    1.493662
   82          1             0       10.327444   -5.802623    1.279550
   83          1             0       11.709479   -3.882915    0.585171
   84          1             0       10.635962   -1.702263    0.100491
   85          1             0        4.457351    2.191602    0.590560
   86          1             0        2.014250    2.162424    0.579951
   87          1             0        0.195805    1.258409    1.823318
   88          1             0       -2.260467    1.228390    1.820648
   89          1             0       -8.942582   -3.117388    1.042653
   90          1             0      -10.699440   -4.820336    0.818288
 --------------------------------------------------------------------
     1 basis functions        1 primitive gaussians
     1 alpha electrons        1 beta electrons
 
 Harmonic frequencies (cm**-1), IR intensities (km*mol⁻¹),
 Raman scattering activities (A**4/amu), Raman depolarization ratios,
 reduced masses (AMU), force constants (mDyne/A) and normal coordinates:
                      1                      2                      3
                        a                      a                      a 
 Frequencies --     5.8697                 7.6356                11.2955
 Red. masses --    11.0919                11.1823                11.1698
 Frc consts  --     0.0000                 0.0000                 0.0000
 IR Inten    --     0.0271                 0.0207                 0.0307
 Raman Activ --     0.0000                 0.0000                 0.0000
 Depolar     --     0.0000                 0.0000                 0.0000
 Atom AN      X      Y      Z        X      Y      Z        X      Y      Z
   1   6     0.01  -0.03   0.18    -0.13   0.08  -0.10    -0.15   0.05   0.15
   2   6     0.01  -0.05   0.17    -0.11   0.05  -0.07    -0.18   0.02   0.10
   3   6     0.01  -0.04   0.14    -0.09   0.02  -0.03    -0.16  -0.00   0.05
   4   6     0.01  -0.02   0.11    -0.09   0.03  -0.03    -0.10   0.01   0.05
   5   6     0.01  -0.01   0.08    -0.07  -0.00  -0.00    -0.07  -0.01  -0.01
   6   6     0.01  -0.01   0.08    -0.08  -0.04   0.04    -0.08  -0.04  -0.06
   7   6     0.01  -0.00   0.05    -0.06  -0.06   0.07    -0.06  -0.06  -0.10
   8   6     0.00   0.00   0.02    -0.03  -0.05   0.06    -0.03  -0.05  -0.09
   9   6     0.00  -0.00   0.02    -0.02  -0.02   0.02    -0.02  -0.02  -0.04
  10   6     0.00  -0.01   0.05    -0.04   0.01  -0.01    -0.04  -0.00   0.00
  11   6    -0.00   0.00  -0.02     0.01  -0.02   0.02     0.01  -0.02  -0.04
  12   6    -0.00   0.00  -0.04     0.04   0.01  -0.02     0.03  -0.00   0.00
  13   6    -0.01   0.01  -0.07     0.06   0.00  -0.02     0.07  -0.01  -0.01
  14   6    -0.01   0.01  -0.10     0.09   0.03  -0.06     0.09   0.01   0.05
  15   6    -0.01   0.03  -0.10     0.06   0.06  -0.10     0.12   0.03   0.09
  16   6    -0.01   0.03  -0.12     0.08   0.09  -0.14     0.14   0.05   0.15
  17   6    -0.01   0.01  -0.16     0.13   0.08  -0.14     0.14   0.05   0.15
  18   6    -0.01  -0.01  -0.16     0.17   0.05  -0.11     0.11   0.03   0.10
  19   6    -0.01  -0.01  -0.13     0.14   0.02  -0.07     0.08   0.01   0.05
  20   6    -0.01   0.01  -0.08     0.07  -0.03   0.02     0.07  -0.04  -0.06
  21   6    -0.01   0.01  -0.06     0.05  -0.06   0.06     0.05  -0.05  -0.10
  22   6    -0.00   0.01  -0.03     0.02  -0.05   0.06     0.02  -0.05  -0.09
  23   7    -0.00   0.01  -0.00    -0.00  -0.08   0.09    -0.00  -0.07  -0.12
  24   6    -0.00   0.01  -0.01    -0.00  -0.10   0.11    -0.00  -0.08  -0.12
  25   6    -0.00  -0.00   0.00     0.00  -0.11   0.12    -0.01  -0.09  -0.12
  26   6    -0.00   0.00  -0.00     0.00  -0.11   0.13    -0.01  -0.09  -0.13
  27   6    -0.00   0.01  -0.01    -0.00  -0.11   0.13    -0.00  -0.09  -0.14
  28   6    -0.00   0.01  -0.01    -0.00  -0.10   0.13    -0.00  -0.07  -0.14
  29   6    -0.00   0.02  -0.02     0.01  -0.09   0.11     0.02  -0.06  -0.14
  30   6    -0.00   0.02  -0.02     0.01  -0.06   0.09     0.02  -0.04  -0.12
  31   6     0.00   0.01  -0.01    -0.00  -0.05   0.08    -0.00  -0.03  -0.11
  32   6     0.00   0.01  -0.00    -0.00  -0.02   0.05    -0.00  -0.01  -0.07
  33   6     0.01   0.02   0.06    -0.04  -0.00   0.03    -0.01   0.00  -0.05
  34   6     0.01   0.01   0.06    -0.03   0.03  -0.01    -0.01   0.03   0.01
  35   6     0.01   0.03   0.14    -0.07   0.06  -0.02    -0.02   0.05   0.05
  36   6     0.01  -0.01   0.15    -0.05   0.08  -0.06    -0.05   0.08   0.12
  37   6     0.01   0.00   0.22    -0.08   0.11  -0.08    -0.06   0.10   0.17
  38   6     0.03   0.05   0.28    -0.13   0.10  -0.06    -0.05   0.09   0.14
  39   6     0.03   0.09   0.27    -0.15   0.08  -0.02    -0.02   0.06   0.08
  40   6     0.03   0.08   0.20    -0.12   0.05  -0.01    -0.00   0.04   0.03
  41   7     0.00  -0.00  -0.00     0.00   0.05  -0.03     0.00   0.05   0.05
  42   6    -0.01  -0.01  -0.06     0.03   0.02  -0.02     0.01   0.03   0.01
  43   6    -0.01  -0.03  -0.14     0.07   0.03  -0.05     0.03   0.04   0.05
  44   6    -0.02  -0.05  -0.20     0.11   0.01  -0.03     0.03   0.03   0.01
  45   6    -0.03  -0.07  -0.28     0.15   0.02  -0.07     0.05   0.04   0.05
  46   6    -0.03  -0.07  -0.29     0.15   0.06  -0.11     0.06   0.07   0.12
  47   6    -0.02  -0.06  -0.22     0.11   0.08  -0.12     0.05   0.09   0.15
  48   6    -0.01  -0.04  -0.15     0.07   0.07  -0.09     0.04   0.07   0.12
  49   7    -0.01  -0.01  -0.07     0.03  -0.01   0.02     0.01   0.00  -0.05
  50   6     0.00   0.01   0.01    -0.02  -0.07   0.10    -0.02  -0.04  -0.12
  51   6     0.00   0.01   0.00    -0.02  -0.09   0.12    -0.02  -0.06  -0.14
  52   6    -0.00   0.02  -0.02    -0.01  -0.12   0.13     0.00  -0.09  -0.13
  53   6    -0.00   0.02  -0.02    -0.01  -0.11   0.12     0.01  -0.09  -0.12
  54   6     0.01   0.00   0.12    -0.11   0.06  -0.07    -0.06   0.04   0.10
  55   6     0.02  -0.01   0.15    -0.13   0.08  -0.10    -0.08   0.06   0.15
  56   1     0.00  -0.01   0.06    -0.04   0.03  -0.04    -0.05   0.02   0.05
  57   1     0.00  -0.02   0.06    -0.03   0.01  -0.02    -0.07   0.00   0.03
  58   1     0.00  -0.02   0.04    -0.02   0.00  -0.00    -0.05  -0.01   0.00
  59   1     0.00  -0.00   0.03    -0.03  -0.01   0.01    -0.03  -0.01  -0.02
  60   1     0.00   0.00   0.02    -0.02  -0.03   0.03    -0.02  -0.02  -0.04
  61   1     0.00  -0.00   0.01    -0.01   0.01  -0.01    -0.01   0.00   0.01
  62   1    -0.00  -0.00  -0.01     0.01   0.01  -0.01     0.01   0.00   0.01
  63   1    -0.00   0.01  -0.02     0.00   0.02  -0.03     0.04   0.01   0.03
  64   1    -0.00   0.01  -0.03     0.02   0.03  -0.05     0.05   0.02   0.05
  65   1    -0.00   0.00  -0.05     0.04   0.03  -0.05     0.05   0.02   0.06
  66   1    -0.00  -0.01  -0.05     0.06   0.01  -0.03     0.03   0.01   0.03
  67   1    -0.00  -0.01  -0.04     0.05  -0.00  -0.01     0.02  -0.00   0.00
  68   1    -0.00   0.00  -0.03     0.03  -0.01   0.01     0.03  -0.01  -0.02
  69   1    -0.00   0.00  -0.02     0.02  -0.02   0.03     0.02  -0.02  -0.04
  70   1    -0.00  -0.00   0.00     0.00  -0.03   0.03    -0.00  -0.03  -0.03
  71   1    -0.00  -0.00   0.00     0.00  -0.03   0.04    -0.00  -0.03  -0.04
  72   1     0.00   0.01  -0.01     0.01  -0.03   0.03     0.01  -0.02  -0.04
  73   1    -0.00   0.01  -0.01     0.01  -0.01   0.02     0.01  -0.01  -0.03
  74   1     0.00   0.01   0.03    -0.02  -0.00   0.02    -0.01  -0.00  -0.02
  75   1    -0.00  -0.01   0.03    -0.00   0.02  -0.02    -0.02   0.03   0.04
  76   1     0.00  -0.01   0.07    -0.02   0.04  -0.03    -0.02   0.04   0.06
  77   1     0.01   0.02   0.10    -0.05   0.04  -0.02    -0.02   0.03   0.05
  78   1     0.01   0.04   0.09    -0.05   0.02  -0.00    -0.00   0.01   0.02
  79   1     0.01   0.03   0.05    -0.04   0.01   0.01     0.01   0.00  -0.01
  80   1    -0.01  -0.01  -0.06     0.03  -0.00  -0.00     0.01   0.00  -0.01
  81   1    -0.01  -0.03  -0.09     0.05   0.00  -0.02     0.01   0.01   0.01
  82   1    -0.01  -0.03  -0.10     0.05   0.02  -0.04     0.02   0.02   0.04
  83   1    -0.01  -0.02  -0.07     0.03   0.03  -0.05     0.02   0.03   0.06
  84   1    -0.00  -0.01  -0.03     0.01   0.02  -0.03     0.01   0.02   0.04
  85   1    -0.00   0.00   0.01    -0.01  -0.02   0.03    -0.01  -0.01  -0.03
  86   1     0.00   0.00   0.00    -0.01  -0.03   0.04    -0.01  -0.02  -0.04
  87   1    -0.00   0.01  -0.01    -0.00  -0.03   0.04     0.00  -0.03  -0.04
  88   1    -0.00   0.01  -0.01    -0.00  -0.03   0.03     0.00  -0.03  -0.03
  89   1     0.00   0.01   0.03    -0.03   0.02  -0.02    -0.00   0.01   0.03
  90   1     0.01   0.00   0.05    -0.04   0.03  -0.04    -0.02   0.02   0.05
                      4                      5                      6
                        a                      a                      a 
 Frequencies --    21.9090                27.3728                31.0407
 Red. masses --    11.1750                10.3788                10.4316
 Frc consts  --     0.0000                 0.0000                 0.0000
 IR Inten    --     0.0018                 0.0049                 0.0173
 Raman Activ --     0.0000                 0.0000                 0.0000
 Depolar     --     0.0000                 0.0000                 0.0000
 Atom AN      X      Y      Z        X      Y      Z        X      Y      Z
   1   6    -0.03   0.03  -0.18     0.09  -0.02   0.03     0.07   0.00  -0.04
   2   6     0.01   0.04  -0.12     0.09   0.00   0.02     0.08   0.02  -0.02
   3   6     0.02   0.02  -0.03     0.07   0.03   0.01     0.07   0.04   0.00
   4   6    -0.01  -0.01   0.00     0.05   0.03   0.00     0.04   0.03   0.01
   5   6    -0.01  -0.02   0.08     0.04   0.05  -0.00     0.03   0.04   0.03
   6   6    -0.01  -0.03   0.13     0.04   0.06  -0.00     0.03   0.05   0.04
   7   6    -0.01  -0.04   0.17     0.03   0.07  -0.01     0.02   0.06   0.04
   8   6    -0.00  -0.04   0.17     0.01   0.07  -0.01     0.01   0.05   0.04
   9   6    -0.00  -0.03   0.14     0.01   0.05  -0.01     0.01   0.04   0.04
  10   6    -0.00  -0.02   0.10     0.02   0.04  -0.01     0.01   0.03   0.03
  11   6     0.01  -0.03   0.14    -0.01   0.05  -0.00    -0.00   0.04   0.03
  12   6     0.01  -0.02   0.10    -0.02   0.04  -0.00    -0.01   0.03   0.03
  13   6     0.01  -0.02   0.08    -0.03   0.04   0.01    -0.03   0.04   0.03
  14   6     0.02  -0.01   0.01    -0.05   0.03   0.00    -0.04   0.02   0.01
  15   6    -0.02   0.02  -0.04    -0.06   0.01  -0.02    -0.05   0.01  -0.00
  16   6    -0.02   0.03  -0.13    -0.08  -0.01  -0.03    -0.07  -0.01  -0.03
  17   6     0.02   0.01  -0.16    -0.09  -0.01  -0.02    -0.08  -0.01  -0.04
  18   6     0.06  -0.02  -0.11    -0.08   0.02  -0.00    -0.07   0.00  -0.02
  19   6     0.06  -0.03  -0.03    -0.06   0.04   0.01    -0.05   0.02   0.00
  20   6     0.02  -0.03   0.12    -0.04   0.06   0.02    -0.03   0.05   0.03
  21   6     0.01  -0.04   0.16    -0.03   0.07   0.02    -0.02   0.06   0.03
  22   6     0.01  -0.04   0.17    -0.01   0.07   0.01    -0.01   0.05   0.03
  23   7     0.00  -0.05   0.20    -0.00   0.08  -0.00     0.00   0.06   0.03
  24   6     0.00  -0.04   0.13    -0.00   0.07  -0.00     0.00   0.05   0.00
  25   6    -0.04  -0.04   0.09    -0.01   0.07  -0.01    -0.03   0.03  -0.00
  26   6    -0.04  -0.02   0.01    -0.01   0.03  -0.01    -0.03  -0.00  -0.02
  27   6     0.00   0.00  -0.03     0.00  -0.01   0.01     0.00  -0.02  -0.04
  28   6     0.00   0.03  -0.11     0.00  -0.05   0.02     0.00  -0.06  -0.05
  29   6     0.00   0.03  -0.12    -0.02  -0.06  -0.02    -0.02  -0.07  -0.05
  30   6     0.00   0.04  -0.16    -0.02  -0.09  -0.02    -0.02  -0.09  -0.06
  31   6     0.00   0.04  -0.19     0.00  -0.11   0.00     0.00  -0.10  -0.08
  32   6     0.00   0.04  -0.17     0.00  -0.11  -0.02     0.00  -0.10  -0.09
  33   6     0.02   0.03  -0.15    -0.02  -0.10  -0.03    -0.02  -0.10  -0.11
  34   6     0.02   0.02  -0.07    -0.02  -0.06  -0.01    -0.01  -0.07  -0.07
  35   6     0.05   0.01  -0.01    -0.06  -0.03  -0.01    -0.04  -0.03  -0.01
  36   6     0.00   0.02   0.09    -0.11   0.09   0.10    -0.10   0.06   0.12
  37   6     0.02   0.02   0.15    -0.16   0.14   0.11    -0.14   0.12   0.21
  38   6     0.08   0.00   0.10    -0.16   0.05  -0.01    -0.13   0.09   0.17
  39   6     0.13  -0.01  -0.00    -0.11  -0.08  -0.13    -0.07   0.00   0.03
  40   6     0.11  -0.00  -0.06    -0.06  -0.12  -0.13    -0.03  -0.06  -0.06
  41   7     0.00   0.02  -0.03     0.01  -0.04   0.02     0.01  -0.05  -0.06
  42   6    -0.02   0.02  -0.06     0.03  -0.06  -0.00     0.02  -0.06  -0.05
  43   6    -0.05   0.02  -0.01     0.06  -0.05  -0.00     0.05  -0.04  -0.02
  44   6    -0.09   0.02  -0.09     0.07  -0.15  -0.27     0.11   0.03   0.29
  45   6    -0.11   0.02  -0.04     0.10  -0.13  -0.28     0.15   0.06   0.34
  46   6    -0.10   0.02   0.10     0.14  -0.01  -0.01     0.12   0.01   0.07
  47   6    -0.06   0.02   0.18     0.14   0.09   0.27     0.06  -0.05  -0.24
  48   6    -0.03   0.02   0.12     0.10   0.07   0.27     0.02  -0.08  -0.28
  49   7    -0.02   0.04  -0.14     0.03  -0.10  -0.02     0.02  -0.09  -0.06
  50   6     0.00   0.05  -0.20     0.02  -0.10   0.05     0.02  -0.09  -0.08
  51   6     0.00   0.04  -0.16     0.03  -0.08   0.06     0.02  -0.06  -0.07
  52   6     0.05  -0.00   0.01     0.01  -0.00   0.02     0.03   0.01  -0.03
  53   6     0.05  -0.03   0.08     0.01   0.04   0.01     0.03   0.04  -0.01
  54   6    -0.06  -0.02  -0.06     0.06   0.01   0.01     0.03   0.01  -0.01
  55   6    -0.07   0.00  -0.15     0.08  -0.02   0.02     0.04  -0.01  -0.03
  56   1    -0.01   0.01  -0.07     0.03  -0.01   0.01     0.02  -0.00  -0.02
  57   1     0.01   0.02  -0.04     0.03   0.00   0.01     0.03   0.01  -0.01
  58   1     0.02   0.01   0.01     0.02   0.01   0.00     0.02   0.02   0.00
  59   1    -0.01  -0.01   0.04     0.02   0.02  -0.00     0.01   0.01   0.01
  60   1    -0.00  -0.01   0.06     0.01   0.03  -0.00     0.01   0.02   0.01
  61   1    -0.00  -0.00   0.02     0.00   0.01  -0.00     0.00   0.01   0.01
  62   1     0.00  -0.01   0.02    -0.00   0.01  -0.00    -0.00   0.01   0.01
  63   1    -0.02   0.01  -0.01    -0.02   0.00  -0.01    -0.01   0.00   0.00
  64   1    -0.02   0.02  -0.05    -0.02  -0.01  -0.01    -0.02  -0.00  -0.01
  65   1     0.01   0.00  -0.07    -0.03  -0.01  -0.01    -0.03  -0.01  -0.02
  66   1     0.03  -0.01  -0.04    -0.02   0.01   0.00    -0.02  -0.00  -0.01
  67   1     0.03  -0.02   0.00    -0.01   0.02   0.01    -0.01   0.01   0.00
  68   1     0.01  -0.01   0.03    -0.01   0.02   0.01    -0.01   0.01   0.01
  69   1     0.00  -0.01   0.05    -0.01   0.02   0.01    -0.01   0.02   0.01
  70   1    -0.02  -0.02   0.04    -0.01   0.03  -0.01    -0.02   0.01   0.00
  71   1    -0.02  -0.00  -0.00    -0.01   0.01  -0.00    -0.02  -0.01  -0.01
  72   1     0.00   0.01  -0.03    -0.01  -0.01  -0.01    -0.01  -0.02  -0.01
  73   1     0.00   0.01  -0.05    -0.01  -0.03  -0.02    -0.01  -0.03  -0.01
  74   1     0.01   0.01  -0.05    -0.01  -0.03  -0.02    -0.01  -0.03  -0.04
  75   1    -0.01   0.01   0.04    -0.03   0.05   0.06    -0.03   0.02   0.04
  76   1    -0.00   0.01   0.07    -0.06   0.07   0.06    -0.05   0.05   0.09
  77   1     0.03   0.00   0.04    -0.06   0.02  -0.00    -0.05   0.04   0.07
  78   1     0.05  -0.00  -0.01    -0.03  -0.04  -0.06    -0.02  -0.01  -0.00
  79   1     0.04  -0.00  -0.04    -0.01  -0.06  -0.06     0.00  -0.04  -0.05
  80   1    -0.03   0.01  -0.06     0.01  -0.07  -0.14     0.04   0.02   0.14
  81   1    -0.04   0.00  -0.03     0.03  -0.06  -0.14     0.06   0.03   0.17
  82   1    -0.04   0.00   0.04     0.05   0.00  -0.00     0.04   0.01   0.03
  83   1    -0.02   0.01   0.08     0.05   0.05   0.14     0.01  -0.02  -0.13
  84   1    -0.00   0.01   0.05     0.03   0.04   0.14    -0.01  -0.04  -0.15
  85   1     0.00   0.02  -0.07     0.01  -0.04   0.02     0.01  -0.03  -0.03
  86   1     0.00   0.01  -0.05     0.01  -0.02   0.03     0.01  -0.02  -0.02
  87   1     0.02   0.00  -0.01     0.01  -0.01   0.01     0.02   0.00  -0.01
  88   1     0.02  -0.01   0.03     0.01   0.01   0.00     0.02   0.02  -0.00
  89   1    -0.03  -0.01  -0.01     0.01   0.00   0.00     0.00  -0.00  -0.00
  90   1    -0.03  -0.00  -0.06     0.02  -0.01   0.01     0.01  -0.01  -0.01
                      7                      8                      9
                        a                      a                      a 
 Frequencies --    34.2221                36.1799                37.9827
 Red. masses --    10.1342                10.2308                10.7802
 Frc consts  --     0.0000                 0.0000                 0.0000
 IR Inten    --     0.1290                 0.0296                 0.0903
 Raman Activ --     0.0000                 0.0000                 0.0000
 Depolar     --     0.0000                 0.0000                 0.0000
 Atom AN      X      Y      Z        X      Y      Z        X      Y      Z
   1   6     0.01  -0.00   0.10    -0.06   0.10  -0.15    -0.23   0.24   0.01
   2   6    -0.06   0.05  -0.02     0.04   0.02   0.00    -0.29   0.21  -0.07
   3   6    -0.07   0.06  -0.07     0.06  -0.01   0.09    -0.20   0.12  -0.06
   4   6     0.00   0.02  -0.01    -0.01   0.03   0.04    -0.06   0.06   0.02
   5   6     0.00   0.02  -0.04    -0.00   0.01   0.10    -0.01   0.01   0.00
   6   6     0.00   0.03  -0.11    -0.00   0.01   0.17    -0.02   0.00  -0.07
   7   6     0.00   0.03  -0.10    -0.00   0.01   0.15    -0.00  -0.01  -0.07
   8   6    -0.00   0.03  -0.03     0.00   0.02   0.07     0.03  -0.01  -0.02
   9   6    -0.01   0.02   0.01     0.00   0.01   0.04     0.03  -0.01   0.02
  10   6    -0.00   0.02   0.01     0.00   0.02   0.05     0.01   0.01   0.04
  11   6    -0.01   0.01   0.06    -0.00   0.02  -0.02     0.03  -0.01   0.04
  12   6    -0.01   0.01   0.07    -0.01   0.01  -0.02     0.02  -0.04   0.06
  13   6    -0.01   0.01   0.10    -0.03   0.02  -0.07    -0.00  -0.03   0.05
  14   6    -0.02   0.01   0.03    -0.05  -0.01  -0.02    -0.05  -0.07   0.03
  15   6    -0.10  -0.01  -0.09     0.04  -0.02   0.11    -0.06  -0.13   0.00
  16   6    -0.12  -0.02  -0.19     0.01  -0.05   0.17    -0.14  -0.21  -0.07
  17   6    -0.06  -0.01  -0.17    -0.10  -0.08   0.10    -0.21  -0.23  -0.12
  18   6     0.02   0.01  -0.05    -0.19  -0.07  -0.02    -0.20  -0.17  -0.08
  19   6     0.04   0.01   0.05    -0.16  -0.04  -0.08    -0.12  -0.09  -0.00
  20   6    -0.01   0.00   0.16    -0.03   0.04  -0.14    -0.01  -0.02   0.04
  21   6    -0.01   0.01   0.15    -0.02   0.05  -0.14     0.01  -0.00   0.02
  22   6    -0.01   0.01   0.08    -0.01   0.03  -0.05     0.03  -0.01   0.02
  23   7    -0.01   0.02   0.02    -0.00   0.03   0.00     0.03  -0.01  -0.02
  24   6    -0.01   0.02  -0.00    -0.00   0.02  -0.01     0.03  -0.00  -0.02
  25   6    -0.03   0.10  -0.07    -0.01  -0.07   0.05     0.04  -0.01  -0.00
  26   6    -0.03   0.08  -0.09    -0.01  -0.09   0.05     0.04  -0.00   0.00
  27   6    -0.00  -0.01  -0.04     0.00  -0.02  -0.02     0.04   0.01  -0.00
  28   6    -0.00  -0.03  -0.05     0.01  -0.03  -0.02     0.04   0.02   0.01
  29   6    -0.01   0.00  -0.18     0.00  -0.06   0.06     0.05   0.01   0.04
  30   6    -0.01  -0.01  -0.17     0.00  -0.06   0.05     0.05   0.01   0.05
  31   6    -0.00  -0.05  -0.05     0.01  -0.05  -0.03     0.05   0.02   0.03
  32   6    -0.00  -0.05  -0.04     0.01  -0.05  -0.03     0.05   0.02   0.04
  33   6    -0.02  -0.03  -0.00     0.00  -0.04  -0.03     0.05   0.01   0.03
  34   6    -0.01  -0.01  -0.02     0.00  -0.02  -0.03     0.05   0.01   0.04
  35   6    -0.01  -0.01  -0.01     0.00  -0.01  -0.01     0.06  -0.00   0.02
  36   6     0.07  -0.15  -0.21     0.07  -0.13  -0.17     0.03   0.04   0.09
  37   6     0.08  -0.15  -0.20     0.08  -0.13  -0.14     0.04   0.02   0.06
  38   6     0.01  -0.01   0.03     0.02  -0.01   0.06     0.09  -0.04  -0.04
  39   6    -0.08   0.13   0.24    -0.04   0.11   0.22     0.11  -0.08  -0.11
  40   6    -0.09   0.14   0.22    -0.05   0.11   0.18     0.10  -0.06  -0.08
  41   7    -0.01  -0.02  -0.05     0.01  -0.02  -0.05     0.05   0.01   0.05
  42   6     0.01  -0.02  -0.05     0.03  -0.03  -0.04     0.05   0.01   0.04
  43   6     0.03  -0.00  -0.01     0.05  -0.01  -0.01     0.05   0.01   0.01
  44   6     0.05  -0.01   0.01     0.08  -0.04  -0.05     0.06  -0.00   0.01
  45   6     0.08   0.02   0.08     0.11  -0.01  -0.01     0.07  -0.01  -0.04
  46   6     0.09   0.05   0.14     0.13   0.05   0.07     0.07  -0.00  -0.07
  47   6     0.07   0.06   0.11     0.10   0.08   0.11     0.06   0.01  -0.06
  48   6     0.04   0.03   0.04     0.07   0.05   0.06     0.05   0.01  -0.02
  49   7     0.01  -0.05  -0.06     0.03  -0.05  -0.04     0.05   0.02   0.05
  50   6     0.01  -0.07   0.07     0.01  -0.03  -0.10     0.04   0.02   0.01
  51   6     0.01  -0.06   0.07     0.01  -0.02  -0.10     0.04   0.02  -0.01
  52   6     0.02  -0.09   0.03     0.01   0.08  -0.08     0.03   0.02  -0.02
  53   6     0.02  -0.07   0.04     0.01   0.11  -0.07     0.03   0.01  -0.02
  54   6     0.08  -0.03   0.10    -0.11   0.09  -0.10    -0.01   0.09   0.11
  55   6     0.08  -0.05   0.16    -0.13   0.13  -0.20    -0.09   0.18   0.10
  56   1     0.00  -0.00   0.04    -0.02   0.04  -0.06    -0.09   0.09  -0.00
  57   1    -0.03   0.03  -0.02     0.03  -0.00   0.01    -0.12   0.07  -0.04
  58   1    -0.04   0.03  -0.04     0.04  -0.02   0.06    -0.07   0.03  -0.03
  59   1     0.00   0.01  -0.05    -0.00   0.00   0.07    -0.01  -0.00  -0.03
  60   1     0.00   0.01  -0.04    -0.00   0.00   0.06    -0.00  -0.01  -0.03
  61   1    -0.00   0.00   0.02     0.00   0.01   0.00     0.00   0.01   0.02
  62   1    -0.00   0.00   0.01    -0.00  -0.00   0.01     0.01  -0.02   0.02
  63   1    -0.04  -0.00  -0.03     0.04   0.00   0.05    -0.00  -0.04   0.01
  64   1    -0.05  -0.01  -0.08     0.03  -0.02   0.08    -0.04  -0.08  -0.03
  65   1    -0.02  -0.01  -0.07    -0.04  -0.03   0.04    -0.08  -0.09  -0.05
  66   1     0.02   0.00  -0.01    -0.08  -0.03  -0.02    -0.07  -0.05  -0.03
  67   1     0.03   0.01   0.04    -0.07  -0.01  -0.05    -0.03  -0.01   0.01
  68   1    -0.00  -0.00   0.06    -0.01   0.01  -0.06    -0.01  -0.00   0.01
  69   1    -0.00   0.00   0.05    -0.01   0.02  -0.05    -0.00   0.01   0.00
  70   1    -0.01   0.05  -0.03    -0.01  -0.04   0.03     0.02  -0.01  -0.00
  71   1    -0.01   0.04  -0.04    -0.01  -0.05   0.03     0.01  -0.00   0.00
  72   1    -0.01   0.01  -0.08    -0.00  -0.02   0.03     0.01   0.00   0.01
  73   1    -0.01   0.00  -0.08    -0.00  -0.02   0.03     0.01   0.00   0.02
  74   1    -0.01  -0.01   0.01    -0.00  -0.01  -0.01     0.02   0.00   0.00
  75   1     0.04  -0.07  -0.11     0.03  -0.06  -0.09     0.00   0.02   0.05
  76   1     0.04  -0.08  -0.11     0.04  -0.07  -0.08     0.01   0.02   0.03
  77   1     0.00  -0.00   0.01     0.01  -0.00   0.02     0.03  -0.02  -0.02
  78   1    -0.04   0.07   0.12    -0.03   0.06   0.11     0.04  -0.04  -0.05
  79   1    -0.05   0.08   0.11    -0.03   0.06   0.09     0.04  -0.03  -0.04
  80   1     0.01  -0.01  -0.01     0.02  -0.02  -0.03     0.02  -0.00   0.01
  81   1     0.03   0.00   0.03     0.04  -0.01  -0.01     0.02  -0.00  -0.01
  82   1     0.03   0.02   0.06     0.04   0.02   0.03     0.02  -0.00  -0.03
  83   1     0.02   0.03   0.04     0.03   0.03   0.05     0.02   0.00  -0.03
  84   1     0.01   0.01   0.01     0.01   0.02   0.03     0.01   0.01  -0.00
  85   1     0.00  -0.03   0.05     0.00  -0.00  -0.04     0.01   0.01  -0.00
  86   1     0.00  -0.02   0.05     0.01   0.00  -0.05     0.01   0.01  -0.01
  87   1     0.01  -0.05   0.02     0.01   0.04  -0.04     0.01   0.01  -0.01
  88   1     0.01  -0.04   0.03     0.01   0.05  -0.03     0.01   0.01  -0.01
  89   1     0.04  -0.02   0.04    -0.05   0.03  -0.04     0.03   0.01   0.05
  90   1     0.04  -0.03   0.07    -0.06   0.05  -0.09    -0.01   0.06   0.05
                     10                     11                     12
                        a                      a                      a 
 Frequencies --    39.0393                48.8329                52.0536
 Red. masses --     9.9467                 9.9127                10.9163
 Frc consts  --     0.0000                 0.0000                 0.0000
 IR Inten    --     0.0329                 0.4334                 0.2186
 Raman Activ --     0.0000                 0.0000                 0.0000
 Depolar     --     0.0000                 0.0000                 0.0000
 Atom AN      X      Y      Z        X      Y      Z        X      Y      Z
   1   6    -0.05   0.03   0.11     0.05  -0.03   0.01     0.04  -0.09  -0.05
   2   6     0.03  -0.14   0.25    -0.07   0.12  -0.17     0.05  -0.03  -0.05
   3   6     0.05  -0.14   0.18    -0.08   0.13  -0.17     0.01   0.00  -0.01
   4   6    -0.02   0.02  -0.02     0.01   0.00  -0.01    -0.03  -0.03   0.02
   5   6    -0.01   0.01  -0.06    -0.00   0.01  -0.01    -0.05  -0.01   0.06
   6   6    -0.01   0.00   0.03    -0.00   0.01  -0.02    -0.05  -0.00   0.06
   7   6    -0.00  -0.00   0.03    -0.00   0.00   0.00    -0.05   0.00   0.06
   8   6     0.01   0.01  -0.04    -0.00   0.00  -0.00    -0.06  -0.00   0.04
   9   6     0.01   0.02  -0.13    -0.00   0.01  -0.02    -0.06  -0.00   0.05
  10   6     0.00   0.03  -0.16    -0.00   0.01  -0.00    -0.06  -0.01   0.06
  11   6     0.01   0.02  -0.12    -0.00   0.01  -0.03    -0.06   0.00   0.04
  12   6     0.01   0.01  -0.15    -0.00   0.01  -0.05    -0.06   0.01   0.03
  13   6    -0.01   0.00  -0.04    -0.01   0.01  -0.05    -0.06   0.01   0.02
  14   6    -0.02  -0.01  -0.01    -0.01   0.01  -0.03    -0.04   0.03   0.00
  15   6    -0.14  -0.17  -0.23    -0.06  -0.05  -0.13    -0.09   0.04  -0.07
  16   6    -0.16  -0.19  -0.20    -0.06  -0.05  -0.10    -0.05   0.08  -0.07
  17   6    -0.06  -0.06   0.06     0.01   0.03   0.05     0.03   0.11   0.01
  18   6     0.06   0.10   0.29     0.07   0.09   0.15     0.08   0.10   0.07
  19   6     0.08   0.12   0.25     0.06   0.09   0.11     0.04   0.06   0.07
  20   6    -0.01  -0.00   0.07    -0.01   0.01  -0.04    -0.05   0.00   0.01
  21   6    -0.00  -0.00   0.07    -0.01   0.01  -0.04    -0.06  -0.00   0.01
  22   6     0.01   0.00  -0.02    -0.00   0.01  -0.03    -0.06  -0.00   0.02
  23   7     0.01  -0.00   0.01    -0.00   0.01  -0.01    -0.06   0.00   0.02
  24   6     0.01  -0.01   0.03    -0.00  -0.00   0.02    -0.06   0.00  -0.03
  25   6     0.01  -0.02   0.04     0.01  -0.12   0.11    -0.08  -0.02  -0.03
  26   6     0.01  -0.03   0.03     0.01  -0.14   0.14    -0.08  -0.02  -0.07
  27   6     0.01  -0.02   0.03    -0.00  -0.03   0.07    -0.05   0.01  -0.11
  28   6     0.01  -0.01   0.01    -0.00  -0.03   0.07    -0.05   0.00  -0.11
  29   6     0.01  -0.01   0.01    -0.00  -0.09   0.32    -0.03  -0.00  -0.06
  30   6     0.01   0.00  -0.01    -0.00  -0.07   0.27    -0.03  -0.01  -0.00
  31   6     0.01   0.01  -0.04    -0.00  -0.00  -0.01    -0.03  -0.01   0.00
  32   6     0.01   0.01  -0.04    -0.00  -0.00  -0.06    -0.03  -0.00   0.07
  33   6     0.02   0.01  -0.04    -0.00  -0.02  -0.11    -0.04   0.01   0.08
  34   6     0.02   0.01  -0.03     0.00  -0.02  -0.09    -0.03   0.03   0.14
  35   6     0.03   0.00  -0.01     0.00  -0.01  -0.05     0.01  -0.01   0.11
  36   6     0.02  -0.01   0.01    -0.00  -0.03  -0.05     0.01  -0.06   0.10
  37   6     0.03  -0.01   0.03    -0.00  -0.02   0.02     0.09  -0.16  -0.01
  38   6     0.05  -0.01   0.03    -0.00   0.04   0.09     0.18  -0.21  -0.11
  39   6     0.06   0.00   0.01    -0.00   0.06   0.09     0.17  -0.14  -0.08
  40   6     0.05   0.01  -0.01     0.00   0.04   0.01     0.08  -0.04   0.03
  41   7     0.01   0.00  -0.02    -0.00  -0.01  -0.08    -0.04   0.05   0.18
  42   6     0.01   0.01  -0.03    -0.00  -0.00  -0.05    -0.02   0.03   0.13
  43   6     0.01   0.01  -0.01    -0.01  -0.00  -0.03     0.05   0.05   0.06
  44   6     0.00   0.01  -0.00    -0.02  -0.00  -0.05     0.14  -0.03   0.05
  45   6     0.00   0.02   0.02    -0.02  -0.00  -0.02     0.25  -0.00  -0.06
  46   6     0.00   0.01   0.02    -0.02   0.01   0.03     0.25   0.10  -0.16
  47   6     0.00   0.01   0.01    -0.01   0.01   0.05     0.15   0.17  -0.13
  48   6     0.01   0.00  -0.01    -0.00   0.00   0.02     0.05   0.14  -0.02
  49   7     0.01   0.01  -0.04    -0.00   0.01  -0.02    -0.02   0.00   0.10
  50   6     0.01   0.01  -0.04    -0.01   0.05  -0.24    -0.05   0.00  -0.07
  51   6     0.01  -0.00  -0.02    -0.01   0.04  -0.20    -0.05   0.01  -0.13
  52   6     0.01  -0.02   0.03    -0.01   0.09  -0.02    -0.03   0.03  -0.11
  53   6     0.01  -0.02   0.03    -0.01   0.09  -0.04    -0.03   0.03  -0.07
  54   6    -0.10   0.18  -0.15     0.12  -0.14   0.16    -0.04  -0.09   0.01
  55   6    -0.12   0.19  -0.09     0.14  -0.16   0.17    -0.01  -0.12  -0.02
  56   1    -0.02   0.01   0.05     0.02  -0.01   0.01     0.02  -0.03  -0.02
  57   1     0.03  -0.08   0.12    -0.04   0.06  -0.09     0.02  -0.00  -0.02
  58   1     0.03  -0.08   0.08    -0.05   0.07  -0.08     0.01   0.02  -0.00
  59   1    -0.00  -0.00   0.03    -0.00   0.00  -0.01    -0.01  -0.00   0.02
  60   1    -0.00  -0.00   0.03    -0.00  -0.00   0.01    -0.02   0.00   0.02
  61   1     0.00   0.01  -0.07    -0.00  -0.00   0.00    -0.02  -0.01   0.02
  62   1     0.00   0.00  -0.07     0.00   0.00  -0.02    -0.02   0.00   0.01
  63   1    -0.06  -0.08  -0.12    -0.03  -0.03  -0.07    -0.05   0.01  -0.03
  64   1    -0.08  -0.09  -0.11    -0.03  -0.03  -0.05    -0.03   0.02  -0.04
  65   1    -0.02  -0.02   0.03     0.01   0.01   0.02     0.02   0.04   0.00
  66   1     0.04   0.06   0.14     0.04   0.04   0.08     0.04   0.04   0.04
  67   1     0.05   0.07   0.12     0.03   0.04   0.05     0.02   0.02   0.03
  68   1    -0.00  -0.00   0.05    -0.00   0.00  -0.01    -0.01  -0.00   0.00
  69   1    -0.00   0.00   0.04    -0.00   0.01  -0.02    -0.02  -0.00  -0.00
  70   1     0.00  -0.01   0.01     0.01  -0.05   0.04    -0.03  -0.01  -0.00
  71   1     0.00  -0.01   0.01     0.01  -0.07   0.06    -0.03  -0.01  -0.02
  72   1     0.00  -0.00   0.01    -0.00  -0.04   0.15    -0.01  -0.00  -0.02
  73   1     0.00   0.00  -0.00     0.00  -0.03   0.13    -0.01  -0.01   0.01
  74   1     0.01   0.00  -0.01     0.00  -0.01  -0.04    -0.01  -0.00   0.01
  75   1     0.00  -0.00   0.00    -0.00  -0.02  -0.03    -0.02  -0.01   0.05
  76   1     0.01  -0.01   0.01    -0.00  -0.01   0.01     0.03  -0.06  -0.01
  77   1     0.02  -0.00   0.01    -0.00   0.02   0.05     0.07  -0.08  -0.06
  78   1     0.02   0.00   0.00    -0.00   0.03   0.04     0.07  -0.05  -0.04
  79   1     0.02   0.01  -0.01     0.00   0.02   0.00     0.02   0.00   0.01
  80   1     0.00   0.00  -0.00    -0.01  -0.00  -0.02     0.04  -0.03   0.03
  81   1    -0.00   0.01   0.01    -0.01  -0.00  -0.01     0.09  -0.02  -0.02
  82   1     0.00   0.00   0.01    -0.01   0.00   0.02     0.09   0.03  -0.07
  83   1     0.00   0.00   0.01    -0.00   0.00   0.03     0.05   0.07  -0.06
  84   1     0.00   0.00  -0.00     0.00   0.00   0.01    -0.01   0.06  -0.00
  85   1     0.00   0.00  -0.02    -0.01   0.03  -0.13    -0.02   0.00  -0.02
  86   1     0.00  -0.00  -0.01    -0.00   0.02  -0.11    -0.01   0.01  -0.05
  87   1     0.00  -0.00   0.01    -0.01   0.05  -0.02    -0.00   0.02  -0.04
  88   1     0.00  -0.00   0.01    -0.01   0.05  -0.03    -0.00   0.01  -0.02
  89   1    -0.05   0.09  -0.08     0.06  -0.07   0.08    -0.02  -0.03   0.01
  90   1    -0.05   0.09  -0.06     0.07  -0.08   0.09    -0.00  -0.05  -0.01
                     13                     14                     15
                        a                      a                      a 
 Frequencies --    54.9967                59.2237                69.4369
 Red. masses --    10.8790                10.3837                11.0800
 Frc consts  --     0.0000                 0.0000                 0.0000
 IR Inten    --     0.1763                 0.2938                 0.1196
 Raman Activ --     0.0000                 0.0000                 0.0000
 Depolar     --     0.0000                 0.0000                 0.0000
 Atom AN      X      Y      Z        X      Y      Z        X      Y      Z
   1   6     0.02  -0.08   0.12     0.05  -0.06   0.12     0.13  -0.06   0.05
   2   6    -0.01  -0.09   0.07     0.07  -0.14   0.16     0.09   0.03  -0.02
   3   6    -0.04  -0.04  -0.03     0.04  -0.09   0.05     0.03   0.10  -0.05
   4   6    -0.04   0.01  -0.09    -0.01   0.03  -0.10    -0.01   0.08  -0.03
   5   6    -0.04   0.02  -0.14    -0.02   0.04  -0.14    -0.03   0.10  -0.02
   6   6    -0.04   0.02  -0.14    -0.01   0.04  -0.19    -0.03   0.08   0.05
   7   6    -0.04   0.01  -0.10    -0.01   0.03  -0.17    -0.03   0.06   0.07
   8   6    -0.04   0.01  -0.06     0.00   0.03  -0.08    -0.02   0.07   0.02
   9   6    -0.04   0.01  -0.09     0.00   0.03  -0.03    -0.01   0.09  -0.04
  10   6    -0.04   0.02  -0.13    -0.00   0.04  -0.08    -0.02   0.10  -0.06
  11   6    -0.04   0.01  -0.05     0.01   0.01   0.08     0.02   0.09  -0.05
  12   6    -0.04   0.01  -0.04     0.01   0.01   0.14     0.03   0.10  -0.07
  13   6    -0.03   0.01  -0.01     0.02   0.00   0.20     0.04   0.10  -0.04
  14   6    -0.03   0.01  -0.01     0.02   0.01   0.13     0.01   0.07  -0.01
  15   6     0.05   0.07   0.11     0.02   0.09   0.15     0.05  -0.00   0.03
  16   6     0.06   0.08   0.13    -0.00   0.09   0.00    -0.02  -0.08   0.04
  17   6    -0.00   0.03   0.02    -0.02  -0.01  -0.16    -0.13  -0.09   0.01
  18   6    -0.08  -0.04  -0.11    -0.01  -0.09  -0.18    -0.16  -0.01  -0.02
  19   6    -0.09  -0.05  -0.12     0.01  -0.08  -0.03    -0.09   0.07  -0.02
  20   6    -0.03   0.00   0.02     0.02  -0.00   0.23     0.05   0.08  -0.02
  21   6    -0.03  -0.00   0.04     0.01  -0.00   0.19     0.04   0.07   0.00
  22   6    -0.04   0.00   0.00     0.01   0.01   0.10     0.03   0.07  -0.01
  23   7    -0.04   0.00   0.01     0.01   0.01  -0.01     0.01   0.05   0.03
  24   6    -0.04  -0.01   0.07     0.01   0.00  -0.03     0.01  -0.05   0.05
  25   6    -0.00   0.01   0.08    -0.01  -0.02  -0.02    -0.04  -0.12   0.06
  26   6    -0.00   0.01   0.13    -0.01  -0.05  -0.03    -0.04  -0.23   0.06
  27   6    -0.03  -0.03   0.17     0.00  -0.02  -0.06     0.01  -0.26   0.05
  28   6    -0.03  -0.02   0.16     0.00  -0.02  -0.05     0.00  -0.23  -0.02
  29   6    -0.03  -0.01   0.11     0.01  -0.08   0.19     0.07  -0.17  -0.10
  30   6    -0.03   0.01   0.01     0.01  -0.07   0.22     0.07  -0.07  -0.14
  31   6    -0.02   0.01  -0.04    -0.00  -0.01   0.01    -0.00  -0.04  -0.10
  32   6    -0.02   0.02  -0.12    -0.00  -0.00   0.04     0.00   0.03  -0.04
  33   6    -0.02   0.01  -0.15     0.00  -0.01   0.00    -0.01   0.06   0.03
  34   6    -0.02   0.01  -0.13     0.00  -0.00   0.03    -0.00   0.09   0.11
  35   6     0.04  -0.02  -0.05    -0.01   0.00   0.01     0.00   0.08   0.08
  36   6    -0.01  -0.09   0.07     0.01   0.01  -0.03     0.02   0.06   0.04
  37   6     0.07  -0.14   0.15    -0.01   0.02  -0.05     0.06   0.01  -0.06
  38   6     0.20  -0.12   0.11    -0.04   0.03  -0.02     0.08  -0.03  -0.12
  39   6     0.25  -0.05  -0.00    -0.06   0.03   0.03     0.05   0.00  -0.05
  40   6     0.17   0.00  -0.08    -0.05   0.01   0.04     0.01   0.06   0.05
  41   7    -0.03   0.00  -0.14     0.01   0.01   0.07     0.01   0.11   0.15
  42   6    -0.03   0.00  -0.14     0.01   0.01   0.08     0.02   0.08   0.08
  43   6     0.01   0.03  -0.10     0.00   0.00   0.06    -0.01   0.07   0.06
  44   6     0.05   0.02  -0.05    -0.00  -0.01   0.02    -0.06   0.09   0.04
  45   6     0.11   0.07   0.05    -0.01  -0.03  -0.05    -0.11   0.05  -0.03
  46   6     0.12   0.13   0.10    -0.02  -0.04  -0.08    -0.12  -0.02  -0.08
  47   6     0.08   0.14   0.04    -0.01  -0.02  -0.03    -0.08  -0.04  -0.05
  48   6     0.02   0.09  -0.06    -0.00  -0.00   0.04    -0.02   0.01   0.02
  49   7    -0.03   0.01  -0.13     0.01   0.01   0.09     0.02   0.05  -0.02
  50   6    -0.02  -0.00   0.04    -0.02   0.05  -0.25    -0.06  -0.09  -0.06
  51   6    -0.02  -0.02   0.14    -0.01   0.05  -0.28    -0.06  -0.19  -0.02
  52   6    -0.06  -0.06   0.17     0.02   0.01  -0.07     0.05  -0.23   0.06
  53   6    -0.06  -0.05   0.12     0.02   0.01  -0.04     0.05  -0.12   0.06
  54   6    -0.01   0.02  -0.05    -0.04   0.11  -0.14     0.02   0.00   0.01
  55   6     0.02  -0.02   0.06    -0.01   0.07  -0.04     0.09  -0.07   0.05
  56   1     0.01  -0.03   0.06     0.02  -0.03   0.06     0.05  -0.04   0.02
  57   1    -0.00  -0.04   0.03     0.03  -0.07   0.08     0.03   0.01  -0.01
  58   1    -0.02  -0.02  -0.02     0.01  -0.05   0.02     0.00   0.05  -0.02
  59   1    -0.01   0.01  -0.04    -0.00   0.01  -0.07    -0.02   0.02   0.02
  60   1    -0.01   0.00  -0.03    -0.00   0.01  -0.06    -0.01   0.01   0.04
  61   1    -0.01   0.01  -0.04     0.00   0.01  -0.01    -0.01   0.03  -0.03
  62   1    -0.01   0.01  -0.02     0.00   0.01   0.04     0.01   0.03  -0.03
  63   1     0.03   0.03   0.05     0.01   0.04   0.07     0.04  -0.00   0.01
  64   1     0.03   0.04   0.07    -0.00   0.04   0.01     0.00  -0.04   0.02
  65   1     0.00   0.01   0.01    -0.01  -0.01  -0.08    -0.06  -0.04   0.00
  66   1    -0.04  -0.02  -0.06    -0.01  -0.05  -0.09    -0.07  -0.00  -0.01
  67   1    -0.04  -0.03  -0.06     0.01  -0.04  -0.01    -0.03   0.04  -0.01
  68   1    -0.01   0.00   0.01     0.00  -0.00   0.08     0.02   0.02  -0.00
  69   1    -0.01  -0.00   0.02     0.00  -0.00   0.06     0.01   0.02   0.01
  70   1     0.01   0.01   0.01    -0.01  -0.01  -0.00    -0.02  -0.02   0.02
  71   1     0.01   0.01   0.04    -0.00  -0.02  -0.00    -0.02  -0.08   0.02
  72   1    -0.01  -0.00   0.04     0.00  -0.03   0.10     0.04  -0.06  -0.03
  73   1    -0.01   0.00  -0.01     0.01  -0.03   0.12     0.03  -0.01  -0.05
  74   1    -0.00   0.00  -0.05     0.00  -0.01  -0.01    -0.01   0.01   0.00
  75   1    -0.03  -0.03   0.03     0.01  -0.00  -0.02     0.00   0.02   0.02
  76   1     0.01  -0.06   0.07     0.00   0.00  -0.03     0.02  -0.00  -0.03
  77   1     0.08  -0.05   0.05    -0.02   0.01  -0.01     0.03  -0.02  -0.06
  78   1     0.10  -0.01  -0.01    -0.03   0.01   0.01     0.02  -0.01  -0.02
  79   1     0.06   0.02  -0.05    -0.02   0.00   0.02    -0.00   0.02   0.03
  80   1     0.01  -0.01  -0.02     0.00  -0.00   0.01    -0.01   0.04   0.02
  81   1     0.04   0.02   0.03    -0.00  -0.01  -0.03    -0.04   0.02  -0.02
  82   1     0.05   0.05   0.05    -0.01  -0.02  -0.04    -0.05  -0.02  -0.04
  83   1     0.02   0.06   0.02    -0.00  -0.01  -0.02    -0.03  -0.03  -0.02
  84   1    -0.01   0.03  -0.03     0.00   0.00   0.02     0.00  -0.00   0.01
  85   1    -0.00   0.00   0.00    -0.01   0.03  -0.12    -0.03  -0.02  -0.01
  86   1    -0.00  -0.01   0.06    -0.01   0.02  -0.13    -0.03  -0.07   0.00
  87   1    -0.03  -0.02   0.06     0.01   0.01  -0.03     0.03  -0.08   0.02
  88   1    -0.03  -0.02   0.03     0.01   0.00  -0.01     0.02  -0.02   0.02
  89   1    -0.00   0.02  -0.03    -0.02   0.06  -0.07    -0.00  -0.00   0.00
  90   1     0.01  -0.00   0.03    -0.01   0.04  -0.02     0.03  -0.04   0.03
                     16                     17                     18
                        a                      a                      a 
 Frequencies --    80.9494                87.6111                92.5416
 Red. masses --    10.9302                10.4394                10.7499
 Frc consts  --     0.0000                 0.0000                 0.0000
 IR Inten    --     0.0581                 2.2372                 0.7080
 Raman Activ --     0.0000                 0.0000                 0.0000
 Depolar     --     0.0000                 0.0000                 0.0000
 Atom AN      X      Y      Z        X      Y      Z        X      Y      Z
   1   6     0.04  -0.03  -0.12     0.06  -0.19   0.08    -0.09   0.14  -0.03
   2   6     0.13  -0.01   0.00     0.02  -0.09   0.02    -0.08   0.02   0.00
   3   6     0.09   0.01   0.11    -0.08   0.03  -0.07     0.03  -0.08   0.03
   4   6    -0.01   0.00   0.11    -0.14   0.05  -0.10     0.11  -0.07   0.02
   5   6    -0.03   0.02   0.16    -0.15   0.06  -0.09     0.12  -0.08  -0.01
   6   6    -0.03   0.03   0.00    -0.16   0.02  -0.05     0.13  -0.02  -0.05
   7   6    -0.02   0.03  -0.13    -0.12  -0.03   0.01     0.09   0.03  -0.07
   8   6    -0.02   0.03  -0.09    -0.06  -0.01   0.01     0.03   0.02  -0.05
   9   6    -0.02   0.02   0.12    -0.05   0.02   0.00     0.02  -0.05  -0.02
  10   6    -0.02   0.01   0.24    -0.10   0.07  -0.05     0.06  -0.09  -0.01
  11   6     0.01   0.02   0.12    -0.02   0.02   0.03    -0.06  -0.05   0.01
  12   6     0.02   0.03   0.24    -0.00   0.03   0.05    -0.13  -0.11   0.02
  13   6     0.04   0.03   0.16     0.01   0.03   0.06    -0.21  -0.09   0.03
  14   6     0.04   0.04   0.13     0.01   0.03   0.05    -0.19  -0.06  -0.02
  15   6    -0.04   0.02   0.02    -0.00   0.02   0.03    -0.21   0.08  -0.01
  16   6    -0.09  -0.01  -0.13    -0.03   0.00  -0.02    -0.07   0.23   0.03
  17   6    -0.06  -0.03  -0.14    -0.04  -0.01  -0.05     0.09   0.23   0.06
  18   6     0.04   0.01   0.00    -0.02  -0.00  -0.01     0.08   0.06  -0.00
  19   6     0.08   0.04   0.14     0.00   0.02   0.04    -0.06  -0.08  -0.04
  20   6     0.04   0.03  -0.03     0.01   0.01   0.02    -0.23  -0.04   0.07
  21   6     0.03   0.03  -0.16     0.00  -0.01   0.00    -0.17   0.03   0.06
  22   6     0.02   0.03  -0.10    -0.01  -0.01   0.03    -0.08   0.01   0.01
  23   7    -0.00   0.04  -0.26    -0.02  -0.03   0.03    -0.02   0.07  -0.05
  24   6    -0.00  -0.00  -0.19    -0.02  -0.03   0.02    -0.01   0.06  -0.03
  25   6     0.05  -0.02  -0.15     0.00  -0.23   0.16    -0.01  -0.07   0.05
  26   6     0.05  -0.07  -0.04     0.00  -0.18   0.14    -0.01  -0.16   0.09
  27   6    -0.00  -0.11   0.02     0.02   0.06  -0.03     0.02  -0.11   0.04
  28   6    -0.00  -0.11   0.11     0.03   0.07  -0.03     0.02  -0.13   0.04
  29   6     0.03  -0.09   0.12     0.04   0.09  -0.12     0.06  -0.10  -0.01
  30   6     0.03  -0.03   0.11     0.04   0.08  -0.10     0.06  -0.06  -0.05
  31   6    -0.01  -0.00   0.08     0.06   0.03   0.04     0.04  -0.05  -0.04
  32   6    -0.01   0.04   0.01     0.07   0.01   0.05     0.05  -0.00  -0.04
  33   6    -0.01   0.05   0.01     0.09   0.03   0.18     0.04   0.03   0.06
  34   6    -0.01   0.03  -0.06     0.08  -0.01   0.06     0.04   0.05   0.07
  35   6     0.00   0.02  -0.03     0.07  -0.00   0.04     0.04   0.06   0.07
  36   6    -0.02  -0.00   0.02     0.07   0.06   0.02     0.05   0.07   0.04
  37   6     0.02  -0.02   0.05     0.03   0.09  -0.02     0.06   0.05  -0.03
  38   6     0.07  -0.02   0.03    -0.02   0.06  -0.04     0.05   0.02  -0.08
  39   6     0.10   0.01  -0.02    -0.03  -0.01  -0.03     0.03   0.01  -0.04
  40   6     0.06   0.03  -0.05     0.01  -0.04   0.01     0.03   0.04   0.04
  41   7    -0.01   0.02  -0.14     0.08  -0.05  -0.08     0.07   0.05   0.04
  42   6    -0.00   0.02  -0.10     0.06  -0.04  -0.10     0.07   0.02  -0.04
  43   6    -0.01   0.02  -0.09     0.04  -0.05  -0.10     0.04   0.01  -0.03
  44   6    -0.04   0.05  -0.07     0.03  -0.03  -0.06    -0.01   0.05  -0.02
  45   6    -0.06   0.06   0.02     0.01  -0.01   0.05    -0.06   0.03   0.01
  46   6    -0.05   0.04   0.08     0.01  -0.03   0.12    -0.07  -0.02   0.04
  47   6    -0.03   0.02   0.04     0.03  -0.06   0.05    -0.02  -0.07   0.02
  48   6    -0.01   0.01  -0.04     0.05  -0.08  -0.06     0.04  -0.04  -0.02
  49   7     0.00   0.04  -0.04     0.07  -0.03  -0.10     0.07  -0.00  -0.11
  50   6    -0.04  -0.03   0.12     0.06   0.00   0.14     0.01  -0.09   0.02
  51   6    -0.04  -0.09   0.13     0.06   0.02   0.09     0.01  -0.13   0.05
  52   6    -0.05  -0.10  -0.02    -0.00   0.25  -0.18     0.02   0.02  -0.05
  53   6    -0.05  -0.04  -0.13    -0.00   0.21  -0.15     0.01   0.11  -0.08
  54   6    -0.09  -0.03  -0.00    -0.12  -0.03  -0.07     0.11   0.02   0.03
  55   6    -0.07  -0.04  -0.12    -0.02  -0.14   0.02     0.01   0.13  -0.00
  56   1     0.02  -0.01  -0.06     0.04  -0.08   0.05    -0.05   0.07  -0.02
  57   1     0.06   0.00   0.00     0.02  -0.03   0.01    -0.04   0.01  -0.00
  58   1     0.04   0.01   0.05    -0.03   0.03  -0.03     0.01  -0.05   0.01
  59   1    -0.01   0.01  -0.01    -0.06   0.00  -0.02     0.05  -0.00  -0.02
  60   1    -0.00   0.01  -0.08    -0.04  -0.02   0.01     0.03   0.02  -0.02
  61   1    -0.01   0.00   0.11    -0.02   0.03  -0.01     0.01  -0.04   0.00
  62   1     0.00   0.01   0.11    -0.00   0.01   0.02    -0.03  -0.05   0.01
  63   1    -0.02   0.01   0.01     0.00   0.01   0.01    -0.10   0.02  -0.01
  64   1    -0.05  -0.01  -0.07    -0.01  -0.00  -0.01    -0.02   0.10   0.02
  65   1    -0.03  -0.02  -0.08    -0.02  -0.01  -0.03     0.06   0.10   0.03
  66   1     0.02   0.00   0.00    -0.01  -0.00  -0.01     0.06   0.01  -0.00
  67   1     0.04   0.02   0.06     0.00   0.01   0.02    -0.02  -0.06  -0.02
  68   1     0.02   0.01  -0.02     0.01   0.00   0.00    -0.08  -0.01   0.03
  69   1     0.01   0.01  -0.09     0.00  -0.00  -0.01    -0.06   0.03   0.02
  70   1     0.03   0.00  -0.06     0.01  -0.12   0.08    -0.00  -0.03   0.02
  71   1     0.03  -0.02  -0.00    -0.00  -0.10   0.07    -0.01  -0.08   0.04
  72   1     0.02  -0.03   0.03     0.01   0.03  -0.06     0.02  -0.03  -0.00
  73   1     0.02  -0.00   0.03     0.01   0.03  -0.05     0.02  -0.01  -0.03
  74   1    -0.00   0.02   0.02     0.03   0.02   0.09     0.01   0.01   0.03
  75   1    -0.02  -0.00   0.01     0.03   0.02   0.01     0.02   0.03   0.02
  76   1    -0.00  -0.01   0.03     0.01   0.04  -0.01     0.02   0.02  -0.02
  77   1     0.03  -0.01   0.02    -0.02   0.02  -0.02     0.02  -0.00  -0.04
  78   1     0.04   0.00  -0.01    -0.02  -0.01  -0.01     0.01  -0.00  -0.02
  79   1     0.02   0.02  -0.02     0.00  -0.03   0.01     0.00   0.01   0.02
  80   1    -0.01   0.02  -0.03     0.01  -0.00  -0.03    -0.00   0.03  -0.01
  81   1    -0.02   0.02   0.01    -0.00   0.00   0.03    -0.03   0.02   0.01
  82   1    -0.02   0.02   0.04     0.00  -0.00   0.06    -0.03  -0.01   0.02
  83   1    -0.01   0.00   0.03     0.01  -0.02   0.03    -0.01  -0.03   0.01
  84   1     0.00  -0.00  -0.02     0.02  -0.03  -0.03     0.02  -0.02  -0.01
  85   1    -0.02  -0.00   0.03     0.02  -0.01   0.07    -0.00  -0.02   0.01
  86   1    -0.02  -0.03   0.04     0.02   0.01   0.04     0.00  -0.04   0.02
  87   1    -0.03  -0.04   0.01    -0.01   0.13  -0.08     0.00   0.02  -0.02
  88   1    -0.03  -0.01  -0.05     0.00   0.10  -0.07     0.01   0.06  -0.04
  89   1    -0.05  -0.01  -0.00    -0.05  -0.00  -0.03     0.05   0.01   0.01
  90   1    -0.04  -0.02  -0.06     0.00  -0.06   0.02     0.00   0.06  -0.00
                     19                     20                     21
                        a                      a                      a 
 Frequencies --    96.8054               105.6954               113.4006
 Red. masses --    10.6782                10.9064                11.1019
 Frc consts  --     0.0000                 0.0000                 0.0000
 IR Inten    --     1.2774                 1.2222                 0.2042
 Raman Activ --     0.0000                 0.0000                 0.0000
 Depolar     --     0.0000                 0.0000                 0.0000
 Atom AN      X      Y      Z        X      Y      Z        X      Y      Z
   1   6     0.00   0.05  -0.01    -0.01  -0.12  -0.01     0.01   0.04  -0.03
   2   6     0.00   0.03  -0.01    -0.00  -0.04  -0.01    -0.00   0.06  -0.04
   3   6     0.03   0.01   0.00    -0.07   0.02   0.01     0.02   0.03   0.00
   4   6     0.05   0.00   0.01    -0.12   0.00   0.02     0.03  -0.00   0.04
   5   6     0.05  -0.00   0.01    -0.13   0.02   0.05     0.02   0.00   0.04
   6   6     0.05  -0.00   0.04    -0.13   0.01   0.01     0.02  -0.01   0.22
   7   6     0.04   0.01   0.05    -0.11  -0.00  -0.00     0.01  -0.00   0.19
   8   6     0.02   0.00   0.02    -0.08   0.00   0.03    -0.01   0.01  -0.02
   9   6     0.02   0.01  -0.03    -0.08   0.01   0.04    -0.01   0.03  -0.16
  10   6     0.03  -0.00  -0.03    -0.10   0.02   0.06     0.00   0.02  -0.17
  11   6     0.02   0.01  -0.04    -0.07   0.01   0.01    -0.01   0.02  -0.16
  12   6     0.03   0.01  -0.06    -0.08   0.00  -0.04    -0.02   0.02  -0.16
  13   6     0.04   0.01  -0.03    -0.10   0.01  -0.08    -0.02  -0.00   0.04
  14   6     0.03   0.00  -0.02    -0.10   0.02  -0.08    -0.02   0.00   0.04
  15   6     0.05  -0.02  -0.00    -0.08   0.03  -0.05    -0.01   0.04   0.06
  16   6     0.03  -0.04   0.01    -0.05   0.06   0.03    -0.00   0.05   0.04
  17   6     0.00  -0.04   0.01    -0.03   0.09   0.08    -0.00   0.02  -0.02
  18   6    -0.01  -0.02  -0.01    -0.07   0.07   0.03    -0.01  -0.02  -0.05
  19   6     0.01   0.00  -0.02    -0.10   0.03  -0.06    -0.02  -0.03  -0.01
  20   6     0.04   0.00   0.03    -0.10   0.01  -0.05    -0.03  -0.01   0.24
  21   6     0.03  -0.00   0.05    -0.09   0.01   0.01    -0.02  -0.00   0.19
  22   6     0.02   0.00   0.01    -0.07  -0.00   0.01    -0.01   0.01  -0.02
  23   7     0.01   0.00   0.03    -0.06  -0.00   0.02    -0.01   0.01  -0.02
  24   6     0.01  -0.01   0.01    -0.03  -0.01   0.01    -0.01  -0.03  -0.06
  25   6    -0.02   0.06  -0.05    -0.02   0.18  -0.11    -0.05  -0.07  -0.07
  26   6    -0.02   0.05  -0.08    -0.01   0.18  -0.13    -0.04  -0.10  -0.12
  27   6    -0.02  -0.01  -0.04     0.02  -0.01  -0.02    -0.00  -0.08  -0.16
  28   6    -0.02  -0.00  -0.05     0.05  -0.00  -0.02    -0.00  -0.05  -0.11
  29   6    -0.01  -0.03   0.08     0.08  -0.01   0.08     0.07  -0.02  -0.06
  30   6    -0.02  -0.01   0.12     0.09  -0.00   0.12     0.07   0.03   0.11
  31   6    -0.04   0.03   0.03     0.11   0.01   0.03     0.00   0.05   0.21
  32   6    -0.04   0.02   0.06     0.12   0.01   0.04     0.00   0.07   0.21
  33   6    -0.02   0.09   0.38     0.15   0.00   0.05    -0.00   0.04   0.08
  34   6    -0.03   0.03   0.20     0.15  -0.02  -0.01    -0.01  -0.02  -0.14
  35   6    -0.03   0.03   0.19     0.14   0.00  -0.03     0.02  -0.04  -0.16
  36   6    -0.01   0.06   0.14     0.14   0.07  -0.04    -0.02  -0.07  -0.08
  37   6    -0.00   0.01  -0.03     0.08   0.13  -0.02    -0.02  -0.03   0.08
  38   6    -0.02  -0.08  -0.15     0.02   0.13   0.01     0.01   0.03   0.14
  39   6    -0.05  -0.10  -0.07     0.02   0.05  -0.00     0.07   0.03   0.01
  40   6    -0.06  -0.05   0.11     0.09  -0.01  -0.02     0.06  -0.01  -0.13
  41   7    -0.04  -0.04  -0.09     0.16  -0.03  -0.05    -0.01  -0.05  -0.28
  42   6    -0.05  -0.06  -0.23     0.14  -0.01  -0.01    -0.00   0.01  -0.02
  43   6    -0.05  -0.07  -0.26     0.11  -0.03  -0.01    -0.01   0.01  -0.03
  44   6    -0.03  -0.05  -0.16     0.06   0.00  -0.01    -0.01   0.01  -0.04
  45   6     0.02   0.03   0.09    -0.00  -0.02   0.01    -0.01   0.01  -0.02
  46   6     0.04   0.09   0.24    -0.01  -0.09   0.03    -0.00   0.02   0.02
  47   6     0.01   0.05   0.07     0.04  -0.12   0.03    -0.00   0.02   0.02
  48   6    -0.04  -0.02  -0.18     0.10  -0.10   0.01    -0.00   0.01  -0.00
  49   7    -0.06  -0.05  -0.27     0.15   0.01   0.02     0.00   0.08   0.25
  50   6    -0.06   0.05  -0.11     0.07   0.02  -0.09    -0.07   0.02   0.15
  51   6    -0.05   0.04  -0.15     0.06   0.01  -0.10    -0.07  -0.04  -0.01
  52   6     0.02  -0.08   0.03     0.01  -0.21   0.11     0.04  -0.07  -0.14
  53   6     0.02  -0.08   0.05     0.00  -0.20   0.12     0.04  -0.04  -0.09
  54   6     0.05   0.02   0.02    -0.15  -0.07  -0.00     0.04  -0.02   0.06
  55   6     0.03   0.04   0.01    -0.09  -0.13  -0.02     0.03  -0.01   0.03
  56   1    -0.00   0.02  -0.01     0.01  -0.05  -0.01    -0.00   0.02  -0.02
  57   1    -0.01   0.01  -0.01     0.02  -0.01  -0.00    -0.01   0.03  -0.02
  58   1     0.01  -0.00   0.00    -0.02   0.02   0.00     0.01   0.02   0.00
  59   1     0.01  -0.00   0.02    -0.04   0.00  -0.00     0.00  -0.01   0.12
  60   1     0.01   0.01   0.02    -0.03  -0.00  -0.01     0.00   0.00   0.09
  61   1     0.01  -0.00  -0.02    -0.03   0.01   0.02    -0.00   0.00  -0.08
  62   1     0.01   0.01  -0.03    -0.02  -0.00  -0.01    -0.00   0.01  -0.08
  63   1     0.02  -0.01  -0.00    -0.03   0.00  -0.02    -0.00   0.02   0.03
  64   1     0.01  -0.01   0.01    -0.01   0.02   0.02     0.00   0.03   0.02
  65   1    -0.00  -0.01   0.01     0.00   0.03   0.05     0.00   0.01  -0.01
  66   1    -0.01  -0.00  -0.00    -0.02   0.02   0.02    -0.01  -0.01  -0.03
  67   1    -0.00   0.00  -0.01    -0.04   0.01  -0.03    -0.00  -0.02  -0.01
  68   1     0.01   0.00   0.02    -0.03   0.00  -0.02    -0.01  -0.01   0.12
  69   1     0.01  -0.00   0.03    -0.02   0.00   0.02    -0.01   0.00   0.10
  70   1    -0.01   0.03  -0.02    -0.01   0.09  -0.06    -0.02  -0.03  -0.01
  71   1    -0.01   0.03  -0.03    -0.01   0.09  -0.07    -0.02  -0.04  -0.03
  72   1    -0.00  -0.01   0.04     0.03  -0.01   0.03     0.04  -0.01  -0.04
  73   1     0.00  -0.01   0.06     0.02  -0.01   0.06     0.04   0.02   0.04
  74   1     0.01   0.05   0.20     0.05   0.01   0.03     0.00   0.02   0.04
  75   1     0.00   0.03   0.06     0.06   0.02  -0.02    -0.02  -0.03  -0.03
  76   1     0.01   0.01  -0.02     0.02   0.05  -0.01    -0.02  -0.01   0.05
  77   1     0.00  -0.04  -0.09    -0.01   0.05   0.01     0.00   0.02   0.08
  78   1    -0.02  -0.05  -0.04    -0.01   0.01   0.00     0.03   0.02   0.01
  79   1    -0.03  -0.02   0.05     0.03  -0.02  -0.01     0.03   0.00  -0.06
  80   1    -0.01  -0.02  -0.07     0.02   0.01  -0.01    -0.00   0.00  -0.02
  81   1     0.01   0.02   0.06    -0.01   0.00   0.00    -0.00   0.00  -0.01
  82   1     0.02   0.05   0.14    -0.02  -0.03   0.01    -0.00   0.01   0.01
  83   1     0.01   0.03   0.05     0.01  -0.05   0.01     0.00   0.01   0.01
  84   1    -0.02  -0.01  -0.08     0.04  -0.04   0.01    -0.00   0.00  -0.00
  85   1    -0.03   0.03  -0.05     0.01   0.02  -0.05    -0.04   0.01   0.06
  86   1    -0.02   0.02  -0.08     0.02   0.01  -0.05    -0.04  -0.02  -0.02
  87   1     0.01  -0.04   0.01     0.00  -0.10   0.06     0.02  -0.02  -0.05
  88   1     0.01  -0.04   0.03     0.01  -0.09   0.06     0.02  -0.01  -0.02
  89   1     0.02   0.00   0.01    -0.06  -0.02  -0.00     0.02  -0.01   0.03
  90   1     0.01   0.02   0.00    -0.03  -0.05  -0.01     0.01  -0.01   0.01
                     22                     23                     24
                        a                      a                      a 
 Frequencies --   124.7092               139.0989               153.3699
 Red. masses --    11.0537                10.9521                10.2890
 Frc consts  --     0.0000                 0.0000                 0.0000
 IR Inten    --     0.0409                 0.5258                 1.5914
 Raman Activ --     0.0000                 0.0000                 0.0000
 Depolar     --     0.0000                 0.0000                 0.0000
 Atom AN      X      Y      Z        X      Y      Z        X      Y      Z
   1   6    -0.03  -0.01  -0.10     0.00  -0.05   0.05     0.00  -0.01  -0.13
   2   6     0.00   0.04  -0.06    -0.03  -0.03   0.00     0.09   0.04   0.00
   3   6     0.00   0.02   0.07    -0.06   0.01  -0.06     0.06   0.05   0.17
   4   6    -0.03  -0.04   0.13    -0.05   0.02  -0.07    -0.04   0.01   0.21
   5   6    -0.04  -0.02   0.12    -0.03   0.01  -0.04    -0.05   0.03   0.15
   6   6    -0.05  -0.03   0.26    -0.04  -0.01   0.03    -0.05   0.05  -0.18
   7   6    -0.04  -0.02   0.10    -0.02  -0.03   0.10    -0.02   0.03  -0.32
   8   6    -0.03   0.00  -0.15     0.01  -0.03   0.10     0.02   0.03  -0.13
   9   6    -0.03   0.02  -0.24     0.01  -0.01   0.05     0.02   0.02   0.00
  10   6    -0.04   0.01  -0.14    -0.01   0.01  -0.03    -0.02   0.03   0.22
  11   6    -0.02   0.02  -0.24     0.01  -0.02   0.04     0.04   0.02  -0.00
  12   6    -0.01   0.03  -0.14     0.02  -0.01  -0.03     0.04   0.02  -0.21
  13   6     0.02  -0.01   0.12     0.03  -0.01  -0.04     0.03   0.01  -0.14
  14   6     0.04   0.01   0.15     0.03  -0.02  -0.05    -0.00  -0.02  -0.22
  15   6     0.02   0.05   0.13     0.05  -0.04  -0.04     0.06  -0.09  -0.16
  16   6    -0.01   0.04   0.01     0.05  -0.05   0.01     0.09  -0.08   0.05
  17   6    -0.01  -0.03  -0.11     0.03  -0.03   0.03     0.06  -0.02   0.15
  18   6     0.02  -0.06  -0.07     0.01  -0.02   0.01    -0.05   0.01   0.00
  19   6     0.06  -0.04   0.08     0.01  -0.01  -0.04    -0.07   0.01  -0.18
  20   6     0.02  -0.03   0.24     0.03  -0.02   0.01     0.02  -0.00   0.22
  21   6     0.01  -0.03   0.08     0.02  -0.03   0.08     0.03  -0.01   0.34
  22   6    -0.02  -0.00  -0.16     0.01  -0.02   0.09     0.04   0.00   0.12
  23   7    -0.02  -0.00  -0.20     0.01  -0.03   0.13     0.03   0.01  -0.02
  24   6    -0.02   0.01  -0.08     0.01   0.06  -0.02     0.02  -0.00  -0.01
  25   6     0.06   0.04  -0.04    -0.03   0.14  -0.09     0.03  -0.06   0.03
  26   6     0.06   0.09   0.04    -0.02   0.16  -0.16     0.03  -0.07   0.05
  27   6    -0.00   0.09   0.09     0.00   0.10  -0.14     0.02   0.00  -0.00
  28   6     0.00   0.07   0.11     0.00  -0.03  -0.01     0.01   0.01   0.00
  29   6    -0.05   0.04   0.09    -0.05  -0.10   0.10     0.00   0.00  -0.01
  30   6    -0.05  -0.01  -0.04    -0.05  -0.18   0.17    -0.00   0.00  -0.01
  31   6     0.02  -0.03  -0.13     0.00  -0.20   0.11    -0.01   0.00  -0.00
  32   6     0.02  -0.06  -0.17    -0.00  -0.11  -0.02    -0.01  -0.00  -0.01
  33   6     0.02  -0.05  -0.12    -0.11  -0.06  -0.12    -0.02  -0.00  -0.01
  34   6     0.03   0.01   0.07    -0.10   0.10  -0.03    -0.02   0.00   0.00
  35   6     0.01   0.03   0.09    -0.12   0.14   0.05    -0.02  -0.00   0.01
  36   6     0.04   0.05   0.04    -0.14   0.06   0.09    -0.02  -0.01   0.01
  37   6     0.03   0.04  -0.05    -0.01  -0.07   0.02    -0.02  -0.02   0.00
  38   6     0.00   0.01  -0.08     0.12  -0.10  -0.08    -0.01  -0.02  -0.00
  39   6    -0.03  -0.00  -0.01     0.11   0.04  -0.03    -0.01  -0.01   0.00
  40   6    -0.02   0.01   0.08    -0.03   0.17   0.04    -0.02  -0.00   0.01
  41   7     0.04   0.04   0.20     0.02   0.16  -0.00    -0.02   0.00   0.01
  42   6     0.03  -0.01   0.01     0.11   0.07  -0.05    -0.02  -0.00   0.00
  43   6     0.03  -0.01   0.03     0.12   0.07  -0.06    -0.02   0.00  -0.00
  44   6     0.02   0.00   0.03     0.01   0.15  -0.06    -0.01  -0.00  -0.00
  45   6     0.00  -0.01   0.01    -0.12   0.10  -0.01    -0.00   0.00  -0.00
  46   6    -0.00  -0.04  -0.01    -0.13  -0.02   0.04    -0.00   0.01  -0.00
  47   6     0.01  -0.04  -0.01    -0.02  -0.10   0.03    -0.01   0.02  -0.00
  48   6     0.03  -0.03   0.01     0.11  -0.04  -0.02    -0.02   0.01  -0.00
  49   7     0.03  -0.06  -0.18     0.11  -0.05  -0.02    -0.02  -0.00  -0.01
  50   6     0.07  -0.01  -0.06     0.05  -0.17   0.14     0.00   0.00   0.02
  51   6     0.07   0.04   0.06     0.05  -0.09   0.07     0.01   0.01   0.01
  52   6    -0.08   0.06   0.05     0.03   0.15  -0.14     0.02   0.07  -0.05
  53   6    -0.09   0.01  -0.03     0.04   0.12  -0.08     0.02   0.05  -0.04
  54   6    -0.05  -0.10   0.11    -0.04   0.02  -0.05    -0.10  -0.07   0.12
  55   6    -0.04  -0.10  -0.00    -0.01  -0.02   0.02    -0.08  -0.08  -0.06
  56   1    -0.01   0.00  -0.06     0.01  -0.03   0.03     0.00   0.00  -0.08
  57   1     0.01   0.03  -0.04    -0.01  -0.01   0.01     0.05   0.03  -0.01
  58   1     0.01   0.02   0.03    -0.02   0.01  -0.02     0.03   0.03   0.07
  59   1    -0.02  -0.02   0.14    -0.02  -0.00   0.01    -0.01   0.02  -0.08
  60   1    -0.01  -0.01   0.06    -0.01  -0.02   0.04    -0.01   0.00  -0.15
  61   1    -0.01   0.00  -0.06    -0.00   0.01  -0.02    -0.00   0.01   0.12
  62   1    -0.00   0.02  -0.06     0.01   0.00  -0.02     0.01   0.01  -0.12
  63   1     0.01   0.02   0.06     0.02  -0.02  -0.02     0.03  -0.04  -0.06
  64   1    -0.01   0.02  -0.00     0.02  -0.02   0.01     0.05  -0.03   0.04
  65   1    -0.01  -0.02  -0.07     0.01  -0.01   0.02     0.03   0.00   0.10
  66   1     0.01  -0.03  -0.04    -0.00  -0.00   0.01    -0.03   0.01   0.02
  67   1     0.03  -0.02   0.03    -0.00   0.00  -0.01    -0.03   0.01  -0.07
  68   1     0.01  -0.01   0.13     0.01  -0.00   0.00    -0.00  -0.00   0.10
  69   1     0.00  -0.01   0.05     0.01  -0.01   0.03     0.01  -0.00   0.15
  70   1     0.04   0.00  -0.02    -0.02   0.04  -0.02     0.01  -0.02   0.01
  71   1     0.03   0.03   0.02    -0.01   0.05  -0.05     0.01  -0.04   0.02
  72   1    -0.03   0.01   0.04    -0.03  -0.02   0.03    -0.00   0.00  -0.00
  73   1    -0.03  -0.01  -0.02    -0.02  -0.06   0.06     0.00   0.00  -0.01
  74   1     0.00  -0.02  -0.05    -0.06  -0.03  -0.06    -0.01  -0.00  -0.01
  75   1     0.02   0.02   0.02    -0.07   0.02   0.04    -0.01  -0.00   0.00
  76   1     0.02   0.01  -0.03    -0.01  -0.05   0.01    -0.00  -0.01   0.00
  77   1     0.00  -0.00  -0.05     0.07  -0.06  -0.05    -0.00  -0.01  -0.00
  78   1    -0.02  -0.01  -0.01     0.06   0.01  -0.02    -0.00  -0.00   0.00
  79   1    -0.01   0.00   0.03    -0.01   0.08   0.02    -0.01   0.00   0.00
  80   1     0.01   0.00   0.01     0.01   0.07  -0.03    -0.00  -0.00   0.00
  81   1    -0.00  -0.00   0.00    -0.06   0.05  -0.00     0.00  -0.00   0.00
  82   1    -0.00  -0.01  -0.01    -0.06  -0.02   0.02     0.00   0.01   0.00
  83   1     0.00  -0.02  -0.01    -0.01  -0.06   0.02    -0.00   0.01  -0.00
  84   1     0.01  -0.01   0.01     0.06  -0.03  -0.01    -0.01   0.01  -0.00
  85   1     0.03  -0.01  -0.03     0.03  -0.06   0.05     0.00  -0.00   0.01
  86   1     0.04   0.02   0.03     0.03  -0.02   0.01     0.00   0.00   0.01
  87   1    -0.04   0.02   0.03     0.02   0.04  -0.05     0.00   0.04  -0.02
  88   1    -0.04  -0.01  -0.01     0.02   0.03  -0.02     0.01   0.02  -0.01
  89   1    -0.02  -0.04   0.04    -0.01   0.01  -0.02    -0.06  -0.04   0.05
  90   1    -0.02  -0.04  -0.01     0.00  -0.01   0.01    -0.04  -0.04  -0.04
                     25                     26                     27
                        a                      a                      a 
 Frequencies --   168.4915               188.1819               198.3521
 Red. masses --    10.6793                11.2435                10.6713
 Frc consts  --     0.0000                 0.0000                 0.0000
 IR Inten    --     0.2095                 0.1696                 2.6072
 Raman Activ --     0.0000                 0.0000                 0.0000
 Depolar     --     0.0000                 0.0000                 0.0000
 Atom AN      X      Y      Z        X      Y      Z        X      Y      Z
   1   6     0.17  -0.07   0.13     0.04   0.02  -0.03    -0.01   0.02   0.00
   2   6     0.10   0.09   0.01     0.07   0.05   0.00    -0.01  -0.02   0.00
   3   6    -0.05   0.25  -0.10     0.04   0.07   0.06     0.01  -0.04  -0.02
   4   6    -0.12   0.22  -0.07    -0.01   0.04   0.08     0.03  -0.02  -0.03
   5   6    -0.07   0.13   0.02    -0.02   0.04   0.04     0.02  -0.02  -0.02
   6   6    -0.10   0.04   0.14    -0.02   0.02  -0.04     0.02  -0.02   0.01
   7   6    -0.01  -0.05   0.11    -0.00   0.00  -0.11     0.00  -0.00   0.03
   8   6     0.09  -0.01   0.01     0.02   0.01  -0.09    -0.02  -0.01   0.02
   9   6     0.11   0.02   0.03     0.03   0.02  -0.08    -0.02  -0.00   0.04
  10   6     0.01   0.14   0.01     0.00   0.04  -0.00     0.00  -0.02   0.01
  11   6     0.11  -0.02   0.02     0.03   0.01  -0.08    -0.00   0.01   0.04
  12   6     0.01  -0.15   0.05    -0.01  -0.04   0.01     0.01   0.03   0.02
  13   6    -0.09  -0.14   0.03    -0.05  -0.04   0.04    -0.01   0.04  -0.01
  14   6    -0.13  -0.20  -0.05    -0.06  -0.05   0.07    -0.02   0.06  -0.03
  15   6    -0.16  -0.12  -0.08    -0.09   0.01   0.05    -0.01   0.05  -0.02
  16   6    -0.02   0.02   0.01    -0.05   0.06  -0.00    -0.03   0.03   0.01
  17   6     0.15   0.06   0.10     0.00   0.04  -0.02    -0.06   0.04   0.02
  18   6     0.11  -0.09  -0.00     0.03  -0.02  -0.00    -0.07   0.06   0.01
  19   6    -0.04  -0.23  -0.09    -0.01  -0.07   0.04    -0.05   0.07  -0.01
  20   6    -0.10  -0.06   0.03    -0.05  -0.01  -0.06     0.00   0.01   0.01
  21   6    -0.01   0.03  -0.00    -0.01   0.02  -0.12    -0.00  -0.00   0.04
  22   6     0.10   0.01  -0.04     0.03   0.01  -0.10     0.01  -0.01   0.03
  23   7     0.10   0.00  -0.10     0.03   0.00  -0.06    -0.00  -0.02  -0.01
  24   6     0.10  -0.00  -0.09     0.03  -0.09   0.11     0.00  -0.09  -0.04
  25   6     0.11   0.01  -0.08     0.05  -0.13   0.15     0.01  -0.11  -0.03
  26   6     0.11   0.01  -0.04     0.04  -0.05   0.12     0.02  -0.08  -0.05
  27   6     0.06  -0.02   0.01     0.03   0.05   0.06     0.02  -0.03  -0.08
  28   6     0.05  -0.01   0.05     0.03   0.15  -0.10     0.02   0.05  -0.03
  29   6     0.04  -0.01   0.04    -0.03   0.13  -0.16     0.04   0.05   0.01
  30   6     0.03   0.01   0.00    -0.03   0.03  -0.09     0.04   0.07   0.09
  31   6    -0.01   0.04  -0.03     0.01  -0.03   0.03     0.01   0.08   0.09
  32   6    -0.03   0.03  -0.05     0.01  -0.08   0.13     0.01   0.03  -0.02
  33   6    -0.02   0.01  -0.04    -0.08  -0.06  -0.01     0.02  -0.10  -0.45
  34   6    -0.02  -0.01   0.02    -0.09   0.02  -0.05     0.03  -0.02   0.01
  35   6    -0.02  -0.03   0.02    -0.17   0.09   0.05     0.03   0.01   0.09
  36   6    -0.01  -0.03   0.01    -0.20   0.02   0.11     0.05   0.07   0.06
  37   6    -0.02  -0.02  -0.00    -0.09  -0.10   0.04     0.04   0.06  -0.04
  38   6    -0.04  -0.02   0.00     0.04  -0.15  -0.09     0.01   0.02  -0.09
  39   6    -0.05  -0.03   0.01     0.01   0.01  -0.01    -0.03   0.01   0.01
  40   6    -0.03  -0.04   0.01    -0.11   0.13   0.07    -0.01   0.01   0.10
  41   7    -0.06  -0.02   0.07     0.01   0.03  -0.20    -0.00   0.02   0.30
  42   6    -0.08  -0.01   0.01     0.09   0.01  -0.00    -0.04  -0.01   0.08
  43   6    -0.08  -0.01   0.00     0.13   0.01  -0.06    -0.08  -0.09  -0.18
  44   6    -0.05  -0.03   0.01     0.07   0.05  -0.07    -0.05  -0.13  -0.24
  45   6     0.01  -0.01   0.00    -0.03   0.02  -0.01     0.02  -0.05   0.00
  46   6     0.02   0.05  -0.01    -0.03  -0.06   0.07     0.05   0.05   0.24
  47   6    -0.03   0.08  -0.02     0.04  -0.12   0.03    -0.01   0.01  -0.01
  48   6    -0.08   0.05  -0.01     0.12  -0.09  -0.04    -0.08  -0.08  -0.25
  49   7    -0.07   0.00  -0.06     0.08  -0.01   0.29    -0.03   0.06   0.23
  50   6     0.01   0.04   0.01     0.07   0.04  -0.10     0.00   0.06   0.11
  51   6     0.02   0.01   0.05     0.06   0.14  -0.17    -0.00   0.04   0.06
  52   6     0.05  -0.05   0.01     0.02  -0.07   0.13     0.01  -0.08  -0.06
  53   6     0.06  -0.03  -0.05     0.02  -0.14   0.16     0.01  -0.11  -0.03
  54   6    -0.14   0.17  -0.09    -0.03   0.01   0.05     0.04  -0.00  -0.01
  55   6     0.01   0.00   0.02    -0.01  -0.01  -0.01     0.02   0.02   0.00
  56   1     0.09  -0.07   0.08     0.02   0.00  -0.02    -0.01   0.01   0.00
  57   1     0.05   0.02   0.01     0.03   0.02  -0.00    -0.01  -0.01   0.00
  58   1    -0.02   0.11  -0.04     0.02   0.03   0.02     0.00  -0.02  -0.01
  59   1    -0.05   0.00   0.06    -0.01   0.01  -0.01     0.01  -0.00   0.00
  60   1    -0.01  -0.04   0.04    -0.00  -0.01  -0.04     0.00   0.00   0.02
  61   1     0.01   0.07  -0.01     0.00   0.02   0.01    -0.00  -0.01  -0.00
  62   1     0.01  -0.08   0.02     0.00  -0.02   0.02     0.00   0.01   0.01
  63   1    -0.08  -0.04  -0.03    -0.04   0.01   0.02     0.00   0.01  -0.01
  64   1    -0.01   0.03   0.01    -0.02   0.03  -0.01    -0.00   0.00   0.01
  65   1     0.08   0.06   0.06     0.01   0.02  -0.02    -0.02   0.01   0.01
  66   1     0.06  -0.03   0.00     0.02  -0.01  -0.01    -0.03   0.02   0.00
  67   1    -0.01  -0.10  -0.04     0.00  -0.03   0.01    -0.02   0.03  -0.01
  68   1    -0.05  -0.01   0.02    -0.02  -0.00  -0.02     0.01   0.00   0.00
  69   1    -0.01   0.04   0.00    -0.01   0.02  -0.04    -0.00  -0.00   0.02
  70   1     0.04   0.00  -0.03     0.02  -0.04   0.04     0.00  -0.04  -0.00
  71   1     0.04   0.01  -0.01     0.01  -0.01   0.03     0.00  -0.02  -0.01
  72   1     0.01  -0.00   0.02    -0.02   0.05  -0.05     0.02   0.01  -0.01
  73   1     0.02   0.01  -0.00    -0.02  -0.00  -0.02     0.02   0.02   0.03
  74   1    -0.00   0.00  -0.02    -0.04  -0.03  -0.03    -0.01  -0.06  -0.26
  75   1    -0.00  -0.01   0.00    -0.09   0.01   0.05     0.03   0.03   0.03
  76   1    -0.01  -0.00  -0.00    -0.03  -0.05   0.01     0.02   0.02  -0.03
  77   1    -0.01  -0.01   0.00     0.05  -0.08  -0.06     0.00  -0.00  -0.05
  78   1    -0.02  -0.01   0.00     0.03   0.00  -0.01    -0.02  -0.00   0.00
  79   1    -0.01  -0.01   0.01    -0.04   0.07   0.03    -0.01   0.00   0.04
  80   1    -0.01  -0.02   0.00     0.02   0.03  -0.03    -0.02  -0.06  -0.09
  81   1     0.01  -0.01   0.00    -0.03   0.02  -0.00     0.02  -0.01   0.02
  82   1     0.02   0.02  -0.00    -0.03  -0.02   0.04     0.03   0.05   0.16
  83   1    -0.01   0.03  -0.01     0.01  -0.05   0.02    -0.00   0.02   0.01
  84   1    -0.04   0.02  -0.01     0.06  -0.04  -0.01    -0.03  -0.03  -0.10
  85   1     0.00   0.01  -0.00     0.03   0.00  -0.02     0.00   0.02   0.04
  86   1    -0.00  -0.00   0.02     0.03   0.05  -0.06    -0.01   0.01   0.02
  87   1     0.01  -0.02   0.01     0.01  -0.02   0.04     0.00  -0.02  -0.02
  88   1     0.01  -0.01  -0.02    -0.00  -0.05   0.05     0.00  -0.04  -0.01
  89   1    -0.07   0.06  -0.04    -0.02  -0.00   0.02     0.02   0.00  -0.00
  90   1     0.01  -0.03   0.01    -0.01  -0.01  -0.01     0.01   0.01   0.00
                     28                     29                     30
                        a                      a                      a 
 Frequencies --   215.7909               217.0059               225.9313
 Red. masses --    11.2328                11.3160                11.6035
 Frc consts  --     0.0000                 0.0000                 0.0000
 IR Inten    --     0.5023                 0.1643                 0.0720
 Raman Activ --     0.0000                 0.0000                 0.0000
 Depolar     --     0.0000                 0.0000                 0.0000
 Atom AN      X      Y      Z        X      Y      Z        X      Y      Z
   1   6     0.09   0.09   0.05    -0.15  -0.12  -0.03     0.03   0.05  -0.06
   2   6     0.05   0.04   0.01    -0.14  -0.12  -0.02     0.08   0.06   0.01
   3   6     0.07   0.03  -0.07    -0.11  -0.14  -0.01     0.06   0.05   0.10
   4   6     0.08   0.03  -0.07    -0.05  -0.11  -0.02    -0.00   0.03   0.10
   5   6     0.06   0.01  -0.02    -0.02  -0.08  -0.01    -0.02   0.05   0.01
   6   6     0.04  -0.04   0.06    -0.00  -0.05   0.02    -0.03   0.02  -0.10
   7   6     0.01  -0.02   0.07     0.01  -0.04   0.04    -0.01  -0.01  -0.11
   8   6    -0.06  -0.04   0.00     0.09  -0.01   0.02     0.01  -0.01  -0.02
   9   6    -0.05  -0.00   0.09     0.08  -0.02   0.00     0.01   0.01  -0.09
  10   6    -0.01  -0.02   0.04     0.07  -0.04  -0.01    -0.01   0.05  -0.06
  11   6    -0.01   0.00   0.11     0.08   0.02  -0.01     0.02   0.00  -0.08
  12   6     0.01   0.04   0.08     0.07   0.04  -0.01    -0.01  -0.03  -0.04
  13   6     0.00   0.06  -0.01    -0.02   0.08  -0.00    -0.04  -0.03   0.00
  14   6    -0.02   0.07  -0.09    -0.06   0.12   0.01    -0.04  -0.03   0.09
  15   6    -0.02   0.04  -0.09    -0.07   0.16   0.02    -0.05   0.03   0.08
  16   6    -0.03   0.03   0.00    -0.10   0.14   0.02    -0.04   0.05   0.00
  17   6    -0.06   0.07   0.07    -0.17   0.13  -0.01    -0.02   0.02  -0.05
  18   6    -0.11   0.08   0.01    -0.16   0.13   0.01     0.03  -0.02   0.00
  19   6    -0.10   0.09  -0.08    -0.12   0.15   0.04     0.01  -0.04   0.08
  20   6     0.02  -0.01   0.07    -0.01   0.04   0.01    -0.03  -0.02  -0.12
  21   6     0.01  -0.04   0.11     0.01   0.03   0.02    -0.01   0.00  -0.10
  22   6     0.01  -0.04   0.04     0.09   0.00  -0.00     0.02  -0.01  -0.01
  23   7    -0.04  -0.08  -0.13     0.13  -0.01   0.00     0.02  -0.04   0.14
  24   6    -0.04  -0.24  -0.12     0.16  -0.02  -0.01     0.02  -0.09   0.14
  25   6     0.02  -0.27  -0.06     0.19  -0.01  -0.01    -0.03  -0.09   0.10
  26   6     0.03  -0.11  -0.04     0.19   0.01  -0.03    -0.03  -0.01  -0.05
  27   6    -0.05   0.05  -0.09     0.19  -0.00  -0.02     0.02   0.06  -0.13
  28   6    -0.04   0.18  -0.02     0.17   0.01   0.00     0.01   0.07  -0.12
  29   6    -0.07   0.15   0.06     0.13  -0.02   0.02    -0.02   0.02   0.00
  30   6    -0.08   0.06   0.09     0.12  -0.01   0.01    -0.02  -0.05   0.13
  31   6    -0.01   0.03   0.04     0.05   0.02  -0.00     0.00  -0.06   0.12
  32   6     0.00  -0.05  -0.09     0.00   0.01  -0.04    -0.01  -0.04   0.01
  33   6    -0.01  -0.01   0.02    -0.03   0.03   0.02    -0.04   0.01   0.06
  34   6    -0.01  -0.00  -0.03    -0.06  -0.01  -0.01    -0.04   0.04   0.10
  35   6    -0.03   0.02  -0.01    -0.09  -0.02   0.01     0.00  -0.06  -0.13
  36   6    -0.04   0.00   0.01    -0.12  -0.08   0.04     0.02  -0.15  -0.19
  37   6    -0.02  -0.02   0.01    -0.09  -0.11   0.03    -0.02  -0.08  -0.00
  38   6     0.01  -0.03  -0.01    -0.07  -0.12   0.00    -0.08   0.05   0.20
[...]
  32   6    -0.00   0.00  -0.00     0.00   0.00  -0.00     0.00   0.00   0.00
  33   6    -0.01   0.01  -0.00    -0.00   0.00  -0.00     0.00  -0.00   0.00
  34   6     0.00   0.00  -0.00     0.00   0.00  -0.00    -0.00  -0.00   0.00
  35   6     0.00   0.00  -0.00    -0.00  -0.00   0.00     0.00   0.00  -0.00
  36   6     0.01  -0.04   0.03     0.00  -0.00   0.00    -0.00   0.00  -0.00
  37   6    -0.09   0.00  -0.04    -0.00   0.00  -0.00     0.00  -0.00   0.00
  38   6    -0.12  -0.14   0.03    -0.00  -0.00   0.00     0.00   0.00  -0.00
  39   6     0.04  -0.12   0.09     0.00  -0.00   0.00    -0.00   0.00  -0.00
  40   6     0.08  -0.00   0.04     0.00   0.00   0.00     0.00  -0.00   0.00
  41   7    -0.00  -0.00  -0.00    -0.00   0.00  -0.00    -0.00  -0.00  -0.00
  42   6     0.00   0.00  -0.00     0.00  -0.00   0.00     0.00   0.00   0.00
  43   6    -0.00   0.00  -0.00    -0.00   0.00  -0.00    -0.00  -0.00  -0.00
  44   6    -0.00   0.00   0.00    -0.00   0.00   0.00    -0.00   0.00   0.00
  45   6     0.00   0.00  -0.00    -0.00  -0.00   0.00     0.00   0.00  -0.00
  46   6    -0.00   0.01  -0.00     0.00  -0.00   0.00    -0.00   0.00  -0.00
  47   6    -0.01   0.00   0.00     0.00  -0.00  -0.00    -0.00  -0.00   0.00
  48   6     0.00   0.00  -0.00     0.00   0.00  -0.00    -0.00  -0.00   0.00
  49   7    -0.00  -0.00   0.00    -0.00   0.00   0.00    -0.00   0.00  -0.00
  50   6     0.00   0.00   0.00    -0.00  -0.00  -0.00     0.00   0.01   0.00
  51   6    -0.00   0.00   0.00     0.00  -0.00  -0.00    -0.01   0.02   0.00
  52   6     0.00   0.00   0.00    -0.01  -0.01  -0.02     0.05   0.05   0.08
  53   6    -0.00   0.00   0.00     0.02  -0.01  -0.02    -0.09   0.08   0.12
  54   6    -0.00   0.00   0.00    -0.00   0.02   0.01    -0.00   0.00   0.00
  55   6    -0.00   0.00   0.00    -0.02   0.00   0.02    -0.00   0.00   0.00
  56   1     0.01   0.01   0.00     0.09   0.09   0.01    -0.00  -0.00  -0.00
  57   1    -0.00   0.01   0.01    -0.01   0.07   0.06     0.00  -0.00  -0.00
  58   1    -0.01   0.00   0.01    -0.08   0.00   0.06     0.01  -0.00  -0.01
  59   1    -0.02   0.07   0.00    -0.08   0.35   0.02     0.02  -0.07  -0.01
  60   1    -0.06   0.02  -0.00    -0.33   0.10  -0.00     0.11  -0.04   0.00
  61   1     0.01  -0.00  -0.00     0.22  -0.06  -0.00    -0.00   0.00   0.00
  62   1    -0.01  -0.00  -0.00     0.22   0.07   0.01     0.01   0.00   0.00
  63   1    -0.00  -0.01   0.00     0.01   0.07  -0.04     0.00   0.00  -0.00
  64   1    -0.01  -0.00   0.01     0.08   0.02  -0.05     0.00   0.00  -0.00
  65   1    -0.01   0.01   0.00     0.10  -0.10  -0.01     0.00  -0.00  -0.00
  66   1     0.00   0.01  -0.01    -0.01  -0.10   0.06    -0.00  -0.00   0.00
  67   1     0.01   0.00  -0.01    -0.10  -0.02   0.07    -0.01  -0.00   0.01
  68   1     0.01   0.05   0.00    -0.11  -0.46  -0.05    -0.02  -0.10  -0.01
  69   1     0.04   0.01   0.00    -0.43  -0.13  -0.01    -0.14  -0.04  -0.00
  70   1    -0.00  -0.00  -0.01    -0.03  -0.03  -0.04    -0.26  -0.24  -0.38
  71   1     0.00  -0.00  -0.01     0.03  -0.03  -0.04     0.17  -0.15  -0.24
  72   1    -0.00  -0.01  -0.00    -0.00  -0.00  -0.00    -0.02  -0.04  -0.01
  73   1    -0.00   0.00   0.00     0.00  -0.00  -0.00    -0.01   0.02   0.01
  74   1     0.02  -0.05   0.01     0.00  -0.00   0.00    -0.00   0.01  -0.00
  75   1    -0.05   0.16  -0.11    -0.00   0.00  -0.00     0.00  -0.00   0.00
  76   1     0.29  -0.01   0.13     0.00  -0.00   0.00    -0.00   0.00  -0.00
  77   1     0.41   0.48  -0.11     0.00   0.00  -0.00    -0.00  -0.00   0.00
  78   1    -0.14   0.39  -0.29    -0.00   0.00  -0.00     0.00  -0.00   0.00
  79   1    -0.28   0.01  -0.13    -0.00   0.00  -0.00    -0.00   0.00  -0.00
  80   1     0.01  -0.00  -0.00     0.00  -0.00  -0.00     0.00  -0.00  -0.00
  81   1    -0.01  -0.01   0.00     0.00   0.00  -0.00    -0.00  -0.00   0.00
  82   1     0.01  -0.02   0.00    -0.00   0.00  -0.00     0.00  -0.00   0.00
  83   1     0.02  -0.00  -0.00    -0.00   0.00   0.00     0.00  -0.00  -0.00
  84   1    -0.00  -0.01   0.00    -0.00  -0.00   0.00     0.00   0.00  -0.00
  85   1    -0.01  -0.01  -0.00     0.00   0.00   0.00    -0.01  -0.02  -0.01
  86   1     0.00  -0.00  -0.00    -0.00   0.01   0.00     0.03  -0.06  -0.01
  87   1    -0.01  -0.01  -0.01     0.05   0.04   0.07    -0.18  -0.17  -0.27
  88   1     0.01  -0.01  -0.01    -0.05   0.05   0.08     0.30  -0.27  -0.43
  89   1     0.00  -0.00  -0.00     0.01  -0.06  -0.05     0.00  -0.00  -0.00
  90   1     0.01  -0.00  -0.00     0.07  -0.00  -0.05     0.00  -0.00  -0.00
                    259                    260                    261
                        a                      a                      a 
 Frequencies --  3095.4051              3102.8385              3103.3424
 Red. masses --     1.8804                 1.8563                 1.8629
 Frc consts  --     0.0000                 0.0000                 0.0000
 IR Inten    --     2.0425                11.1180                14.6787
 Raman Activ --     0.0000                 0.0000                 0.0000
 Depolar     --     0.0000                 0.0000                 0.0000
 Atom AN      X      Y      Z        X      Y      Z        X      Y      Z
   1   6    -0.00  -0.00  -0.00    -0.00  -0.00  -0.00    -0.00  -0.00  -0.00
   2   6     0.00  -0.00  -0.00     0.00  -0.00  -0.00     0.00  -0.00  -0.00
   3   6     0.00  -0.00  -0.00     0.00  -0.00  -0.00    -0.00   0.00   0.00
   4   6     0.00   0.00  -0.00    -0.00  -0.00  -0.00    -0.00  -0.00  -0.00
   5   6    -0.00  -0.00  -0.00    -0.00  -0.00  -0.00     0.00  -0.00  -0.00
   6   6     0.00  -0.02  -0.00     0.00  -0.00  -0.00     0.00  -0.00  -0.00
   7   6     0.03  -0.01   0.00     0.00  -0.00   0.00    -0.00   0.00  -0.00
   8   6     0.00   0.00   0.00    -0.00  -0.00  -0.00    -0.00  -0.00  -0.00
   9   6    -0.00   0.00  -0.00     0.00  -0.00   0.00     0.00  -0.00  -0.00
  10   6    -0.01   0.00   0.00    -0.00   0.00   0.00    -0.00   0.00   0.00
  11   6    -0.00  -0.00   0.00     0.00   0.00   0.00     0.00   0.00   0.00
  12   6    -0.01  -0.00  -0.00    -0.00  -0.00  -0.00    -0.00  -0.00  -0.00
  13   6    -0.00   0.00   0.00    -0.00   0.00   0.00     0.00   0.00   0.00
  14   6     0.00  -0.00  -0.00    -0.00   0.00   0.00    -0.00   0.00   0.00
  15   6    -0.00  -0.00   0.00    -0.00  -0.00   0.00     0.00   0.00  -0.00
  16   6    -0.00  -0.00   0.00    -0.00  -0.00   0.00    -0.00  -0.00   0.00
  17   6    -0.00   0.00   0.00    -0.00   0.00   0.00    -0.00   0.00   0.00
  18   6     0.00   0.00  -0.00     0.00   0.00  -0.00    -0.00   0.00  -0.00
  19   6     0.00   0.00  -0.00     0.00  -0.00  -0.00    -0.00  -0.00   0.00
  20   6     0.00   0.02   0.00     0.00   0.00   0.00    -0.00  -0.00  -0.00
  21   6     0.02   0.01   0.00    -0.00  -0.00  -0.00    -0.00  -0.00  -0.00
  22   6     0.00  -0.00  -0.00    -0.00   0.00   0.00    -0.00   0.00   0.00
  23   7     0.00  -0.00   0.00     0.00   0.00   0.00     0.00   0.00   0.00
  24   6    -0.01  -0.00  -0.00    -0.00   0.00   0.00    -0.00   0.00   0.00
  25   6    -0.08  -0.08  -0.13    -0.00  -0.00  -0.00    -0.00  -0.00  -0.00
  26   6     0.06  -0.05  -0.08     0.00  -0.00  -0.01     0.00  -0.00  -0.00
  27   6     0.01   0.00   0.00     0.00  -0.00  -0.00     0.00  -0.00  -0.00
  28   6    -0.00  -0.00  -0.00    -0.00   0.00   0.00    -0.00   0.00   0.00
  29   6    -0.00  -0.01  -0.00    -0.04  -0.06  -0.01    -0.00  -0.01  -0.00
  30   6    -0.00   0.01   0.00     0.14  -0.22  -0.06     0.01  -0.02  -0.00
  31   6    -0.00   0.00   0.00     0.01  -0.00  -0.00     0.00  -0.00  -0.00
  32   6     0.00   0.00  -0.00    -0.00  -0.00   0.00    -0.00  -0.00   0.00
  33   6     0.00  -0.00   0.00    -0.01   0.01  -0.00    -0.01   0.01  -0.00
  34   6     0.00  -0.00   0.00     0.00   0.00  -0.00     0.00  -0.00   0.00
  35   6    -0.00   0.00   0.00     0.00   0.00  -0.00    -0.00  -0.01   0.00
  36   6    -0.00   0.00  -0.00    -0.01   0.02  -0.01     0.07  -0.21   0.15
  37   6     0.00  -0.00   0.00    -0.01   0.00  -0.00     0.08  -0.00   0.03
  38   6     0.00   0.00  -0.00    -0.00  -0.00   0.00     0.02   0.03  -0.01
  39   6    -0.00   0.00  -0.00     0.00  -0.00   0.00    -0.00   0.01  -0.01
  40   6    -0.00  -0.00  -0.00    -0.00  -0.00  -0.00    -0.01   0.00  -0.01
  41   7    -0.00   0.00  -0.00     0.00   0.00  -0.00    -0.00   0.00  -0.00
  42   6     0.00  -0.00   0.00    -0.00  -0.00  -0.00     0.00   0.00   0.00
  43   6    -0.00   0.00  -0.00     0.00   0.00   0.00     0.00  -0.00  -0.00
  44   6     0.00  -0.00  -0.00    -0.00   0.00   0.00     0.00  -0.00  -0.00
  45   6    -0.00  -0.00   0.00    -0.00  -0.00   0.00     0.00   0.00  -0.00
  46   6     0.00  -0.00   0.00     0.00  -0.00   0.00     0.00  -0.00   0.00
  47   6     0.00  -0.00  -0.00    -0.00   0.00   0.00     0.00  -0.00  -0.00
  48   6    -0.00  -0.00   0.00    -0.00  -0.00   0.00     0.00   0.00  -0.00
  49   7    -0.00   0.00  -0.00     0.00   0.00   0.00    -0.00   0.00   0.00
  50   6     0.00   0.01   0.00     0.00   0.01   0.00     0.00   0.00   0.00
  51   6    -0.01   0.01   0.00    -0.00   0.00   0.00    -0.00   0.00   0.00
  52   6     0.05   0.05   0.07    -0.00  -0.00  -0.00     0.00   0.00   0.00
  53   6    -0.08   0.07   0.11    -0.00   0.00   0.00    -0.00   0.00   0.00
  54   6    -0.00   0.00   0.00     0.00   0.00   0.00     0.00  -0.00  -0.00
  55   6    -0.00   0.00   0.00    -0.00   0.00   0.00    -0.00   0.00   0.00
  56   1     0.01   0.01   0.00     0.00   0.00   0.00     0.00   0.00   0.00
  57   1    -0.00   0.01   0.01    -0.00   0.00   0.00    -0.00   0.00   0.00
  58   1    -0.01   0.00   0.01    -0.00   0.00   0.00     0.00  -0.00  -0.00
  59   1    -0.01   0.06   0.00    -0.00   0.00   0.00    -0.00   0.00   0.00
  60   1    -0.09   0.03  -0.00    -0.00   0.00  -0.00     0.00  -0.00   0.00
  61   1     0.02  -0.01  -0.00     0.00  -0.00  -0.00     0.00  -0.00  -0.00
  62   1     0.02   0.01   0.00     0.00   0.00   0.00     0.00   0.00   0.00
  63   1     0.00   0.00  -0.00     0.00   0.00  -0.00    -0.00  -0.00   0.00
  64   1     0.00   0.00  -0.00     0.00   0.00  -0.00     0.00   0.00  -0.00
  65   1     0.01  -0.01  -0.00     0.00  -0.00  -0.00     0.00  -0.00  -0.00
  66   1    -0.00  -0.01   0.00    -0.00  -0.00   0.00    -0.00  -0.00   0.00
  67   1    -0.01  -0.00   0.01     0.00   0.00  -0.00     0.00   0.00  -0.00
  68   1    -0.01  -0.06  -0.01    -0.00  -0.00  -0.00     0.00   0.00   0.00
  69   1    -0.09  -0.03  -0.00     0.00   0.00   0.00     0.00   0.00   0.00
  70   1     0.29   0.28   0.44     0.01   0.01   0.01     0.00   0.00   0.00
  71   1    -0.19   0.18   0.28    -0.01   0.01   0.02    -0.00   0.00   0.00
  72   1     0.01   0.02   0.01     0.11   0.20   0.05     0.01   0.02   0.00
  73   1     0.02  -0.03  -0.01    -0.48   0.77   0.19    -0.04   0.06   0.01
  74   1    -0.00   0.01  -0.00     0.02  -0.04   0.01     0.02  -0.05   0.01
  75   1     0.00  -0.00   0.00     0.02  -0.06   0.04    -0.24   0.71  -0.52
  76   1    -0.00   0.00  -0.00     0.02  -0.00   0.01    -0.24   0.01  -0.10
  77   1    -0.01  -0.01   0.00     0.00   0.01  -0.00    -0.07  -0.08   0.02
  78   1     0.00  -0.01   0.00    -0.00   0.00  -0.00     0.01  -0.03   0.02
  79   1     0.00   0.00   0.00     0.01  -0.00   0.00     0.03  -0.00   0.01
  80   1    -0.00   0.00   0.00     0.01  -0.00  -0.00    -0.02   0.00   0.00
  81   1     0.00   0.00  -0.00     0.00   0.00  -0.00    -0.00  -0.00   0.00
  82   1    -0.00   0.00  -0.00    -0.00   0.00  -0.00    -0.00   0.00  -0.00
  83   1    -0.00   0.00   0.00     0.00  -0.00  -0.00    -0.00   0.00   0.00
  84   1     0.00   0.00  -0.00     0.00   0.01  -0.00    -0.01  -0.01   0.00
  85   1    -0.01  -0.02  -0.00    -0.01  -0.02  -0.01    -0.00  -0.01  -0.00
  86   1     0.02  -0.03  -0.01     0.00  -0.00  -0.00     0.00  -0.00  -0.00
  87   1    -0.16  -0.16  -0.25     0.00   0.00   0.00    -0.00  -0.00  -0.00
  88   1     0.27  -0.24  -0.38     0.00  -0.00  -0.00     0.00  -0.00  -0.00
  89   1     0.00  -0.00  -0.00    -0.00  -0.00  -0.00    -0.00   0.00   0.00
  90   1     0.01  -0.00  -0.00     0.00  -0.00  -0.00     0.00  -0.00  -0.00
                    262                    263                    264
                        a                      a                      a 
 Frequencies --  3105.1478              3105.6503              3108.7765
 Red. masses --     1.8498                 1.8594                 1.8293
 Frc consts  --     0.0000                 0.0000                 0.0000
 IR Inten    --    24.4609                 1.5905                25.3989
 Raman Activ --     0.0000                 0.0000                 0.0000
 Depolar     --     0.0000                 0.0000                 0.0000
 Atom AN      X      Y      Z        X      Y      Z        X      Y      Z
   1   6     0.00   0.00   0.00     0.00   0.00   0.00     0.00   0.00   0.00
   2   6    -0.00   0.00   0.00    -0.00   0.00   0.00    -0.00   0.00   0.00
   3   6     0.00  -0.00  -0.00    -0.00   0.00   0.00    -0.00   0.00   0.00
   4   6    -0.00  -0.00   0.00    -0.00  -0.00  -0.00    -0.00  -0.00  -0.00
   5   6    -0.00   0.00   0.00     0.00  -0.00  -0.00     0.00  -0.00   0.00
   6   6     0.00  -0.00  -0.00     0.00  -0.00  -0.00    -0.00   0.00   0.00
   7   6     0.00  -0.00   0.00    -0.00   0.00  -0.00    -0.00   0.00  -0.00
   8   6     0.00   0.00   0.00    -0.00  -0.00  -0.00    -0.00  -0.00  -0.00
   9   6    -0.00   0.00  -0.00     0.00  -0.00  -0.00     0.00  -0.00  -0.00
  10   6     0.00  -0.00  -0.00    -0.00   0.00   0.00    -0.00   0.00   0.00
  11   6    -0.00   0.00  -0.00     0.00   0.00   0.00     0.00   0.00   0.00
  12   6     0.00   0.00   0.00    -0.00  -0.00  -0.00     0.00   0.00   0.00
  13   6     0.00  -0.00  -0.00     0.00   0.00   0.00    -0.00   0.00   0.00
  14   6    -0.00   0.00   0.00    -0.00   0.00   0.00    -0.00   0.00   0.00
  15   6     0.00   0.00  -0.00     0.00   0.00  -0.00     0.00   0.00  -0.00
  16   6     0.00   0.00  -0.00     0.00   0.00  -0.00     0.00   0.00  -0.00
  17   6     0.00  -0.00  -0.00     0.00  -0.00  -0.00     0.00  -0.00  -0.00
  18   6    -0.00  -0.00   0.00    -0.00  -0.00   0.00     0.00   0.00  -0.00
  19   6    -0.00  -0.00   0.00    -0.00  -0.00   0.00     0.00   0.00  -0.00
  20   6    -0.00  -0.00  -0.00    -0.00  -0.00  -0.00     0.00   0.00   0.00
  21   6    -0.00  -0.00  -0.00    -0.00  -0.00  -0.00     0.00   0.00   0.00
  22   6     0.00  -0.00  -0.00    -0.00   0.00   0.00    -0.00   0.00   0.00
  23   7    -0.00   0.00  -0.00     0.00   0.00   0.00     0.00  -0.00  -0.00
  24   6     0.00  -0.00   0.00    -0.00  -0.00  -0.00    -0.00  -0.00  -0.00
  25   6     0.00   0.00   0.00    -0.00  -0.00  -0.00    -0.00  -0.00  -0.00
  26   6    -0.00   0.00   0.00    -0.00   0.00   0.00     0.00  -0.00  -0.00
  27   6    -0.00   0.00   0.00    -0.00  -0.00  -0.00     0.00   0.00   0.00
  28   6     0.00  -0.00  -0.00    -0.00   0.00  -0.00    -0.00  -0.00  -0.00
  29   6     0.00   0.00   0.00     0.00   0.00   0.00     0.00   0.00   0.00
  30   6    -0.00   0.00   0.00     0.00  -0.00   0.00    -0.01   0.01   0.00
  31   6    -0.00   0.00  -0.00     0.00   0.00  -0.00     0.00   0.00   0.00
  32   6     0.00  -0.00   0.00    -0.00   0.00  -0.00    -0.01   0.00  -0.00
  33   6     0.00   0.00  -0.00     0.00  -0.00   0.00    -0.12   0.24  -0.05
  34   6    -0.00   0.00  -0.00    -0.00   0.00  -0.00     0.00   0.01  -0.00
  35   6    -0.00  -0.00   0.00    -0.00  -0.00   0.00    -0.00   0.00  -0.00
  36   6     0.00  -0.00   0.00     0.00  -0.00   0.00    -0.00   0.01  -0.01
  37   6     0.00  -0.00   0.00     0.00  -0.00   0.00    -0.00   0.00  -0.00
  38   6     0.00   0.00  -0.00     0.00   0.00  -0.00     0.00   0.00   0.00
  39   6    -0.00   0.00  -0.00    -0.00   0.00  -0.00    -0.00   0.00  -0.00
  40   6    -0.00   0.00  -0.00    -0.00   0.00  -0.00    -0.03   0.00  -0.01
  41   7     0.00  -0.00  -0.00    -0.00  -0.00   0.00    -0.00  -0.00   0.00
  42   6    -0.00  -0.00   0.00    -0.00   0.00  -0.00     0.00  -0.00   0.00
  43   6    -0.00   0.00   0.00    -0.00   0.01  -0.00     0.00  -0.00   0.00
  44   6    -0.21   0.03   0.02    -0.16   0.02   0.01    -0.00   0.00   0.00
  45   6    -0.03  -0.04   0.01    -0.02  -0.03   0.01    -0.00  -0.00   0.00
  46   6     0.01  -0.00  -0.00     0.01  -0.03   0.01     0.00  -0.00   0.00
  47   6    -0.04   0.00   0.00     0.05  -0.01  -0.00     0.00  -0.00  -0.00
  48   6    -0.09  -0.13   0.05     0.12   0.17  -0.06     0.00   0.00  -0.00
  49   7     0.00   0.00  -0.00     0.00   0.00  -0.00     0.00  -0.00   0.00
  50   6    -0.00  -0.00  -0.00     0.00   0.00   0.00     0.01   0.02   0.01
  51   6     0.00  -0.00  -0.00    -0.00   0.00   0.00    -0.00   0.01   0.00
  52   6    -0.00  -0.00  -0.00    -0.00  -0.00  -0.00     0.00   0.00   0.00
  53   6     0.00  -0.00  -0.00    -0.00   0.00   0.00    -0.00   0.00   0.00
  54   6     0.00  -0.00  -0.00     0.00  -0.00  -0.00     0.00  -0.00  -0.00
  55   6     0.00  -0.00  -0.00     0.00  -0.00  -0.00     0.00  -0.00  -0.00
  56   1    -0.00  -0.00  -0.00    -0.00  -0.00  -0.00    -0.00  -0.00  -0.00
  57   1     0.00  -0.00  -0.00     0.00  -0.00  -0.00     0.00  -0.00  -0.00
  58   1    -0.00  -0.00   0.00     0.00  -0.00  -0.00     0.00  -0.00  -0.00
  59   1    -0.00   0.00   0.00    -0.00   0.00   0.00     0.00  -0.00  -0.00
  60   1    -0.00   0.00  -0.00     0.00  -0.00   0.00     0.00  -0.00   0.00
  61   1    -0.00   0.00   0.00     0.00  -0.00   0.00     0.00  -0.00   0.00
  62   1    -0.00  -0.00  -0.00     0.00   0.00   0.00    -0.00  -0.00  -0.00
  63   1    -0.00  -0.00   0.00    -0.00  -0.00   0.00    -0.00  -0.00   0.00
  64   1    -0.00  -0.00   0.00    -0.00  -0.00   0.00    -0.00  -0.00   0.00
  65   1    -0.00   0.00   0.00    -0.00   0.00   0.00    -0.00   0.00   0.00
  66   1     0.00   0.00  -0.00     0.00   0.00  -0.00    -0.00  -0.00   0.00
  67   1     0.00   0.00  -0.00     0.00   0.00  -0.00    -0.00  -0.00   0.00
  68   1     0.00   0.00   0.00     0.00   0.00   0.00    -0.00  -0.00  -0.00
  69   1     0.00   0.00   0.00     0.00   0.00   0.00    -0.00  -0.00  -0.00
  70   1    -0.00  -0.00  -0.00     0.00   0.00   0.00     0.00   0.00   0.00
  71   1     0.00  -0.00  -0.00     0.00  -0.00  -0.00    -0.00   0.00   0.00
  72   1    -0.00  -0.00  -0.00    -0.00  -0.00  -0.00    -0.01  -0.01  -0.00
  73   1     0.01  -0.01  -0.00    -0.00   0.00  -0.00     0.03  -0.04  -0.01
  74   1    -0.00   0.00  -0.00    -0.00   0.01  -0.00     0.41  -0.84   0.18
  75   1    -0.00   0.01  -0.01    -0.00   0.00  -0.00     0.01  -0.04   0.03
  76   1    -0.01   0.00  -0.00    -0.00   0.00  -0.00     0.01  -0.00   0.00
  77   1    -0.00  -0.00   0.00    -0.00  -0.00   0.00    -0.00  -0.00   0.00
  78   1     0.00  -0.00   0.00     0.00  -0.00   0.00     0.01  -0.01   0.01
  79   1     0.00  -0.00   0.00     0.00  -0.00   0.00     0.10  -0.00   0.04
  80   1     0.74  -0.09  -0.06     0.56  -0.06  -0.05     0.00  -0.00  -0.00
  81   1     0.08   0.12  -0.04     0.07   0.10  -0.04     0.00   0.00  -0.00
  82   1    -0.01   0.01  -0.00    -0.04   0.08  -0.02    -0.00   0.01  -0.00
  83   1     0.11  -0.01  -0.01    -0.16   0.02   0.01    -0.01   0.00   0.00
  84   1     0.31   0.45  -0.16    -0.41  -0.58   0.21    -0.00  -0.00   0.00
  85   1     0.00   0.00   0.00    -0.00  -0.00  -0.00    -0.05  -0.09  -0.02
  86   1    -0.00   0.00   0.00     0.00  -0.00  -0.00     0.01  -0.02  -0.00
  87   1     0.00   0.00   0.00     0.00   0.00   0.00    -0.00  -0.00  -0.00
  88   1    -0.00   0.00   0.00     0.00  -0.00  -0.00     0.00  -0.00  -0.00
  89   1    -0.00   0.00   0.00    -0.00   0.00   0.00    -0.00   0.00   0.00
  90   1    -0.00   0.00   0.00    -0.00   0.00   0.00    -0.00   0.00   0.00
