$hessian                                                                        
        0.4968104419   0.0084732100   0.0396165815  -0.0912114761   0.0118843425
        0.0558021110   0.0061624796  -0.0022979756  -0.0107701744  -0.0163660309
        0.0131089086   0.0123238727  -0.0006013988  -0.0013135328   0.0011532117
       -0.0005753525   0.0001481998  -0.0006818215   0.0000835574   0.0000374458
       -0.0000747248  -0.0006277796   0.0000404555  -0.0007367987   0.0003816496
        0.0024967877   0.0001299763  -0.0003450636  -0.0000164637   0.0000857999
        0.0002502572   0.0000133217   0.0000268847  -0.0000489676   0.0000118936
        0.0000038426   0.0000076275   0.0000122302   0.0000082257   0.0000021942
       -0.0000063782  -0.0000089716   0.0000104168   0.0000065725   0.0000024545
        0.0000159850   0.0000195134   0.0000111226   0.0000304788   0.0000067159
        0.0000016032  -0.0000185945  -0.0000131962  -0.0000140060   0.0000497657
        0.0000373975   0.0000142130   0.0000007657   0.0000026141  -0.0000108701
        0.0000050751   0.0000066452   0.0000116510   0.0000099744  -0.0000039397
       -0.0000020485   0.0000056240   0.0000016239  -0.0000066164  -0.0000170755
        0.0000000841   0.0000094288  -0.0000118761  -0.0000021862  -0.0000008615
       -0.0001325890  -0.0000126781   0.0000148176   0.0000468359  -0.0000294526
       -0.0000234005  -0.0000044666  -0.0000053695   0.0000049991  -0.0000031052
       -0.0000076196  -0.0000093403   0.0000055002   0.0000054194   0.0000021095
       -0.0000004679  -0.0000092016  -0.0000042643  -0.0000178013  -0.0000004475
        0.0000010401  -0.0000172633   0.0000005041  -0.0000035299   0.0000070017
       -0.0000159736  -0.0000087644   0.0000000897  -0.0000038058   0.0000100564
       -0.0000008941  -0.0000031134  -0.0000121504  -0.0000012428  -0.0000067435
       -0.0000008221   0.0000071960  -0.0000007203   0.0000278914   0.0001940571
       -0.0022279003   0.0011211271  -0.0006669642  -0.0003279482  -0.0006295392
        0.0001016936  -0.0000941850  -0.0000473025  -0.0006141669  -0.0004362231
       -0.0005307117  -0.0005978209   0.0016831942   0.0004964915  -0.0163069271
       -0.0067753149   0.0166300348  -0.1251181412  -0.1127017978   0.0250862947
       -0.1239473777   0.1127543999  -0.0227736671  -0.1268713301  -0.0237045674
       -0.1127396604   0.0006945220  -0.0002291693  -0.0004474468  -0.0009983106
       -0.0006882837  -0.0032525823   0.0006919885   0.0000267565  -0.0005059726
       -0.0000983479  -0.0002999713   0.0002646882  -0.0000099611  -0.0000128774
        0.0000451908   0.0000006532   0.0000359458   0.0001187142  -0.0001030467
        0.0001160295  -0.0000153499   0.0000056584  -0.0000155350  -0.0000341006
       -0.0000125414  -0.0000003250  -0.0000078752  -0.0000054060  -0.0000087059
       -0.0000000011  -0.0000027229   0.0000060615   0.0000003395  -0.0000073126
        0.0000080413   0.0000020991   0.0000025572   0.0000033826   0.0000028794
        0.0000019665   0.0000045985   0.0000068181   0.0000029751   0.0000071759
       -0.0000009339  -0.0000017071  -0.0000091649  -0.0000000157  -0.0000078209
        0.0000011214  -0.0000020323   0.0000027599  -0.0000053722  -0.0000030646
        0.0000016178   0.0000009938  -0.0000052569  -0.0000163279  -0.0000018209
        0.0000004864  -0.0000207917  -0.0000060383  -0.0000004985  -0.0000944162
       -0.0001188025   0.0000577421   0.0000070480   0.0000192612   0.0001181043
       -0.0000081246   0.0000302631   0.0000386558  -0.0000894029   0.0004016902
        0.0001136175
        0.0084732100   0.5259068270  -0.0146002704   0.0100975078  -0.0645913339
       -0.0146426306   0.0022690362   0.0000981916  -0.0064741810   0.0176757645
       -0.0081410873  -0.0160534094   0.0005220767  -0.0013169934  -0.0001307032
       -0.0002197794   0.0008774099   0.0004131100   0.0005602992   0.0000704732
        0.0000021645   0.0006242566  -0.0000925733   0.0009214723   0.0000841044
       -0.0034344133  -0.0000820432   0.0001385506   0.0013860648  -0.0003407701
       -0.0000819996  -0.0000004893   0.0000463941   0.0000067881  -0.0000147593
       -0.0000325503  -0.0000190170   0.0000001334  -0.0000072567   0.0000070090
       -0.0000046456   0.0000067367  -0.0000121299  -0.0000294306   0.0000011915
       -0.0000018169   0.0000209205  -0.0000051263  -0.0000478028  -0.0000486779
        0.0000091120   0.0000406864   0.0000273286  -0.0000067320  -0.0000319244
       -0.0000210522  -0.0000081987   0.0000032294  -0.0000005834   0.0000024240
       -0.0000062129  -0.0000039397  -0.0000043834  -0.0000030320  -0.0000031253
       -0.0000027858   0.0000009051  -0.0000007616   0.0000009876   0.0000068749
        0.0000014591  -0.0000000504   0.0000046466   0.0000007757   0.0000025202
        0.0000947270  -0.0000077906  -0.0000032966  -0.0000305135   0.0000307644
        0.0000091688  -0.0000021032  -0.0000097184  -0.0000017869  -0.0000031031
        0.0000094103   0.0000020142  -0.0000053430   0.0000017549   0.0000014102
        0.0000020352   0.0000054596   0.0000010975   0.0000063551  -0.0000025804
       -0.0000017971   0.0000107683   0.0000001108  -0.0000018676  -0.0000070805
        0.0000441992   0.0000034532   0.0000238345  -0.0000401256   0.0000051695
       -0.0000376178   0.0000266048  -0.0000084042   0.0000029512   0.0000103774
        0.0000116557   0.0000195724   0.0000484476  -0.0000108161  -0.0007075922
       -0.0031854300   0.0011545025  -0.0005938951  -0.0003247665  -0.0007306814
       -0.0005682537   0.0000554450   0.0000173150   0.0004131954   0.0007138705
       -0.0007241934  -0.0004556801  -0.0016463328   0.0007787814  -0.0144970318
        0.0017257265   0.0161163657  -0.1128345986  -0.1957493027   0.0361623060
        0.1126842352  -0.1996127470   0.0297662781  -0.0236145898  -0.0512466031
       -0.0311096757  -0.0001310234   0.0002251199   0.0006437296  -0.0005080158
        0.0002546827  -0.0011880120   0.0005365379   0.0001487836  -0.0003254313
        0.0008436178  -0.0011244786  -0.0008659225  -0.0000092366  -0.0000084835
       -0.0000574102   0.0000406143  -0.0000264574  -0.0001443348   0.0001186424
       -0.0001618351   0.0000831907  -0.0000054411  -0.0000105028   0.0000161416
        0.0000004780   0.0000005719   0.0000010782   0.0000017413   0.0000006813
        0.0000013448   0.0000003387   0.0000021641   0.0000008378   0.0000002384
        0.0000004908   0.0000002884  -0.0000014360  -0.0000000014  -0.0000010392
       -0.0000000096  -0.0000013101  -0.0000010756   0.0000015062  -0.0000021305
        0.0000008372   0.0000011703   0.0000001059   0.0000000311  -0.0000004331
       -0.0000014238   0.0000003926  -0.0000027625   0.0000008051   0.0000012550
       -0.0000013237   0.0000018195   0.0000017018   0.0000040875  -0.0000048367
        0.0000023324   0.0000017917  -0.0000203296   0.0000115892  -0.0001066942
       -0.0001827066   0.0000101371  -0.0000304782   0.0000449982   0.0001333701
        0.0000100619   0.0000158536   0.0000377413  -0.0007554747  -0.0006840720
        0.0011852065
        0.0396165815  -0.0146002704   0.4608193735   0.0472487481  -0.0145564358
       -0.1296042943   0.0107006079  -0.0065126431  -0.0290511176   0.0037023395
       -0.0054637401   0.0018980674  -0.0000958171   0.0015843072  -0.0001090609
        0.0006198734  -0.0004522421   0.0001183172  -0.0002785881  -0.0001043965
        0.0001016917   0.0000320167  -0.0000834911   0.0000074194  -0.0013296655
        0.0003639583  -0.0008085755   0.0004160995  -0.0003393363  -0.0001041091
       -0.0000557885   0.0000667880   0.0002515557  -0.0000306639  -0.0000235623
       -0.0000478671   0.0000410064  -0.0000061006   0.0000013687  -0.0000501760
       -0.0000034657  -0.0000059175   0.0000414713  -0.0000109890  -0.0000017637
       -0.0001778609   0.0000864947  -0.0001127790   0.0000033662  -0.0000705109
        0.0001007396   0.0000545397   0.0000689149  -0.0000337070   0.0003741248
       -0.0001267776  -0.0001418440  -0.0001242732   0.0000702870   0.0000678129
       -0.0000262659  -0.0000849513  -0.0000198438  -0.0000488690   0.0000072245
       -0.0000354742   0.0000143902  -0.0000290538   0.0000047505   0.0000146572
        0.0000555369   0.0000067681   0.0000962159  -0.0000021207   0.0000447681
       -0.0004511201   0.0002236569   0.0000244036   0.0004332673  -0.0001012403
        0.0001196504  -0.0000852076  -0.0000044552  -0.0000550554  -0.0000056288
        0.0000292312   0.0000006466  -0.0000328188  -0.0000068050   0.0000381441
       -0.0000049925   0.0000061633  -0.0000013247   0.0000132972  -0.0000376547
       -0.0000078169   0.0000407951   0.0000070670  -0.0000386458  -0.0001382107
       -0.0000770480   0.0001053326   0.0000041642   0.0000877407  -0.0001013648
        0.0000832853  -0.0000860133   0.0000358649   0.0000495246   0.0000289968
        0.0000218069   0.0000510371   0.0000112239   0.0000310610  -0.0011451457
        0.0006940189  -0.0011275737   0.0002938417   0.0002470951   0.0002950314
       -0.0000366847   0.0001198271   0.0000529307   0.0004953418   0.0001670285
        0.0002120710   0.0001089359  -0.0008772981   0.0002411117   0.0104889553
        0.0054885875  -0.0077479997   0.0245951509   0.0357614590  -0.0506952002
       -0.0232902895   0.0301808208  -0.0479649602  -0.1122798262  -0.0311150617
       -0.1927987428   0.0010311938  -0.0001740982   0.0008579715  -0.0023844880
       -0.0011931152  -0.0051193611   0.0008839787   0.0004810491   0.0009238423
        0.0000914226   0.0001562616   0.0000076968   0.0000112670  -0.0000129780
       -0.0000343138   0.0000003723  -0.0000113758   0.0000057295  -0.0000367250
        0.0000149711  -0.0000271603   0.0000021679   0.0000094247   0.0000153966
       -0.0000012110  -0.0000001958  -0.0000088729   0.0000004444  -0.0000016047
        0.0000100007   0.0000025436   0.0000084134   0.0000022315  -0.0000038849
        0.0000025312   0.0000052099  -0.0000101286   0.0000028104  -0.0000096528
        0.0000085605  -0.0000001308  -0.0000045833  -0.0000098286   0.0000055701
       -0.0000073335   0.0000015129  -0.0000048485  -0.0000017839  -0.0000005227
       -0.0000022929  -0.0000055345  -0.0000063953  -0.0000032583   0.0000113579
        0.0000128227  -0.0000114206   0.0000016406   0.0000056027   0.0000018409
        0.0000076833  -0.0000124064  -0.0000179748  -0.0000314974   0.0000178729
        0.0000437998  -0.0000196335   0.0000130347  -0.0000056625  -0.0000567326
        0.0000058452  -0.0000098848  -0.0000550997   0.0004312064   0.0001414039
       -0.0004528510
       -0.0912114761   0.0100975078   0.0472487481   0.4524109319   0.0000673657
       -0.0000908533  -0.0914194660  -0.0100012763  -0.0473448243  -0.1014492606
        0.0521663921  -0.0112280890   0.0090073251  -0.0012015228   0.0003534181
        0.0006976664  -0.0041469930   0.0009260728  -0.0010122109   0.0002154006
       -0.0000893041  -0.0044283534  -0.0014823720   0.0002930281  -0.0221332664
        0.0219355956  -0.0049492425   0.0049072555  -0.0000143602  -0.0000099358
       -0.0007087130   0.0000019993  -0.0000012020   0.0001962490  -0.0000741939
       -0.0000336884  -0.0000033854  -0.0000119473   0.0000331657  -0.0001114386
        0.0000021325   0.0000576738  -0.0000204992   0.0000453684   0.0000178208
       -0.0002752688   0.0002877950  -0.0001944770   0.0000087321  -0.0002563929
        0.0002246122   0.0001235786   0.0000941461  -0.0001503986   0.0007474546
       -0.0003229430  -0.0003087213  -0.0002615482   0.0002715382   0.0000933200
       -0.0000867990  -0.0002351680   0.0000154098  -0.0000777515  -0.0000426023
       -0.0001249619   0.0001110296  -0.0000869515  -0.0000406076  -0.0000413490
        0.0001564323   0.0001085997   0.0002030637  -0.0000495552   0.0001273237
       -0.0007187136   0.0003158537   0.0001490949   0.0008452142  -0.0000071532
        0.0002079195  -0.0002395637  -0.0001902045  -0.0001172230  -0.0000834999
        0.0001255137  -0.0000286291  -0.0000849403   0.0000419495   0.0001299561
        0.0000242187  -0.0000113803  -0.0000322365  -0.0000477577  -0.0001332367
       -0.0000311216   0.0000625177   0.0000481364  -0.0001412396  -0.0002465595
       -0.0001884866   0.0002094996  -0.0001482772   0.0002111743  -0.0002152801
        0.0002430296  -0.0002020979   0.0000724116   0.0000111737   0.0000101679
       -0.0000285877   0.0003530661   0.0000696041   0.0000356520  -0.0222402437
       -0.0218412304   0.0049876987  -0.0044127380   0.0015006287  -0.0002682364
       -0.0010117675  -0.0002062341   0.0000893225   0.0007276666   0.0041457068
       -0.0009045382   0.0089762268   0.0010547280  -0.0003461122  -0.1018552292
       -0.0523071171   0.0113745720  -0.0127398216   0.0003853027   0.0155078956
       -0.0126428818   0.0059952308   0.0142462844   0.0082351717  -0.0023177176
       -0.0107852283  -0.0127208248  -0.0003198973  -0.0154380500   0.0082312244
        0.0022800271   0.0107255380  -0.0127416492  -0.0059633911  -0.0143027398
       -0.0001716581  -0.0006111342   0.0001368954   0.0002446089  -0.0009371011
        0.0001840749   0.0001044494  -0.0001110830   0.0000266053  -0.0005647188
        0.0009315282  -0.0002260903  -0.0000392710   0.0000148550   0.0000193640
        0.0000012332   0.0000170404  -0.0000789595  -0.0000240599  -0.0000562108
        0.0000344096  -0.0000116638   0.0000944997   0.0000134088  -0.0000718593
        0.0000855665   0.0000321137  -0.0000124711   0.0000373358  -0.0000069690
        0.0000403533   0.0000191666   0.0000362875   0.0000137943   0.0000535694
       -0.0000436726  -0.0000057381  -0.0000996139  -0.0000126269  -0.0000707179
       -0.0000134136  -0.0000349715  -0.0000089082  -0.0000493918   0.0000058917
        0.0000407469   0.0000059130  -0.0000337254   0.0000024757  -0.0000201027
        0.0000773644  -0.0000374793  -0.0000137840  -0.0000212153  -0.0005656323
       -0.0009281787   0.0002257740   0.0001094455   0.0001117399  -0.0000322129
        0.0002500178   0.0009380324  -0.0001850498  -0.0001704899   0.0006194948
       -0.0001462052
        0.0118843425  -0.0645913339  -0.0145564358   0.0000673657   0.4964812646
       -0.0179101832  -0.0117976124  -0.0644914281  -0.0143574327   0.0577577802
       -0.1463046721   0.0201232015   0.0106269533  -0.0311518406   0.0067285577
       -0.0036236698  -0.0021122038   0.0018418941   0.0003569006  -0.0002691692
       -0.0000238306  -0.0012154561   0.0011259650   0.0009446467   0.0091613465
        0.0014061164   0.0003966280  -0.0000201854  -0.0027117190  -0.0000901950
       -0.0000022621  -0.0001823417  -0.0001576605   0.0000521199  -0.0000418654
        0.0000458322   0.0000154588  -0.0000073850  -0.0000204643   0.0000004597
        0.0000006302  -0.0000149638  -0.0000016550   0.0000171918  -0.0000001298
        0.0000017071  -0.0000315853   0.0000019663   0.0000240807   0.0000364943
       -0.0000073476  -0.0000318709  -0.0000204731   0.0000017952  -0.0000103568
        0.0000049044   0.0000047261   0.0000038112  -0.0000000961  -0.0000014733
        0.0000004319   0.0000019774   0.0000008230   0.0000017276   0.0000002081
        0.0000016307   0.0000002934  -0.0000002165  -0.0000000992  -0.0000000750
       -0.0000006277  -0.0000002133  -0.0000020370   0.0000001876  -0.0000017033
        0.0000170160  -0.0000095651  -0.0000028936  -0.0000122869   0.0000070208
       -0.0000002367   0.0000025755   0.0000017046   0.0000010943  -0.0000009711
        0.0000000770   0.0000013119   0.0000000197   0.0000017405  -0.0000000170
       -0.0000000748  -0.0000004242  -0.0000001509   0.0000000705   0.0000012021
        0.0000002076  -0.0000005847  -0.0000005155   0.0000002978   0.0000052462
       -0.0000217726  -0.0000023778  -0.0000268960   0.0000322384  -0.0000030292
        0.0000294271  -0.0000168965   0.0000018509  -0.0000178468  -0.0000070135
       -0.0000205001  -0.0000543787  -0.0000415366   0.0000449070  -0.0090529462
        0.0015176517   0.0004032955   0.0012411299   0.0011194206   0.0009400421
       -0.0003497846  -0.0002714126  -0.0000231741   0.0036162373  -0.0021475874
        0.0018337027  -0.0107785585  -0.0311248448   0.0067366927  -0.0579110689
       -0.1458712309   0.0201429709  -0.0133082209   0.0023327401   0.0181941039
        0.0150176731  -0.0063365109  -0.0188083743   0.0026394184  -0.0010707838
       -0.0050559191   0.0133879700   0.0022797385   0.0182336359  -0.0026766543
       -0.0010674819  -0.0050861316  -0.0150176322  -0.0062549074  -0.0187380957
        0.0009811623   0.0006061058  -0.0007414623   0.0005654261  -0.0009084621
        0.0002461624  -0.0000411692   0.0000515879  -0.0003158584  -0.0002824846
        0.0001196631  -0.0000403261   0.0000181910   0.0000194186  -0.0000191474
        0.0000084229   0.0000059515  -0.0000020225   0.0000004810   0.0000009496
       -0.0000004294   0.0000003423  -0.0000011676  -0.0000002686   0.0000006603
        0.0000000057  -0.0000002018   0.0000001474  -0.0000001612   0.0000003629
       -0.0000000895  -0.0000005513  -0.0000001000   0.0000002051  -0.0000001055
       -0.0000001340  -0.0000003839  -0.0000004865  -0.0000002897  -0.0000001040
        0.0000002698   0.0000000707  -0.0000000759   0.0000002379   0.0000000141
       -0.0000001183  -0.0000002141   0.0000000209  -0.0000081201   0.0000058865
       -0.0000030509  -0.0000177147   0.0000196135  -0.0000185219   0.0002858250
        0.0001228302  -0.0000417037   0.0000399195   0.0000514096  -0.0003152653
       -0.0005694335  -0.0009102790   0.0002473601  -0.0009795664   0.0006084649
       -0.0007379912
        0.0558021110  -0.0146426306  -0.1296042943  -0.0000908533  -0.0179101832
        0.4208831530  -0.0559073245  -0.0144099172  -0.1294727625  -0.0120937594
        0.0199620069  -0.0571618667  -0.0023018495   0.0066336900  -0.0018629872
        0.0006766944   0.0020093825   0.0063129813  -0.0000113984   0.0000321949
       -0.0004555370   0.0001417861   0.0010240261   0.0055503103  -0.0025165786
        0.0003755233   0.0031473795  -0.0000071679  -0.0000102545  -0.0035335827
       -0.0000009036  -0.0001793889  -0.0008158471   0.0002356318   0.0000814248
        0.0000942642   0.0000270873  -0.0000618486  -0.0000848966  -0.0000001898
        0.0000047509   0.0000030974   0.0000004271   0.0000094951  -0.0000140458
       -0.0000156393   0.0000107413  -0.0000004605  -0.0000129614  -0.0000149505
        0.0000044867   0.0000093557   0.0000030099  -0.0000154568   0.0000060731
        0.0000064957   0.0000071091  -0.0000054619   0.0000003731   0.0000010638
        0.0000031052  -0.0000007107  -0.0000011711  -0.0000000170   0.0000020761
       -0.0000003157   0.0000001708  -0.0000001815  -0.0000003705  -0.0000006751
        0.0000005435  -0.0000007401   0.0000012870   0.0000008447   0.0000002591
       -0.0000062090  -0.0000022923  -0.0000105571   0.0000007960   0.0000043584
        0.0000080106   0.0000040765   0.0000006833   0.0000005613  -0.0000029797
       -0.0000006425  -0.0000011987  -0.0000001450   0.0000017418  -0.0000001006
       -0.0000004323  -0.0000002797  -0.0000003771   0.0000008519   0.0000005792
       -0.0000006685  -0.0000008336   0.0000006855  -0.0000000750   0.0000139871
        0.0000084464   0.0000003979   0.0000140445  -0.0000140879   0.0000037207
       -0.0000087246   0.0000018776  -0.0000158050  -0.0000270015  -0.0000617357
       -0.0000847645  -0.0002345540   0.0000821707   0.0000955271   0.0025622612
        0.0004136767   0.0031289143  -0.0001135502   0.0010185543   0.0055515247
        0.0000086956   0.0000326927  -0.0004557600  -0.0006517817   0.0020020751
        0.0063177200   0.0023020740   0.0066019839  -0.0018584642   0.0122503668
        0.0199834536  -0.0571883347   0.0068937174   0.0005307091  -0.0074981422
        0.0008808376  -0.0010829367   0.0010799850   0.0125235494  -0.0050966334
       -0.0239080762  -0.0068839197   0.0005581278  -0.0074685320  -0.0125830559
       -0.0050485844  -0.0239067495  -0.0008711605  -0.0010733778   0.0010946682
       -0.0001927879  -0.0007699234  -0.0027042688  -0.0001244173   0.0002257977
        0.0000548997   0.0000378464  -0.0003349852  -0.0013555277   0.0000843653
        0.0000190112   0.0001127499   0.0000285048  -0.0000193136  -0.0000451195
        0.0000295929  -0.0000122530   0.0000028198  -0.0000012061  -0.0000005709
        0.0000011851  -0.0000002855  -0.0000013526   0.0000003380  -0.0000002044
       -0.0000003936   0.0000005502  -0.0000007043  -0.0000000696   0.0000003065
       -0.0000004591  -0.0000005116   0.0000005545   0.0000010446  -0.0000004030
        0.0000011159   0.0000003005  -0.0000014065   0.0000003287   0.0000002107
       -0.0000003691   0.0000005263   0.0000006625  -0.0000001412   0.0000003990
        0.0000005158  -0.0000006230   0.0000005621  -0.0000297421  -0.0000120990
        0.0000030890  -0.0000287209  -0.0000191628  -0.0000451421  -0.0000822325
        0.0000216519   0.0001127254  -0.0000419510  -0.0003339124  -0.0013556589
        0.0001247249   0.0002232155   0.0000552245   0.0001850825  -0.0007699446
       -0.0027048517
        0.0061624796   0.0022690362   0.0107006079  -0.0914194660  -0.0117976124
       -0.0559073245   0.4966185197  -0.0083758605  -0.0397265300  -0.0162570238
        0.0068573241  -0.0165587961  -0.0006041396  -0.0016906859  -0.0004897304
       -0.0006134268   0.0004438211   0.0005297012   0.0001043460   0.0000953430
        0.0000467431  -0.0006620656   0.0003286589   0.0006284676   0.0002053595
        0.0022129697  -0.0011182786  -0.0003466630   0.0000234143  -0.0000855416
        0.0002506758  -0.0000139699  -0.0000276327  -0.0000147259   0.0000000346
       -0.0000274383  -0.0000041508   0.0000059286   0.0000020561   0.0000021724
        0.0000076518   0.0000234301   0.0000106167   0.0000115613   0.0000040140
        0.0000140275   0.0000231498   0.0000127387   0.0000252564  -0.0000014740
       -0.0000074214  -0.0000133645  -0.0000090485  -0.0000002114   0.0000499271
        0.0000447064   0.0000145947   0.0000025391  -0.0000008169  -0.0000114434
        0.0000026399   0.0000078091   0.0000127150   0.0000104043  -0.0000053195
       -0.0000020579   0.0000054200   0.0000022117  -0.0000061341  -0.0000170713
       -0.0000008032   0.0000096689  -0.0000133525  -0.0000019004   0.0000001036
       -0.0001339731  -0.0000200335   0.0000131048   0.0000477586  -0.0000229125
       -0.0000233343  -0.0000059390  -0.0000088222   0.0000043467  -0.0000006815
       -0.0000065435  -0.0000084036   0.0000052940   0.0000041975   0.0000021524
       -0.0000001463  -0.0000086381  -0.0000037837  -0.0000182846  -0.0000015527
        0.0000011736  -0.0000161405   0.0000008279  -0.0000026034   0.0000092987
       -0.0000124221  -0.0000070982   0.0000054415  -0.0000120117   0.0000009235
       -0.0000059958   0.0000011587   0.0000024865   0.0000102668  -0.0000131661
       -0.0000072770  -0.0000272966  -0.0000127070  -0.0000036339   0.0003730952
       -0.0025089126  -0.0001331431  -0.0006269954  -0.0000398702   0.0007415449
        0.0000824261  -0.0000373961   0.0000743631  -0.0005748015  -0.0001434985
        0.0006857700  -0.0005979591   0.0013166034  -0.0011515299  -0.0165050248
       -0.0130843883  -0.0123642757   0.0006945991   0.0002278700   0.0004489253
        0.0006898405  -0.0000268132   0.0005057818  -0.0009867941   0.0006927918
        0.0032424586  -0.1243587315   0.1124878963  -0.0248287429  -0.1264080423
        0.0239096523   0.1125452033  -0.1246944342  -0.1129817358   0.0229528474
       -0.0000893457  -0.0004022598  -0.0001095006  -0.0000091184  -0.0000294092
       -0.0000387112   0.0000061312  -0.0000189822  -0.0001178760  -0.0000938453
        0.0001184709  -0.0000577097  -0.0000212133   0.0000062642   0.0000003282
       -0.0000168133   0.0000017717  -0.0000008407  -0.0000048638  -0.0000086696
       -0.0000011172  -0.0000027578   0.0000073476   0.0000000918  -0.0000071355
        0.0000083406   0.0000019907   0.0000031188   0.0000037706   0.0000027131
        0.0000026106   0.0000053113   0.0000065910   0.0000024191   0.0000072968
       -0.0000020857  -0.0000016983  -0.0000079349  -0.0000002847  -0.0000081251
        0.0000013626  -0.0000021906   0.0000022664  -0.0000049719  -0.0000032839
        0.0000009343   0.0000016347  -0.0000055334  -0.0000120801   0.0000002854
        0.0000075759   0.0000063145   0.0000156857   0.0000338207  -0.0001033112
       -0.0001158488   0.0000156295   0.0000009699  -0.0000357377  -0.0001195552
       -0.0000093375   0.0000137197  -0.0000456129  -0.0001008340   0.0002968492
       -0.0002679956
       -0.0022979756   0.0000981916  -0.0065126431  -0.0100012763  -0.0644914281
       -0.0144099172  -0.0083758605   0.5259616338  -0.0144294598   0.0145761412
        0.0016421495   0.0161622751   0.0004549561  -0.0016375348   0.0007779543
       -0.0004121024   0.0007143013  -0.0007273007   0.0005737699   0.0000564411
        0.0000153680   0.0005929202  -0.0003356128  -0.0007335029   0.0007071057
       -0.0031766218   0.0011542119  -0.0001427956   0.0013875456  -0.0003402131
        0.0000753228  -0.0000007414   0.0000462901  -0.0000239673   0.0000477703
       -0.0000100147  -0.0000050028   0.0000102052   0.0000116167  -0.0000059386
       -0.0000045115   0.0000089500   0.0000081163  -0.0000230045   0.0000022068
        0.0000134485   0.0000369168   0.0000080650  -0.0000222155  -0.0000366917
        0.0000010659   0.0000321666   0.0000197533  -0.0000084207   0.0000077188
        0.0000256125   0.0000117313   0.0000077302  -0.0000104644  -0.0000049083
        0.0000025541   0.0000099069   0.0000017531   0.0000070724   0.0000002532
        0.0000026912  -0.0000004007   0.0000043302  -0.0000003445  -0.0000057194
       -0.0000040148  -0.0000004389  -0.0000106493   0.0000001671  -0.0000037623
       -0.0000585836  -0.0000042875   0.0000017667   0.0000096045  -0.0000193475
       -0.0000141016   0.0000016750   0.0000006061   0.0000041244   0.0000048781
       -0.0000064121  -0.0000039973   0.0000034406  -0.0000015678  -0.0000038810
       -0.0000014104  -0.0000024269  -0.0000005123  -0.0000065597   0.0000029680
        0.0000016319  -0.0000077411   0.0000006610   0.0000036886   0.0000077417
        0.0000255330  -0.0000092292   0.0000396538  -0.0000493605   0.0000134440
       -0.0000394217   0.0000270620  -0.0000097366   0.0000171806   0.0000000313
       -0.0000071474  -0.0000049312  -0.0000141018  -0.0000332113  -0.0000854784
       -0.0034408514  -0.0000793212  -0.0006180614  -0.0000838109   0.0009187669
       -0.0005547028   0.0000692954   0.0000035801   0.0002257329   0.0008751948
        0.0004121490  -0.0005270528  -0.0013209055  -0.0001242364  -0.0176764932
       -0.0080246420  -0.0159814531   0.0001298918   0.0002237043   0.0006408431
       -0.0005394758   0.0001511810  -0.0003276647   0.0005114460   0.0002503396
       -0.0012013529   0.1126213983  -0.1965875610   0.0360696600   0.0238194876
       -0.0514030772  -0.0315118142  -0.1129134995  -0.1988152906   0.0297960408
        0.0007506746  -0.0006817294   0.0011817295  -0.0000100364   0.0000157381
        0.0000380087   0.0000307675   0.0000448056   0.0001340242   0.0001073041
       -0.0001835571   0.0000104412  -0.0000015520  -0.0000203435   0.0000111234
       -0.0000036983  -0.0000047205   0.0000028651  -0.0000017304  -0.0000016667
        0.0000003635  -0.0000012500  -0.0000000813   0.0000001327   0.0000005214
        0.0000000088   0.0000001196   0.0000026754   0.0000003662   0.0000014773
        0.0000009203   0.0000019587   0.0000017533  -0.0000001224  -0.0000000036
        0.0000013506  -0.0000001199   0.0000019517   0.0000007991  -0.0000002049
        0.0000017762   0.0000005140   0.0000013762  -0.0000000362  -0.0000013098
       -0.0000004865  -0.0000001841  -0.0000008417   0.0000000094   0.0000003421
        0.0000005456   0.0000056517  -0.0000105351   0.0000163845  -0.0001173183
       -0.0001605791   0.0000831205  -0.0000406875  -0.0000256975  -0.0001440788
        0.0000091451  -0.0000082361  -0.0000574753  -0.0008456773  -0.0011170636
       -0.0008623368
       -0.0107701744  -0.0064741810  -0.0290511176  -0.0473448243  -0.0143574327
       -0.1294727625  -0.0397265300  -0.0144294598   0.4609053578  -0.0104573212
        0.0055259296  -0.0077143979  -0.0001123193  -0.0008775248   0.0002427709
       -0.0004927503   0.0001695061   0.0002123729   0.0000358947   0.0001187437
        0.0000528082  -0.0002911591   0.0002489518   0.0002941656   0.0011422806
        0.0006785195  -0.0011270780  -0.0004148085  -0.0003359318  -0.0001030348
        0.0000586179   0.0000672469   0.0002521682  -0.0000571258   0.0000099681
        0.0000308135  -0.0000515942   0.0000267836   0.0000235741   0.0000496600
       -0.0000008726  -0.0000080810  -0.0000403826   0.0000067745   0.0000052876
        0.0001788914  -0.0000938866   0.0001117339   0.0000112371   0.0000875783
       -0.0000955193  -0.0000697309  -0.0000755975   0.0000268457  -0.0003696341
        0.0001244132   0.0001389079   0.0001226190  -0.0000683366  -0.0000668211
        0.0000273955   0.0000842543   0.0000197655   0.0000481941  -0.0000058394
        0.0000359239  -0.0000147813   0.0000283644  -0.0000045018  -0.0000140611
       -0.0000547760  -0.0000060290  -0.0000956285   0.0000017119  -0.0000447375
        0.0004406453  -0.0002215205  -0.0000212899  -0.0004251718   0.0000960905
       -0.0001203119   0.0000838839   0.0000064256   0.0000549504   0.0000050299
       -0.0000293642  -0.0000007693   0.0000331656   0.0000071750  -0.0000373718
        0.0000046401  -0.0000070948   0.0000015560  -0.0000137274   0.0000383836
        0.0000088063  -0.0000403696  -0.0000076198   0.0000379967   0.0001334430
        0.0000666056  -0.0001041980  -0.0000169413  -0.0000695460   0.0001046672
       -0.0000666484   0.0000771372  -0.0000429021  -0.0000373102  -0.0000083055
        0.0000031498   0.0000376933  -0.0000255244  -0.0000475757   0.0013269773