$hessian                                                                        
        0.4913232179  -0.0288224764  -0.0101959392  -0.1423065882  -0.0699614105
       -0.0237362687  -0.0285674342  -0.0182143343  -0.0070023039  -0.0037667004
        0.0020567407  -0.0003197311  -0.0000687459   0.0005957453   0.0000206915
        0.0007984948   0.0021448049   0.0002004271   0.0026560807  -0.0023267740
        0.0002083744   0.0003162379   0.0003986498   0.0000140959  -0.0000996530
       -0.0000656837   0.0000130608  -0.0000303202   0.0001175068   0.0000178636
       -0.0000179927   0.0000313296  -0.0000223821   0.0000639141  -0.0001281970
       -0.0000110244  -0.0003933799   0.0003410358   0.0000233828  -0.0004639588
       -0.0008957196  -0.0001104527   0.0004463791   0.0000154600   0.0000901585
       -0.0001024542   0.0001254621  -0.0001124839   0.0000543762  -0.0000545757
        0.0000252899  -0.0000135143  -0.0000151203   0.0000032526   0.0000416371
        0.0000091626   0.0000125994  -0.0000190545   0.0000168815  -0.0000067538
       -0.0000191891  -0.0000019003   0.0000097531  -0.0000075756  -0.0000103871
       -0.0000137609   0.0000134014   0.0000030523   0.0000042222  -0.0001176676
       -0.0000206965  -0.0000392979   0.0000083118  -0.0000420798   0.0000174852
        0.0000201683   0.0000169830   0.0000280785  -0.0000018195  -0.0000099678
       -0.0000030897   0.0000041224   0.0000091974   0.0000094804   0.0000012508
        0.0000001846   0.0000001554   0.0000091557   0.0000097119  -0.0000046533
       -0.0000021740  -0.0000029022   0.0000033872  -0.0000006010  -0.0000043629
       -0.0000038838   0.0000066427   0.0000082998   0.0000016936   0.0000006188
       -0.0000017197  -0.0000058832   0.0000049574  -0.0000009813  -0.0000163156
        0.0000158594   0.0000144145   0.0000221299   0.0000156681  -0.0000023582
       -0.0000326896   0.0000002171  -0.0000063480   0.0000005822   0.0000301611
        0.0000331431  -0.0000097370   0.0000343483  -0.0000134855   0.0000014667
       -0.0000063611  -0.0000113205  -0.0000033072  -0.0000369876  -0.0000202735
        0.0000086735   0.0000053267   0.0000472287  -0.0000127284  -0.0000097186
       -0.0000602455  -0.0000006279   0.0002120101  -0.0000704667  -0.0000421852
       -0.0002068308  -0.0000292937   0.0000632342   0.0000477711  -0.0000074194
       -0.0000147011  -0.0000220735  -0.0000059873   0.0000097367   0.0000113992
        0.0000028896  -0.0000028452  -0.0000106434  -0.0000216657  -0.0000031667
        0.0000082256   0.0000012844  -0.0000014916   0.0000084369  -0.0000022594
       -0.0000012318   0.0000144170  -0.0000161012  -0.0000090111  -0.0000099079
       -0.0000238527   0.0000013494   0.0000506564   0.0000072854  -0.0000109101
        0.0000250759   0.0000762794   0.0000313248  -0.0000196176  -0.0000421760
        0.0000202275   0.0000053864   0.0000140706  -0.0000231424  -0.0000166547
       -0.0000308729   0.0000455309  -0.0000117241  -0.0000004822  -0.0000205167
       -0.0000852243  -0.0000700978  -0.0000660824   0.0000432210  -0.0000075495
       -0.0000158731   0.0000268877  -0.0000086480  -0.0000806081  -0.0001670999
       -0.0000193723   0.0000300034  -0.0000132313  -0.0000116627   0.0000715451
       -0.0000330216  -0.0000319697  -0.0000131197   0.0000118135   0.0000031984
        0.0000405091  -0.0000434302  -0.0000591320  -0.0000611743  -0.0682402031
        0.0158001618  -0.0746757925  -0.0772464165   0.0836264370  -0.0025514904
       -0.1751010867   0.0172398984   0.1182490415   0.0009141110  -0.0016872581
       -0.0002048881  -0.0010984584  -0.0009047873  -0.0002374125   0.0008674547
        0.0009312458   0.0003368994   0.0000416355  -0.0000582519   0.0000624965
       -0.0000077826   0.0000121130  -0.0000062738   0.0000069227  -0.0000043898
        0.0000002445   0.0000068344  -0.0000020295   0.0000014838  -0.0000233589
       -0.0000050783  -0.0000052778  -0.0000216008  -0.0000008839  -0.0000129898
        0.0000082489   0.0000011483   0.0000071837   0.0000047819  -0.0000004921
        0.0000003026  -0.0000259515  -0.0000000785  -0.0000017564   0.0000070726
       -0.0000001552  -0.0000001407   0.0000117461  -0.0000033580   0.0000000588
       -0.0000147477  -0.0000223594  -0.0000017598   0.0000015193   0.0000035957
        0.0000026104   0.0000007673  -0.0000050080  -0.0000131643  -0.0000050316
       -0.0000117117  -0.0000089200  -0.0000108830  -0.0000115849   0.0000007004
       -0.0000126809  -0.0000152380  -0.0000031101  -0.0000106304  -0.0000109151
        0.0000073055  -0.0000040741  -0.0000008401   0.0000044710  -0.0000080563
       -0.0000050120  -0.0000138432  -0.0000074378   0.0000037874  -0.0000029110
       -0.0000050393  -0.0000025194  -0.0000052185  -0.0000040577   0.0000028811
       -0.0000022248   0.0000027397  -0.0000094496   0.0000030113   0.0000039792
       -0.0000138239   0.0000006982   0.0000114299  -0.0000105920   0.0000006806
       -0.0000018138   0.0000013440   0.0000011936   0.0000061389   0.0000004489
       -0.0000017333   0.0000043555  -0.0000001334  -0.0000000455  -0.0000004625
       -0.0000008960   0.0000045517  -0.0000008906   0.0000069351   0.0000075508
       -0.0000028354   0.0000081527   0.0000002648  -0.0000023742  -0.0000013669
        0.0000016901   0.0000044016  -0.0000016064   0.0000014959   0.0000045423
        0.0000004348   0.0000013856  -0.0000044446   0.0000049803   0.0000056303
       -0.0000051906   0.0000068757   0.0000042146   0.0000037119   0.0000080156
        0.0000009906   0.0000248699   0.0000214801   0.0000309177   0.0000238843
        0.0000156232   0.0000297796   0.0000155409   0.0000063868   0.0000212037
        0.0000889698   0.0000289472   0.0000018197   0.0000975992   0.0000434635
       -0.0000320738   0.0000170184   0.0000043102   0.0000048804   0.0000207757
        0.0000247579  -0.0000168991   0.0000199584   0.0000387223  -0.0000172236
       -0.0288224764   0.5063661720  -0.0025156130  -0.0746359111  -0.1335334659
       -0.0235642893   0.0006940168   0.0027541472   0.0007440235   0.0014246366
       -0.0000912357  -0.0009592585  -0.0002525237   0.0001623772  -0.0000216751
        0.0027898992  -0.0035462052  -0.0017931504  -0.0204537400  -0.0287492233
       -0.0083143328  -0.0009705404  -0.0006791246  -0.0004311674  -0.0001327837
        0.0000409312   0.0000140773  -0.0000211368   0.0000150171   0.0000233991
        0.0000234995   0.0000017460  -0.0000164447  -0.0000746454  -0.0000246304
        0.0000128174  -0.0000405228  -0.0003766135   0.0000740137  -0.0002140705
       -0.0000802562   0.0001218973   0.0002410978   0.0000021386   0.0000607076
       -0.0000612917   0.0000546468  -0.0000018555   0.0000238718  -0.0000087745
        0.0000001013  -0.0000056274  -0.0000052529  -0.0000038401   0.0000322769
        0.0000047065   0.0000094130  -0.0000071048   0.0000112404  -0.0000016736
       -0.0000083575  -0.0000043776   0.0000084566  -0.0000007915  -0.0000101331
       -0.0000072706   0.0000047532   0.0000059454  -0.0000013150  -0.0000544963
       -0.0000404025  -0.0000235169  -0.0000144540  -0.0000464019   0.0000148554
       -0.0000032323   0.0000218293   0.0000215077  -0.0000004440  -0.0000023934
       -0.0000032108   0.0000047293   0.0000098651   0.0000098934  -0.0000009753
       -0.0000033794  -0.0000004698   0.0000048976   0.0000062486  -0.0000000155
       -0.0000006073  -0.0000034312   0.0000000910   0.0000001740  -0.0000015331
        0.0000021809   0.0000051723   0.0000055240   0.0000014820   0.0000003398
       -0.0000004208   0.0000009866   0.0000063963   0.0000020608  -0.0000144017
        0.0000100960   0.0000176708   0.0000137035  -0.0000049613   0.0000024193
       -0.0000294117  -0.0000281536   0.0000337800  -0.0000022048   0.0000301325
        0.0000157251  -0.0000070660   0.0000200545   0.0000035787   0.0000037391
       -0.0000075373  -0.0000135095  -0.0000009716  -0.0000081112  -0.0000147252
        0.0000054717  -0.0000015492   0.0000194115  -0.0000046506   0.0000515588
        0.0000241910  -0.0000173522   0.0000345345  -0.0000952463  -0.0000049691
       -0.0000499699  -0.0000260416   0.0000183773   0.0000028725   0.0000047304
        0.0000021648   0.0000059311   0.0000002276   0.0000012998  -0.0000132463
        0.0000007589   0.0000041706  -0.0000043017   0.0000003651   0.0000017792
        0.0000053450   0.0000078430   0.0000081765   0.0000027517   0.0000101044
       -0.0000011217  -0.0000047414   0.0000166515   0.0000074705   0.0000126334
       -0.0000043179  -0.0000000532  -0.0000245158   0.0000200360   0.0000052817
       -0.0000023124   0.0000455167  -0.0000040411  -0.0000119761   0.0000578938
        0.0000358968  -0.0000012252  -0.0000145837   0.0000041602  -0.0000028596
       -0.0000081165   0.0000198188   0.0000004770  -0.0000280361   0.0000785761
       -0.0000611702  -0.0000050278   0.0000201022  -0.0000593335   0.0000212122
        0.0000411213  -0.0000470959   0.0000293369  -0.0000197119   0.0000125661
       -0.0000704335   0.0000048744  -0.0000072346   0.0000194930  -0.0000485244
        0.0000046644   0.0000157304  -0.0000213906   0.0000043711  -0.0000053062
       -0.0000117005  -0.0000058126   0.0000515439  -0.0000101563   0.0175727067
       -0.0489100152   0.0394978535   0.0841101306  -0.2500036581   0.0099450822
        0.0184938521  -0.0455482975  -0.0138278228   0.0016372531   0.0011599303
        0.0005593419   0.0004035443   0.0002232813  -0.0000334840  -0.0015192195
        0.0009455322   0.0004061102  -0.0000046992  -0.0000237517  -0.0000057469
       -0.0000150287   0.0000117847  -0.0000067865   0.0000030756  -0.0000014789
        0.0000019554   0.0000030736  -0.0000021031   0.0000009789  -0.0000148900
       -0.0000029816  -0.0000023590  -0.0000128215   0.0000006577  -0.0000085131
        0.0000019699   0.0000028356   0.0000011637   0.0000014068  -0.0000004943
        0.0000010138  -0.0000148780   0.0000027233   0.0000004631   0.0000009418
       -0.0000009300   0.0000006652   0.0000025286   0.0000024462  -0.0000015995
       -0.0000094251  -0.0000111232  -0.0000003256   0.0000017902   0.0000004188
        0.0000056753  -0.0000006255  -0.0000067465  -0.0000095349  -0.0000060151
       -0.0000107415  -0.0000049081  -0.0000097113  -0.0000117536   0.0000018998
       -0.0000107975  -0.0000131627   0.0000006458  -0.0000094944  -0.0000082424
        0.0000076765  -0.0000048828  -0.0000019126   0.0000063190  -0.0000019780
       -0.0000112240  -0.0000123111  -0.0000088095  -0.0000028690   0.0000011370
       -0.0000069032  -0.0000055076  -0.0000029805  -0.0000045988   0.0000018665
        0.0000019379   0.0000008238  -0.0000095432   0.0000054507  -0.0000002398
       -0.0000161423   0.0000035197   0.0000073058  -0.0000098517   0.0000015052
        0.0000013021  -0.0000141840  -0.0000037817   0.0000061197  -0.0000151953
       -0.0000050685   0.0000100601  -0.0000047090  -0.0000074540  -0.0000025284
       -0.0000032586   0.0000001735  -0.0000011506  -0.0000021539  -0.0000020144
       -0.0000001977  -0.0000023798   0.0000014178  -0.0000030653  -0.0000024079
       -0.0000001702   0.0000117907  -0.0000061775  -0.0000001418   0.0000103628
       -0.0000048465  -0.0000038220  -0.0000033683  -0.0000097006  -0.0000040107
       -0.0000013700  -0.0000093999   0.0000002097  -0.0000048866  -0.0000114409
       -0.0000007860   0.0000107999   0.0000105646   0.0000005060  -0.0000017630
        0.0000000797  -0.0000253601   0.0000215639   0.0000161950  -0.0000558355
        0.0000072117  -0.0000304913  -0.0000164145   0.0000033638  -0.0000183532
        0.0000017623   0.0000141240  -0.0000114438   0.0000307682   0.0000013520
       -0.0000125145   0.0000166240   0.0000029850   0.0000026548   0.0000001129
       -0.0101959392  -0.0025156130   0.4858285408  -0.0229371743  -0.0207289027
       -0.0652898225  -0.0020603682  -0.0010675373   0.0012479562  -0.0003631482
       -0.0013215496   0.0060502153  -0.0000036004   0.0004751358   0.0002255922
        0.0001281682  -0.0012837944   0.0063544889  -0.0035071542  -0.0066057564
       -0.0017373111  -0.0002117790  -0.0003974987   0.0003699194  -0.0000970401
        0.0000932887  -0.0000041345  -0.0000806267  -0.0000121219  -0.0000432308
        0.0000507319  -0.0000013420   0.0000118484  -0.0000031910   0.0000263886
       -0.0000187961  -0.0000143499  -0.0000797494  -0.0003546588  -0.0004087093
       -0.0002119601  -0.0009652496   0.0003624245  -0.0000338990  -0.0000446823
        0.0000287572   0.0001170201  -0.0000271108  -0.0000250797  -0.0000287408
        0.0000512156  -0.0000012179   0.0000444866  -0.0000033246   0.0000245995
        0.0000035799  -0.0000125182  -0.0000092148   0.0000087772  -0.0000060352
       -0.0000137617  -0.0000018113   0.0000028734  -0.0000043234  -0.0000057659
       -0.0000093431   0.0000483060  -0.0000116726   0.0000367138  -0.0001064868
       -0.0000511232  -0.0000048264  -0.0000161476  -0.0000337447  -0.0000297634
       -0.0000091273   0.0000102251   0.0000212242  -0.0000008323  -0.0000068444
       -0.0000026075   0.0000042506   0.0000052656   0.0000059158  -0.0000002455
        0.0000010880  -0.0000009151   0.0000042566   0.0000009307  -0.0000000519
        0.0000018190  -0.0000021670  -0.0000023410  -0.0000020149  -0.0000026191
       -0.0000021479   0.0000061009   0.0000077025  -0.0000023955  -0.0000037250
       -0.0000024364  -0.0000042150  -0.0000002616  -0.0000003073  -0.0000092272
       -0.0000062729  -0.0000048010   0.0000088395   0.0000293037   0.0000136315
       -0.0000318488  -0.0000114324   0.0000131353  -0.0000055274   0.0000201067
        0.0000076544  -0.0000045858   0.0000136670   0.0000017785  -0.0000002009
       -0.0000039092  -0.0000088365  -0.0000034480  -0.0000091405  -0.0000061011
        0.0000009285  -0.0000045519   0.0000118965  -0.0000008644   0.0000259068
        0.0000051594   0.0000029770   0.0000476728  -0.0000669376   0.0000063614
       -0.0000441872  -0.0000102460   0.0000179536   0.0000089983   0.0000008950
       -0.0000057352   0.0000015717   0.0000059071   0.0000017380  -0.0000023510
       -0.0000000714   0.0000028985  -0.0000016081   0.0000049940  -0.0000050249
       -0.0000004130   0.0000093189  -0.0000032165   0.0000004102   0.0000056224
       -0.0000088565  -0.0000048793   0.0000151970  -0.0000084863  -0.0000014241
       -0.0000016424  -0.0000028101   0.0000043804   0.0000008624   0.0000133216
        0.0000121427   0.0000361631  -0.0000066123   0.0000066741  -0.0000167866
       -0.0000017358   0.0000031849   0.0000165092  -0.0000046432   0.0000428289
        0.0000285411   0.0000184498  -0.0000092226   0.0000422107  -0.0000174922
       -0.0000818546   0.0000075612  -0.0000274831  -0.0000010998  -0.0000255451
       -0.0000364168  -0.0000188336  -0.0000015148  -0.0000158581  -0.0000687815
       -0.0000104951  -0.0000068910   0.0000169909   0.0000037727  -0.0000212737
        0.0000040959   0.0000043190  -0.0000116722   0.0000084931   0.0000077579
       -0.0000311160  -0.0000212616  -0.0000220942   0.0000021325  -0.0775802988
        0.0365605319  -0.2394894821  -0.0028600602   0.0095206882  -0.0440579333
        0.1193133852  -0.0134838435  -0.1438485624   0.0004623904   0.0006113177
       -0.0019783550  -0.0000770728  -0.0001304109   0.0000416866   0.0001291504
        0.0006441303  -0.0022795288   0.0000029362  -0.0000294271  -0.0000198629
       -0.0000082702   0.0000083661  -0.0000005066   0.0000025748  -0.0000012661
        0.0000016948   0.0000036459  -0.0000024495   0.0000032245  -0.0000103579
       -0.0000014938  -0.0000012086  -0.0000103829  -0.0000002385  -0.0000048393
        0.0000029604   0.0000007545   0.0000028141   0.0000011561  -0.0000015075
        0.0000033140  -0.0000107149   0.0000006249   0.0000010810   0.0000023383
       -0.0000003834   0.0000046331   0.0000043669  -0.0000001230  -0.0000006602
       -0.0000055029  -0.0000098297  -0.0000027372  -0.0000016325   0.0000009494
        0.0000036820  -0.0000009835  -0.0000032405  -0.0000030347  -0.0000031328
       -0.0000054563  -0.0000013507  -0.0000063459  -0.0000058088   0.0000025004
       -0.0000036923  -0.0000034461   0.0000020302  -0.0000018489  -0.0000019088
        0.0000056715  -0.0000008289   0.0000010151   0.0000073723   0.0000058317
        0.0000038616  -0.0000066265  -0.0000040883   0.0000001612   0.0000004896
       -0.0000023544  -0.0000009085  -0.0000015157  -0.0000024506   0.0000021144
        0.0000010291   0.0000014625  -0.0000028611   0.0000036832   0.0000006665
       -0.0000065815   0.0000017805   0.0000044026  -0.0000057488   0.0000010019
       -0.0000039337  -0.0000037271  -0.0000001869   0.0000004060  -0.0000064376
       -0.0000012050   0.0000041238  -0.0000033125  -0.0000015370  -0.0000007721
       -0.0000049617   0.0000031038   0.0000001346  -0.0000003161   0.0000011951
        0.0000001313  -0.0000026128   0.0000038890  -0.0000004390  -0.0000029615
        0.0000054959   0.0000050504  -0.0000033354   0.0000012611   0.0000037724
       -0.0000039235   0.0000019175   0.0000006712  -0.0000049140   0.0000061063
        0.0000001664  -0.0000131408  -0.0000004233   0.0000015781  -0.0000100215
        0.0000020726   0.0000039647  -0.0000131592   0.0000186776   0.0000017671
       -0.0000150211   0.0000160699  -0.0000143696  -0.0000294482   0.0000151535
        0.0000472411  -0.0000166325  -0.0000027453   0.0000470772  -0.0000007350
        0.0000458235   0.0000085682   0.0000044415   0.0000230402   0.0000052528
        0.0000069664   0.0000140283   0.0000032604   0.0000109232   0.0000111815
       -0.1423065882  -0.0746359111  -0.0229371743   0.6336314703  -0.0215257747
        0.0407466224  -0.2900851073   0.0960419548   0.0025822174  -0.0592709089
       -0.0544647414  -0.0162655534  -0.0238055707   0.0333431921   0.0060570616
        0.0426187851   0.0018596205   0.0036019962  -0.1057676334   0.0214392107
       -0.0032759688  -0.0021123495  -0.0119733606  -0.0032122888  -0.0011962842
        0.0037469509   0.0001483635  -0.0011918206  -0.0026270166  -0.0000961333
        0.0018096167  -0.0005588268   0.0000745788  -0.0006954983   0.0016228839
        0.0002921159   0.0030761477  -0.0016617724   0.0010821560  -0.0026623001
       -0.0000955288  -0.0006390825   0.0002434629   0.0003870294  -0.0002706482
       -0.0001028581   0.0000696149  -0.0000355676   0.0000189138  -0.0001843792
       -0.0000352504   0.0000344375  -0.0000626237  -0.0000039677   0.0000278281
        0.0000201516   0.0000439924  -0.0000219124   0.0000060563  -0.0000030410
       -0.0000249940  -0.0000080817   0.0000122937  -0.0000205921  -0.0000186225
       -0.0000199676  -0.0000560949   0.0000833066  -0.0000667101   0.0001174596
        0.0004029834  -0.0000823993  -0.0001341751  -0.0002600339   0.0000414056
        0.0000665751  -0.0000910001  -0.0000048590   0.0000094253  -0.0000356894
       -0.0000094884   0.0000000661  -0.0000017706  -0.0000062259   0.0000082265
        0.0000061696   0.0000120574   0.0000057310  -0.0000031410  -0.0000007694
       -0.0000007185  -0.0000108057  -0.0000059732   0.0000008429  -0.0000038691
        0.0000234887   0.0000010072   0.0000044959   0.0000031170   0.0000086031
        0.0000011341  -0.0000169571   0.0000029473   0.0000089611  -0.0000010546
        0.0000130897  -0.0000123510   0.0000305530   0.0000456681  -0.0000542139
        0.0000401661   0.0001144471   0.0004615571  -0.0001399784  -0.0002611002
       -0.0003735379   0.0000962778  -0.0004207381   0.0002649702  -0.0000365174
        0.0000333222   0.0000389359   0.0000222905   0.0005024513   0.0001485249
       -0.0000855652  -0.0000446891  -0.0004874572   0.0000951937   0.0003093670
        0.0005899562  -0.0001170466  -0.0006103655   0.0000157685   0.0002112407
        0.0003877901   0.0000582348  -0.0000610833  -0.0000604008  -0.0000026009
        0.0000269740  -0.0000017115  -0.0000666868  -0.0000254235   0.0000319344
        0.0000391152   0.0000052445   0.0000217870   0.0000142580  -0.0000064573
       -0.0000385992  -0.0000134086  -0.0000043565  -0.0000323356  -0.0000179235
        0.0000163896  -0.0000338100   0.0000006585   0.0000074598   0.0000578131
        0.0000709358   0.0000138077  -0.0000397298  -0.0000962549   0.0000180687
       -0.0001200449  -0.0002564798  -0.0001221375  -0.0002553265   0.0002058831
        0.0000806936  -0.0001021626   0.0000401640  -0.0002050581  -0.0000969428
       -0.0001324657  -0.0000019778   0.0001289067   0.0000382221   0.0001304991
        0.0000488521   0.0002175421  -0.0001583190  -0.0002791558   0.0002005317
        0.0001291450  -0.0002265260   0.0001798613   0.0000048246   0.0001209752
        0.0001005365   0.0001806867   0.0000761092   0.0000753823  -0.0000724093
       -0.0000817075  -0.0000978048  -0.0000155347  -0.0000788923  -0.0000813890
        0.0001333125  -0.0002260873   0.0000737976   0.0001527580  -0.0135260651
       -0.0098366430  -0.0082168368   0.0071465137   0.0045182082   0.0014655079
       -0.0239795820  -0.0162948763  -0.0036520582  -0.0087407589   0.0050415434
       -0.0006749269  -0.0016703460  -0.0029488818  -0.0014294085  -0.0102605686
        0.0277198380   0.0043616128   0.0000296855  -0.0002516377   0.0001480174
        0.0000055708  -0.0000130976   0.0000039013   0.0000024933   0.0000025774
       -0.0000009573   0.0000035887   0.0000079306  -0.0000013903  -0.0000159573
       -0.0000040579  -0.0000018916  -0.0000179466   0.0000020159  -0.0000133413
        0.0000047385  -0.0000070847   0.0000106969   0.0000003188   0.0000026518
        0.0000025381  -0.0000262643   0.0000052191   0.0000012538   0.0000080275
        0.0000061886  -0.0000082638   0.0000113555  -0.0000140115   0.0000009490
       -0.0000068358   0.0000053742   0.0000057612  -0.0000056636   0.0000075077
       -0.0000158779  -0.0000063287  -0.0000002103  -0.0000012103   0.0000023895
        0.0000008597   0.0000026042  -0.0000028100   0.0000083812  -0.0000058069
       -0.0000031260   0.0000060691   0.0000041487   0.0000033306   0.0000067637
        0.0000019290  -0.0000069592   0.0000016582  -0.0000031573  -0.0000247400
        0.0000002743  -0.0000006050   0.0000074133   0.0000199231  -0.0000070257
        0.0000248952   0.0000263768   0.0000211710   0.0000159360  -0.0000069722
       -0.0000210135  -0.0000045986   0.0000203285  -0.0000140702  -0.0000088606
        0.0000461411  -0.0000016652  -0.0000312126   0.0000187957  -0.0000006601
        0.0000137117   0.0000195616   0.0000074860  -0.0000139319   0.0000363317
        0.0000105324  -0.0000190718   0.0000018454   0.0000118816   0.0000109086
        0.0000013756  -0.0000081772   0.0000108179  -0.0000021568  -0.0000055919
        0.0000125519  -0.0000021867  -0.0000013359   0.0000137376   0.0000011313
        0.0000009634  -0.0000217091   0.0000051553   0.0000012666  -0.0000187975
        0.0000079878   0.0000065116   0.0000209251   0.0000048844   0.0000055912
        0.0000169267   0.0000084545  -0.0000113523   0.0000295201  -0.0000248492
       -0.0000171657   0.0000236849  -0.0000033554  -0.0000043910   0.0000151508
       -0.0000210868   0.0000353507  -0.0000138937  -0.0000456089   0.0000464233
       -0.0000598595  -0.0000423036  -0.0000084839  -0.0000609725  -0.0000203260
       -0.0000159488  -0.0000193383  -0.0000032051  -0.0000526089   0.0000005400
        0.0000120781  -0.0000437697   0.0000231388   0.0000060913   0.0000067873
       -0.0699614105  -0.1335334659  -0.0207289027  -0.0215257747   0.6203866675
        0.0952460394   0.0173224443  -0.1049976939  -0.0122026376   0.0010094456
        0.0472524381   0.0105502333   0.0266816865  -0.0295669432  -0.0028222928
       -0.0522208008  -0.0635815928  -0.0170078056   0.0967541676  -0.2990257517
       -0.0382617119  -0.0032640844   0.0120386316   0.0002231103   0.0018362379
       -0.0053773239  -0.0001968233   0.0022665922   0.0031876600   0.0003122819
       -0.0026974994   0.0009844318  -0.0000386155   0.0003025772  -0.0025922694
       -0.0001745131  -0.0040182322   0.0015533589  -0.0014316867   0.0043147518
       -0.0009123921   0.0013789646  -0.0018435248  -0.0001932933  -0.0000727593
        0.0004485329  -0.0002684254  -0.0000589850  -0.0002601751   0.0000620096
       -0.0000570908   0.0000250969   0.0000661663   0.0000289258  -0.0000451739
       -0.0000460267  -0.0000365997   0.0000512268  -0.0000207274   0.0000154046
        0.0000674259   0.0000200658  -0.0000079637   0.0000649128   0.0000311633
        0.0000307741  -0.0001804030  -0.0000292764  -0.0000255131   0.0003288314
        0.0000107766   0.0002038701   0.0001066217   0.0002619260  -0.0000982824
       -0.0001159265  -0.0000127598  -0.0000620797   0.0000402683   0.0000857252
        0.0000130026   0.0000069278  -0.0000079097  -0.0000113288  -0.0000138870
       -0.0000218400  -0.0000214584  -0.0000203636  -0.0000190825   0.0000225150
        0.0000096732   0.0000182368  -0.0000062491   0.0000164924   0.0000193878
       -0.0000177384  -0.0000079123  -0.0000208605  -0.0000059307  -0.0000142585
       -0.0000046547   0.0000270335   0.0000008473  -0.0000019624   0.0000215395
        0.0000265120   0.0000552412  -0.0000582606  -0.0000773132   0.0000138107
        0.0000690415  -0.0000787505  -0.0005023397   0.0001273452   0.0001275149
        0.0003438230  -0.0000741442   0.0002803255  -0.0002704637   0.0000359028
       -0.0000162666  -0.0000060918  -0.0000100638  -0.0003902198  -0.0001278890
        0.0000735096   0.0001031436   0.0003640263  -0.0000847464  -0.0003086569
       -0.0003661004   0.0001054448   0.0002912920   0.0001053088  -0.0001617680
       -0.0001544845  -0.0000004436  -0.0000017829  -0.0000082437   0.0000163106
        0.0000029110   0.0000199644   0.0000340673   0.0000046004  -0.0000207712
       -0.0000226602  -0.0000021862  -0.0000210805  -0.0000158178   0.0000057317
        0.0000067708  -0.0000004376   0.0000027456   0.0000023657   0.0000041366
       -0.0000096737  -0.0000033313  -0.0000209693  -0.0000047664  -0.0000469291
        0.0000232066  -0.0000046465   0.0000354383  -0.0000638836  -0.0000289933
       -0.0000433836   0.0001218276  -0.0000295024   0.0001138535  -0.0000145954
       -0.0000547467  -0.0000861643  -0.0000588991  -0.0000419530  -0.0000481603
        0.0000172469  -0.0000155942   0.0000187254   0.0000176678  -0.0000007010
        0.0000464995  -0.0000339354   0.0000218224   0.0000616314   0.0000896531
        0.0000265186   0.0000256533   0.0000921919   0.0000431624   0.0000262355
       -0.0000290783  -0.0000429941   0.0000026837   0.0000045813  -0.0000177841
       -0.0000445133  -0.0000127919  -0.0000003049  -0.0000286114  -0.0000399255
        0.0000219331   0.0000953335   0.0000273503   0.0000446578  -0.0019708494
        0.0021229987  -0.0032947182  -0.0186188368  -0.0248127243  -0.0072852065
       -0.0036327107   0.0006989238   0.0007815492   0.0270366517  -0.0122373079
       -0.0001779790  -0.0038221833  -0.0014438219  -0.0021824339   0.0056857338
       -0.0098109926  -0.0024938033  -0.0001678099   0.0000661819  -0.0000748788
        0.0000284342  -0.0000372980   0.0000177081  -0.0000158135   0.0000024295
       -0.0000020744  -0.0000156848  -0.0000014589  -0.0000005554   0.0000288329
        0.0000056732   0.0000062481   0.0000330780  -0.0000025124   0.0000241797
       -0.0000197170   0.0000051436  -0.0000179795  -0.0000157815   0.0000021723
       -0.0000036872   0.0000449015  -0.0000077328  -0.0000021163  -0.0000191388
       -0.0000011454   0.0000010739  -0.0000264460   0.0000120797  -0.0000017878
        0.0000270917   0.0000188265  -0.0000145905  -0.0000119279  -0.0000254287
        0.0000213310  -0.0000004169  -0.0000005052   0.0000141978   0.0000018962
        0.0000056110   0.0000072061   0.0000114248  -0.0000003123  -0.0000028414
        0.0000114408   0.0000087542   0.0000029404   0.0000048344   0.0000030887
       -0.0000071923   0.0000017951  -0.0000074507  -0.0000047932  -0.0000019733
       -0.0000307158  -0.0000021446   0.0000103620  -0.0000172764   0.0000016737
       -0.0000062885  -0.0000136109  -0.0000044521  -0.0000003763  -0.0000017804
        0.0000097840  -0.0000022409  -0.0000039752   0.0000009282   0.0000015184
       -0.0000122809  -0.0000004736   0.0000009871  -0.0000000178  -0.0000034319
        0.0000053536  -0.0000060918  -0.0000047005   0.0000105886  -0.0000135810
       -0.0000017584   0.0000089888   0.0000011611  -0.0000064023   0.0000047821
        0.0000005677   0.0000029317  -0.0000022344  -0.0000052985   0.0000036861
       -0.0000037786  -0.0000040050  -0.0000014323   0.0000019171   0.0000032401
        0.0000017668   0.0000122450  -0.0000005307   0.0000036673   0.0000102719
        0.0000063802  -0.0000006330  -0.0000004209   0.0000102723  -0.0000021287
        0.0000052203   0.0000050296   0.0000078121   0.0000121273  -0.0000023371
        0.0000038027  -0.0000014708  -0.0000133185   0.0000182341   0.0000077673
        0.0000134644  -0.0000029678   0.0000080597   0.0000004296   0.0000213446
       -0.0000252940  -0.0000022533  -0.0000019930  -0.0000236928   0.0000106132
       -0.0000063465   0.0000039442   0.0000124326  -0.0000072345   0.0000112431
        0.0000071128   0.0000038757   0.0000011994   0.0000046568  -0.0000106452
       -0.0237362687  -0.0235642893  -0.0652898225   0.0407466224   0.0952460394
        0.1653123054  -0.0165634521  -0.0050645183  -0.0515341807  -0.0041906740
        0.0063786507   0.0011479051   0.0032214907  -0.0028674601  -0.0060154366
       -0.0057151808  -0.0129758024  -0.0030487816   0.0121074960  -0.0467855469
       -0.0551132569  -0.0018167360   0.0008447858   0.0066067589   0.0003518198
       -0.0007847010   0.0001380878   0.0003601931   0.0004852180  -0.0005675822
       -0.0004475096   0.0001235211   0.0000085917  -0.0000211184  -0.0004272588
       -0.0004199460  -0.0006910300  -0.0001070208  -0.0000018756   0.0010248133
        0.0002680536   0.0003132059  -0.0004131955   0.0000493522  -0.0001651784