$hessian                                                                        
        0.4909870107  -0.0328992998  -0.0027370228  -0.1498407372  -0.0698375308
        0.0250564102  -0.0310555394  -0.0162641257   0.0072247042  -0.0032943590
        0.0037024537   0.0001537076  -0.0014578000  -0.0012020408   0.0005405505
        0.0020949890   0.0020232765   0.0007245705   0.0009153970  -0.0046284780
        0.0015974487   0.0005095420  -0.0004460658   0.0000590543  -0.0004626374
        0.0003780658  -0.0000273341  -0.0001996098   0.0000197763   0.0000605779
        0.0001562662   0.0001504358   0.0000195434   0.0003525709   0.0005130574
       -0.0000540203  -0.0002908371  -0.0008210309  -0.0000792808   0.0005554828
        0.0011263286  -0.0003517984   0.0001235873  -0.0000307720  -0.0000929641
       -0.0000171973   0.0000723547   0.0000674915   0.0000296950  -0.0000072984
       -0.0000169010   0.0000008476  -0.0000103099  -0.0000116162   0.0000298351
        0.0000039680  -0.0000060242  -0.0000044642  -0.0000027156   0.0000050983
       -0.0000085967   0.0000185833  -0.0000120901   0.0000102797   0.0000179050
        0.0000123612  -0.0000193963  -0.0000052359   0.0000023011   0.0000373406
        0.0000023112  -0.0000005275  -0.0000928719  -0.0000721422  -0.0000080419
        0.0000420655   0.0000351467   0.0000552561   0.0000097677   0.0000229032
       -0.0000079688   0.0000132732   0.0000088301   0.0000128361  -0.0000003372
        0.0000066515  -0.0000038932  -0.0000052979  -0.0000034662   0.0000009951
        0.0000002942   0.0000057824  -0.0000225267  -0.0000049505  -0.0000024903
        0.0000234301  -0.0000017184   0.0000033830   0.0000036122  -0.0000037059
        0.0000027778  -0.0000017418   0.0000049109   0.0000085285   0.0000010663
       -0.0000128278   0.0000067577   0.0000040739   0.0000257074   0.0000694726
       -0.0000278082   0.0002400770  -0.0002052209   0.0000370727   0.0000799051
       -0.0002053905  -0.0000252254   0.0001507370   0.0001915850   0.0000485193
       -0.0000910848  -0.0000834884   0.0000257108  -0.0001358452   0.0002010873
        0.0000033645  -0.0000982550   0.0000423834  -0.0000065317  -0.0003033354
        0.0000041846  -0.0000412754  -0.0000784768  -0.0000416624  -0.0001596248
        0.0004907909   0.0000349775   0.0001651156  -0.0002005401   0.0002431412
       -0.0000722786   0.0002406920   0.0002140303   0.0000370376  -0.0001743615
       -0.0001454782  -0.0000111131   0.0000183896   0.0000379230  -0.0000009526
        0.0000417178  -0.0000321326   0.0000317933   0.0000332978   0.0000032529
        0.0000119916   0.0000356528  -0.0000314011   0.0000116084   0.0000148004
       -0.0001111149   0.0000631703  -0.0000788240  -0.0003748158   0.0000311704
        0.0002052152   0.0002475963  -0.0001432423  -0.0002497206  -0.0002693564
       -0.0000639329  -0.0000449356   0.0000412304   0.0002261562  -0.0000076942
       -0.0000583099  -0.0001461454   0.0000681621   0.0001410837   0.0001638864
        0.0000820932  -0.0000663592  -0.0003604406   0.0000047163   0.0002050417
        0.0006099095   0.0001044597  -0.0002492336  -0.0007616309  -0.0000101244
        0.0002252281   0.0003259026   0.0000700227   0.0000772496  -0.0001254654
       -0.0000675214   0.0000584504   0.0002072738  -0.0000410289  -0.0001147662
       -0.0002206199  -0.0002950809  -0.0002062367   0.0002075348  -0.0691461498
       -0.0302834885  -0.0689525031  -0.0696036787   0.0613417087  -0.0449186117
       -0.1713663744   0.0886519004   0.0828090946   0.0008515364  -0.0016829442
       -0.0000335464  -0.0011355533  -0.0008422110   0.0002807912   0.0009973988
        0.0011881170  -0.0012256437   0.0000152388  -0.0000321856  -0.0000513856
       -0.0000071111  -0.0000039207   0.0000051978  -0.0000037677  -0.0000122656
        0.0000031508   0.0000057482   0.0000023799  -0.0000012148  -0.0000210410
       -0.0000003175   0.0000069169  -0.0000215703  -0.0000129171   0.0000038222
       -0.0000037473  -0.0000098388   0.0000065574  -0.0000011488  -0.0000043045
        0.0000058659   0.0000101352  -0.0000070499  -0.0000019602  -0.0000048495
       -0.0000096841   0.0000095347  -0.0000214727  -0.0000104580  -0.0000028628
       -0.0000105047  -0.0000227934   0.0000026145  -0.0000085684  -0.0000143527
        0.0000164957  -0.0000019674  -0.0000051299  -0.0000065373  -0.0000097318
       -0.0000120707  -0.0000043677  -0.0000106107  -0.0000098251  -0.0000058615
       -0.0000093092  -0.0000099692  -0.0000035414  -0.0000044834  -0.0000130672
        0.0000062229   0.0000054817  -0.0000131521   0.0000092860   0.0000020139
        0.0000006395  -0.0000037731   0.0000024763  -0.0000091864  -0.0000179112
       -0.0000007034   0.0000030095  -0.0000302177   0.0000032647  -0.0000112149
       -0.0000244175  -0.0000178601  -0.0000055396  -0.0000060477   0.0000043396
       -0.0000192568  -0.0000090339   0.0000064405  -0.0000138322   0.0000111665
       -0.0000080611   0.0000010841  -0.0000068324   0.0000167594  -0.0000096356
        0.0000011663   0.0000187758   0.0000114743  -0.0000112628  -0.0000214858
       -0.0000037377  -0.0000085581  -0.0000208854   0.0000140101   0.0000026468
       -0.0000122426  -0.0000029109   0.0000014820  -0.0000016974   0.0000020897
       -0.0000128785   0.0000117554   0.0000000981   0.0000020750   0.0000104180
        0.0000144671   0.0000038246  -0.0000016997  -0.0000038801  -0.0000146612
       -0.0000167330  -0.0000073389  -0.0000094458   0.0000121282   0.0000133484
       -0.0000087209   0.0000159640   0.0000093354   0.0000108135   0.0000245728
        0.0000084107  -0.0000026305   0.0000221257   0.0000051860  -0.0000116401
        0.0000757960   0.0000310456  -0.0000099333   0.0001440806   0.0000103625
       -0.0000373091   0.0000401296   0.0000248971   0.0000302564   0.0000354734
        0.0000152588  -0.0000097479   0.0000310760   0.0000104303  -0.0000181923
       -0.0328992998   0.4998812241  -0.0052159746  -0.0689523860  -0.1243551157
        0.0211891826   0.0008535059   0.0049411660   0.0001344199   0.0024975692
        0.0010658257   0.0011243449  -0.0011469635  -0.0011655819   0.0004739546
        0.0031779294  -0.0037038489   0.0012692587  -0.0217180923  -0.0278964270
        0.0082352403  -0.0006136073  -0.0010393273   0.0005188791  -0.0005950757
        0.0004449435  -0.0000384334  -0.0000926427   0.0000016395   0.0000194617
        0.0000388581   0.0002174424   0.0000218919   0.0002466751   0.0003812588
       -0.0000069619  -0.0002502029  -0.0011291005  -0.0000580636   0.0003090575
        0.0010044168  -0.0003998353   0.0002060988  -0.0000429089  -0.0000901990
       -0.0000458968   0.0000276852  -0.0000333633   0.0000204412   0.0000136884
       -0.0000139850   0.0000077390   0.0000268548  -0.0000039872   0.0000347808
       -0.0000054636  -0.0000087452  -0.0000102949  -0.0000038730   0.0000079394
       -0.0000125765   0.0000270022  -0.0000076647   0.0000008308   0.0000106877
        0.0000152854   0.0000302902  -0.0000075304  -0.0000035048   0.0000052928
       -0.0000505027   0.0000238948  -0.0001289266  -0.0000741969  -0.0000484659
        0.0000918508   0.0001245509  -0.0000014638   0.0000255837   0.0000141424
        0.0001012712   0.0000058601   0.0000273808  -0.0000549154  -0.0000265691
       -0.0000438658   0.0000578551  -0.0000572532  -0.0000072319  -0.0001327621
        0.0000174248  -0.0000728957   0.0002202880  -0.0000370162   0.0000698150
       -0.0002255882  -0.0000294409  -0.0000767575   0.0001173938  -0.0000425749
       -0.0000120609  -0.0000740462   0.0000139909  -0.0000173071   0.0000623493
       -0.0000016410   0.0000546515  -0.0000928989   0.0000925430   0.0001074136
        0.0000685817   0.0002265304  -0.0002269126   0.0000360507   0.0000919234
       -0.0001651364  -0.0000220234   0.0002045127   0.0001505107   0.0000390307
       -0.0000851133  -0.0000859216   0.0000211094  -0.0002132867   0.0001590672
       -0.0000234104  -0.0000686754   0.0001341812   0.0000177205  -0.0003456150
       -0.0000837314  -0.0000382421  -0.0000656215   0.0000140974  -0.0001414279
        0.0004357973   0.0000313475   0.0001562544  -0.0001831628   0.0002129201
       -0.0000633274   0.0002279295   0.0001960225   0.0000345967  -0.0001674640
       -0.0001208728  -0.0000097713   0.0000146374   0.0000417686  -0.0000067206
        0.0000276040   0.0000065363   0.0000163534   0.0000211397   0.0000267409
        0.0000042126   0.0000263649  -0.0000014702  -0.0000081010   0.0000351909
       -0.0000931272   0.0000427034  -0.0000964841  -0.0003079328   0.0000061815
        0.0001898931   0.0002636377  -0.0001145362  -0.0001071894  -0.0000555584
        0.0000896109   0.0000040675   0.0000193073   0.0000474092   0.0000178334
        0.0000086334  -0.0000322952   0.0000225800   0.0000584702   0.0000532175
       -0.0000623048   0.0000394198  -0.0000672309  -0.0000751885   0.0000585485
        0.0001339612  -0.0000599982  -0.0000247811  -0.0001391362  -0.0000656150
        0.0000317612   0.0000267617   0.0000366372   0.0000125066  -0.0000836783
        0.0000113273   0.0000186355  -0.0000016777   0.0000113235  -0.0000209551
       -0.0000675022  -0.0001009841  -0.0000590544  -0.0000176547  -0.0307805678
       -0.0752902006  -0.0758421521   0.0604316804  -0.1728568963   0.1039278449
        0.0893829882  -0.1023459197  -0.0535023756   0.0011736582   0.0008945320
       -0.0011840543   0.0005517469   0.0002133942  -0.0002280997  -0.0017229342
        0.0007833650  -0.0002570522  -0.0000082222  -0.0000049018   0.0000277255
       -0.0000248788   0.0000055195   0.0000140125  -0.0000043240  -0.0000166996
        0.0000028278   0.0000035454   0.0000056266   0.0000001306  -0.0000127815
       -0.0000003958   0.0000045913  -0.0000148932  -0.0000160319   0.0000003520
       -0.0000013397  -0.0000063246   0.0000048430  -0.0000024961  -0.0000052430
        0.0000019525   0.0000151865  -0.0000080399  -0.0000011393  -0.0000025177
       -0.0000068238   0.0000119413  -0.0000152065  -0.0000115943  -0.0000060738
       -0.0000016575  -0.0000144593   0.0000013779  -0.0000002673  -0.0000141111
        0.0000143230   0.0000008546   0.0000024162  -0.0000066026  -0.0000204193
       -0.0000144463  -0.0000047525  -0.0000080480  -0.0000070433  -0.0000083915
       -0.0000067921  -0.0000076262  -0.0000102859  -0.0000133840  -0.0000187683
        0.0000131035   0.0000054301  -0.0000144729   0.0000052800   0.0000051205
        0.0000071705  -0.0000034098  -0.0000154632  -0.0000111617  -0.0000137454
       -0.0000033851  -0.0000010627  -0.0000292030  -0.0000006180  -0.0000026855
       -0.0000219463  -0.0000242177  -0.0000129159  -0.0000057319  -0.0000030090
       -0.0000256192  -0.0000072989   0.0000084688  -0.0000147651   0.0000119424
       -0.0000081909  -0.0000065758  -0.0000068402   0.0000114720  -0.0000211408
        0.0000065243   0.0000274525   0.0000008003  -0.0000069010  -0.0000193277
       -0.0000212503   0.0000087148  -0.0000150201   0.0000006024   0.0000009715
       -0.0000099455  -0.0000141991  -0.0000022373  -0.0000019968  -0.0000112487
       -0.0000037618   0.0000227648  -0.0000089921   0.0000074169   0.0000195971
        0.0000049758   0.0000097702  -0.0000043551  -0.0000068503  -0.0000023259
       -0.0000164497  -0.0000212127  -0.0000023707   0.0000095467  -0.0000084265
        0.0000056163   0.0000093921  -0.0000070230   0.0000071735   0.0000105549
       -0.0000175933  -0.0000236601   0.0000226755  -0.0000222377  -0.0000475271
        0.0000548495  -0.0000239373  -0.0000142675   0.0000345562   0.0000068823
        0.0000445327   0.0000175468   0.0000162506   0.0000410581   0.0000062097
        0.0000014239   0.0000338508   0.0000129602  -0.0000005149  -0.0000047438
       -0.0027370228  -0.0052159746   0.4885107383   0.0297016818   0.0244214756
       -0.0673970570   0.0029602719   0.0026304984   0.0010268584   0.0013463890
        0.0014225949   0.0050438780  -0.0002358512  -0.0003334797   0.0002043898
        0.0010343228   0.0020278330   0.0064979963   0.0048096230   0.0059943423
        0.0000796752   0.0002618580   0.0000567091   0.0001512493  -0.0000345710
        0.0000343233   0.0000174757  -0.0000621724   0.0000440286   0.0001268753
        0.0000545057   0.0000454096  -0.0000136748   0.0001331620   0.0002155255
       -0.0001673583   0.0000461388  -0.0003210131  -0.0004162782  -0.0000714282
        0.0001699818  -0.0009842253   0.0000400692   0.0000627077  -0.0000225666
       -0.0000600164  -0.0000243164  -0.0000201041  -0.0000166421  -0.0000071719
       -0.0000154614   0.0000006259   0.0000346974  -0.0000065213   0.0000029552
       -0.0000029682   0.0000089200  -0.0000037017  -0.0000003946  -0.0000034484
       -0.0000085641   0.0000048566  -0.0000012763  -0.0000047182   0.0000053950
       -0.0000042244   0.0000196469   0.0000066915   0.0000025596   0.0000353673
        0.0000016498   0.0000857278  -0.0000358167  -0.0000493872   0.0001205014
        0.0001729601   0.0001613967  -0.0001249510   0.0000663266   0.0000152832
        0.0001525745  -0.0000084710   0.0000520158  -0.0001504884  -0.0000681028
       -0.0000978723   0.0000739376  -0.0001335349  -0.0000459911  -0.0002247576
        0.0000194795  -0.0001196261   0.0003627467  -0.0000573719   0.0000902281
       -0.0003454276  -0.0000888176  -0.0001707222   0.0001658482  -0.0000868356
       -0.0000400965  -0.0001015742   0.0000223098  -0.0000526710   0.0001415439
        0.0000288769   0.0000934315  -0.0001278930   0.0001231097   0.0001056255
        0.0001478956   0.0000748044  -0.0000417895   0.0000100019   0.0000242599
       -0.0000709712  -0.0000168413   0.0000319534   0.0000582693   0.0000111666
       -0.0000199302  -0.0000237424   0.0000038795  -0.0000205814   0.0000650249
        0.0000116165  -0.0000289341  -0.0000060882  -0.0000143227  -0.0000424606
        0.0000575019  -0.0000210044  -0.0000348256  -0.0000574599  -0.0000426076
        0.0001344539   0.0000265617   0.0000680353  -0.0000590994   0.0000886177
       -0.0000386772   0.0000703494   0.0000657428   0.0000109044  -0.0000545439
       -0.0000358096  -0.0000010129   0.0000041454   0.0000043688  -0.0000123251
        0.0000064990  -0.0000066245   0.0000023285   0.0000089910   0.0000032979
        0.0000006525   0.0000136131  -0.0000178341  -0.0000101817  -0.0000129660
       -0.0000368056  -0.0000122424  -0.0000321584  -0.0000707260   0.0000308215
        0.0000536451   0.0000262950  -0.0001569726   0.0000652227   0.0000583945
        0.0000968683   0.0000594713   0.0000481633  -0.0000863967   0.0000276402
        0.0000654740   0.0001091290  -0.0000436564  -0.0000594617  -0.0000601719
       -0.0001088558  -0.0000294391   0.0000668684   0.0000046930  -0.0001002620
       -0.0002368988  -0.0000489867  -0.0000073306   0.0001018078  -0.0001360502
       -0.0000513573  -0.0000768264  -0.0000276943  -0.0000276915   0.0000593018
        0.0000110965  -0.0000286370  -0.0000587507   0.0000402722   0.0000348734
        0.0000051520  -0.0000030151  -0.0000382938  -0.0000342175  -0.0734845022
       -0.0796659318  -0.2088209185  -0.0450975103   0.1036336515  -0.1246493158
        0.0822519493  -0.0538580277  -0.0952174520  -0.0008039656  -0.0003586464
       -0.0015686521   0.0001603457   0.0000921975  -0.0002643706  -0.0003403484
       -0.0010655644  -0.0021760043   0.0000253375   0.0000145900   0.0000225259
        0.0000022575  -0.0000011324   0.0000078041   0.0000011269  -0.0000004344
        0.0000013329  -0.0000001524  -0.0000010710   0.0000002962   0.0000020383
       -0.0000002219   0.0000008554   0.0000016091  -0.0000014936   0.0000022126
        0.0000023883  -0.0000017320  -0.0000003530   0.0000013601  -0.0000018053
        0.0000024714  -0.0000003685   0.0000006267   0.0000038633   0.0000029334
       -0.0000014968  -0.0000003601   0.0000029656   0.0000002912   0.0000018482
        0.0000033465  -0.0000003015  -0.0000052710  -0.0000045507  -0.0000100177
        0.0000020653  -0.0000009962  -0.0000047221   0.0000112950   0.0000046402
        0.0000004013   0.0000082496   0.0000050796   0.0000047482   0.0000035385
        0.0000073497   0.0000036204   0.0000028612   0.0000030360   0.0000067399
       -0.0000044582  -0.0000003496   0.0000017722  -0.0000043646  -0.0000010904
       -0.0000006068  -0.0000022569  -0.0000092753   0.0000013275  -0.0000048031
       -0.0000031644   0.0000018044  -0.0000027109  -0.0000025844  -0.0000008417
       -0.0000067006  -0.0000064226  -0.0000046541   0.0000013464  -0.0000002639
       -0.0000073606  -0.0000008931   0.0000011445   0.0000017883   0.0000056284
       -0.0000037585  -0.0000024875  -0.0000023180   0.0000044228  -0.0000053985
       -0.0000011749   0.0000067287   0.0000028561   0.0000012570  -0.0000006340
       -0.0000039882   0.0000055093  -0.0000054595   0.0000008357   0.0000017616
       -0.0000049226   0.0000055499   0.0000005075  -0.0000036235  -0.0000002064
       -0.0000000379   0.0000040456   0.0000013096   0.0000019480   0.0000046534
        0.0000059596   0.0000054137  -0.0000032216   0.0000037996   0.0000054599
       -0.0000031811   0.0000037664   0.0000043226   0.0000105296   0.0000004297
        0.0000055429  -0.0000076372  -0.0000169973   0.0000190411  -0.0000003618
       -0.0000052679   0.0000068423  -0.0000073144   0.0000035390   0.0000231909
        0.0000556272   0.0000098938  -0.0000099682   0.0000851667   0.0000468737
        0.0000311730   0.0000203889   0.0000354227   0.0000231241   0.0000085970
        0.0000218191   0.0000148718  -0.0000068025   0.0000075166   0.0000110362
       -0.1498407372  -0.0689523860   0.0297016818   0.5969122316  -0.0139979086
       -0.0558139617  -0.2519005767   0.1022396682   0.0024008426  -0.0638659384
       -0.0466924583   0.0177931657  -0.0004637614   0.0256205860  -0.0069852845
        0.0209577631  -0.0010556316  -0.0018397374  -0.0928339673   0.0096309655
        0.0077926498  -0.0001778537  -0.0108665102   0.0032110668  -0.0035401287
        0.0025728407   0.0001725305   0.0087391172   0.0001413074  -0.0004181591
       -0.0096571690   0.0052186536  -0.0002111865   0.0008474894  -0.0104538993
        0.0001870124  -0.0006700305   0.0085781289  -0.0005572615   0.0003243047
       -0.0098811521   0.0011774363  -0.0035550057   0.0005325763   0.0009824310
        0.0016376146  -0.0012155646  -0.0007311804  -0.0011446998  -0.0004490791
        0.0003581037   0.0007229271  -0.0002689190  -0.0002353045  -0.0001874325
        0.0001100856   0.0001032937   0.0001185731   0.0000889138  -0.0000072273
        0.0001936635  -0.0000734203  -0.0000362126   0.0001992897  -0.0000049939
       -0.0001068523  -0.0013682817   0.0006057340   0.0004479669   0.0015517696
        0.0008077612  -0.0004738370   0.0000762442   0.0005886126   0.0002911495
        0.0003296877   0.0009191050  -0.0007797725   0.0002994065   0.0000410941
        0.0008803605   0.0000702908   0.0002186869  -0.0006517844  -0.0003554864
       -0.0005306623   0.0005186900  -0.0005066118  -0.0001634560  -0.0011302843
        0.0000706139  -0.0006664960   0.0018977203  -0.0002075075   0.0005866617
       -0.0018183148  -0.0003751993  -0.0007833432   0.0008221140  -0.0003143740
       -0.0000542148  -0.0004832066  -0.0000167397  -0.0003389316   0.0006302000
        0.0002038527   0.0006370600  -0.0008212738   0.0003285855   0.0001520514
        0.0010175107  -0.0001542636  -0.0040790542  -0.0004286358   0.0004905062
        0.0041500264   0.0007879051   0.0031413953  -0.0044391861  -0.0006008511
        0.0001499551   0.0002044153  -0.0000197926  -0.0044455030  -0.0016671722
       -0.0009331895   0.0017091867   0.0036045112   0.0008318361  -0.0039114189
       -0.0042230009  -0.0010662706   0.0010879756   0.0067362852   0.0021504173
       -0.0031853967  -0.0003634639  -0.0010796762   0.0013395426  -0.0014785193
        0.0005074028  -0.0013217210  -0.0010606280  -0.0001989953   0.0010918964
        0.0003110459   0.0001726162  -0.0001164013  -0.0001375396  -0.0000314812
       -0.0000388372   0.0000388761  -0.0000765366   0.0000361665  -0.0000644780
       -0.0000017085  -0.0000732113   0.0000602791   0.0000246534  -0.0008650964
        0.0006668178  -0.0003928714   0.0010442120   0.0021037839   0.0002319542
        0.0005105551  -0.0000114708  -0.0001132745   0.0001357858   0.0002171700
        0.0000969800   0.0001545308   0.0000083936  -0.0002207489  -0.0000665255
        0.0000130810   0.0001569806  -0.0000819542  -0.0001245660  -0.0000098224
       -0.0000464877  -0.0000204325   0.0001316416  -0.0000514350  -0.0000383258
       -0.0003961403  -0.0002888650   0.0003319324   0.0003333921  -0.0000527073
       -0.0000709116  -0.0000087538   0.0000007951  -0.0001144708  -0.0000487749
       -0.0000672137  -0.0001696166  -0.0002134516   0.0001097426   0.0001781149
        0.0002201814   0.0001457604   0.0000640780  -0.0001221860  -0.0129698606
       -0.0129828223  -0.0011912988   0.0067058960   0.0019283481  -0.0014043099
       -0.0243409762  -0.0125404409   0.0058384249  -0.0063936007   0.0049314097
        0.0013817430  -0.0025332476  -0.0026692030   0.0017463272  -0.0093076256
        0.0276671485  -0.0033691618  -0.0000946061  -0.0001392218  -0.0001424757
        0.0000528125  -0.0000967368  -0.0000670034  -0.0000581520   0.0000344184
        0.0000203945  -0.0000555612  -0.0000017792   0.0000121442   0.0000842159
        0.0000087779  -0.0000196707   0.0000831478   0.0000607860  -0.0000390904
       -0.0000452762  -0.0000216276   0.0000410147  -0.0000426174  -0.0000222591
        0.0000192728  -0.0000784914  -0.0000258142   0.0000080410  -0.0000583602
       -0.0000143193  -0.0000368766   0.0001175615   0.0000312196   0.0000229115
        0.0001138310   0.0000229588  -0.0000466138  -0.0000101690   0.0000187774
       -0.0000723294   0.0000017257  -0.0000109787   0.0000038984   0.0000152324
        0.0000158785  -0.0000108743   0.0000052381   0.0000153865   0.0000319335
        0.0000109077   0.0000039524   0.0000008334   0.0000136193  -0.0000015479
       -0.0000037937   0.0000037856   0.0000140847   0.0000018113   0.0000138460
       -0.0000316488   0.0000417261  -0.0000198549   0.0000118598   0.0001355871
        0.0000202923   0.0000128172   0.0000616133  -0.0000072531   0.0000338225
        0.0000008032   0.0000171885   0.0000733064  -0.0000096589  -0.0000272990
        0.0000450082   0.0001056065   0.0000169017  -0.0000339959  -0.0000888109
       -0.0000343730  -0.0000308267   0.0001083716  -0.0000473508   0.0000302424
        0.0000282686  -0.0000485471   0.0000045994   0.0000030473   0.0000206190
        0.0000066796  -0.0000140885   0.0000297910   0.0000176131   0.0000004358
        0.0000199183  -0.0000117944   0.0000004616   0.0000305502   0.0000088177
        0.0000049007  -0.0000417442   0.0000119564  -0.0000160814  -0.0000378613
       -0.0000177212  -0.0000132716   0.0000199013   0.0000008939  -0.0000006861
        0.0000111782   0.0000092361   0.0000153167  -0.0000513585  -0.0000013886
       -0.0000102882  -0.0000141512  -0.0000034869  -0.0000273367  -0.0000036080
        0.0000353638  -0.0000394176   0.0000003451   0.0000105348  -0.0000155093
       -0.0000158482   0.0000608697   0.0000393550  -0.0000453229   0.0000463532
        0.0000038363  -0.0000014317   0.0000141988  -0.0000446631   0.0000180628
        0.0000126880   0.0000356412  -0.0000249119  -0.0000098348   0.0000017053
       -0.0698375308  -0.1243551157   0.0244214756  -0.0139979086   0.6161568142
       -0.0882173473   0.0226960920  -0.1077654920   0.0126803985   0.0086361624
        0.0422381381  -0.0111004250   0.0102175443  -0.0173830273   0.0015146435
       -0.0448372327  -0.0664393664   0.0178923046   0.0816493941  -0.3014242797
        0.0357108543  -0.0064997744   0.0177266234  -0.0016569653   0.0063791435
       -0.0056212430   0.0000689826  -0.0089764959  -0.0000475684   0.0002510187
        0.0104888118  -0.0070091329   0.0001391812  -0.0029925667   0.0100425783
       -0.0000942186  -0.0013474640  -0.0065263891   0.0013956764  -0.0039787059
        0.0022870636  -0.0000892883   0.0050579377  -0.0001921008  -0.0011825965
       -0.0019003567   0.0013691842   0.0011499998   0.0012542668   0.0004098314
       -0.0003706944  -0.0008991621   0.0001366601   0.0002586283   0.0001355716
       -0.0001193736  -0.0001007245  -0.0000956225  -0.0001222627  -0.0000146746
       -0.0001691582  -0.0000197568   0.0000715555  -0.0002118182  -0.0000724406
        0.0000556230   0.0014030787  -0.0006788600  -0.0005372973  -0.0019297461
       -0.0007806200   0.0006069514   0.0004856653  -0.0004672150  -0.0002074728
       -0.0009750503  -0.0017993872   0.0011987322  -0.0004248287   0.0000709067
       -0.0018054124  -0.0000508033  -0.0004061897   0.0012528294   0.0005789890
        0.0009277112  -0.0010486644   0.0009630058   0.0002278259   0.0022313147
       -0.0001694521   0.0012960572  -0.0038151284   0.0004648900  -0.0011802177
        0.0037315976   0.0006286156   0.0014354742  -0.0017578641   0.0006362697
        0.0000847343   0.0010894726  -0.0000355997   0.0005454633  -0.0011974810
       -0.0001474356  -0.0010752406   0.0016620174  -0.0010030633  -0.0006552683
       -0.0018033829  -0.0009850104   0.0058153388   0.0002968587  -0.0009477165
       -0.0039402810  -0.0007933224  -0.0044374734   0.0043689162   0.0005150556
        0.0001931346   0.0001504175  -0.0000821958   0.0060000599   0.0011383061
        0.0011104891  -0.0016367957  -0.0047192485  -0.0010128726   0.0060047276
        0.0048691459   0.0014151153  -0.0010077155  -0.0077829077  -0.0018304556
        0.0016038149   0.0001824776   0.0005406158  -0.0007030483   0.0006623063
       -0.0002727230   0.0005271844   0.0003115735   0.0001069826  -0.0005559464
        0.0002554916  -0.0001778320   0.0000781485  -0.0000150788   0.0000702859
       -0.0001252969  -0.0000044570  -0.0000272715  -0.0001643879  -0.0000068970
       -0.0000283760  -0.0000905146  -0.0000090652  -0.0000344000   0.0010228225
       -0.0003903504   0.0002575100  -0.0007968276  -0.0009414467  -0.0003469196
       -0.0016514537  -0.0010064944   0.0007513248   0.0006054336   0.0007800435
       -0.0001328935  -0.0000394434  -0.0002413373  -0.0006618342  -0.0001072074
        0.0000380874   0.0004605489  -0.0001148572  -0.0002946840  -0.0004325627
       -0.0002489801  -0.0001277686   0.0008544728   0.0000864225  -0.0003375992
       -0.0014906381  -0.0000104809   0.0004958171   0.0015526103  -0.0001099400
       -0.0006062075  -0.0007717061  -0.0002096533  -0.0000343276   0.0005326899
        0.0000353134  -0.0002191251  -0.0004030917  -0.0001687606   0.0001467427
        0.0007328306   0.0006359832   0.0007598900  -0.0004640252  -0.0148085585
       -0.0113050277  -0.0005462883  -0.0164510429  -0.0206387049   0.0065085372
        0.0080077160   0.0089087358  -0.0031040467   0.0266708467  -0.0141907582
       -0.0005117804  -0.0035911874  -0.0010069943   0.0024848851   0.0063203366
       -0.0124145103   0.0025441513   0.0000787802  -0.0000819208  -0.0000398638
       -0.0000138156   0.0000811436   0.0000477447   0.0000719069   0.0000098346
       -0.0000434804   0.0000649330  -0.0000064823   0.0000062613  -0.0000764383
       -0.0000097740   0.0000154984  -0.0000560387  -0.0000210496   0.0000462574
        0.0000421485   0.0000489001  -0.0000577424   0.0000382956   0.0000456627
       -0.0000450328   0.0000585275   0.0000520799   0.0000200167   0.0000628215
        0.0000397492   0.0000164254  -0.0000948388   0.0000055846  -0.0000099566
       -0.0001971497   0.0000423594   0.0000683566  -0.0000588342  -0.0000524372
        0.0001112579  -0.0000028012   0.0000022200   0.0000617294   0.0000406397
        0.0000276408   0.0000551844   0.0000369866   0.0000382125  -0.0000234386
        0.0000387304   0.0000433586   0.0000394853   0.0000222698   0.0000700995
       -0.0000533886  -0.0000356095   0.0000325218  -0.0000600887  -0.0000942690
       -0.0000002524  -0.0000995893   0.0001233518   0.0000011978  -0.0001006796
       -0.0000055206  -0.0000113506   0.0000483801   0.0000232956  -0.0000197817
        0.0000867030   0.0000896913  -0.0000444377   0.0000093695   0.0000296922
        0.0000792998  -0.0000920144  -0.0000810494   0.0000750949   0.0000476149
        0.0000879636   0.0000553053  -0.0000932806   0.0000082984   0.0000499484
       -0.0000458108  -0.0000400733  -0.0000217257   0.0000193167   0.0000655040
        0.0000424810   0.0000120771   0.0000470283  -0.0000303128  -0.0000055493
        0.0000364084   0.0000357395  -0.0000037863  -0.0000041154   0.0000067673
        0.0000259547  -0.0000256684  -0.0000122618  -0.0000034740  -0.0000249941
       -0.0000150981  -0.0000176836   0.0000119727   0.0000191344   0.0000277293
        0.0000593167   0.0000440011   0.0000181682   0.0000238722  -0.0000503053
        0.0000245507   0.0000643828   0.0000849611   0.0000053675  -0.0000236820
        0.0000389248   0.0001303054  -0.0000736948   0.0000116542   0.0001355814
       -0.0001597934  -0.0000878494   0.0000314499  -0.0001604905  -0.0000733305
       -0.0000095108  -0.0000702939  -0.0000919210  -0.0001079360  -0.0000155229
       -0.0000191490  -0.0001486310   0.0000625679   0.0001010263  -0.0000431961
        0.0250564102   0.0211891826  -0.0673970570  -0.0558139617  -0.0882173473
        0.1668585453   0.0229551674   0.0006000671  -0.0512205796   0.0055358912
       -0.0037223882  -0.0002179989  -0.0017638818  -0.0000352293  -0.0048325647
        0.0049589042   0.0131030770  -0.0041864540  -0.0071564080   0.0474507621
       -0.0519434518   0.0025854270  -0.0017118922   0.0046990440  -0.0010481042
        0.0009304350   0.0002902835   0.0009521315  -0.0000773705  -0.0002902600
       -0.0011519314   0.0008791115   0.0000710523   0.0005264840  -0.0011056020
       -0.0000412403   0.0002818876   0.0009851109   0.0004403266   0.0006901952
        0.0001322588   0.0000192243  -0.0006720958  -0.0001944541   0.0000980636