$hessian                                                                        
        0.3990968209  -0.1704029806  -0.2134010963  -0.3155363383   0.1395820664
        0.1569382683  -0.0088731821   0.0334238293   0.0175106893  -0.0033577356
       -0.0075962925  -0.0005413078   0.0015218099   0.0011038072  -0.0006002537
       -0.0019864990  -0.0022219874   0.0003439783   0.0007330180   0.0040640683
        0.0006040818  -0.0006531116  -0.0031181159   0.0008800390   0.0106693031
       -0.0086374481  -0.0066872702  -0.0114252532   0.0070145257   0.0063792816
        0.0007768649   0.0015721299   0.0017824107  -0.0047132040  -0.0033430279
        0.0016975009   0.0012266919   0.0038912126   0.0005020024  -0.0000254645
       -0.0005210320   0.0006035346  -0.0014772730   0.0006603047  -0.0006825635
        0.0011489771   0.0001153914  -0.0004560573  -0.0000278018   0.0013106739
       -0.0002428527   0.0011808822  -0.0010221059   0.0005555996  -0.0005720771
        0.0003943078   0.0001624507  -0.0002259649  -0.0004933356  -0.0003997208
       -0.0002805677   0.0009632684  -0.0000495632   0.0003678376   0.0002408174
       -0.0000823166   0.0004285539   0.0014990247  -0.0000886698  -0.0014459455
       -0.0018798797  -0.0000329380   0.0015743188   0.0006628233  -0.0000350281
       -0.0002233193  -0.0016584162   0.0000747925   0.0016205482   0.0017247327
        0.0000050115  -0.0014415529  -0.0006243774  -0.0000476878  -0.0005148381
       -0.0003795479   0.0000692828  -0.0008962232   0.0001029262  -0.0001009143
        0.0002813431   0.0003168802   0.0000940293  -0.0012567372  -0.0006777610
        0.0001877438  -0.0002158086  -0.0010562773   0.0003989678  -0.0011155351
       -0.0015583995  -0.0002908759   0.0020121376   0.0094366327   0.0017198592
       -0.0681947826  -0.0027023183   0.0340734959   0.0014471090   0.0006208794
       -0.0006998662   0.0004485354  -0.0002617857  -0.0001644889  -0.0001480024
       -0.0001128331   0.0000848553  -0.0000903068   0.0002859388   0.0001989068
       -0.0010174710   0.0003554045  -0.0000540526  -0.0003429020  -0.0004203373
        0.0002296312   0.0001621713   0.0000404712  -0.0003611398  -0.0000794761
        0.0002129186  -0.0000420178  -0.0000147735  -0.0002984636  -0.0000549191
        0.0001301892   0.0000899468  -0.0000332964  -0.0000134898  -0.0000478015
        0.0002702695  -0.0000215786   0.0000115801  -0.0000120581  -0.0000003072
       -0.0001813539   0.0000356589   0.0002165980  -0.0001213075   0.0000488661
        0.0001208134  -0.0000511477   0.0000721918  -0.0001334934  -0.0002947015
        0.0004726034   0.0006229732   0.0003671732  -0.0005175176   0.0003200292
        0.0004886188   0.0000186010   0.0002134900  -0.0008693191  -0.0003361317
       -0.1704029806   0.1729865211   0.1164927874   0.1388257747  -0.1329738047
       -0.0853840402   0.0357299334  -0.0460487107  -0.0309485791   0.0049349656
        0.0022393722  -0.0016030999   0.0011480253  -0.0005494924  -0.0004976188
        0.0003823763   0.0013521531   0.0001450117   0.0006726924  -0.0030263942
       -0.0009529526  -0.0031439171  -0.0016633184  -0.0000960136  -0.0060955898
        0.0033202471   0.0035861185   0.0065516752  -0.0025166081  -0.0033203882
       -0.0015350222  -0.0057503427  -0.0011024522   0.0009723515   0.0025003975
       -0.0002422667  -0.0000597607  -0.0027741667  -0.0005632400   0.0002259438
        0.0007385753  -0.0002998754   0.0008153014  -0.0005073762   0.0003382290
       -0.0007156858  -0.0001007770   0.0002435316   0.0000144602  -0.0007080376
        0.0001602310  -0.0006643985   0.0005642090  -0.0002659862   0.0004391117
       -0.0003197141  -0.0000718647  -0.0000541295   0.0002114054   0.0002088050
        0.0001751057  -0.0004798131   0.0000283425  -0.0001957466  -0.0001140362
        0.0000464158  -0.0002116794  -0.0007128687   0.0000388187   0.0006639323
        0.0009152265   0.0000160041  -0.0007291725  -0.0003482890   0.0000284235
        0.0001356143   0.0007794470  -0.0000297072  -0.0007903160  -0.0007922498
       -0.0000053794   0.0006864417   0.0002975139   0.0000217625   0.0002592548
        0.0001876299  -0.0000382997   0.0004482812  -0.0000797724   0.0000545007
       -0.0001274480   0.0000068411  -0.0000703538   0.0007277996   0.0003429041
       -0.0001091573   0.0001201498   0.0006481363  -0.0002639077  -0.0003036263
        0.0022294635   0.0009067319  -0.0046324462  -0.0036142237   0.0008048281
       -0.0041772314   0.0129241479   0.0025259975   0.0001745803  -0.0002481428
        0.0000035248  -0.0002516703   0.0002238857   0.0001049424   0.0002212690
       -0.0000839642  -0.0001346722   0.0003961526  -0.0004561262  -0.0003237308
        0.0000847962  -0.0001050271   0.0002123465   0.0001930050   0.0002455981
       -0.0001428558  -0.0000980512  -0.0000180543   0.0001935620   0.0000451461
       -0.0001083667   0.0000261890   0.0000078811   0.0001614652   0.0000298533
       -0.0000722441  -0.0000504983   0.0000190413   0.0000039750   0.0000244244
       -0.0001470790   0.0000081363  -0.0000021907   0.0000073669  -0.0000044248
        0.0001009116  -0.0000195900  -0.0001234846   0.0000673675  -0.0000260424
       -0.0000682107   0.0000073566  -0.0000425876   0.0000708804   0.0001549732
       -0.0002567785  -0.0002886046  -0.0002335467   0.0003137910  -0.0000984539
       -0.0002475114  -0.0000518563  -0.0002907178   0.0014032508   0.0004532186
       -0.2134010963   0.1164927874   0.1462276672   0.1571509201  -0.0861102749
       -0.1371978130   0.0180574223  -0.0291549546  -0.0057194869   0.0025437852
        0.0037293499  -0.0005538962  -0.0006575399  -0.0003949709  -0.0003406741
        0.0009823983   0.0012433390  -0.0001225860  -0.0001014474  -0.0024652470
       -0.0006945811   0.0009593155  -0.0002071991   0.0026836361  -0.0063323313
        0.0046894363   0.0031637620   0.0064634276  -0.0037359405  -0.0039919935
        0.0006521293  -0.0025678431   0.0019826634   0.0021983053   0.0019103219
       -0.0009948506  -0.0001893700  -0.0020129826  -0.0003338123  -0.0001771201
        0.0000934279  -0.0003956314   0.0009503303  -0.0004515131   0.0004152051
       -0.0007548166  -0.0001138037   0.0002529608   0.0000320803  -0.0007809982
        0.0001705353  -0.0006041459   0.0005491578  -0.0003544351   0.0003144139
       -0.0002092189  -0.0000812012   0.0000622777   0.0002861705   0.0002203059
        0.0001754571  -0.0005875699   0.0000241643  -0.0002305842  -0.0001583795
        0.0000538148  -0.0002674939  -0.0008642727   0.0000630406   0.0008067693
        0.0011037595   0.0000329070  -0.0008966942  -0.0003922823   0.0000031059
        0.0001241799   0.0009522824  -0.0000418072  -0.0009570422  -0.0009755979
        0.0000052676   0.0008307323   0.0003704503   0.0000173208   0.0003058727
        0.0002457354  -0.0000195583   0.0005460514  -0.0000701927   0.0000608486
       -0.0001555005  -0.0001252184  -0.0000653514   0.0007003958   0.0004050823
       -0.0000988781   0.0001703287   0.0006671319  -0.0002020519  -0.0002156117
        0.0012923538  -0.0000082829  -0.0022431530  -0.0044274988  -0.0012657328
        0.0339025643   0.0016318350  -0.0035984869  -0.0005874589  -0.0002656900
        0.0003328697  -0.0002090556   0.0001390809   0.0002085421   0.0001091407
        0.0000386853  -0.0000999004   0.0001259295  -0.0002868757  -0.0001429131
        0.0004998105  -0.0002172640   0.0001653334   0.0002081313   0.0002550922
       -0.0001507903  -0.0000830573  -0.0000251074   0.0002244345   0.0000502723
       -0.0001217393   0.0000201036   0.0000140679   0.0001814205   0.0000307023
       -0.0000759032  -0.0000524501   0.0000166271   0.0000117177   0.0000264643
       -0.0001612537   0.0000158372  -0.0000088902   0.0000060458   0.0000014947
        0.0001057845  -0.0000224368  -0.0001310906   0.0000636346  -0.0000325249
       -0.0000703271   0.0000231116  -0.0000500999   0.0000952217   0.0001661609
       -0.0002937484  -0.0003380701  -0.0002124560   0.0002914388  -0.0000964710
       -0.0004104431   0.0002108200  -0.0002853998   0.0007448186   0.0001506557
       -0.3155363383   0.1388257747   0.1571509201   0.5568681401  -0.0459695008
       -0.1997298685  -0.0598818923  -0.0024407640   0.0020861372  -0.0017513159
       -0.0239717367  -0.0047846293  -0.0063961678  -0.0007503828   0.0050341041
        0.0044693994   0.0015752255  -0.0017320994  -0.0036993906  -0.0040853474
        0.0023177378   0.0077775378   0.0242215821   0.0026682204  -0.0147536145
        0.0040635402   0.0069996859   0.0135099442  -0.0081474085  -0.0078710301
       -0.0402183902  -0.0061818015   0.0161281301   0.0044260843   0.0075605505
        0.0014698109  -0.0072271334  -0.0032280751   0.0019536557   0.0009362035
        0.0020633600  -0.0011239984   0.0018415305  -0.0011928393   0.0006180112
       -0.0015791014  -0.0001566783   0.0006177226   0.0000387103  -0.0016307178
        0.0003950941  -0.0015399338   0.0013064919  -0.0006090212   0.0007380901
       -0.0005075499  -0.0001818723   0.0002922421   0.0005765146   0.0004880176
        0.0003633257  -0.0012085192   0.0000595083  -0.0004886839  -0.0003240556
        0.0000963109  -0.0005528344  -0.0018366801   0.0001109169   0.0017378432
        0.0022949554   0.0000390727  -0.0019256076  -0.0007987535   0.0000232953
        0.0002759910   0.0020307216  -0.0000977978  -0.0019712611  -0.0021044074
        0.0000015811   0.0017392782   0.0007710639   0.0000626360   0.0005892287
        0.0005324519  -0.0000877217   0.0011292886  -0.0001465352   0.0001235285
       -0.0003199843  -0.0003960206  -0.0001490274   0.0016516377   0.0007786171
       -0.0002804466   0.0001555938   0.0013932074  -0.0005806633   0.0135986870
        0.0046145934  -0.0018582917  -0.0145697267  -0.0373718783  -0.0025263482
       -0.1365022625  -0.0507305608   0.0240234788  -0.0012250724  -0.0012847081
       -0.0006159139  -0.0007424484  -0.0008847750   0.0000176694   0.0001627915
        0.0002120784  -0.0003950466  -0.0004475997   0.0004274866   0.0001841428
        0.0000333830  -0.0012027880   0.0003447532   0.0004161307   0.0004997343
       -0.0002900063  -0.0002012863  -0.0000414352   0.0004446384   0.0001039879
       -0.0002511626   0.0000449503   0.0000219865   0.0003549206   0.0000612102
       -0.0001663434  -0.0001035364   0.0000366053   0.0000163040   0.0000596287
       -0.0003070776   0.0000145722  -0.0000117289   0.0000186778   0.0000009147
        0.0002220906  -0.0000361728  -0.0002505827   0.0001092041  -0.0000512895
       -0.0000826347   0.0000496556  -0.0000594157   0.0001552445   0.0003270886
       -0.0005735086  -0.0007164710  -0.0004383985   0.0006332666  -0.0001264911
       -0.0001743227   0.0000148764  -0.0001915028   0.0027025305  -0.0003271199
        0.1395820664  -0.1329738047  -0.0861102749  -0.0459695008   0.4861301209
        0.1125052691  -0.0050178121  -0.1626516598  -0.0264741716  -0.0269840373
       -0.0511002460  -0.0021895084  -0.0094973121   0.0136679286   0.0059026630
        0.0064083967  -0.0052315499  -0.0040151001   0.0012622742   0.0033677810
       -0.0008943244   0.0314460037  -0.0235853116  -0.0191599663  -0.0037233787
       -0.0123354961  -0.0018324942  -0.0042354546   0.0013793302   0.0023868487
       -0.0074653735   0.0237957269   0.0080729119   0.0014955799  -0.0028079483
       -0.0013738623  -0.0059677266   0.0055088991   0.0039069648   0.0005917994
       -0.0006784233   0.0004902070  -0.0012066082   0.0007093513  -0.0006327846
        0.0009191267   0.0001355590  -0.0003603743   0.0000360303   0.0010413604
       -0.0002085163   0.0012606912  -0.0010705912   0.0003517109  -0.0008629855
        0.0006453049   0.0000273172   0.0000757332  -0.0002438612  -0.0003444851
       -0.0002642230   0.0005976087  -0.0000341871   0.0003035881   0.0001595242
       -0.0000347554   0.0002849047   0.0010018253  -0.0000683139  -0.0009316525
       -0.0012207864  -0.0000140243   0.0010109073   0.0005173810  -0.0000260810
       -0.0002293497  -0.0010931082   0.0000524244   0.0010529517   0.0011342304
       -0.0000147555  -0.0009532645  -0.0003853115  -0.0000402283  -0.0002945528
       -0.0003364869   0.0000510891  -0.0005735312   0.0001623463  -0.0000614383
        0.0001325127   0.0000177251   0.0001810315  -0.0010703670  -0.0004035832
        0.0001549233  -0.0001392971  -0.0008339130   0.0004272327   0.0114971624
       -0.0049193466  -0.0074404862  -0.0313282539  -0.0382266405   0.0045434534
       -0.0511056186  -0.0974500966   0.0114800668   0.0017812407   0.0009623554
        0.0000074478   0.0004108897  -0.0007574023  -0.0003144768  -0.0001718871
        0.0000259479   0.0003838370  -0.0009636444  -0.0007166485   0.0002709168
        0.0003299886  -0.0003667515  -0.0004281335  -0.0002373740  -0.0003393115
        0.0001491484   0.0001296760   0.0000349739  -0.0002529413  -0.0000610884
        0.0001625874  -0.0000301940  -0.0000070483  -0.0001997432  -0.0000340147
        0.0001171303   0.0000585620  -0.0000231937  -0.0000023944  -0.0000483028
        0.0001809739   0.0000048460   0.0000052983  -0.0000134630   0.0000012324
       -0.0001462903   0.0000218435   0.0001371851  -0.0000573165   0.0000278580
        0.0000121422  -0.0000309060   0.0000271771  -0.0000936478  -0.0001705449
        0.0003359059   0.0003422078   0.0002452002  -0.0003289309  -0.0008448713
       -0.0004129070   0.0001485689  -0.0004240117  -0.0006726387   0.0006676893
        0.1569382683  -0.0853840402  -0.1371978130  -0.1997298685   0.1125052691
        0.2536589478   0.0012165009  -0.0291496256  -0.0607936379  -0.0049686209
       -0.0035636082   0.0040239020   0.0029844900   0.0021590056   0.0050628344
       -0.0005014504  -0.0018770906  -0.0005614055   0.0033575305   0.0015611721
        0.0027244615   0.0041277450  -0.0162094808  -0.0069176851   0.0042984037
       -0.0038673577  -0.0022982129  -0.0063694425   0.0039961374   0.0032814959
        0.0159679696   0.0069221637  -0.0048447316   0.0004403208  -0.0039526871
        0.0030321090  -0.0000862269   0.0012896550  -0.0003784636   0.0006590780
        0.0006774484   0.0000806044  -0.0018008470   0.0007856444  -0.0004498014
        0.0013404055   0.0002662269  -0.0002837741  -0.0000950183   0.0012092962
       -0.0003041526   0.0009967493  -0.0009828405   0.0005290186  -0.0003667275
        0.0002522682   0.0000756573  -0.0003526801  -0.0004044930  -0.0002883095
       -0.0002535060   0.0008947838  -0.0000544124   0.0003828065   0.0002404313
       -0.0000739014   0.0003987320   0.0013247052  -0.0000674041  -0.0012462523
       -0.0016333858  -0.0000166326   0.0014253218   0.0005279114  -0.0000089658
       -0.0001789420  -0.0014862531   0.0000879583   0.0013941586   0.0015178903
       -0.0000001253  -0.0012388539  -0.0005625455  -0.0000598525  -0.0003846960
       -0.0004260245   0.0000673370  -0.0008535144   0.0000844835  -0.0001027496
        0.0002257929   0.0004091626   0.0001061611  -0.0010400208  -0.0005123700
        0.0001305373  -0.0001639461  -0.0011910202   0.0002851726   0.0009302560
       -0.0041809097   0.0040390408   0.0001536368   0.0043511795   0.0059254266
        0.0235032483   0.0132505814  -0.0622726577  -0.0001003569   0.0014683899
       -0.0022651469   0.0003534212   0.0002022261  -0.0002318007  -0.0004357457
        0.0000691619  -0.0004545095  -0.0000600141  -0.0003360224  -0.0000609667
       -0.0000731876   0.0005095787  -0.0006190550  -0.0002738200  -0.0003309421
        0.0002067275   0.0001140427  -0.0000205377  -0.0003486604  -0.0000792629
        0.0001641315  -0.0000087944  -0.0000220371  -0.0002301035  -0.0000338187
        0.0001059680   0.0000653998  -0.0000154348  -0.0000151197  -0.0000388622
        0.0001836226  -0.0000043624   0.0000115004  -0.0000174389  -0.0000009343
       -0.0001393787   0.0000181128   0.0001638399  -0.0000439823   0.0000325251
        0.0000340063  -0.0000257448   0.0000384514  -0.0001013541  -0.0001651400
        0.0003932680   0.0004186819   0.0002637286  -0.0003905446  -0.0001819219
        0.0003990790  -0.0004716624  -0.0009526441  -0.0006641658  -0.0020908503
       -0.0088731821   0.0357299334   0.0180574223  -0.0598818923  -0.0050178121
        0.0012165009   0.5588321126   0.0342020968  -0.1821221438  -0.2181334117
       -0.0659357685   0.0557112844   0.0129748641  -0.0638904738  -0.0211045588
       -0.0407134386  -0.0011039066   0.0146335770   0.0161825188   0.0498975001
        0.0064014352  -0.1948408276   0.0572709458   0.0785253840  -0.0399778063
       -0.0071227184   0.0146094706   0.0009260733  -0.0013963211   0.0007754643
        0.0022502434   0.0058102169  -0.0003842642  -0.0007800472  -0.0016510821
        0.0002987579   0.0006087835   0.0014467793   0.0005328455   0.0000196618
       -0.0013316285   0.0000731444  -0.0012971543   0.0009332894  -0.0001303309
        0.0010196836   0.0001946963  -0.0004241676   0.0000682763   0.0008544402
       -0.0004126928   0.0011277612  -0.0009834919   0.0001701357  -0.0007687823
        0.0006267304  -0.0000874673   0.0001161793  -0.0000168852  -0.0002208179
       -0.0002731729   0.0004156362  -0.0000228668   0.0003318924   0.0002139211
       -0.0000079831   0.0002654237   0.0006859418  -0.0000498665  -0.0005484330
       -0.0007799440   0.0000067181   0.0006573163   0.0003188636   0.0000310847
       -0.0002172425  -0.0007262901   0.0000687381   0.0006559887   0.0007547791
       -0.0000283182  -0.0006121055  -0.0002874790  -0.0000500059  -0.0001350485
       -0.0004432602   0.0000426739  -0.0004716355   0.0002066474  -0.0000523464
        0.0000115672  -0.0000771421   0.0002568644  -0.0009057055  -0.0001896016
        0.0002817504   0.0001325305  -0.0009590617   0.0005238049   0.0002379209
        0.0002698174  -0.0003190164  -0.0026054871  -0.0040640171   0.0014410416
       -0.0039469338  -0.0198514606  -0.0006674594  -0.0239467699  -0.0117267740
        0.0077901251   0.0021710504  -0.0007695324   0.0024453712  -0.0008140924
       -0.0003039733   0.0002022215   0.0017078727  -0.0009830105   0.0018769630
       -0.0001234480   0.0001943486  -0.0001067054  -0.0000846937  -0.0001770787
        0.0000498930   0.0000999191   0.0000068675  -0.0002100195  -0.0000415342
        0.0001377136   0.0000015762  -0.0000050891  -0.0000955405  -0.0000062061
        0.0001142178   0.0000216022  -0.0000020016   0.0000104486  -0.0000481712
        0.0000442246   0.0000596958  -0.0000095280  -0.0000146515   0.0000037737
       -0.0001132896   0.0000034174   0.0000672593   0.0000673294   0.0000158035
       -0.0001648258  -0.0000426710  -0.0000336901  -0.0000421718  -0.0000078429
        0.0002110068   0.0001377361   0.0000752386  -0.0000110019  -0.0002467227
       -0.0001917924  -0.0000784562  -0.0003391163  -0.0000377861   0.0002483378
        0.0334238293  -0.0460487107  -0.0291549546  -0.0024407640  -0.1626516598
       -0.0291496256   0.0342020968   0.5451190026   0.0980733115  -0.1057891090
       -0.1210878813   0.0263826462  -0.0169572026  -0.0543830177  -0.0073577865
       -0.0092792946   0.0083020837   0.0075265879   0.0215716324  -0.0263084516
       -0.0163261103   0.0674259926  -0.1135309366  -0.0458224207   0.0011321052
        0.0233599866   0.0060808304  -0.0020941056  -0.0037292945  -0.0010088476
        0.0066576624  -0.0158465882  -0.0063466863   0.0025370490   0.0041167202
       -0.0005427107   0.0047605006  -0.0058045645  -0.0034471004  -0.0001359365
       -0.0001175599  -0.0002441149   0.0003018033   0.0000657492   0.0003481006
       -0.0002131006  -0.0000739097   0.0001382522  -0.0000715612  -0.0003670397
        0.0000426980  -0.0004235300   0.0003937984  -0.0001748822   0.0002700691
       -0.0001902861  -0.0000279767   0.0000518596   0.0001230109   0.0001309088
        0.0001160828  -0.0003079874   0.0000157723  -0.0001524159  -0.0000988265
        0.0000224968  -0.0001546468  -0.0005094488   0.0000299973   0.0004678493
        0.0006136853   0.0000078212  -0.0005073495  -0.0002293015  -0.0000045174
        0.0000973047   0.0005509406  -0.0000291900  -0.0005190474  -0.0005850611
        0.0000015436   0.0004764770   0.0002065578   0.0000210649   0.0001466051
        0.0001814295  -0.0000286979   0.0002850121  -0.0000565218   0.0000321467
       -0.0000698002  -0.0000974827  -0.0000643209   0.0002807122   0.0002241829
       -0.0000504076   0.0001257258   0.0001724984  -0.0001052298  -0.0087069058
       -0.0000469777   0.0038256039   0.0011907615   0.0076538174   0.0005024902
       -0.0355162962  -0.0378368159   0.0044596438   0.0080842723   0.0058694069
       -0.0022637219  -0.0011240846  -0.0045093364  -0.0028304670   0.0000010703
        0.0009517911   0.0003045850   0.0001859863  -0.0042424146  -0.0028990989
        0.0002814921   0.0002788887   0.0000222199   0.0000992181   0.0001509543
       -0.0000669739  -0.0000526586  -0.0000166536   0.0001154816   0.0000228309
       -0.0000794498   0.0000113396   0.0000050326   0.0000926552   0.0000145080
       -0.0000516307  -0.0000279715   0.0000073730   0.0000012943   0.0000142318
       -0.0000762591  -0.0000046110   0.0000014154   0.0000019144   0.0000014161
        0.0000615689  -0.0000111516  -0.0000685565   0.0000117845  -0.0000191501
        0.0000200846   0.0000257956  -0.0000073319   0.0000505642   0.0000719857
       -0.0001417542  -0.0001930381  -0.0000735970   0.0000992130  -0.0001632192
       -0.0002654995   0.0001023749   0.0004144721   0.0005093046  -0.0001194373
        0.0175106893  -0.0309485791  -0.0057194869   0.0020861372  -0.0264741716
       -0.0607936379  -0.1821221438   0.0980733115   0.2193320439   0.0453386871
        0.0094029804  -0.0654935846  -0.0087422711   0.0125605687   0.0092838920
        0.0124839611   0.0041796750  -0.0098477373  -0.0011860057  -0.0282666857
       -0.0061758831   0.0810074061  -0.0412759620  -0.0929846281   0.0171240385
        0.0085699669  -0.0061837761   0.0004004458  -0.0011410230   0.0028064312
        0.0003049533  -0.0053113886  -0.0033611720   0.0009116272   0.0012202083
       -0.0002851487   0.0016788957  -0.0014612081  -0.0005850867  -0.0004583960
       -0.0000230854  -0.0002278538   0.0008242586  -0.0004491189   0.0001495728
       -0.0006302366  -0.0001396050   0.0001784058  -0.0000263617  -0.0005280671
        0.0002078040  -0.0005519082   0.0005320571  -0.0001726044   0.0002911584
       -0.0002330104   0.0000234818   0.0000649225   0.0000829437   0.0001227969
        0.0001484284  -0.0003395632   0.0000038474  -0.0002160958  -0.0001421652
        0.0000177043  -0.0001880117  -0.0005161954   0.0000342997   0.0004359222
        0.0006114168   0.0000114918  -0.0005252108  -0.0002085237  -0.0000337514
        0.0001060195   0.0005725051  -0.0000340910  -0.0005155117  -0.0005845563
        0.0000207776   0.0004742699   0.0002285019   0.0000346538   0.0001121546
        0.0002755595  -0.0000154252   0.0003639582  -0.0000884807   0.0000423679
       -0.0000409893  -0.0000956358  -0.0001168532   0.0004660258   0.0001628216
       -0.0001261276  -0.0000014226   0.0005634350  -0.0002117086  -0.0029558035
       -0.0001875512   0.0010034499   0.0028635539   0.0034843595   0.0022911167
       -0.0049072005  -0.0036468638   0.0079000720   0.0129907212   0.0061926438
       -0.0025086640   0.0022985467  -0.0029388747   0.0064846543   0.0003298350
        0.0004088467  -0.0000848544   0.0022625936  -0.0023357496   0.0052551819
        0.0001500522   0.0000209030   0.0000746619   0.0000693942   0.0001155513
       -0.0000615773  -0.0000453451   0.0000007360   0.0001448858   0.0000286873
       -0.0000799754  -0.0000113246   0.0000081004   0.0000738869  -0.0000009082
       -0.0000627879  -0.0000144149  -0.0000028328  -0.0000005607   0.0000262390
       -0.0000351179  -0.0000240724   0.0000025663   0.0000162487  -0.0000008353
        0.0000656452   0.0000094661  -0.0000516497  -0.0000338382  -0.0000038214
        0.0000756106   0.0000235834   0.0000150052   0.0000342282   0.0000186043
       -0.0001438571  -0.0001118817  -0.0000468420   0.0000427503  -0.0001357845
        0.0000000691  -0.0002870478   0.0002552034   0.0000415490   0.0000014984
       -0.0033577356   0.0049349656   0.0025437852  -0.0017513159  -0.0269840373
       -0.0049686209  -0.2181334117  -0.1057891090   0.0453386871   0.5405479474
        0.0203266669  -0.1788480517  -0.0835340437   0.0238999037   0.0233184574
        0.0205474148   0.0227584610  -0.0024199373  -0.0100471374  -0.0183149175
       -0.0013063463  -0.0472616049   0.0096869307   0.0227688915   0.0027513119
        0.0002091921   0.0007920849  -0.0043059151   0.0009379698   0.0018789262
       -0.0014314888   0.0034154218   0.0014805828  -0.0008230619  -0.0007193513
        0.0000426483  -0.0011462309   0.0012516630   0.0005927964  -0.0001610983
        0.0006772587   0.0000803304   0.0007578038  -0.0006245856   0.0000056009
       -0.0006151745  -0.0000705170   0.0001819628   0.0000007757  -0.0005137301
        0.0002420450  -0.0006440206   0.0005519754  -0.0000765609   0.0003698993
       -0.0003029631   0.0000827260   0.0000145534   0.0000252735   0.0001139341
        0.0000936831  -0.0002005274   0.0000184766  -0.0001550612  -0.0000900857
       -0.0000054802  -0.0001040115  -0.0003280940   0.0000186258   0.0002679237
        0.0003759654  -0.0000120048  -0.0003646235  -0.0001503651  -0.0000235089
        0.0000861908   0.0003873255  -0.0000298282  -0.0003196114  -0.0003675300
        0.0000137565   0.0003004760   0.0001495654   0.0000176164   0.0000326174
        0.0001986667  -0.0000079142   0.0002364973  -0.0000688162   0.0000208576
       -0.0000126943  -0.0000321691  -0.0001478077   0.0005546525   0.0000749875
       -0.0001415058  -0.0000990894   0.0005737120  -0.0002751609   0.0019872530
       -0.0007283528  -0.0010934057  -0.0015283305  -0.0018459491  -0.0001561848
        0.0066415614   0.0009213436  -0.0011499197  -0.1952014665   0.0879541607
        0.0918353678  -0.0022017613  -0.0241732633  -0.0047668074  -0.0024729742
        0.0023058906   0.0041116182   0.0003874293  -0.0004246633  -0.0002616980
        0.0000649579  -0.0000062963   0.0000358343  -0.0000102691   0.0000531115
        0.0000100693   0.0000079380   0.0000157491   0.0000545841  -0.0000148328
       -0.0000077592  -0.0000112058   0.0000160400   0.0000291729   0.0000001137
        0.0000081744   0.0000065776   0.0000005432   0.0000167582  -0.0000101560
        0.0000093287   0.0000084725  -0.0000100600   0.0000085435   0.0000029862
       -0.0000113777   0.0000025136  -0.0000164015  -0.0000485240  -0.0000006987
        0.0000384889   0.0000335721   0.0000170247  -0.0000045826  -0.0000489415
       -0.0000391024  -0.0000292654  -0.0000199237  -0.0000275701   0.0000189643
       -0.0000110523   0.0000643852  -0.0000135567   0.0001476346   0.0000666022
       -0.0075962925   0.0022393722   0.0037293499  -0.0239717367  -0.0511002460
       -0.0035636082  -0.0659357685  -0.1210878813   0.0094029804   0.0203266669
        0.6526052043   0.1311931788  -0.0436492542  -0.3373685891  -0.0568728709
        0.0710015822  -0.0295913878  -0.0381778379  -0.0242160642  -0.0368429469
        0.0016301787  -0.0186780340   0.0357276439   0.0168326909   0.0049750952
       -0.0024271730  -0.0040406607  -0.0021538372   0.0016880611   0.0014731531
       -0.0016650003   0.0042512806   0.0018172861  -0.0005231644  -0.0013403772
        0.0001556018  -0.0017262975   0.0020078368   0.0012258614   0.0001210539
        0.0001130852   0.0000989875  -0.0002293544   0.0000379693  -0.0001593443
        0.0001495654   0.0000564304  -0.0000708795   0.0000265577   0.0002462942
       -0.0000551782   0.0001757281  -0.0001662432   0.0000923307  -0.0001558719
        0.0001014625   0.0000072830   0.0000660468  -0.0000664955  -0.0000646942
       -0.0000638809   0.0001967426  -0.0000154953   0.0000922177   0.0000698215
       -0.0000047373   0.0000954027   0.0002812237  -0.0000160013  -0.0002316451
       -0.0003621494   0.0000022905   0.0002820673   0.0001379607  -0.0000055826
       -0.0000495837  -0.0003049806   0.0000124934   0.0003163030   0.0002969740
        0.0000007674  -0.0002499509  -0.0001384791  -0.0000057037  -0.0000995457
       -0.0001021291   0.0000037705  -0.0001643498   0.0000227710  -0.0000200448
        0.0000504692  -0.0000288663   0.0000364383  -0.0001916999  -0.0001458779
        0.0000483907  -0.0000979424  -0.0001252441   0.0000568775   0.0032533791
       -0.0005158465  -0.0014390233  -0.0023059967  -0.0040776236   0.0003827591
        0.0070594736  -0.0009272497  -0.0045490971   0.0882310173  -0.0930029903
       -0.0530030832  -0.0033825203  -0.0195256012  -0.0038621720   0.0019787654
       -0.0001734025  -0.0024501743  -0.0007346218  -0.0007179127   0.0001981149
       -0.0000327427   0.0000391812  -0.0000633506  -0.0000359500  -0.0000729428
        0.0000319829   0.0000056656   0.0000074163  -0.0000463049   0.0000055352
        0.0000146068  -0.0000009285  -0.0000177133  -0.0000578650  -0.0000072408
       -0.0000124368   0.0000068257  -0.0000055203  -0.0000228149   0.0000109325
        0.0000362922  -0.0000327224   0.0000180828  -0.0000053998  -0.0000094703
        0.0000075080   0.0000021867   0.0000348920  -0.0000062493   0.0000056843
        0.0000330649  -0.0000253706   0.0000154090  -0.0000255341  -0.0000340515
        0.0000652240   0.0000977573   0.0000304012  -0.0000540101  -0.0000421765
        0.0000515354  -0.0000432539  -0.0000743325   0.0000695484   0.0000446339
       -0.0005413078  -0.0016030999  -0.0005538962  -0.0047846293  -0.0021895084
        0.0040239020   0.0557112844   0.0263826462  -0.0654935846  -0.1788480517
        0.1311931788   0.2225279191   0.0056746287  -0.0857567075  -0.0682587056
        0.0100808149  -0.0176494529  -0.0076707564  -0.0027856413  -0.0009343561
       -0.0013652683   0.0156617740   0.0047808981  -0.0048736256   0.0027674330
       -0.0020113787   0.0026232441   0.0006242591   0.0002736822  -0.0005163761