      -----------------------------------------------------------      
     |                   =====================                   |     
     |                           x T B                           |     
     |                   =====================                   |     
     |                         S. Grimme                         |     
     |          Mulliken Center for Theoretical Chemistry        |     
     |                    University of Bonn                     |     
      -----------------------------------------------------------      

   * xtb version 6.7.1 (edcfbbe) compiled by 'albert@albert-system' on 2024-07-22

   xtb is free software: you can redistribute it and/or modify it under
   the terms of the GNU Lesser General Public License as published by
   the Free Software Foundation, either version 3 of the License, or
   (at your option) any later version.
   
   xtb is distributed in the hope that it will be useful,
   but WITHOUT ANY WARRANTY; without even the implied warranty of
   MERCHANTABILITY or FITNESS FOR A PARTICULAR PURPOSE.  See the
   GNU Lesser General Public License for more details.
   
   Cite this work as:
   * C. Bannwarth, E. Caldeweyher, S. Ehlert, A. Hansen, P. Pracht,
     J. Seibert, S. Spicher, S. Grimme, WIREs Comput. Mol. Sci., 2020, 11,
     e01493. DOI: 10.1002/wcms.1493
   
   for GFN2-xTB:
   * C. Bannwarth, S. Ehlert and S. Grimme., J. Chem. Theory Comput., 2019,
     15, 1652-1671. DOI: 10.1021/acs.jctc.8b01176
   for GFN1-xTB:
   * S. Grimme, C. Bannwarth, P. Shushkov, J. Chem. Theory Comput., 2017,
     13, 1989-2009. DOI: 10.1021/acs.jctc.7b00118
   for GFN0-xTB:
   * P. Pracht, E. Caldeweyher, S. Ehlert, S. Grimme, ChemRxiv, 2019, preprint.
     DOI: 10.26434/chemrxiv.8326202.v1
   for GFN-FF:
   * S. Spicher and S. Grimme, Angew. Chem. Int. Ed., 2020, 59, 15665-15673.
     DOI: 10.1002/anie.202004239
   
   for ALPB and GBSA implicit solvation:
   * S. Ehlert, M. Stahn, S. Spicher, S. Grimme, J. Chem. Theory Comput.,
     2021, 17, 4250-4261. DOI: 10.1021/acs.jctc.1c00471
   
   for ddCOSMO and CPCM-X implicit solvation:
   * M. Stahn, S. Ehlert, S. Grimme, J. Phys. Chem. A,
     2023, XX, XXXX-XXXX. DOI: 10.1021/acs.jpca.3c04382
   
   for DFT-D4:
   * E. Caldeweyher, C. Bannwarth and S. Grimme, J. Chem. Phys., 2017,
     147, 034112. DOI: 10.1063/1.4993215
   * E. Caldeweyher, S. Ehlert, A. Hansen, H. Neugebauer, S. Spicher,
     C. Bannwarth and S. Grimme, J. Chem. Phys., 2019, 150, 154122.
     DOI: 10.1063/1.5090222
   * E. Caldeweyher, J.-M. Mewes, S. Ehlert and S. Grimme, Phys. Chem. Chem. Phys.
     2020, 22, 8499-8512. DOI: 10.1039/D0CP00502A
   
   for sTDA-xTB:
   * S. Grimme and C. Bannwarth, J. Chem. Phys., 2016, 145, 054103.
     DOI: 10.1063/1.4959605
   
   in the mass-spec context:
   * V. Asgeirsson, C. Bauer and S. Grimme, Chem. Sci., 2017, 8, 4879.
     DOI: 10.1039/c7sc00601b
   * J. Koopman and S. Grimme, ACS Omega 2019, 4, 12, 15120-15133.
     DOI: 10.1021/acsomega.9b02011
   
   for metadynamics refer to:
   * S. Grimme, J. Chem. Theory Comput., 2019, 155, 2847-2862
     DOI: 10.1021/acs.jctc.9b00143
   
   for SPH calculations refer to:
   * S. Spicher and S. Grimme, J. Chem. Theory Comput., 2021, 17, 1701-1714
     DOI: 10.1021/acs.jctc.0c01306
   
   for ONIOM refer to:
   * C. Plett, A. Katbashev, S. Ehlert, S. Grimme, M. Bursch,
     Phys. Chem. Chem. Phys., 2023, 25, 17860-17868. DOI: 10.1039/D3CP02178E
   
   for DIPRO refer to:
   * J. Kohn, N. Gildemeister, S. Grimme, D. Fazzi, A. Hansen,
     J. Chem. Phys., 2023, just accepted.
   
   for PTB refer to:
   * S. Grimme, M. Mueller, A. Hansen, J. Chem. Phys., 2023, 158, 124111.
     DOI: 10.1063/5.0137838
   
   with help from (in alphabetical order)
   P. Atkinson, C. Bannwarth, F. Bohle, G. Brandenburg, E. Caldeweyher
   M. Checinski, S. Dohm, S. Ehlert, S. Ehrlich, I. Gerasimov, C. Hölzer
   A. Katbashev, J. Kohn, J. Koopman, C. Lavigne, S. Lehtola, F. März, M. Müller,
   F. Musil, H. Neugebauer, J. Pisarek, C. Plett, P. Pracht, F. Pultar,
   J. Seibert, P. Shushkov, S. Spicher, M. Stahn, M. Steiner, T. Strunk,
   J. Stückrath, T. Rose, and J. Unsleber
   
 * started run on 2025/07/19 at 19:24:36.221     
   ID    Z sym.   atoms
    1    8 O      1, 10
    2    6 C      2-9, 11-13, 15-18, 20-36
    3   16 S      14
    4    7 N      19
    5    1 H      37-55

           -------------------------------------------------
          |                Calculation Setup                |
           -------------------------------------------------

          program call               : xtb data2507/toluene/AQ-S-CZ/AQ-S-CZ_toluene_S0_crest.xyz --gfn 2 --gbsa toluene --ohess vtight --parallel 40 --molden --ceasefiles --namespace data2507/toluene/AQ-S-CZ/AQ-S-CZ_toluene_S0_finalOpt
          calculation namespace      : data2507/toluene/AQ-S-CZ/AQ-S-CZ_toluene_S0_finalOpt
          coordinate file            : data2507/toluene/AQ-S-CZ/AQ-S-CZ_toluene_S0_crest.xyz
          omp threads                :                    40


           -------------------------------------------------
          |                 G F N 2 - x T B                 |
           -------------------------------------------------

        Reference                      10.1021/acs.jctc.8b01176
      * Hamiltonian:
        H0-scaling (s, p, d)           1.850000    2.230000    2.230000
        zeta-weighting                 0.500000
      * Dispersion:
        s8                             2.700000
        a1                             0.520000
        a2                             5.000000
        s9                             5.000000
      * Repulsion:
        kExp                           1.500000    1.000000
        rExp                           1.000000
      * Coulomb:
        alpha                          2.000000
        third order                    shell-resolved
        anisotropic                    true
        a3                             3.000000
        a5                             4.000000
        cn-shift                       1.200000
        cn-exp                         4.000000
        max-rad                        5.000000

      * Solvation model:               GBSA
        Solvent                        toluene
        Parameter file                 internal GFN2-xTB/GBSA
        Dielectric constant                7.0000E+00
        Reference state                gsolv [1 M gas/solution]
        Free energy shift                  4.5239E-03 Eh       2.8388E+00 kcal/mol
        Temperature                        2.9815E+02 K
        Density                            8.6700E-01 kg/L
        Solvent mass                       9.2140E+01 g/mol
        Interaction kernel             Still
        Born radius scaling (c1)           1.5686E+00
        Born radii integrator          GBOBC
        Born offset                        0.0000E+00 a0       0.0000E+00 AA
        H-bond correction              false
        Ion screening                  false
        Surface tension                    1.0000E-05 Eh       1.5569E+01 dyn/cm
        Grid points                               230 per atom

          ...................................................
          :                      SETUP                      :
          :.................................................:
          :  # basis functions                 169          :
          :  # atomic orbitals                 168          :
          :  # shells                           92          :
          :  # electrons                       170          :
          :  max. iterations                   250          :
          :  Hamiltonian                  GFN2-xTB          :
          :  restarted?                      false          :
          :  GBSA solvation                   true          :
          :  PC potential                    false          :
          :  electronic temp.          300.0000000     K    :
          :  accuracy                    1.0000000          :
          :  -> integral cutoff          0.2500000E+02      :
          :  -> integral neglect         0.1000000E-07      :
          :  -> SCF convergence          0.1000000E-05 Eh   :
          :  -> wf. convergence          0.1000000E-03 e    :
          :  Broyden damping             0.4000000          :
          :  net charge                          0          :
          :  unpaired electrons                  0          :
          ...................................................

 iter      E             dE          RMSdq      gap      omega  full diag
   1    -94.0621147 -0.940621E+02  0.503E+00    0.83       0.0  T
   2    -94.1513496 -0.892348E-01  0.287E+00    0.88       1.0  T
   3    -94.1304892  0.208604E-01  0.129E+00    1.00       1.0  T
   4    -94.1656726 -0.351834E-01  0.302E-01    0.96       1.0  T
   5    -94.1683985 -0.272596E-02  0.142E-01    0.90       1.0  T
   6    -94.1689578 -0.559233E-03  0.481E-02    0.91       1.0  T
   7    -94.1690224 -0.646630E-04  0.175E-02    0.90       1.0  T
   8    -94.1690265 -0.405550E-05  0.918E-03    0.90       1.5  T
   9    -94.1690278 -0.136037E-05  0.357E-03    0.90       3.8  T
  10    -94.1690279 -0.654550E-07  0.145E-03    0.90       9.3  T
  11    -94.1690279 -0.282253E-07  0.762E-04    0.90      17.7  T
  12    -94.1690279 -0.799973E-08  0.369E-04    0.90      36.5  T

   *** convergence criteria satisfied after 12 iterations ***

         #    Occupation            Energy/Eh            Energy/eV
      -------------------------------------------------------------
         1        2.0000           -0.7331237             -19.9493
       ...           ...                  ...                  ...
        79        2.0000           -0.4192225             -11.4076
        80        2.0000           -0.4183840             -11.3848
        81        2.0000           -0.4071896             -11.0802
        82        2.0000           -0.3994723             -10.8702
        83        2.0000           -0.3828570             -10.4181
        84        2.0000           -0.3806448             -10.3579
        85        2.0000           -0.3654256              -9.9437 (HOMO)
        86                         -0.3322804              -9.0418 (LUMO)
        87                         -0.2853281              -7.7642
        88                         -0.2590762              -7.0498
        89                         -0.2533563              -6.8942
        90                         -0.2492880              -6.7835
       ...                                ...                  ...
       168                          0.7435864              20.2340
      -------------------------------------------------------------
                  HL-Gap            0.0331452 Eh            0.9019 eV
             Fermi-level           -0.3488530 Eh           -9.4928 eV

 SCC (total)                   0 d,  0 h,  0 min,  0.147 sec
 SCC setup                      ...        0 min,  0.001 sec (  1.012%)
 Dispersion                     ...        0 min,  0.003 sec (  2.239%)
 classical contributions        ...        0 min,  0.000 sec (  0.219%)
 integral evaluation            ...        0 min,  0.011 sec (  7.246%)
 iterations                     ...        0 min,  0.121 sec ( 82.117%)
 molecular gradient             ...        0 min,  0.010 sec (  6.641%)
 printout                       ...        0 min,  0.001 sec (  0.467%)

         :::::::::::::::::::::::::::::::::::::::::::::::::::::
         ::                     SUMMARY                     ::
         :::::::::::::::::::::::::::::::::::::::::::::::::::::
         :: total energy             -92.570834865403 Eh    ::
         :: total w/o Gsasa/hb       -92.535531619756 Eh    ::
         :: gradient norm              0.012936838716 Eh/a0 ::
         :: HOMO-LUMO gap              0.901927130048 eV    ::
         ::.................................................::
         :: SCC energy               -94.169311964502 Eh    ::
         :: -> isotropic ES            0.064624866689 Eh    ::
         :: -> anisotropic ES          0.001421120850 Eh    ::
         :: -> anisotropic XC          0.044609218800 Eh    ::
         :: -> dispersion             -0.076080520256 Eh    ::
         :: -> Gsolv                  -0.042724189146 Eh    ::
         ::    -> Gelec               -0.007420943499 Eh    ::
         ::    -> Gsasa               -0.039827125519 Eh    ::
         ::    -> Ghb                  0.000000000000 Eh    ::
         ::    -> Gshift               0.004523879872 Eh    ::
         :: repulsion energy           1.598477099099 Eh    ::
         :: add. restraining           0.000000000000 Eh    ::
         :: total charge              -0.000000000000 e     ::
         :::::::::::::::::::::::::::::::::::::::::::::::::::::

      ----------------------------------------------------------- 
     |                   =====================                   |
     |                        A N C O P T                        |
     |                   =====================                   |
     |               Approximate Normal Coordinate               |
     |                Rational Function Optimizer                |
      ----------------------------------------------------------- 

Optimization log is written to '/dev/null'
      ----------------------------------------------------------- 
     |                   =====================                   |
     |                        A N C O P T                        |
     |                   =====================                   |
     |               Approximate Normal Coordinate               |
     |                Rational Function Optimizer                |
      ----------------------------------------------------------- 

          ...................................................
          :                      SETUP                      :
          :.................................................:
          :   optimization level         verytight          :
          :   max. optcycles                  1100          :
          :   ANC micro-cycles                  20          :
          :   degrees of freedom               159          :
          :.................................................:
          :   RF solver                   davidson          :
          :   write xtbopt.log                true          :
          :   linear?                        false          :
          :   energy convergence         0.1000000E-06 Eh   :
          :   grad. convergence          0.2000000E-03 Eh/α :
          :   maxmium RF displ.          1.0000000          :
          :   Hlow (freq-cutoff)         0.1000000E-01      :
          :   Hmax (freq-cutoff)         5.0000000          :
          :   S6 in model hess.         20.0000000          :
          ...................................................

generating ANC from exact Hessian ...
Using Lindh-Hessian (1995)
 Shifting diagonal of input Hessian by   9.898789931017067E-003
 Lowest  eigenvalues of input Hessian
    0.000000    0.000000    0.000000    0.000000    0.000000    0.000000
    0.010000    0.010018    0.010311    0.010666    0.010821    0.011595
    0.012100    0.012718    0.013271    0.013772    0.014273    0.016001
 Highest eigenvalues
    2.065829    2.145004    2.177147    2.188589    2.224017    2.276773
 

........................................................................
.............................. CYCLE    1 ..............................
........................................................................

 iter      E             dE          RMSdq      gap      omega  full diag
   1    -94.1690279 -0.941690E+02  0.164E-04    0.90       0.0  T
   2    -94.1690279 -0.528047E-09  0.115E-04    0.90     116.8  T
   3    -94.1690279 -0.470422E-09  0.666E-05    0.90     202.4  T
     SCC iter.                  ...        0 min,  0.023 sec
     gradient                   ...        0 min,  0.008 sec
 * total energy  :   -92.5708349 Eh     change       -0.9691234E-09 Eh
   gradient norm :     0.0129343 Eh/α   predicted     0.0000000E+00 (-100.00%)
   displ. norm   :     0.0455451 α      lambda       -0.7170092E-04
   maximum displ.:     0.0265506 α      in ANC's #7, #12, #13, ...

........................................................................
.............................. CYCLE    2 ..............................
........................................................................

 iter      E             dE          RMSdq      gap      omega  full diag
   1    -94.1650124 -0.941650E+02  0.186E-02    0.88       0.0  T
   2    -94.1650174 -0.497727E-05  0.100E-02    0.89       1.3  T
   3    -94.1650174 -0.893076E-07  0.550E-03    0.89       2.5  T
   4    -94.1650176 -0.134236E-06  0.253E-03    0.89       5.3  T
   5    -94.1650178 -0.243516E-06  0.561E-04    0.89      24.0  T
   6    -94.1650178 -0.102329E-07  0.251E-04    0.89      53.7  T
     SCC iter.                  ...        0 min,  0.044 sec
     gradient                   ...        0 min,  0.006 sec
 * total energy  :   -92.5709204 Eh     change       -0.8549010E-04 Eh
   gradient norm :     0.0051287 Eh/α   predicted    -0.5997543E-04 ( -29.85%)
   displ. norm   :     0.0700090 α      lambda       -0.6282044E-04
   maximum displ.:     0.0486878 α      in ANC's #7, #12, #6, ...

........................................................................
.............................. CYCLE    3 ..............................
........................................................................

 iter      E             dE          RMSdq      gap      omega  full diag
   1    -94.1626262 -0.941626E+02  0.246E-02    0.88       0.0  T
   2    -94.1626296 -0.338225E-05  0.137E-02    0.88       1.0  T
   3    -94.1626291  0.456165E-06  0.603E-03    0.88       2.2  T
   4    -94.1626296 -0.505815E-06  0.236E-03    0.88       5.7  T
   5    -94.1626299 -0.282684E-06  0.404E-04    0.88      33.4  T
   6    -94.1626299 -0.412240E-08  0.201E-04    0.88      67.0  T
     SCC iter.                  ...        0 min,  0.034 sec
     gradient                   ...        0 min,  0.006 sec
 * total energy  :   -92.5709594 Eh     change       -0.3909122E-04 Eh
   gradient norm :     0.0018383 Eh/α   predicted    -0.3156854E-04 ( -19.24%)
   displ. norm   :     0.0827328 α      lambda       -0.1777951E-04
   maximum displ.:     0.0614842 α      in ANC's #7, #6, #2, ...

........................................................................
.............................. CYCLE    4 ..............................
........................................................................

 iter      E             dE          RMSdq      gap      omega  full diag
   1    -94.1624669 -0.941625E+02  0.264E-02    0.88       0.0  T
   2    -94.1624676 -0.604949E-06  0.154E-02    0.88       1.0  T
   3    -94.1624672  0.393998E-06  0.326E-03    0.88       4.1  T
   4    -94.1624676 -0.420016E-06  0.111E-03    0.88      12.2  T
   5    -94.1624676 -0.612101E-07  0.257E-04    0.88      52.6  T
   6    -94.1624676 -0.501743E-09  0.150E-04    0.88      90.0  T
     SCC iter.                  ...        0 min,  0.034 sec
     gradient                   ...        0 min,  0.006 sec
 * total energy  :   -92.5709786 Eh     change       -0.1911032E-04 Eh
   gradient norm :     0.0032629 Eh/α   predicted    -0.9237679E-05 ( -51.66%)
   displ. norm   :     0.0494919 α      lambda       -0.1545223E-04
   maximum displ.:     0.0337890 α      in ANC's #7, #2, #1, ...

........................................................................
.............................. CYCLE    5 ..............................
........................................................................

 iter      E             dE          RMSdq      gap      omega  full diag
   1    -94.1631479 -0.941631E+02  0.153E-02    0.88       0.0  T
   2    -94.1631481 -0.137676E-06  0.895E-03    0.88       1.5  T
   3    -94.1631481  0.256937E-07  0.997E-04    0.88      13.5  T
   4    -94.1631481 -0.366136E-07  0.349E-04    0.88      38.7  T
     SCC iter.                  ...        0 min,  0.023 sec
     gradient                   ...        0 min,  0.007 sec
 * total energy  :   -92.5709920 Eh     change       -0.1348350E-04 Eh
   gradient norm :     0.0022703 Eh/α   predicted    -0.7747040E-05 ( -42.54%)
   displ. norm   :     0.1038663 α      lambda       -0.2621645E-04
   maximum displ.:     0.0658635 α      in ANC's #7, #2, #1, ...

........................................................................
.............................. CYCLE    6 ..............................
........................................................................

 iter      E             dE          RMSdq      gap      omega  full diag
   1    -94.1639400 -0.941639E+02  0.313E-02    0.89       0.0  T
   2    -94.1639405 -0.528629E-06  0.183E-02    0.89       1.0  T
   3    -94.1639403  0.152676E-06  0.214E-03    0.89       6.3  T
   4    -94.1639405 -0.179158E-06  0.878E-04    0.89      15.4  T
   5    -94.1639406 -0.390459E-07  0.282E-04    0.89      47.8  T
     SCC iter.                  ...        0 min,  0.029 sec
     gradient                   ...        0 min,  0.006 sec
 * total energy  :   -92.5710116 Eh     change       -0.1952951E-04 Eh
   gradient norm :     0.0010825 Eh/α   predicted    -0.1325152E-04 ( -32.15%)
   displ. norm   :     0.1534528 α      lambda       -0.1488403E-04
   maximum displ.:     0.0940438 α      in ANC's #7, #2, #1, ...

........................................................................
.............................. CYCLE    7 ..............................
........................................................................

 iter      E             dE          RMSdq      gap      omega  full diag
   1    -94.1639338 -0.941639E+02  0.446E-02    0.89       0.0  T
   2    -94.1639343 -0.470488E-06  0.261E-02    0.89       1.0  T
   3    -94.1639342  0.105443E-06  0.218E-03    0.89       6.2  T
   4    -94.1639344 -0.184591E-06  0.868E-04    0.89      15.5  T
   5    -94.1639344 -0.242784E-07  0.367E-04    0.89      36.8  T
     SCC iter.                  ...        0 min,  0.028 sec
     gradient                   ...        0 min,  0.006 sec
 * total energy  :   -92.5710238 Eh     change       -0.1218655E-04 Eh
   gradient norm :     0.0016568 Eh/α   predicted    -0.7520978E-05 ( -38.28%)
   displ. norm   :     0.0414865 α      lambda       -0.3812476E-05
   maximum displ.:     0.0200035 α      in ANC's #2, #7, #1, ...

........................................................................
.............................. CYCLE    8 ..............................
........................................................................

 iter      E             dE          RMSdq      gap      omega  full diag
   1    -94.1637730 -0.941638E+02  0.104E-02    0.89       0.0  T
   2    -94.1637731 -0.581836E-07  0.614E-03    0.89       2.2  T
   3    -94.1637730  0.348436E-07  0.964E-04    0.89      14.0  T
   4    -94.1637731 -0.424690E-07  0.269E-04    0.89      50.1  T
     SCC iter.                  ...        0 min,  0.023 sec
     gradient                   ...        0 min,  0.006 sec
 * total energy  :   -92.5710279 Eh     change       -0.4191470E-05 Eh
   gradient norm :     0.0008626 Eh/α   predicted    -0.1911100E-05 ( -54.41%)
   displ. norm   :     0.0549990 α      lambda       -0.4749043E-05
   maximum displ.:     0.0281753 α      in ANC's #2, #1, #5, ...

........................................................................
.............................. CYCLE    9 ..............................
........................................................................

 iter      E             dE          RMSdq      gap      omega  full diag
   1    -94.1634820 -0.941635E+02  0.118E-02    0.89       0.0  T
   2    -94.1634821 -0.172330E-06  0.691E-03    0.89       2.0  T
   3    -94.1634821  0.425641E-07  0.125E-03    0.89      10.8  T
   4    -94.1634821 -0.490314E-07  0.457E-04    0.89      29.5  T
   5    -94.1634821 -0.103537E-07  0.152E-04    0.89      88.9  T
     SCC iter.                  ...        0 min,  0.028 sec
     gradient                   ...        0 min,  0.006 sec
 * total energy  :   -92.5710324 Eh     change       -0.4420803E-05 Eh
   gradient norm :     0.0007865 Eh/α   predicted    -0.2379202E-05 ( -46.18%)
   displ. norm   :     0.0418798 α      lambda       -0.2448765E-05
   maximum displ.:     0.0224295 α      in ANC's #2, #1, #5, ...

........................................................................
.............................. CYCLE   10 ..............................
........................................................................

 iter      E             dE          RMSdq      gap      omega  full diag
   1    -94.1634981 -0.941635E+02  0.790E-03    0.89       0.0  T
   2    -94.1634981 -0.162400E-07  0.463E-03    0.89       2.9  T
   3    -94.1634981  0.133326E-07  0.603E-04    0.89      22.4  T
   4    -94.1634981 -0.170211E-07  0.186E-04    0.89      72.5  T
     SCC iter.                  ...        0 min,  0.023 sec
     gradient                   ...        0 min,  0.006 sec
 * total energy  :   -92.5710353 Eh     change       -0.2940516E-05 Eh
   gradient norm :     0.0009139 Eh/α   predicted    -0.1229271E-05 ( -58.20%)
   displ. norm   :     0.0630350 α      lambda       -0.3555623E-05
   maximum displ.:     0.0333014 α      in ANC's #2, #1, #4, ...

........................................................................
.............................. CYCLE   11 ..............................
........................................................................

 iter      E             dE          RMSdq      gap      omega  full diag
   1    -94.1636411 -0.941636E+02  0.117E-02    0.89       0.0  T
   2    -94.1636412 -0.323790E-07  0.687E-03    0.89       2.0  T
   3    -94.1636411  0.279258E-07  0.857E-04    0.89      15.7  T
   4    -94.1636412 -0.360691E-07  0.214E-04    0.89      63.0  T
     SCC iter.                  ...        0 min,  0.023 sec
     gradient                   ...        0 min,  0.006 sec
 * total energy  :   -92.5710398 Eh     change       -0.4505578E-05 Eh
   gradient norm :     0.0007241 Eh/α   predicted    -0.1785621E-05 ( -60.37%)
   displ. norm   :     0.0918310 α      lambda       -0.4713434E-05
   maximum displ.:     0.0502056 α      in ANC's #1, #2, #4, ...

........................................................................
.............................. CYCLE   12 ..............................
........................................................................

 iter      E             dE          RMSdq      gap      omega  full diag
   1    -94.1636918 -0.941637E+02  0.162E-02    0.89       0.0  T
   2    -94.1636919 -0.627945E-07  0.950E-03    0.89       1.4  T
   3    -94.1636918  0.441352E-07  0.114E-03    0.89      11.9  T
   4    -94.1636919 -0.598059E-07  0.299E-04    0.89      45.2  T
   5    -94.1636919 -0.223731E-08  0.137E-04    0.89      98.3  T
     SCC iter.                  ...        0 min,  0.028 sec
     gradient                   ...        0 min,  0.006 sec
 * total energy  :   -92.5710455 Eh     change       -0.5659433E-05 Eh
   gradient norm :     0.0003922 Eh/α   predicted    -0.2369330E-05 ( -58.13%)
   displ. norm   :     0.1028773 α      lambda       -0.4279694E-05
   maximum displ.:     0.0583812 α      in ANC's #1, #2, #4, ...

........................................................................
.............................. CYCLE   13 ..............................
........................................................................

 iter      E             dE          RMSdq      gap      omega  full diag
   1    -94.1637249 -0.941637E+02  0.168E-02    0.89       0.0  T
   2    -94.1637249 -0.488391E-07  0.984E-03    0.89       1.4  T
   3    -94.1637249  0.284358E-07  0.978E-04    0.89      13.8  T
   4    -94.1637250 -0.451370E-07  0.298E-04    0.89      45.3  T
     SCC iter.                  ...        0 min,  0.023 sec
     gradient                   ...        0 min,  0.006 sec
 * total energy  :   -92.5710506 Eh     change       -0.5105738E-05 Eh
   gradient norm :     0.0004461 Eh/α   predicted    -0.2152652E-05 ( -57.84%)
   displ. norm   :     0.0964113 α      lambda       -0.3674549E-05
   maximum displ.:     0.0564840 α      in ANC's #1, #2, #4, ...

........................................................................
.............................. CYCLE   14 ..............................
........................................................................

 iter      E             dE          RMSdq      gap      omega  full diag
   1    -94.1637147 -0.941637E+02  0.145E-02    0.89       0.0  T
   2    -94.1637148 -0.315303E-07  0.850E-03    0.89       1.6  T
   3    -94.1637148  0.164677E-07  0.808E-04    0.89      16.7  T
   4    -94.1637148 -0.302967E-07  0.303E-04    0.89      44.5  T
     SCC iter.                  ...        0 min,  0.023 sec
     gradient                   ...        0 min,  0.006 sec
 * total energy  :   -92.5710549 Eh     change       -0.4301072E-05 Eh
   gradient norm :     0.0005887 Eh/α   predicted    -0.1849034E-05 ( -57.01%)
   displ. norm   :     0.0945453 α      lambda       -0.3498318E-05
   maximum displ.:     0.0567423 α      in ANC's #1, #2, #4, ...

........................................................................
.............................. CYCLE   15 ..............................
........................................................................

 iter      E             dE          RMSdq      gap      omega  full diag
   1    -94.1636948 -0.941637E+02  0.136E-02    0.89       0.0  T
   2    -94.1636948 -0.277074E-07  0.796E-03    0.89       1.7  T
   3    -94.1636948  0.131532E-07  0.748E-04    0.89      18.0  T
   4    -94.1636948 -0.248739E-07  0.324E-04    0.89      41.7  T
     SCC iter.                  ...        0 min,  0.023 sec
     gradient                   ...        0 min,  0.006 sec
 * total energy  :   -92.5710586 Eh     change       -0.3760990E-05 Eh
   gradient norm :     0.0004843 Eh/α   predicted    -0.1759419E-05 ( -53.22%)
   displ. norm   :     0.0677671 α      lambda       -0.2198451E-05
   maximum displ.:     0.0425166 α      in ANC's #1, #2, #4, ...

........................................................................
.............................. CYCLE   16 ..............................
........................................................................

 iter      E             dE          RMSdq      gap      omega  full diag
   1    -94.1636908 -0.941637E+02  0.942E-03    0.89       0.0  T
   2    -94.1636908 -0.154374E-07  0.551E-03    0.89       2.4  T
   3    -94.1636908  0.608603E-08  0.537E-04    0.89      25.1  T
   4    -94.1636908 -0.121972E-07  0.261E-04    0.89      51.7  T
     SCC iter.                  ...        0 min,  0.023 sec
     gradient                   ...        0 min,  0.006 sec
 * total energy  :   -92.5710611 Eh     change       -0.2497321E-05 Eh
   gradient norm :     0.0002529 Eh/α   predicted    -0.1103722E-05 ( -55.80%)
   displ. norm   :     0.0441504 α      lambda       -0.1363745E-05
   maximum displ.:     0.0291374 α      in ANC's #1, #2, #4, ...

........................................................................
.............................. CYCLE   17 ..............................
........................................................................

 iter      E             dE          RMSdq      gap      omega  full diag
   1    -94.1636681 -0.941637E+02  0.629E-03    0.89       0.0  T
   2    -94.1636681 -0.761665E-08  0.366E-03    0.89       3.7  T
   3    -94.1636681  0.204916E-08  0.359E-04    0.89      37.6  T
   4    -94.1636681 -0.436110E-08  0.192E-04    0.89      70.4  T
     SCC iter.                  ...        0 min,  0.023 sec
     gradient                   ...        0 min,  0.006 sec
 * total energy  :   -92.5710628 Eh     change       -0.1686994E-05 Eh
   gradient norm :     0.0001788 Eh/α   predicted    -0.6843394E-06 ( -59.43%)
   displ. norm   :     0.0437674 α      lambda       -0.1481842E-05
   maximum displ.:     0.0289613 α      in ANC's #1, #2, #8, ...

........................................................................
.............................. CYCLE   18 ..............................
........................................................................

 iter      E             dE          RMSdq      gap      omega  full diag
   1    -94.1636831 -0.941637E+02  0.687E-03    0.89       0.0  T
   2    -94.1636831 -0.738383E-08  0.402E-03    0.89       3.4  T
   3    -94.1636831  0.438868E-08  0.403E-04    0.89      33.4  T
   4    -94.1636831 -0.735548E-08  0.170E-04    0.89      79.4  T
     SCC iter.                  ...        0 min,  0.023 sec
     gradient                   ...        0 min,  0.006 sec
 * total energy  :   -92.5710647 Eh     change       -0.1865421E-05 Eh
   gradient norm :     0.0002991 Eh/α   predicted    -0.7453565E-06 ( -60.04%)
   displ. norm   :     0.0579474 α      lambda       -0.1885023E-05
   maximum displ.:     0.0377845 α      in ANC's #1, #2, #5, ...

........................................................................
.............................. CYCLE   19 ..............................
........................................................................

 iter      E             dE          RMSdq      gap      omega  full diag
   1    -94.1636775 -0.941637E+02  0.931E-03    0.89       0.0  T
   2    -94.1636775 -0.118861E-07  0.545E-03    0.89       2.5  T
   3    -94.1636775  0.881001E-08  0.562E-04    0.89      24.0  T
   4    -94.1636775 -0.139605E-07  0.209E-04    0.89      64.5  T
     SCC iter.                  ...        0 min,  0.023 sec
     gradient                   ...        0 min,  0.006 sec
 * total energy  :   -92.5710671 Eh     change       -0.2378447E-05 Eh
   gradient norm :     0.0004017 Eh/α   predicted    -0.9454582E-06 ( -60.25%)
   displ. norm   :     0.0743564 α      lambda       -0.2238103E-05
   maximum displ.:     0.0480561 α      in ANC's #1, #2, #5, ...

........................................................................
.............................. CYCLE   20 ..............................
........................................................................

 iter      E             dE          RMSdq      gap      omega  full diag
   1    -94.1636757 -0.941637E+02  0.117E-02    0.89       0.0  T
   2    -94.1636757 -0.154151E-07  0.688E-03    0.89       2.0  T
   3    -94.1636757  0.104381E-07  0.633E-04    0.89      21.3  T
   4    -94.1636757 -0.182387E-07  0.218E-04    0.89      61.8  T
     SCC iter.                  ...        0 min,  0.023 sec
     gradient                   ...        0 min,  0.006 sec
 * total energy  :   -92.5710699 Eh     change       -0.2872690E-05 Eh
   gradient norm :     0.0003768 Eh/α   predicted    -0.1123360E-05 ( -60.90%)
   displ. norm   :     0.0953555 α      lambda       -0.2727441E-05
   maximum displ.:     0.0614588 α      in ANC's #1, #2, #5, ...
 * RMSD in coord.:     0.1550451 α      energy gain  -0.2350786E-03 Eh

generating ANC from exact Hessian ...
Using Lindh-Hessian (1995)
 Shifting diagonal of input Hessian by   9.900571215242383E-003
 Lowest  eigenvalues of input Hessian
    0.000000    0.000000    0.000000    0.000000    0.000000    0.000000
    0.010000    0.010019    0.010315    0.010653    0.010847    0.011585
    0.012077    0.012709    0.013256    0.013745    0.014311    0.016008
 Highest eigenvalues
    2.065476    2.141636    2.161356    2.184421    2.216525    2.264411
 

........................................................................
.............................. CYCLE   21 ..............................
........................................................................

 iter      E             dE          RMSdq      gap      omega  full diag
   1    -94.1636850 -0.941637E+02  0.149E-02    0.89       0.0  T
   2    -94.1636850 -0.231051E-07  0.872E-03    0.89       1.5  T
   3    -94.1636850  0.113380E-07  0.725E-04    0.89      18.6  T
   4    -94.1636850 -0.235292E-07  0.255E-04    0.89      52.9  T
     SCC iter.                  ...        0 min,  0.023 sec
     gradient                   ...        0 min,  0.006 sec
 * total energy  :   -92.5710735 Eh     change       -0.3533696E-05 Eh
   gradient norm :     0.0002949 Eh/α   predicted     0.0000000E+00 (-100.00%)
   displ. norm   :     0.0106918 α      lambda       -0.7479112E-07
   maximum displ.:     0.0046864 α      in ANC's #14, #5, #1, ...

........................................................................
.............................. CYCLE   22 ..............................
........................................................................

 iter      E             dE          RMSdq      gap      omega  full diag
   1    -94.1637117 -0.941637E+02  0.338E-03    0.89       0.0  T
   2    -94.1637117 -0.287042E-08  0.198E-03    0.89       6.8  T
   3    -94.1637117  0.171954E-08  0.254E-04    0.89      53.2  T
   4    -94.1637117 -0.261829E-08  0.105E-04    0.89     128.5  T
     SCC iter.                  ...        0 min,  0.027 sec
     gradient                   ...        0 min,  0.007 sec
 * total energy  :   -92.5710747 Eh     change       -0.1174637E-05 Eh
   gradient norm :     0.0001867 Eh/α   predicted    -0.4609468E-06 ( -60.76%)
   displ. norm   :     0.0501234 α      lambda       -0.3215664E-05
   maximum displ.:     0.0217364 α      in ANC's #14, #5, #1, ...

........................................................................
.............................. CYCLE   23 ..............................
........................................................................

 iter      E             dE          RMSdq      gap      omega  full diag
   1    -94.1636898 -0.941637E+02  0.151E-02    0.89       0.0  T
   2    -94.1636898 -0.469323E-07  0.881E-03    0.89       1.5  T
   3    -94.1636898  0.135377E-07  0.978E-04    0.89      13.8  T
   4    -94.1636898 -0.314196E-07  0.449E-04    0.89      30.1  T
     SCC iter.                  ...        0 min,  0.024 sec
     gradient                   ...        0 min,  0.007 sec
 * total energy  :   -92.5710770 Eh     change       -0.2333564E-05 Eh
   gradient norm :     0.0003507 Eh/α   predicted    -0.1612061E-05 ( -30.92%)
   displ. norm   :     0.0113645 α      lambda       -0.6324752E-06
   maximum displ.:     0.0062365 α      in ANC's #1, #5, #2, ...

........................................................................
.............................. CYCLE   24 ..............................
........................................................................

 iter      E             dE          RMSdq      gap      omega  full diag
   1    -94.1636406 -0.941636E+02  0.315E-03    0.89       0.0  T
   2    -94.1636406 -0.208331E-08  0.186E-03    0.89       7.2  T
   3    -94.1636406  0.315588E-08  0.286E-04    0.89      47.1  T
   4    -94.1636406 -0.416669E-08  0.849E-05    0.89     158.9  T
     SCC iter.                  ...        0 min,  0.023 sec
     gradient                   ...        0 min,  0.006 sec
 * total energy  :   -92.5710776 Eh     change       -0.5777912E-06 Eh
   gradient norm :     0.0002150 Eh/α   predicted    -0.3173196E-06 ( -45.08%)
   displ. norm   :     0.0140616 α      lambda       -0.4616522E-06
   maximum displ.:     0.0077739 α      in ANC's #1, #5, #2, ...

........................................................................
.............................. CYCLE   25 ..............................
........................................................................

 iter      E             dE          RMSdq      gap      omega  full diag
   1    -94.1636466 -0.941636E+02  0.311E-03    0.89       0.0  T
   2    -94.1636466 -0.197791E-08  0.182E-03    0.89       7.4  T
   3    -94.1636466  0.440536E-09  0.186E-04    0.89      72.3  T
   4    -94.1636466 -0.105280E-08  0.879E-05    0.89     153.4  T
     SCC iter.                  ...        0 min,  0.023 sec
     gradient                   ...        0 min,  0.006 sec
 * total energy  :   -92.5710782 Eh     change       -0.5976585E-06 Eh
   gradient norm :     0.0001910 Eh/α   predicted    -0.2345083E-06 ( -60.76%)
   displ. norm   :     0.0337348 α      lambda       -0.1009987E-05
   maximum displ.:     0.0186691 α      in ANC's #1, #2, #5, ...

........................................................................
.............................. CYCLE   26 ..............................
........................................................................

 iter      E             dE          RMSdq      gap      omega  full diag
   1    -94.1636850 -0.941637E+02  0.722E-03    0.89       0.0  T
   2    -94.1636850 -0.874969E-08  0.423E-03    0.89       3.2  T
   3    -94.1636850  0.915520E-09  0.340E-04    0.89      39.7  T
   4    -94.1636850 -0.400337E-08  0.159E-04    0.89      84.7  T
     SCC iter.                  ...        0 min,  0.022 sec
     gradient                   ...        0 min,  0.006 sec
 * total energy  :   -92.5710793 Eh     change       -0.1111690E-05 Eh
   gradient norm :     0.0002329 Eh/α   predicted    -0.5070452E-06 ( -54.39%)
   displ. norm   :     0.0370364 α      lambda       -0.7286754E-06
   maximum displ.:     0.0208602 α      in ANC's #1, #2, #5, ...

........................................................................
.............................. CYCLE   27 ..............................
........................................................................

 iter      E             dE          RMSdq      gap      omega  full diag
   1    -94.1636856 -0.941637E+02  0.788E-03    0.89       0.0  T
   2    -94.1636856 -0.760704E-08  0.462E-03    0.89       2.9  T
   3    -94.1636856 -0.919741E-09  0.308E-04    0.89      43.7  T
   4    -94.1636856 -0.280427E-08  0.155E-04    0.89      86.9  T
     SCC iter.                  ...        0 min,  0.023 sec
     gradient                   ...        0 min,  0.006 sec
 * total energy  :   -92.5710802 Eh     change       -0.8943282E-06 Eh
   gradient norm :     0.0002631 Eh/α   predicted    -0.3684423E-06 ( -58.80%)
   displ. norm   :     0.0477462 α      lambda       -0.8815351E-06
   maximum displ.:     0.0272391 α      in ANC's #1, #2, #5, ...

........................................................................
.............................. CYCLE   28 ..............................
........................................................................

 iter      E             dE          RMSdq      gap      omega  full diag
   1    -94.1636988 -0.941637E+02  0.101E-02    0.89       0.0  T
   2    -94.1636988 -0.998179E-08  0.595E-03    0.89       2.3  T
   3    -94.1636988 -0.315767E-08  0.318E-04    0.89      42.4  T
   4    -94.1636988 -0.220341E-08  0.169E-04    0.89      80.0  T
     SCC iter.                  ...        0 min,  0.023 sec
     gradient                   ...        0 min,  0.006 sec
 * total energy  :   -92.5710813 Eh     change       -0.1159661E-05 Eh
   gradient norm :     0.0002431 Eh/α   predicted    -0.4423835E-06 ( -61.85%)
   displ. norm   :     0.0617450 α      lambda       -0.1187330E-05
   maximum displ.:     0.0355840 α      in ANC's #1, #2, #5, ...

........................................................................
.............................. CYCLE   29 ..............................
........................................................................

 iter      E             dE          RMSdq      gap      omega  full diag
   1    -94.1636967 -0.941637E+02  0.131E-02    0.89       0.0  T
   2    -94.1636968 -0.150789E-07  0.768E-03    0.89       1.8  T
   3    -94.1636968 -0.373215E-08  0.392E-04    0.89      34.4  T
   4    -94.1636968 -0.456325E-08  0.188E-04    0.89      71.8  T
     SCC iter.                  ...        0 min,  0.022 sec
     gradient                   ...        0 min,  0.006 sec
 * total energy  :   -92.5710828 Eh     change       -0.1467409E-05 Eh
   gradient norm :     0.0001619 Eh/α   predicted    -0.5988805E-06 ( -59.19%)
   displ. norm   :     0.0651518 α      lambda       -0.1049714E-05
   maximum displ.:     0.0384854 α      in ANC's #1, #2, #3, ...

........................................................................
.............................. CYCLE   30 ..............................
........................................................................

 iter      E             dE          RMSdq      gap      omega  full diag
   1    -94.1636731 -0.941637E+02  0.136E-02    0.89       0.0  T
   2    -94.1636731 -0.155341E-07  0.796E-03    0.89       1.7  T
   3    -94.1636731 -0.102341E-08  0.434E-04    0.89      31.1  T
   4    -94.1636731 -0.748614E-08  0.182E-04    0.89      74.0  T
     SCC iter.                  ...        0 min,  0.023 sec
     gradient                   ...        0 min,  0.006 sec
 * total energy  :   -92.5710840 Eh     change       -0.1161397E-05 Eh
   gradient norm :     0.0001465 Eh/α   predicted    -0.5276139E-06 ( -54.57%)
   displ. norm   :     0.0403831 α      lambda       -0.5619330E-06
   maximum displ.:     0.0248321 α      in ANC's #1, #2, #3, ...

........................................................................
.............................. CYCLE   31 ..............................
........................................................................

 iter      E             dE          RMSdq      gap      omega  full diag
   1    -94.1636778 -0.941637E+02  0.807E-03    0.89       0.0  T
   2    -94.1636778 -0.540669E-08  0.474E-03    0.89       2.8  T
   3    -94.1636778  0.235470E-08  0.315E-04    0.89      42.9  T
   4    -94.1636778 -0.527180E-08  0.110E-04    0.89     122.7  T
     SCC iter.                  ...        0 min,  0.023 sec
     gradient                   ...        0 min,  0.006 sec
 * total energy  :   -92.5710845 Eh     change       -0.5678301E-06 Eh
   gradient norm :     0.0001628 Eh/α   predicted    -0.2841327E-06 ( -49.96%)
   displ. norm   :     0.0413942 α      lambda        0.2900584E-06
   maximum displ.:     0.0254702 α      in ANC's #1, #2, #3, ...

........................................................................
.............................. CYCLE   32 ..............................
........................................................................

 iter      E             dE          RMSdq      gap      omega  full diag
   1    -94.1636687 -0.941637E+02  0.825E-03    0.89       0.0  T
   2    -94.1636687 -0.552431E-08  0.485E-03    0.89       2.8  T
   3    -94.1636687  0.151563E-08  0.289E-04    0.89      46.7  T
   4    -94.1636687 -0.438057E-08  0.111E-04    0.89     121.0  T
     SCC iter.                  ...        0 min,  0.023 sec
     gradient                   ...        0 min,  0.006 sec
 * total energy  :   -92.5710845 Eh     change        0.9803784E-09 Eh
   gradient norm :     0.0003894 Eh/α   predicted     0.1449564E-06 (*******%)
   displ. norm   :     0.0052752 α      lambda       -0.4612112E-06
   maximum displ.:     0.0027302 α      in ANC's #4, #1, #2, ...

........................................................................
.............................. CYCLE   33 ..............................
........................................................................

 iter      E             dE          RMSdq      gap      omega  full diag
   1    -94.1636809 -0.941637E+02  0.168E-03    0.89       0.0  T
   2    -94.1636809 -0.373873E-09  0.100E-03    0.89      13.5  T
   3    -94.1636809  0.435122E-09  0.111E-04    0.89     121.9  T
   4    -94.1636810 -0.577160E-09  0.425E-05    0.89     317.4  T
     SCC iter.                  ...        0 min,  0.023 sec
     gradient                   ...        0 min,  0.006 sec
 * total energy  :   -92.5710850 Eh     change       -0.4834668E-06 Eh
   gradient norm :     0.0001426 Eh/α   predicted    -0.2320326E-06 ( -52.01%)
   displ. norm   :     0.0095795 α      lambda       -0.3293139E-06
   maximum displ.:     0.0052685 α      in ANC's #4, #1, #2, ...

........................................................................
.............................. CYCLE   34 ..............................
........................................................................

 iter      E             dE          RMSdq      gap      omega  full diag
   1    -94.1636585 -0.941637E+02  0.215E-03    0.89       0.0  T
   2    -94.1636585 -0.746397E-09  0.125E-03    0.89      10.7  T
   3    -94.1636585  0.514603E-09  0.134E-04    0.89     100.3  T
   4    -94.1636585 -0.675158E-09  0.648E-05    0.89     208.0  T
     SCC iter.                  ...        0 min,  0.022 sec
     gradient                   ...        0 min,  0.006 sec
 * total energy  :   -92.5710854 Eh     change       -0.3738506E-06 Eh
   gradient norm :     0.0001134 Eh/α   predicted    -0.1664035E-06 ( -55.49%)
   displ. norm   :     0.0164833 α      lambda       -0.3784161E-06
   maximum displ.:     0.0086122 α      in ANC's #4, #1, #2, ...

........................................................................
.............................. CYCLE   35 ..............................
........................................................................

 iter      E             dE          RMSdq      gap      omega  full diag
   1    -94.1636618 -0.941637E+02  0.334E-03    0.89       0.0  T
   2    -94.1636618 -0.149046E-08  0.194E-03    0.89       6.9  T
   3    -94.1636618  0.124786E-08  0.204E-04    0.89      66.1  T
   4    -94.1636618 -0.180241E-08  0.868E-05    0.89     155.4  T
     SCC iter.                  ...        0 min,  0.023 sec
     gradient                   ...        0 min,  0.006 sec
 * total energy  :   -92.5710858 Eh     change       -0.4629167E-06 Eh
   gradient norm :     0.0001982 Eh/α   predicted    -0.1910683E-06 ( -58.73%)
   displ. norm   :     0.0256609 α      lambda       -0.4955293E-06
   maximum displ.:     0.0128623 α      in ANC's #4, #1, #2, ...

........................................................................
.............................. CYCLE   36 ..............................
........................................................................

 iter      E             dE          RMSdq      gap      omega  full diag
   1    -94.1636616 -0.941637E+02  0.478E-03    0.89       0.0  T
   2    -94.1636616 -0.314773E-08  0.278E-03    0.89       4.9  T
   3    -94.1636616  0.221152E-08  0.292E-04    0.89      46.1  T
   4    -94.1636616 -0.345570E-08  0.127E-04    0.89     105.8  T
     SCC iter.                  ...        0 min,  0.023 sec
     gradient                   ...        0 min,  0.006 sec
 * total energy  :   -92.5710865 Eh     change       -0.6169697E-06 Eh
   gradient norm :     0.0002198 Eh/α   predicted    -0.2526758E-06 ( -59.05%)
   displ. norm   :     0.0369065 α      lambda       -0.6026882E-06
   maximum displ.:     0.0199863 α      in ANC's #1, #2, #4, ...

........................................................................
.............................. CYCLE   37 ..............................
........................................................................

 iter      E             dE          RMSdq      gap      omega  full diag
   1    -94.1636612 -0.941637E+02  0.594E-03    0.89       0.0  T
   2    -94.1636612 -0.510288E-08  0.345E-03    0.89       3.9  T
   3    -94.1636612  0.319740E-08  0.373E-04    0.89      36.1  T
   4    -94.1636612 -0.537146E-08  0.165E-04    0.89      81.7  T
     SCC iter.                  ...        0 min,  0.023 sec
     gradient                   ...        0 min,  0.006 sec
 * total energy  :   -92.5710872 Eh     change       -0.7318519E-06 Eh
   gradient norm :     0.0001898 Eh/α   predicted    -0.3030456E-06 ( -58.59%)
   displ. norm   :     0.0438269 α      lambda       -0.5744322E-06
   maximum displ.:     0.0255212 α      in ANC's #1, #2, #4, ...

........................................................................
.............................. CYCLE   38 ..............................
........................................................................

 iter      E             dE          RMSdq      gap      omega  full diag
   1    -94.1636710 -0.941637E+02  0.584E-03    0.89       0.0  T
   2    -94.1636710 -0.615759E-08  0.338E-03    0.89       4.0  T
   3    -94.1636710  0.418478E-08  0.428E-04    0.89      31.5  T
   4    -94.1636710 -0.677024E-08  0.187E-04    0.89      71.9  T
     SCC iter.                  ...        0 min,  0.023 sec
     gradient                   ...        0 min,  0.006 sec
 * total energy  :   -92.5710879 Eh     change       -0.6888416E-06 Eh
   gradient norm :     0.0001337 Eh/α   predicted    -0.2896778E-06 ( -57.95%)
   displ. norm   :     0.0393844 α      lambda       -0.4361734E-06
   maximum displ.:     0.0247363 α      in ANC's #1, #2, #4, ...

........................................................................
.............................. CYCLE   39 ..............................
........................................................................

 iter      E             dE          RMSdq      gap      omega  full diag
   1    -94.1636591 -0.941637E+02  0.415E-03    0.89       0.0  T
   2    -94.1636591 -0.357322E-08  0.240E-03    0.89       5.6  T
   3    -94.1636591  0.289471E-08  0.337E-04    0.89      40.0  T
   4    -94.1636591 -0.440994E-08  0.141E-04    0.89      95.8  T
     SCC iter.                  ...        0 min,  0.023 sec
     gradient                   ...        0 min,  0.006 sec
 * total energy  :   -92.5710884 Eh     change       -0.5257299E-06 Eh
   gradient norm :     0.0000946 Eh/α   predicted    -0.2225832E-06 ( -57.66%)
   displ. norm   :     0.0342780 α      lambda       -0.3731444E-06
   maximum displ.:     0.0227711 α      in ANC's #1, #2, #4, ...

........................................................................
.............................. CYCLE   40 ..............................
........................................................................

 iter      E             dE          RMSdq      gap      omega  full diag
   1    -94.1636634 -0.941637E+02  0.351E-03    0.89       0.0  T
   2    -94.1636634 -0.183879E-08  0.205E-03    0.89       6.6  T
   3    -94.1636634  0.208367E-08  0.254E-04    0.89      53.1  T
   4    -94.1636634 -0.297798E-08  0.874E-05    0.89     154.2  T
     SCC iter.                  ...        0 min,  0.023 sec
     gradient                   ...        0 min,  0.006 sec
 * total energy  :   -92.5710889 Eh     change       -0.4520504E-06 Eh
   gradient norm :     0.0001005 Eh/α   predicted    -0.1871262E-06 ( -58.61%)
   displ. norm   :     0.0373853 α      lambda       -0.3672704E-06
   maximum displ.:     0.0248726 α      in ANC's #1, #2, #3, ...

........................................................................
.............................. CYCLE   41 ..............................
........................................................................

 iter      E             dE          RMSdq      gap      omega  full diag
   1    -94.1636594 -0.941637E+02  0.487E-03    0.89       0.0  T
   2    -94.1636594 -0.217587E-08  0.285E-03    0.89       4.7  T
   3    -94.1636594  0.923308E-09  0.210E-04    0.89      64.2  T
   4    -94.1636594 -0.193889E-08  0.754E-05    0.89     178.9  T
     SCC iter.                  ...        0 min,  0.023 sec
     gradient                   ...        0 min,  0.006 sec
 * total energy  :   -92.5710893 Eh     change       -0.4526540E-06 Eh
   gradient norm :     0.0001272 Eh/α   predicted    -0.1854752E-06 ( -59.02%)
   displ. norm   :     0.0441103 α      lambda       -0.3537937E-06
   maximum displ.:     0.0288772 α      in ANC's #1, #2, #3, ...

........................................................................
.............................. CYCLE   42 ..............................
........................................................................

 iter      E             dE          RMSdq      gap      omega  full diag
   1    -94.1636502 -0.941637E+02  0.640E-03    0.89       0.0  T
   2    -94.1636502 -0.368897E-08  0.375E-03    0.89       3.6  T
   3    -94.1636502  0.377980E-09  0.228E-04    0.89      59.2  T
   4    -94.1636502 -0.211024E-08  0.950E-05    0.89     142.0  T
     SCC iter.                  ...        0 min,  0.023 sec
     gradient                   ...        0 min,  0.006 sec
 * total energy  :   -92.5710897 Eh     change       -0.4387881E-06 Eh
   gradient norm :     0.0001350 Eh/α   predicted    -0.1797667E-06 ( -59.03%)
   displ. norm   :     0.0426486 α      lambda       -0.2786525E-06
   maximum displ.:     0.0279229 α      in ANC's #1, #2, #3, ...
 * RMSD in coord.:     0.0832646 α      energy gain  -0.1980580E-04 Eh

generating ANC from exact Hessian ...
Using Lindh-Hessian (1995)
 Shifting diagonal of input Hessian by   9.900686806211702E-003
 Lowest  eigenvalues of input Hessian
    0.000000    0.000000    0.000000    0.000000    0.000000    0.000000
    0.010000    0.010019    0.010315    0.010660    0.010840    0.011586
    0.012076    0.012709    0.013257    0.013746    0.014321    0.015993
 Highest eigenvalues
    2.065438    2.141579    2.161219    2.184320    2.216250    2.264212
 

........................................................................
.............................. CYCLE   43 ..............................
........................................................................

 iter      E             dE          RMSdq      gap      omega  full diag
   1    -94.1636618 -0.941637E+02  0.619E-03    0.89       0.0  T
   2    -94.1636618 -0.393678E-08  0.362E-03    0.89       3.7  T
   3    -94.1636618  0.306841E-09  0.236E-04    0.89      57.0  T
   4    -94.1636618 -0.197434E-08  0.106E-04    0.89     126.8  T
     SCC iter.                  ...        0 min,  0.023 sec
     gradient                   ...        0 min,  0.006 sec
 * total energy  :   -92.5710901 Eh     change       -0.3375021E-06 Eh
   gradient norm :     0.0000992 Eh/α   predicted     0.0000000E+00 (-100.00%)
   displ. norm   :     0.0025861 α      lambda       -0.1000469E-07
   maximum displ.:     0.0011629 α      in ANC's #12, #8, #2, ...

........................................................................
.............................. CYCLE   44 ..............................
........................................................................

 iter      E             dE          RMSdq      gap      omega  full diag
   1    -94.1636719 -0.941637E+02  0.863E-04    0.89       0.0  T
   2    -94.1636719 -0.125411E-09  0.508E-04    0.89      26.6  T
   3    -94.1636719  0.182183E-09  0.695E-05    0.89     194.0  T
     SCC iter.                  ...        0 min,  0.017 sec
     gradient                   ...        0 min,  0.006 sec
 * total energy  :   -92.5710902 Eh     change       -0.6666475E-07 Eh
   gradient norm :     0.0000659 Eh/α   predicted    -0.3259537E-07 ( -51.11%)
   displ. norm   :     0.0025861 α      lambda        0.0000000E+00
   maximum displ.:     0.0011629 α      in ANC's #12, #8, #2, ...

   *** GEOMETRY OPTIMIZATION CONVERGED AFTER 44 ITERATIONS ***

------------------------------------------------------------------------
 total energy gain   :        -0.0002553 Eh       -0.1602 kcal/mol
 total RMSD          :         0.2201918 a0        0.1165 Å
 total power (kW/mol):        -0.0152332 (step)   -0.4236 (real)
------------------------------------------------------------------------

 ANCopt (total)                0 d,  0 h,  0 min,  1.583 sec
 optimizer setup                ...        0 min,  0.000 sec (  0.019%)
 model hessian                  ...        0 min,  0.049 sec (  3.076%)
 ANC generation                 ...        0 min,  0.011 sec (  0.705%)
 coordinate transformation      ...        0 min,  0.004 sec (  0.266%)
 single point calculation       ...        0 min,  1.498 sec ( 94.673%)
 optimization log               ...        0 min,  0.008 sec (  0.516%)
 hessian update                 ...        0 min,  0.004 sec (  0.270%)
 rational function              ...        0 min,  0.004 sec (  0.236%)

================
 final structure:
================
55
 xtb: 6.7.1 (edcfbbe)
O            6.87271902780688       -0.81977410733996       -0.52759202162568
C            5.79079217711284       -0.32008942164839       -0.24617999259189
C            5.65728953174971        1.12058413054386        0.06016845987670
C            6.79681747411434        1.92086596650192        0.03583483895603
C            6.71833516432586        3.27366964078524        0.31645905790154
C            5.49373851359547        3.84668732880070        0.62687973267681
C            4.35361287377741        3.06391784207968        0.65422301955037
C            4.41900453830587        1.70034434276822        0.37368310667833
C            3.17713496814386        0.90582297058418        0.41176303363636
O            2.09059606374601        1.40956072866527        0.65566542594986
C            3.31733874098165       -0.53862228719594        0.12768269422874
C            2.17685028739822       -1.32847103962092        0.17659895086181
C            2.24459932199523       -2.68779252684566       -0.10140002883653
S            0.83992501647140       -3.74467644600365       -0.04040421259279
C           -0.52324082419077       -2.59068326024957       -0.04633887307985
C           -1.43672561525437       -2.61294355308635        0.99694417264703
C           -2.50541294905740       -1.73716498612759        0.99064997257707
C           -2.66794241490108       -0.83716028433977       -0.06113110516084
N           -3.74156563988989        0.05838229289514       -0.06545144374711
C           -5.07119071215109       -0.26740576121100        0.13236833707963
C           -5.65746333275886       -1.50865906571314        0.33483103189504
C           -7.03174620095605       -1.55847868068729        0.47556027772895
C           -7.81234362466738       -0.40639288795040        0.40857321983952
C           -7.23693650736389        0.82832629770497        0.18168933296066
C           -5.85744839256662        0.90359902207894        0.03720328796134
C           -4.94949984980616        1.98665931209121       -0.22354881082174
C           -5.11936098092090        3.35479708292990       -0.39370582482195
C           -4.00295828740053        4.13861168593500       -0.60871601649722
C           -2.72833203727030        3.57664511176350       -0.63702115464019
C           -2.53408565186235        2.21817131684062       -0.47082998508738
C           -3.65497582417612        1.42199529997618       -0.28278936857714
C           -1.75316748241635       -0.83620633970094       -1.11411182426204
C           -0.68813182988216       -1.71371215777503       -1.11036968550839
C            3.47831602863241       -3.26657902317495       -0.40929841893031
C            4.61269701247359       -2.48730927082763       -0.44919736231334
C            4.55654336663069       -1.11557758282359       -0.18872264213217
H            7.74040916896591        1.45465530855016       -0.20797466039631
H            7.61115618795794        3.87999447801154        0.29362349258417
H            5.42784793809866        4.90152935916241        0.84634940041285
H            3.38951775393354        3.48889060294278        0.89298572507729
H            1.24319815623372       -0.85325146372362        0.43907532759750
H           -1.30074736668077       -3.30443415277635        1.81413574573034
H           -3.20531519136851       -1.73108596961992        1.81204436724364
H           -5.06547159931409       -2.41063309884339        0.36987894915970
H           -7.51126695794200       -2.51287161966758        0.63736172244653
H           -8.88308460628172       -0.48616939972575        0.52629373398381
H           -7.84353235479470        1.71889383521812        0.11283961052756
H           -6.10524891868199        3.79319461704666       -0.35281980186907
H           -4.11354249189343        5.20429122169528       -0.74614634846567
H           -1.87071035432098        4.21605829705491       -0.78766687491430
H           -1.53879271503497        1.79987356983814       -0.47308120589908
H           -1.89169605147315       -0.15738905864279       -1.94156728648167
H            0.01529171933637       -1.71884292387444       -1.92952671233386
H            3.52943987927393       -4.32465028599303       -0.61568532659622
H            5.57227179313191       -2.92087420918640       -0.68938291878767
 
 Bond Distances (Angstroems)
 ---------------------------
O1-C2=1.2245         C2-O1=1.2245         C2-C3=1.4789         C2-C36=1.4695        C3-C2=1.4789         C3-C4=1.3927         
C3-C8=1.4028         C4-C3=1.3927         C4-C5=1.3838         C4-H37=1.0804        C5-C4=1.3838         C5-C6=1.3872         
C5-H38=1.0795        C6-C5=1.3872         C6-C7=1.3832         C6-H39=1.0794        C7-C6=1.3832         C7-C8=1.3937         
C7-H40=1.0803        C8-C3=1.4028         C8-C7=1.3937         C8-C9=1.4748         C9-C8=1.4748         C9-O10=1.2222        
C9-C11=1.4788        O10-C9=1.2222        C11-C9=1.4788        C11-C12=1.3882       C11-C36=1.4031       C12-C11=1.3882       
C12-C13=1.3891       C12-H41=1.0800       C13-C12=1.3891       C13-S14=1.7589       C13-C34=1.3971       S14-C13=1.7589       
S14-C15=1.7860       C15-S14=1.7860       C15-C16=1.3869       C15-C33=1.3887       C16-C15=1.3869       C16-C17=1.3817       
C16-H42=1.0791       C17-C16=1.3817       C17-C18=1.3938       C17-H43=1.0792       C18-C17=1.3938       C18-N19=1.3981       
C18-C32=1.3948       N19-C18=1.3981       N19-C20=1.3832       N19-C31=1.3835       C20-N19=1.3832       C20-C21=1.3876       
C20-C25=1.4137       C21-C20=1.3876       C21-C22=1.3824       C21-H44=1.0795       C22-C21=1.3824       C22-C23=1.3932       
C22-H45=1.0803       C23-C22=1.3932       C23-C24=1.3810       C23-H46=1.0801       C24-C23=1.3810       C24-C25=1.3891       
C24-H47=1.0797       C25-C20=1.4137       C25-C24=1.3891       C25-C26=1.4371       C26-C25=1.4371       C26-C27=1.3891       
C26-C31=1.4136       C27-C26=1.3891       C27-C28=1.3809       C27-H48=1.0797       C28-C27=1.3809       C28-C29=1.3933       
C28-H49=1.0802       C29-C28=1.3933       C29-C30=1.3823       C29-H50=1.0803       C30-C29=1.3823       C30-C31=1.3877       
C30-H51=1.0796       C31-N19=1.3835       C31-C26=1.4136       C31-C30=1.3877       C32-C18=1.3948       C32-C33=1.3800       
C32-H52=1.0792       C33-C15=1.3887       C33-C32=1.3800       C33-H53=1.0797       C34-C13=1.3971       C34-C35=1.3768       
C34-H54=1.0792       C35-C34=1.3768       C35-C36=1.3974       C35-H55=1.0800       C36-C2=1.4695        C36-C11=1.4031       
C36-C35=1.3974       H37-C4=1.0804        H38-C5=1.0795        H39-C6=1.0794        H40-C7=1.0803        H41-C12=1.0800       
H42-C16=1.0791       H43-C17=1.0792       H44-C21=1.0795       H45-C22=1.0803       H46-C23=1.0801       H47-C24=1.0797       
H48-C27=1.0797       H49-C28=1.0802       H50-C29=1.0803       H51-C30=1.0796       H52-C32=1.0792       H53-C33=1.0797       
H54-C34=1.0792       H55-C35=1.0800       
 C  H  Rav=1.0798 sigma=0.0004  Rmin=1.0791  Rmax=1.0804    19
 C  C  Rav=1.4015 sigma=0.0289  Rmin=1.3768  Rmax=1.4789    35
 N  C  Rav=1.3883 sigma=0.0070  Rmin=1.3832  Rmax=1.3981     3
 O  C  Rav=1.2234 sigma=0.0012  Rmin=1.2222  Rmax=1.2245     2
 S  C  Rav=1.7725 sigma=0.0136  Rmin=1.7589  Rmax=1.7860     2
 
 selected bond angles (degree)
 --------------------
C3-C2-O1=121.66                C36-C2-O1=122.02               C36-C2-C3=116.32               C4-C3-C2=118.84                
C8-C3-C2=121.91                C8-C3-C4=119.25                C5-C4-C3=120.78                H37-C4-C3=118.07               
H37-C4-C5=121.14               C6-C5-C4=119.95                H38-C5-C4=119.86               H38-C5-C6=120.19               
C7-C6-C5=119.89                H39-C6-C5=120.20               H39-C6-C7=119.91               C8-C7-C6=120.73                
H40-C7-C6=121.15               H40-C7-C8=118.12               C7-C8-C3=119.39                C9-C8-C3=121.77                
C9-C8-C7=118.84                O10-C9-C8=122.12               C11-C9-C8=116.20               C11-C9-O10=121.68              
 
 selected dihedral angles (degree)
 ---------------------------------
C4-C3-C2-O1=359.51            C4-C3-C2-C36=179.28           C8-C3-C2-O1=179.53            C8-C3-C2-C36=359.30           
C5-C4-C3-C2=180.02            C5-C4-C3-C8=  0.00            H37-C4-C3-C2=  0.00           H37-C4-C3-C8=180.00           
C6-C5-C4-C3=  0.00            C6-C5-C4-H37=180.02           H38-C5-C4-C3=179.98           H38-C5-C4-H37=  0.00          
C7-C6-C5-C4=359.96            C7-C6-C5-H38=179.99           H39-C6-C5-C4=180.01           H39-C6-C5-H38=  0.04          
C8-C7-C6-C5=  0.05            C8-C7-C6-H39=180.00           H40-C7-C6-C5=180.03           H40-C7-C6-H39=  0.00          
C7-C8-C3-C2=179.98            C7-C8-C3-C4=  0.00            C9-C8-C3-C2=359.81            C9-C8-C3-C4=179.83            
C3-C8-C7-C6=359.97            C3-C8-C7-H40=179.99           C9-C8-C7-C6=180.14            C9-C8-C7-H40=  0.16           
O10-C9-C8-C3=181.62           O10-C9-C8-C7=  1.45           C11-C9-C8-C3=  1.19           C11-C9-C8-C7=181.02           
           -------------------------------------------------
          |                Final Singlepoint                |
           -------------------------------------------------

          ...................................................
          :                      SETUP                      :
          :.................................................:
          :  # basis functions                 169          :
          :  # atomic orbitals                 168          :
          :  # shells                           92          :
          :  # electrons                       170          :
          :  max. iterations                   250          :
          :  Hamiltonian                  GFN2-xTB          :
          :  restarted?                      false          :
          :  GBSA solvation                   true          :
          :  PC potential                    false          :
          :  electronic temp.          300.0000000     K    :
          :  accuracy                    1.0000000          :
          :  -> integral cutoff          0.2500000E+02      :
          :  -> integral neglect         0.1000000E-07      :
          :  -> SCF convergence          0.1000000E-05 Eh   :
          :  -> wf. convergence          0.1000000E-03 e    :
          :  Broyden damping             0.4000000          :
          :  net charge                          0          :
          :  unpaired electrons                  0          :
          ...................................................

 iter      E             dE          RMSdq      gap      omega  full diag
   1    -94.1636719 -0.941637E+02  0.229E-05    0.89       0.0  T
   2    -94.1636719 -0.351008E-11  0.132E-05    0.89    1021.9  T
   3    -94.1636719 -0.287059E-11  0.857E-06    0.89    1572.6  T

   *** convergence criteria satisfied after 3 iterations ***

         #    Occupation            Energy/Eh            Energy/eV
      -------------------------------------------------------------
         1        2.0000           -0.7333271             -19.9548
       ...           ...                  ...                  ...
        79        2.0000           -0.4193319             -11.4106
        80        2.0000           -0.4183394             -11.3836
        81        2.0000           -0.4071815             -11.0800
        82        2.0000           -0.3998395             -10.8802
        83        2.0000           -0.3831112             -10.4250
        84        2.0000           -0.3806149             -10.3571
        85        2.0000           -0.3658174              -9.9544 (HOMO)
        86                         -0.3330357              -9.0624 (LUMO)
        87                         -0.2858233              -7.7776
        88                         -0.2596602              -7.0657
        89                         -0.2538571              -6.9078
        90                         -0.2495830              -6.7915
       ...                                ...                  ...
       168                          0.7420845              20.1931
      -------------------------------------------------------------
                  HL-Gap            0.0327817 Eh            0.8920 eV
             Fermi-level           -0.3494266 Eh           -9.5084 eV

 SCC (total)                   0 d,  0 h,  0 min,  0.027 sec
 SCC setup                      ...        0 min,  0.000 sec (  1.694%)
 Dispersion                     ...        0 min,  0.001 sec (  2.078%)
 classical contributions        ...        0 min,  0.000 sec (  0.105%)
 integral evaluation            ...        0 min,  0.002 sec (  7.947%)
 iterations                     ...        0 min,  0.017 sec ( 64.201%)
 molecular gradient             ...        0 min,  0.006 sec ( 22.623%)
 printout                       ...        0 min,  0.000 sec (  1.079%)

         :::::::::::::::::::::::::::::::::::::::::::::::::::::
         ::                     SUMMARY                     ::
         :::::::::::::::::::::::::::::::::::::::::::::::::::::
         :: total energy             -92.571090154260 Eh    ::
         :: total w/o Gsasa/hb       -92.535537468585 Eh    ::
         :: gradient norm              0.000067796270 Eh/a0 ::
         :: HOMO-LUMO gap              0.892034269645 eV    ::
         ::.................................................::
         :: SCC energy               -94.163948873379 Eh    ::
         :: -> isotropic ES            0.065599286095 Eh    ::
         :: -> anisotropic ES          0.001388154568 Eh    ::
         :: -> anisotropic XC          0.044746730901 Eh    ::
         :: -> dispersion             -0.075704652089 Eh    ::
         :: -> Gsolv                  -0.043228277272 Eh    ::
         ::    -> Gelec               -0.007675591598 Eh    ::
         ::    -> Gsasa               -0.040076565546 Eh    ::
         ::    -> Ghb                  0.000000000000 Eh    ::
         ::    -> Gshift               0.004523879872 Eh    ::
         :: repulsion energy           1.592858719119 Eh    ::
         :: add. restraining           0.000000000000 Eh    ::
         :: total charge               0.000000000000 e     ::
         :::::::::::::::::::::::::::::::::::::::::::::::::::::

           ------------------------------------------------- 
          |                Numerical Hessian                |
           ------------------------------------------------- 
step length          :   0.00500
SCC accuracy         :   0.30000
Hessian scale factor :   1.00000
frozen atoms in %    :   0.00000    0
RMS gradient         :   0.00007
estimated CPU  time     13.90 min
estimated wall time      0.36 min

writing file <hessian>.

 projected vibrational frequencies (cm⁻¹)
eigval :       -0.00    -0.00     0.00     0.00     0.00     0.00
eigval :        7.14    14.41    22.37    32.71    41.68    47.35
eigval :       76.07    83.17   102.69   105.19   106.76   133.69
eigval :      141.41   156.31   174.30   184.50   203.49   247.86
eigval :      252.82   267.49   270.26   280.13   291.41   328.67
eigval :      364.40   366.74   373.32   382.80   387.43   398.99
eigval :      399.19   403.10   405.34   420.43   434.85   456.89
eigval :      479.21   486.22   505.50   517.49   518.39   533.78
eigval :      540.35   579.18   591.45   606.13   611.98   615.64
eigval :      631.54   655.30   671.31   672.45   677.69   681.30
eigval :      682.61   687.45   706.90   737.71   757.18   768.83
eigval :      771.53   779.57   789.31   803.37   819.60   836.20
eigval :      867.16   874.13   879.89   887.16   897.09   898.36
eigval :      901.78   902.88   906.07   919.87   921.22   924.80
eigval :      927.54   928.15   932.74   934.85   935.16   976.47
eigval :     1004.91  1010.89  1069.58  1072.09  1079.87  1085.27
eigval :     1096.60  1105.66  1116.79  1121.83  1131.59  1151.31
eigval :     1167.44  1169.92  1172.93  1178.36  1180.49  1199.80
eigval :     1206.89  1225.31  1233.73  1235.77  1242.70  1250.54
eigval :     1259.54  1275.21  1297.10  1298.35  1313.82  1334.01
eigval :     1346.84  1354.35  1358.43  1360.24  1394.29  1400.95
eigval :     1416.02  1422.93  1426.21  1442.65  1454.31  1470.21
eigval :     1473.02  1485.59  1540.07  1550.76  1559.66  1568.18
eigval :     1571.85  1573.76  1576.68  1587.36  1596.96  1611.42
eigval :     1633.86  1650.09  3072.40  3072.84  3077.78  3078.94
eigval :     3084.27  3085.62  3086.49  3086.76  3088.91  3089.29
eigval :     3092.56  3092.88  3094.26  3094.58  3094.83  3100.83
eigval :     3101.50  3101.86  3105.04
           -------------------------------------------------
          |                Property Printout                |
           -------------------------------------------------

    * Orbital Energies and Occupations

         #    Occupation            Energy/Eh            Energy/eV
      -------------------------------------------------------------
         1        2.0000           -0.7333270             -19.9548
       ...           ...                  ...                  ...
        73        2.0000           -0.4324151             -11.7666
        74        2.0000           -0.4310182             -11.7286
        75        2.0000           -0.4273831             -11.6297
        76        2.0000           -0.4252884             -11.5727
        77        2.0000           -0.4232008             -11.5159
        78        2.0000           -0.4199655             -11.4278
        79        2.0000           -0.4193319             -11.4106
        80        2.0000           -0.4183394             -11.3836
        81        2.0000           -0.4071815             -11.0800
        82        2.0000           -0.3998395             -10.8802
        83        2.0000           -0.3831112             -10.4250
        84        2.0000           -0.3806149             -10.3571
        85        2.0000           -0.3658174              -9.9544 (HOMO)
        86                         -0.3330358              -9.0624 (LUMO)
        87                         -0.2858233              -7.7776
        88                         -0.2596601              -7.0657
        89                         -0.2538571              -6.9078
        90                         -0.2495830              -6.7915
        91                         -0.2455892              -6.6828
        92                         -0.2451912              -6.6720
        93                         -0.2239242              -6.0933
        94                         -0.2068837              -5.6296
        95                         -0.1987240              -5.4076
        96                         -0.1961668              -5.3380
       ...                                ...                  ...
       168                          0.7420846              20.1931
      -------------------------------------------------------------
                  HL-Gap            0.0327816 Eh            0.8920 eV
             Fermi-level           -0.3494266 Eh           -9.5084 eV

     #   Z          covCN         q      C6AA      α(0)
     1   8 O        0.858    -0.411    21.908     6.275
     2   6 C        2.830     0.224    23.299     7.910
     3   6 C        2.974    -0.012    28.314     8.728
[...]
    46   1 H        0.926     0.030     2.587     2.515
    47   1 H        0.926     0.032     2.553     2.499
    48   1 H        0.926     0.033     2.548     2.496
    49   1 H        0.926     0.030     2.590     2.516
    50   1 H        0.926     0.031     2.574     2.509
    51   1 H        0.926     0.031     2.576     2.510
    52   1 H        0.926     0.055     2.264     2.353
    53   1 H        0.926     0.051     2.302     2.373
    54   1 H        0.926     0.066     2.126     2.280
    55   1 H        0.926     0.070     2.089     2.260

 Mol. C6AA /au·bohr⁶  :      50328.691415
 Mol. C8AA /au·bohr⁸  :    1344395.198129
 Mol. α(0) /au        :        363.043357


MOs/occ written to file <molden.input>


molecular dipole:
                 x           y           z       tot (Debye)
 q only:       -0.523       0.160       0.078
   full:       -0.439       0.374       0.074       1.479
molecular quadrupole (traceless):
                xx          xy          yy          xz          yz          zz
 q only:      -13.084      22.962      14.428       3.701      -0.601      -1.344
  q+dip:       -8.981      23.438      16.312       0.822      -2.239      -7.331
   full:      -13.785      24.559      11.727       4.108      -1.910       2.058

           -------------------------------------------------
          |                Geometry Summary                 |
           -------------------------------------------------

      molecular mass/u    :      481.5647235
   center of mass at/Å    :        0.0034671       0.0036520      -0.0003935
  moments of inertia/u·Å² :        0.2603959E+04   0.9829049E+04   0.1217820E+05
rotational constants/cm⁻¹ :        0.6473846E-02   0.1715083E-02   0.1384247E-02

 * 55 selected distances

     #   Z          #   Z                                           value/Å
     1   8 O        2   6 C                                       1.2245177
     3   6 C        4   6 C                                       1.3926835
     4   6 C        5   6 C                                       1.3838308
     5   6 C        6   6 C                                       1.3872086
     6   6 C        7   6 C                                       1.3832435
     3   6 C        8   6 C                                       1.4027699
     7   6 C        8   6 C                                       1.3936685
     9   6 C       10   8 O                                       1.2222140
    11   6 C       12   6 C                                       1.3881528
    12   6 C       13   6 C                                       1.3891107
    15   6 C       16   6 C                                       1.3868633
    16   6 C       17   6 C                                       1.3817093
    17   6 C       18   6 C                                       1.3937963
    18   6 C       19   7 N                                       1.3980996
    19   7 N       20   6 C                                       1.3831752
    20   6 C       21   6 C                                       1.3875939
    21   6 C       22   6 C                                       1.3823677
    22   6 C       23   6 C                                       1.3932414
    23   6 C       24   6 C                                       1.3809784
    20   6 C       25   6 C                                       1.4136867
    24   6 C       25   6 C                                       1.3890752
    25   6 C       26   6 C                                       1.4371438 (max)
    26   6 C       27   6 C                                       1.3891031
    27   6 C       28   6 C                                       1.3809236
    28   6 C       29   6 C                                       1.3932983
    29   6 C       30   6 C                                       1.3823178
    19   7 N       31   6 C                                       1.3835369
    26   6 C       31   6 C                                       1.4135585
    30   6 C       31   6 C                                       1.3876782
    18   6 C       32   6 C                                       1.3948415
    15   6 C       33   6 C                                       1.3886790
    32   6 C       33   6 C                                       1.3799753
    13   6 C       34   6 C                                       1.3970871
    34   6 C       35   6 C                                       1.3768347
    11   6 C       36   6 C                                       1.4030746
    35   6 C       36   6 C                                       1.3973720
     4   6 C       37   1 H                                       1.0803522
     5   6 C       38   1 H                                       1.0794818
     6   6 C       39   1 H                                       1.0794445
     7   6 C       40   1 H                                       1.0803190
    12   6 C       41   1 H                                       1.0800157
    16   6 C       42   1 H                                       1.0790976 (min)
    17   6 C       43   1 H                                       1.0791613
    21   6 C       44   1 H                                       1.0794628
    22   6 C       45   1 H                                       1.0802712
    23   6 C       46   1 H                                       1.0801430
    24   6 C       47   1 H                                       1.0797266
    27   6 C       48   1 H                                       1.0797404
    28   6 C       49   1 H                                       1.0801801
    29   6 C       50   1 H                                       1.0803048
    30   6 C       51   1 H                                       1.0796232
    32   6 C       52   1 H                                       1.0791968
    33   6 C       53   1 H                                       1.0797451
    34   6 C       54   1 H                                       1.0792239
    35   6 C       55   1 H                                       1.0800239

 * 4 distinct bonds (by element types)

   Z      Z             #   av. dist./Å        max./Å        min./Å
   1 H    6 C          19     1.0797639     1.0803522     1.0790976
   6 C    6 C          31     1.3919957     1.4371438     1.3768347
   6 C    7 N           3     1.3882706     1.3980996     1.3831752
   6 C    8 O           2     1.2233659     1.2245177     1.2222140

           -------------------------------------------------
          |               Frequency Printout                |
           -------------------------------------------------
 projected vibrational frequencies (cm⁻¹)
eigval :       -0.00    -0.00     0.00     0.00     0.00     0.00
eigval :        7.14    14.41    22.37    32.71    41.68    47.35
eigval :       76.07    83.17   102.69   105.19   106.76   133.69
eigval :      141.41   156.31   174.30   184.50   203.49   247.86
eigval :      252.82   267.49   270.26   280.13   291.41   328.67
eigval :      364.40   366.74   373.32   382.80   387.43   398.99
eigval :      399.19   403.10   405.34   420.43   434.85   456.89
eigval :      479.21   486.22   505.50   517.49   518.39   533.78
eigval :      540.35   579.18   591.45   606.13   611.98   615.64
eigval :      631.54   655.30   671.31   672.45   677.69   681.30
eigval :      682.61   687.45   706.90   737.71   757.18   768.83
eigval :      771.53   779.57   789.31   803.37   819.60   836.20
eigval :      867.16   874.13   879.89   887.16   897.09   898.36
eigval :      901.78   902.88   906.07   919.87   921.22   924.80
eigval :      927.54   928.15   932.74   934.85   935.16   976.47
eigval :     1004.91  1010.89  1069.58  1072.09  1079.87  1085.27
eigval :     1096.60  1105.66  1116.79  1121.83  1131.59  1151.31
eigval :     1167.44  1169.92  1172.93  1178.36  1180.49  1199.80
eigval :     1206.89  1225.31  1233.73  1235.77  1242.70  1250.54
eigval :     1259.54  1275.21  1297.10  1298.35  1313.82  1334.01
eigval :     1346.84  1354.35  1358.43  1360.24  1394.29  1400.95
eigval :     1416.02  1422.93  1426.21  1442.65  1454.31  1470.21
eigval :     1473.02  1485.59  1540.07  1550.76  1559.66  1568.18
eigval :     1571.85  1573.76  1576.68  1587.36  1596.96  1611.42
eigval :     1633.86  1650.09  3072.40  3072.84  3077.78  3078.94
eigval :     3084.27  3085.62  3086.49  3086.76  3088.91  3089.29
eigval :     3092.56  3092.88  3094.26  3094.58  3094.83  3100.83
eigval :     3101.50  3101.86  3105.04
 reduced masses (amu)
   1: 12.51   2: 12.77   3: 13.55   4: 13.15   5: 13.98   6: 12.79   7: 12.18   8: 12.12
   9: 13.40  10: 13.96  11: 12.49  12: 12.20  13: 14.09  14: 10.48  15: 10.87  16: 11.36
  17: 11.80  18: 12.44  19: 10.12  20: 12.60  21: 11.37  22: 14.54  23: 13.58  24: 12.17
  25: 11.95  26: 14.07  27: 10.97  28: 14.93  29: 15.69  30: 14.28  31: 11.99  32:  9.85
  33: 14.63  34:  9.19  35:  9.87  36: 11.25  37: 11.42  38: 11.20  39: 11.03  40: 10.22
  41: 10.98  42: 14.41  43: 13.59  44: 10.60  45: 15.11  46: 14.01  47: 12.14  48: 11.02
  49: 10.05  50: 11.23  51: 11.29  52: 11.64  53: 11.42  54: 10.75  55: 12.78  56: 12.76
  57: 11.23  58: 11.55  59: 11.24  60:  9.89  61: 11.79  62: 12.94  63: 11.48  64: 11.91
  65: 11.04  66:  3.43  67: 11.44  68:  3.93  69:  4.60  70: 12.05  71:  4.82  72:  4.69
  73:  3.38  74:  3.40  75:  3.30  76:  3.45  77: 11.72  78:  3.59  79:  3.91  80:  3.87
  81: 11.78  82:  3.01  83:  3.19  84: 11.51  85:  2.93  86:  3.60  87:  4.14  88:  3.55
  89:  3.72  90: 11.21  91: 10.03  92: 10.92  93:  5.81  94:  6.30  95:  9.01  96:  5.92
  97:  7.56  98:  7.01  99:  8.45 100:  6.15 101:  2.95 102:  3.88 103:  3.31 104:  3.33
 105:  3.09 106:  1.88 107:  2.22 108:  3.92 109:  8.86 110:  4.72 111:  5.66 112:  4.01
 113:  6.46 114:  7.73 115:  3.33 116: 10.04 117:  8.00 118:  8.34 119: 11.69 120: 11.98
 121: 11.81 122: 11.51 123: 11.30 124:  9.54 125: 10.95 126: 10.12 127:  9.47 128:  9.92
 129:  9.07 130:  9.66 131:  9.61 132: 10.26 133: 10.36 134: 10.40 135: 11.74 136: 11.68
 137: 11.68 138: 11.56 139: 11.72 140: 11.61 141: 11.49 142: 11.57 143: 11.69 144: 11.70
 145: 13.38 146: 13.36 147:  1.75 148:  1.75 149:  1.81 150:  1.80 151:  1.77 152:  1.86
 153:  1.81 154:  1.86 155:  1.80 156:  1.80 157:  1.91 158:  1.86 159:  1.82 160:  1.84
 161:  1.85 162:  1.92 163:  1.88 164:  1.88 165:  1.89
 IR intensities (km·mol⁻¹)
   1:  0.00   2:  0.01   3:  0.01   4:  0.00   5:  0.01   6:  0.00   7:  0.10   8:  0.16
   9:  1.56  10:  4.72  11:  0.09  12:  1.13  13:  4.80  14:  0.94  15:  0.12  16:  0.03
  17:  0.03  18:  3.83  19:  1.35  20:  1.11  21:  1.00  22:  0.63  23:  1.17  24:  0.77
  25:  0.71  26:  2.77  27:  1.93  28:  1.44  29:  2.54  30:  0.72  31:  1.24  32:  2.20
  33: 34.85  34:  8.41  35:  2.19  36:  3.47  37:  7.22  38:  0.10  39:  3.60  40:  0.41
  41:  8.36  42:  3.58  43:  5.56  44:  3.10  45:  3.53  46: 17.51  47:  0.21  48:  0.21
  49:  0.78  50:  0.34  51:  3.19  52:  7.39  53:  3.03  54:  2.25  55: 12.07  56:  2.66
  57:  0.57  58:  0.63  59:  4.37  60: 58.40  61:  1.36  62: 23.51  63:  5.94  64:  4.40
  65:  0.23  66: 59.37  67:  0.21  68:  0.99  69:  2.58  70: 38.23  71: 21.36  72: 13.13
  73:  0.57  74:  0.21  75:  0.08  76:  0.21  77:  9.25  78:  0.04  79:  0.13  80:  0.32
  81: 96.86  82:  0.16  83:  0.54  84:  5.34  85:  0.05  86:  0.05  87:  0.13  88:  0.02
  89:  0.95  90: 66.06  91: 10.67  92:  1.40  93:  0.72  94:  1.52  95: 47.45  96:  0.83
  97: 87.76  98: 23.25  99:  3.33 100: 14.73 101:  5.83 102: 12.01 103: 37.09 104:  8.16
 105:  1.39 106:  5.00 107: 35.36 108:  4.47 109: 52.51 110:  3.18 111: 42.21 112:  7.83
 113:  7.75 114: 31.58 115:  8.11 116:****** 117: 31.04 118:117.91 119:  0.67 120:  8.37
 121:  2.63 122: 13.92 123:  9.51 124:287.70 125:  8.69 126:  0.85 127:  8.73 128:301.12
 129: 11.11 130: 94.38 131: 59.88 132:598.84 133: 83.27 134:  4.50 135:209.69 136:604.26
 137:  3.11 138:179.08 139: 20.75 140:  5.46 141:117.57 142: 13.62 143: 46.36 144: 38.67
 145:422.14 146:530.11 147:  0.30 148:  4.35 149: 72.94 150:  0.24 151:  0.56 152:  2.41
 153:  3.02 154:313.15 155:  3.98 156: 14.71 157:188.53 158: 32.80 159:  7.10 160:  0.50
 161: 26.22 162: 69.00 163: 12.72 164: 32.62 165: 16.86
 Raman intensities (Ä⁴*amu⁻¹)
   1:  0.00   2:  0.00   3:  0.00   4:  0.00   5:  0.00   6:  0.00   7:  0.00   8:  0.00
   9:  0.00  10:  0.00  11:  0.00  12:  0.00  13:  0.00  14:  0.00  15:  0.00  16:  0.00
  17:  0.00  18:  0.00  19:  0.00  20:  0.00  21:  0.00  22:  0.00  23:  0.00  24:  0.00
  25:  0.00  26:  0.00  27:  0.00  28:  0.00  29:  0.00  30:  0.00  31:  0.00  32:  0.00
  33:  0.00  34:  0.00  35:  0.00  36:  0.00  37:  0.00  38:  0.00  39:  0.00  40:  0.00
  41:  0.00  42:  0.00  43:  0.00  44:  0.00  45:  0.00  46:  0.00  47:  0.00  48:  0.00
  49:  0.00  50:  0.00  51:  0.00  52:  0.00  53:  0.00  54:  0.00  55:  0.00  56:  0.00
  57:  0.00  58:  0.00  59:  0.00  60:  0.00  61:  0.00  62:  0.00  63:  0.00  64:  0.00
  65:  0.00  66:  0.00  67:  0.00  68:  0.00  69:  0.00  70:  0.00  71:  0.00  72:  0.00
  73:  0.00  74:  0.00  75:  0.00  76:  0.00  77:  0.00  78:  0.00  79:  0.00  80:  0.00
  81:  0.00  82:  0.00  83:  0.00  84:  0.00  85:  0.00  86:  0.00  87:  0.00  88:  0.00
  89:  0.00  90:  0.00  91:  0.00  92:  0.00  93:  0.00  94:  0.00  95:  0.00  96:  0.00
  97:  0.00  98:  0.00  99:  0.00 100:  0.00 101:  0.00 102:  0.00 103:  0.00 104:  0.00
 105:  0.00 106:  0.00 107:  0.00 108:  0.00 109:  0.00 110:  0.00 111:  0.00 112:  0.00
 113:  0.00 114:  0.00 115:  0.00 116:  0.00 117:  0.00 118:  0.00 119:  0.00 120:  0.00
 121:  0.00 122:  0.00 123:  0.00 124:  0.00 125:  0.00 126:  0.00 127:  0.00 128:  0.00
 129:  0.00 130:  0.00 131:  0.00 132:  0.00 133:  0.00 134:  0.00 135:  0.00 136:  0.00
 137:  0.00 138:  0.00 139:  0.00 140:  0.00 141:  0.00 142:  0.00 143:  0.00 144:  0.00
 145:  0.00 146:  0.00 147:  0.00 148:  0.00 149:  0.00 150:  0.00 151:  0.00 152:  0.00
 153:  0.00 154:  0.00 155:  0.00 156:  0.00 157:  0.00 158:  0.00 159:  0.00 160:  0.00
 161:  0.00 162:  0.00 163:  0.00 164:  0.00 165:  0.00
 output can be read by thermo (or use thermo option).
 writing <g98.out> molden fake output.
 recommended (thermochemical) frequency scaling factor: 1.0
           -------------------------------------------------
          |             Thermodynamic Functions             |
           -------------------------------------------------

Molecule has no symmetry elements
It seems to be the C1 point group
c1  symmetry found (for desy threshold:  0.10E+00) used in thermo

          ...................................................
          :                      SETUP                      :
          :.................................................:
          :  # frequencies                         159      :
          :  # imaginary freq.                       0      :
          :  linear?                             false      :
          :  only rotor calc.                    false      :
          :  symmetry                               c1      :
          :  rotational number                       1      :
          :  scaling factor                  1.0000000      :
          :  rotor cutoff                   50.0000000 cm⁻¹ :
          :  imag. cutoff                  -20.0000000 cm⁻¹ :
          :.................................................:

    mode    ω/cm⁻¹     T·S(HO)/kcal·mol⁻¹    T·S(FR)/kcal·mol⁻¹   T·S(vib)
   ------------------------------------------------------------------------
       1      7.14    -2.58819 (  0.04%)    -1.63311 ( 99.96%)    -1.63351
       2     14.41    -2.17203 (  0.69%)    -1.42503 ( 99.31%)    -1.43015
       3     22.37    -1.91171 (  3.85%)    -1.29480 ( 96.15%)    -1.31856
       4     32.71    -1.68691 ( 15.48%)    -1.18224 ( 84.52%)    -1.26037
       5     41.68    -1.54376 ( 32.55%)    -1.11048 ( 67.45%)    -1.25153
       6     47.35    -1.46836 ( 44.59%)    -1.07264 ( 55.41%)    -1.24907
       7     76.07    -1.18958 ( 84.27%)    -0.93224 ( 15.73%)    -1.14909
       8     83.17    -1.13731 ( 88.45%)    -0.90579 ( 11.55%)    -1.11057
       9    102.69    -1.01449 ( 94.68%)    -0.84335 (  5.32%)    -1.00539
      10    105.19    -1.00050 ( 95.14%)    -0.83620 (  4.86%)    -0.99253
      11    106.76    -0.99192 ( 95.41%)    -0.83182 (  4.59%)    -0.98457
      12    133.69    -0.86233 ( 98.08%)    -0.76519 (  1.92%)    -0.86046
      13    141.41    -0.83026 ( 98.46%)    -0.74856 (  1.54%)    -0.82900
      14    156.31    -0.77341 ( 98.96%)    -0.71889 (  1.04%)    -0.77284
      15    174.30    -0.71216 ( 99.33%)    -0.68661 (  0.67%)    -0.71198
      16    184.50    -0.68049 ( 99.46%)    -0.66976 (  0.54%)    -0.68043
      17    203.49    -0.62651 ( 99.64%)    -0.64074 (  0.36%)    -0.62656
      18    247.86    -0.52049 ( 99.83%)    -0.58231 (  0.17%)    -0.52059
      19    252.82    -0.51009 ( 99.85%)    -0.57645 (  0.15%)    -0.51019
      20    267.49    -0.48072 ( 99.88%)    -0.55973 (  0.12%)    -0.48082
      21    270.26    -0.47542 ( 99.88%)    -0.55668 (  0.12%)    -0.47551
      22    280.13    -0.45703 ( 99.90%)    -0.54606 (  0.10%)    -0.45712
      23    291.41    -0.43701 ( 99.91%)    -0.53436 (  0.09%)    -0.43710
   ------------------------------------------------------------------------

   temp. (K)  partition function   enthalpy   heat capacity  entropy
                                   cal/mol     cal/K/mol   cal/K/mol   J/K/mol
 298.15  VIB  0.173E+13            15969.977    102.577     98.416
         ROT  0.426E+08              888.752      2.981     37.894
         INT  0.736E+20            16858.729    105.558    136.310
         TR   0.102E+29             1481.254      4.968     44.383
         TOT                       18339.9833   110.5257   180.6930   756.0196

       T/K    H(0)-H(T)+PV         H(T)/Eh          T*S/Eh         G(T)/Eh
   ------------------------------------------------------------------------
    298.15    0.292266E-01    0.433174E+00    0.858531E-01    0.347321E+00
   ------------------------------------------------------------------------

         :::::::::::::::::::::::::::::::::::::::::::::::::::::
         ::                  THERMODYNAMIC                  ::
         :::::::::::::::::::::::::::::::::::::::::::::::::::::
         :: total free energy         -92.223768953471 Eh   ::
         ::.................................................::
         :: total energy              -92.571090154072 Eh   ::
         :: zero point energy           0.403947661402 Eh   ::
         :: G(RRHO) w/o ZPVE           -0.056626460800 Eh   ::
         :: G(RRHO) contrib.            0.347321200601 Eh   ::
         :::::::::::::::::::::::::::::::::::::::::::::::::::::

optimized geometry written to: xtbopt.xyz


           -------------------------------------------------
          | TOTAL ENERGY              -92.571090154072 Eh   |
          | TOTAL ENTHALPY            -92.137915868896 Eh   |
          | TOTAL FREE ENERGY         -92.223768953471 Eh   |
          | GRADIENT NORM               0.000067850563 Eh/α |
          | HOMO-LUMO GAP               0.892032868237 eV   |
           -------------------------------------------------

------------------------------------------------------------------------
 * finished run on 2025/07/19 at 19:24:39.694     
------------------------------------------------------------------------
 total:
 * wall-time:     0 d,  0 h,  0 min,  3.473 sec
 *  cpu-time:     0 d,  0 h,  2 min,  9.799 sec
 * ratio c/w:    37.377 speedup
 SCF:
 * wall-time:     0 d,  0 h,  0 min,  0.148 sec
 *  cpu-time:     0 d,  0 h,  0 min,  5.160 sec
 * ratio c/w:    34.962 speedup
 ANC optimizer:
 * wall-time:     0 d,  0 h,  0 min,  1.611 sec
 *  cpu-time:     0 d,  0 h,  1 min,  4.203 sec
 * ratio c/w:    39.864 speedup
 analytical hessian:
 * wall-time:     0 d,  0 h,  0 min,  1.585 sec
 *  cpu-time:     0 d,  0 h,  0 min, 55.841 sec
 * ratio c/w:    35.235 speedup

