$hessian                                                                        
        0.2321327565  -0.1660968131   0.1465720824  -0.1869901484   0.1523568486
       -0.1217986721   0.0198773279  -0.0263550611   0.0171647973  -0.0517324072
        0.0387730483  -0.0378947011  -0.0007778195   0.0030351228  -0.0020836006
       -0.0008641988   0.0013019848  -0.0008870147   0.0008058345   0.0003715113
        0.0001003203   0.0016548828   0.0014176970   0.0003027301  -0.0034385281
       -0.0025105158   0.0007915738   0.0034572177   0.0001563350  -0.0000185441
       -0.0013264093  -0.0010556790  -0.0000304214   0.0015074943  -0.0004182474
       -0.0006612225  -0.0028443061  -0.0000854284   0.0003107046   0.0045035843
        0.0004968998  -0.0007446780  -0.0017380275   0.0016698198   0.0017687696
       -0.0016704301  -0.0019224613  -0.0012280355   0.0013440155   0.0007046224
        0.0001749296  -0.0013726040   0.0008082493   0.0005395449   0.0004296493
       -0.0003194952  -0.0007767398  -0.0004028444  -0.0000042319   0.0003330154
        0.0000057570  -0.0000301819  -0.0001310932  -0.0002047250   0.0000720839
        0.0002118948  -0.0000018898  -0.0003091192   0.0002228603   0.0002030910
        0.0002720973  -0.0003187938  -0.0002166730  -0.0002592274   0.0004215945
        0.0001588582   0.0002909213  -0.0003627403  -0.0002061518  -0.0002305119
        0.0003972681   0.0002483098  -0.0000012973  -0.0002491768  -0.0000757724
        0.0002448692  -0.0001198514   0.0000572184  -0.0001169651   0.0000506621
       -0.0000089366   0.0005898704  -0.0004015339  -0.0008908467   0.0011330238
       -0.0005936573   0.0006652421   0.0001564301   0.0004244170  -0.0000885088
       -0.0000002696  -0.0001979893   0.0001244408  -0.0000154915   0.0002173552
        0.0000158827   0.0001693164   0.0001131662  -0.0000490524  -0.0001463314
       -0.0000916014   0.0000035483   0.0002800772   0.0002221707  -0.0002073415
       -0.0000294717  -0.0002722065   0.0001838165   0.0000865112   0.0001605274
       -0.0001234308   0.0000070214  -0.0001457555   0.0000841831  -0.0001849258
       -0.0001381079   0.0000085391   0.0001244129   0.0001228180  -0.0000190663
       -0.0008472617  -0.0002194290  -0.0029698313   0.0014428805  -0.0016337763
       -0.0062323850  -0.0035769315   0.0006145118  -0.0025226921  -0.0005524911
        0.0000838328   0.0000233651   0.0000024249   0.0000227982   0.0001700641
        0.0001833032   0.0000522603   0.0001670304  -0.0000623136  -0.0000869714
        0.0001950882   0.0000889032  -0.0000584761   0.0002214229  -0.0000166170
        0.0000262712   0.0000306283  -0.0002591336   0.0000451590  -0.0000001005
        0.0000058881  -0.0000812240   0.0000200483  -0.0000772330  -0.0001226474
        0.0000053594  -0.0001015731  -0.0000404337   0.0002137354  -0.0000834239
       -0.0000433696  -0.0000136913  -0.0000592043   0.0000135478  -0.0000551722
        0.0001559667   0.0000239435   0.0001712537   0.0002436116  -0.0000307057
       -0.0000496573   0.0000258000   0.0000027730  -0.0000658177  -0.0000130297
        0.0000161039  -0.0000338928   0.0000282662  -0.0001922266  -0.0000105330
        0.0000454538   0.0000190222  -0.0002054646   0.0000421423   0.0000242790
        0.0000024737   0.0000525271   0.0000247506   0.0000109447  -0.0001457448
        0.0000698658  -0.0002283787  -0.0002424016  -0.0000682496  -0.0010258124
       -0.0002196535  -0.0001317322  -0.0000395164  -0.0004872032   0.0001930574
       -0.1660968131   0.3393479859  -0.2362368649   0.1151536755  -0.2894733185
        0.1680415610   0.0282273482  -0.0485877620   0.0503464290   0.0291482065
       -0.0038156377   0.0184649727  -0.0080267674  -0.0032215986   0.0014974646
        0.0017969357   0.0004537284  -0.0007414440  -0.0003501879  -0.0001587126
       -0.0005716694  -0.0025878122  -0.0028335724  -0.0005959857   0.0058263332
        0.0039396186  -0.0012475763  -0.0048582934  -0.0003237596   0.0000178074
        0.0017470469   0.0015612447   0.0000488100  -0.0017502063   0.0003144073
        0.0006665315   0.0030614915   0.0000413831  -0.0003449405  -0.0044033548
       -0.0004804093   0.0007601100   0.0016436392  -0.0014655681  -0.0017028311
        0.0015783543   0.0016595783   0.0011588296  -0.0015062719  -0.0006791140
       -0.0000745045   0.0018397818  -0.0011345661  -0.0007266087  -0.0010554098
        0.0009616758   0.0013383592   0.0008718899   0.0000897191  -0.0004402259
       -0.0000899627  -0.0001492537   0.0002257110   0.0001712737  -0.0002031046
       -0.0002265492  -0.0000879476   0.0003959894  -0.0001998525  -0.0003587885
       -0.0003371716   0.0004096863   0.0002149758   0.0005163735  -0.0006014457
       -0.0002359925  -0.0003612220   0.0005188623   0.0002313809   0.0003944732
       -0.0005697607  -0.0003456739   0.0000268541   0.0003132480   0.0001096369
       -0.0003557416   0.0001499459  -0.0000061890   0.0002123692  -0.0002145206
       -0.0000341969  -0.0008276293   0.0004727954   0.0008890096  -0.0014843441
        0.0009427477  -0.0008143066  -0.0001935738  -0.0005397845   0.0000593547
        0.0000843774   0.0003034592  -0.0000857023   0.0000151140  -0.0002070656
       -0.0000126739  -0.0000527545  -0.0000463014  -0.0000809404   0.0000452689
       -0.0001191877   0.0001716273  -0.0003031612  -0.0001198078   0.0002769986
       -0.0002459181   0.0001959142  -0.0001479547   0.0001218788   0.0000300024
        0.0000218936  -0.0000105707   0.0000340292  -0.0001346969   0.0000865387
        0.0000518874  -0.0000432764  -0.0001722501  -0.0000711712   0.0000625588
        0.0011147403   0.0003482928   0.0014192380  -0.0004053223   0.0004054042
       -0.0009378187   0.0029851693   0.0001013059   0.0001852982   0.0017600174
       -0.0011893828   0.0001111155   0.0000724657   0.0000865368  -0.0002171947
       -0.0002464696  -0.0000733917  -0.0002364659   0.0001000752   0.0001444418
       -0.0002638661  -0.0001394130   0.0000495829  -0.0002791699   0.0000160158
       -0.0000508269   0.0000415658   0.0003615939  -0.0000213945   0.0000005664
        0.0000235980   0.0001043485   0.0000272198   0.0000991308   0.0001551704
        0.0000220346   0.0001473664   0.0000702494  -0.0002632335   0.0001232654
        0.0000851491   0.0000182921   0.0000619666   0.0000114020   0.0000705536
       -0.0002055187  -0.0000107168  -0.0002289415  -0.0003105304   0.0000851324
        0.0000805179  -0.0000286554  -0.0000078911   0.0000675447   0.0000074174
       -0.0000416886   0.0000350697  -0.0000307875   0.0002370773   0.0000013075
       -0.0000508236  -0.0000242347   0.0002518455  -0.0000381637  -0.0000391521
       -0.0000303588  -0.0000304183  -0.0000331872  -0.0000176659   0.0001946477
       -0.0000618450   0.0003292752   0.0002878999  -0.0000362067   0.0003800729
        0.0002498838  -0.0003544906  -0.0005567959   0.0004829844  -0.0003307507
        0.1465720824  -0.2362368649   0.2042094586  -0.0974284363   0.1754979642
       -0.1956999599  -0.0187460729   0.0401538092  -0.0078701125  -0.0320078734
        0.0203758826  -0.0027131268   0.0051568646   0.0035025726  -0.0005887620
       -0.0013039159  -0.0005292591  -0.0005379826   0.0005322728   0.0001256349
        0.0004002130   0.0017916704   0.0017588990   0.0004960183  -0.0041530455
       -0.0030974335   0.0008922987   0.0039547467   0.0002563980  -0.0000515670
       -0.0014446516  -0.0011879509  -0.0000432993   0.0016525753  -0.0004502713
       -0.0007127253  -0.0029937767  -0.0000894134   0.0003367357   0.0045788326
        0.0004434625  -0.0007978508  -0.0017621395   0.0017173922   0.0018171483
       -0.0016683295  -0.0019047161  -0.0012191534   0.0014624965   0.0007808319
        0.0001885641  -0.0015410577   0.0008660979   0.0005851904   0.0005914243
       -0.0003898426  -0.0008199996  -0.0005400044  -0.0001169558   0.0003490133
        0.0000304959   0.0000402873  -0.0001262964  -0.0001420368   0.0001092330
        0.0001758145   0.0000535722  -0.0002839220   0.0000990032   0.0001911670
        0.0001885722  -0.0002446709  -0.0001180809  -0.0002977009   0.0003453600
        0.0001749327   0.0002381112  -0.0003603154  -0.0001489808  -0.0002199896
        0.0003345680   0.0002364144  -0.0000297726  -0.0002060098  -0.0000813140
        0.0002383548  -0.0000842635   0.0000401092  -0.0000941779   0.0000902511
       -0.0000254850   0.0006368958  -0.0004310920  -0.0007603210   0.0012796681
       -0.0006132058   0.0006346608   0.0001654264   0.0003992502  -0.0000570510
       -0.0000547946  -0.0002062594   0.0001136272  -0.0000256392   0.0001984883
       -0.0000006211   0.0001126584   0.0000687339  -0.0000217666  -0.0000728873
       -0.0000099223  -0.0000348391   0.0002390787   0.0001884095  -0.0002481460
        0.0000971981  -0.0002322750   0.0001493665   0.0000134292   0.0000717908
       -0.0000722812   0.0000234090  -0.0000709791   0.0001223132  -0.0001431905
       -0.0001067593  -0.0000043598   0.0001818375   0.0000671293  -0.0000173897
       -0.0009983478  -0.0003109121  -0.0014150973  -0.0000009144  -0.0011957413
       -0.0010411543  -0.0004957233   0.0034427854  -0.0005793551  -0.0013078677
        0.0007729267  -0.0000899521  -0.0000374266   0.0000091540   0.0001656524
        0.0001907073   0.0000642916   0.0001780980  -0.0000528927  -0.0000895727
        0.0002001521   0.0000820360  -0.0000611408   0.0002123003   0.0000048775
        0.0000346249  -0.0000469842  -0.0002358590   0.0000193952   0.0000126811
       -0.0000027372  -0.0000756520  -0.0000177937  -0.0000547011  -0.0000724926
        0.0000074082  -0.0000616311  -0.0000351963   0.0002109109  -0.0000678814
       -0.0000472510  -0.0000223108  -0.0000538317   0.0000022244  -0.0000669579
        0.0001618456   0.0000175553   0.0001495349   0.0002551930  -0.0000430461
       -0.0000722555   0.0000370803   0.0000011338  -0.0000601640  -0.0000019207
        0.0000300332  -0.0000258136   0.0000290496  -0.0001852918  -0.0000011302
        0.0000401023   0.0000202348  -0.0001944184   0.0000297100   0.0000341365
        0.0000155972   0.0000242688   0.0000277311   0.0000041976  -0.0001351192
        0.0000688605  -0.0002630403  -0.0002635456  -0.0000047320  -0.0003372790
       -0.0005046619  -0.0002299027   0.0003595255  -0.0003981311   0.0002389929
       -0.1869901484   0.1151536755  -0.0974284363   0.5639378502   0.0284081361
        0.0515430624  -0.1788617509  -0.1308684306   0.0628680199  -0.1394545657
       -0.0069170994  -0.0097282283  -0.0382543249  -0.0244812556   0.0094232895
        0.0100704726  -0.0038737146   0.0027515598  -0.0074896914  -0.0009805862
       -0.0019803569  -0.0020636024  -0.0033536582   0.0000070804   0.0103134868
        0.0071370174  -0.0023025904  -0.0100704917  -0.0003631616   0.0000063205
        0.0039930647   0.0031919280   0.0001437805  -0.0042454928   0.0011026402
        0.0018642147   0.0077855007   0.0002178896  -0.0008968849  -0.0120877056
       -0.0012778927   0.0019503995   0.0045279276  -0.0044973705  -0.0046163815
        0.0043308973   0.0051605900   0.0032508099  -0.0037101633  -0.0019193655
       -0.0003908998   0.0041440447  -0.0024588850  -0.0016252898  -0.0012853181
        0.0008690457   0.0023160189   0.0010614299   0.0000536753  -0.0007627907
       -0.0001226299   0.0000976013   0.0003621877   0.0004780683  -0.0001378722
       -0.0006496105   0.0000008813   0.0009156958  -0.0006852257  -0.0005400340
       -0.0008538503   0.0008899253   0.0004633732   0.0007662832  -0.0010663735
       -0.0004576870  -0.0008346857   0.0010274678   0.0005551458   0.0006432928
       -0.0011148456  -0.0007116793  -0.0000485673   0.0007234593   0.0001551255
       -0.0006930691   0.0003210738  -0.0001392778   0.0003359983  -0.0002153189
        0.0000299634  -0.0013639832   0.0009369690   0.0024451139  -0.0037549006
        0.0017325383  -0.0018243706  -0.0005003816  -0.0011581397   0.0002957263
        0.0000364998   0.0006600781  -0.0004018909   0.0000306596  -0.0006524439
       -0.0000736417  -0.0005909756  -0.0004026711   0.0002051865   0.0005227591
        0.0004001012  -0.0000591908  -0.0008746193  -0.0007621951   0.0007813837
        0.0000451593   0.0009683068  -0.0006092031  -0.0003086286  -0.0005509649
        0.0004774759  -0.0000054085   0.0005343005  -0.0002405077   0.0004702023
        0.0004175943  -0.0000128452  -0.0005434069  -0.0002839191   0.0003216398
        0.0024939316   0.0005800609   0.0093941990   0.0049647083  -0.0019514289
       -0.0386263316   0.0170833458  -0.0185112552   0.0015279675   0.0020108939
       -0.0002948857   0.0002568054   0.0001592858  -0.0001884578  -0.0004596624
       -0.0004519153  -0.0001093285  -0.0004293059   0.0001558999   0.0002153068
       -0.0004768285  -0.0001939462   0.0001401195  -0.0005615658   0.0000420910
       -0.0000843899   0.0000574987   0.0006580199  -0.0001274844   0.0000138504
       -0.0000564378   0.0002956616  -0.0000613445   0.0002031828   0.0003013799
       -0.0000191512   0.0002081176   0.0000812999  -0.0005549883   0.0001885545
        0.0001025566   0.0000131348   0.0001539385  -0.0000403260   0.0001318127
       -0.0003941916  -0.0000734823  -0.0004147701  -0.0006109669   0.0001385801
        0.0000998431  -0.0000585017  -0.0000559348   0.0001516423   0.0000592981
       -0.0000281292   0.0001087091  -0.0000659605   0.0004954742   0.0000764015
       -0.0001320182  -0.0000567203   0.0005502365  -0.0001030008  -0.0000527176
        0.0000500662  -0.0001422815  -0.0001139972  -0.0000307208   0.0003330132
       -0.0002547323   0.0005628627   0.0006646906  -0.0000442293   0.0003144919
        0.0002683739   0.0000244140   0.0016576028  -0.0010951050   0.0017876541
        0.1523568486  -0.2894733185   0.1754979642   0.0284081361   0.7146960271
       -0.3329550719  -0.1680823214  -0.3439343229   0.1506519023  -0.0066594261
       -0.0703640438  -0.0012849343  -0.0241131488  -0.0043594434  -0.0040742558
       -0.0024014475  -0.0024307023   0.0060361171  -0.0007975303  -0.0004980997
        0.0000551120   0.0000242204  -0.0007297487  -0.0003219012   0.0006600606
        0.0006161118  -0.0002354647  -0.0008036012  -0.0000737816  -0.0000325521
        0.0003053456   0.0002146765   0.0000489602  -0.0003337182   0.0000625996
        0.0001385206   0.0006679777   0.0000329120  -0.0000575993  -0.0011052079
       -0.0000810637   0.0001838834   0.0004248678  -0.0003947944  -0.0003677256
        0.0003997582   0.0004346386   0.0003073373  -0.0002977872  -0.0001314180
       -0.0000140874   0.0003571940  -0.0001626759  -0.0001174629  -0.0001111467
       -0.0002755329   0.0001049857  -0.0000816633   0.0000789018   0.0000003110
        0.0000495581   0.0000277648  -0.0000153373  -0.0000540190   0.0001424471
       -0.0001427108   0.0000426022   0.0000103028  -0.0000594891   0.0001413872
        0.0000054035  -0.0000938669  -0.0001783920  -0.0000122616   0.0001734211
        0.0000013705   0.0000521217  -0.0000215964  -0.0000190567  -0.0000746636
        0.0000911525   0.0000545545  -0.0000626525  -0.0000109097  -0.0000474501
        0.0000021949   0.0000211436   0.0000106256   0.0000009990  -0.0000091953
       -0.0000711442   0.0001198245  -0.0000175899   0.0004480076  -0.0005992502
        0.0001226909  -0.0001643620  -0.0001142844  -0.0000886821   0.0000324724
       -0.0000240273   0.0000463048  -0.0000866702  -0.0000162908  -0.0000855661
       -0.0000151425  -0.0001514227  -0.0000854432   0.0001139594   0.0001091468
        0.0001798667  -0.0001178133  -0.0000839029  -0.0001827905   0.0001679462
        0.0000737452   0.0002003972  -0.0001132392  -0.0001175649  -0.0001549516
        0.0001758269  -0.0000452682   0.0001427986  -0.0000367660   0.0000430166
        0.0001191174   0.0000126052  -0.0001187197   0.0000312704   0.0000519014
        0.0005271075   0.0001001806   0.0030525996  -0.0012080782   0.0061250108
        0.0169226485   0.0040731804  -0.0011659463  -0.0009754585  -0.0026163003
        0.0001312921  -0.0013434387  -0.0002187746   0.0002369828  -0.0000607338
       -0.0000478185  -0.0000278715  -0.0000579745   0.0000230854   0.0000204549
       -0.0000338660  -0.0000018492   0.0000221803  -0.0000320994  -0.0000029313
       -0.0000037188   0.0000539112  -0.0000249150  -0.0000390811   0.0000089721
       -0.0000886989   0.0000829088  -0.0000489113   0.0000000874  -0.0000576811
       -0.0000313474  -0.0001247983  -0.0000670755  -0.0000680081  -0.0000755950
       -0.0000702205  -0.0000157752  -0.0000161560  -0.0000168637  -0.0000142706
       -0.0000634578  -0.0000311443  -0.0000246670  -0.0000616593  -0.0000136049
       -0.0000081861  -0.0000254042  -0.0000284318   0.0000033234   0.0000053371
        0.0000069347   0.0000104799  -0.0000068181   0.0000540247   0.0000353800
       -0.0000160176  -0.0000024864   0.0000794579  -0.0000138956  -0.0000103567
        0.0000617111  -0.0000163427  -0.0000476404   0.0000470554   0.0000040136
       -0.0001108995   0.0000908851   0.0001871501  -0.0000780488   0.0012666291
       -0.0000044808   0.0006183785   0.0018655108  -0.0025795499   0.0006486502
       -0.1217986721   0.1680415610  -0.1956999599   0.0515430624  -0.3329550719
        0.4199650564   0.0871300217   0.1571554123  -0.1495392424  -0.0086748087
       -0.0006443041  -0.0717102665   0.0092049451  -0.0038472329   0.0021538144
        0.0024560202   0.0056064674   0.0035096292  -0.0010564385   0.0002347837
       -0.0008018745   0.0002706674  -0.0004849177  -0.0008768504   0.0010623423
        0.0006351739  -0.0002428808  -0.0010882015  -0.0000500160  -0.0000165750
        0.0004547684   0.0003506014   0.0000446189  -0.0004586905   0.0000976493
        0.0001759548   0.0009237338   0.0000327061  -0.0000950487  -0.0014533839
       -0.0001693583   0.0002676619   0.0005414402  -0.0005132355  -0.0005944210
        0.0005195268   0.0005814905   0.0003486822  -0.0004359155  -0.0001912341
       -0.0000458845   0.0004974167  -0.0002512761  -0.0002022832  -0.0001133187
        0.0000493740   0.0000413739  -0.0000127002   0.0000269295   0.0000806570
       -0.0000762924   0.0000682295   0.0001334723   0.0001330978  -0.0000359247
        0.0000308884   0.0000440179   0.0000927700  -0.0000128247  -0.0001329074
       -0.0001203657   0.0002039611   0.0001575982   0.0000165407  -0.0001547496
       -0.0000598162  -0.0001137978   0.0001494456   0.0001027667   0.0001205018
       -0.0002077312  -0.0001018980   0.0000018316   0.0000875362   0.0000240973
       -0.0000636982   0.0000410334  -0.0000424636   0.0000516558  -0.0000102136
        0.0000812786  -0.0001697552   0.0000470713   0.0004258211  -0.0004199911
        0.0000341762  -0.0002139626  -0.0000912422   0.0000137516   0.0000328716
       -0.0000188169   0.0000268897  -0.0000123586  -0.0000048468  -0.0000801177
       -0.0000173976  -0.0000710629  -0.0000651871   0.0000280342   0.0000797311
        0.0000359940  -0.0000452828  -0.0000783581  -0.0000903063   0.0001242753
       -0.0000388304   0.0001350400  -0.0001036035   0.0000031747  -0.0000573610
        0.0000299373   0.0000236306   0.0000539230  -0.0000410475   0.0000820704
        0.0000723841   0.0000272055  -0.0001241589  -0.0000088698  -0.0000513620
        0.0004738713   0.0001779859  -0.0018139638   0.0060930829   0.0022183323
       -0.0186694443  -0.0010745804  -0.0054482624   0.0014503051   0.0004527173
       -0.0023744931   0.0007666256   0.0006265526   0.0003119951  -0.0000508914
       -0.0000695821  -0.0000160707  -0.0000546896   0.0000262217   0.0000253682
       -0.0000740371  -0.0000453672   0.0000141557  -0.0000923772  -0.0000063114
        0.0000085333  -0.0000110311   0.0001074660  -0.0000082323  -0.0000318515
        0.0000548377  -0.0000530675   0.0000207901  -0.0000012287   0.0000252057
        0.0000007490   0.0000955477   0.0000274379  -0.0000611977   0.0000566143
        0.0000602453   0.0000177022   0.0000464815  -0.0000057750   0.0000457428
       -0.0000339208  -0.0000049692  -0.0000492476  -0.0000883932   0.0000226514
        0.0000220489  -0.0000042051   0.0000081228   0.0000259019   0.0000050235
       -0.0000089648   0.0000118945  -0.0000131602   0.0000621436  -0.0000006798
       -0.0000187871  -0.0000094446   0.0000420197  -0.0000151375  -0.0000113231
       -0.0000319350  -0.0000134835  -0.0000051993  -0.0000246315   0.0000276387
       -0.0000212085   0.0000485326   0.0001156929   0.0000396101  -0.0009297606
        0.0003652604   0.0000469859  -0.0003809983  -0.0000576403  -0.0022221302
        0.0198773279   0.0282273482  -0.0187460729  -0.1788617509  -0.1680823214
        0.0871300217   0.2215935004   0.1951920665  -0.0889507068  -0.0493385913
       -0.0509359077   0.0208715873  -0.0061761504   0.0016657256  -0.0030878713
       -0.0030210558  -0.0018919550   0.0011047266   0.0007522254  -0.0002289937
        0.0006082362   0.0016404732   0.0012540696   0.0002209067  -0.0031687820
       -0.0024168320   0.0007018710   0.0032626571   0.0001532343   0.0000005164
       -0.0012318865  -0.0009692291  -0.0000299891   0.0014076139  -0.0003885560
       -0.0006194476  -0.0026802785  -0.0000887502   0.0002884003   0.0042817712
        0.0004620527  -0.0007037583  -0.0016586958   0.0015866089   0.0016596113
       -0.0015946131  -0.0018385103  -0.0011805887   0.0012556269   0.0006541483
        0.0001610160  -0.0012879023   0.0007556212   0.0004877293   0.0003793322
       -0.0001842413  -0.0007569061  -0.0003713056   0.0000064062   0.0003625329
       -0.0000188652  -0.0000279958  -0.0000728608  -0.0001421969   0.0000431151
        0.0002277362   0.0000010428  -0.0002675654   0.0002197556   0.0001277431
        0.0002469103  -0.0002313354  -0.0001319216  -0.0002275371   0.0003141328
        0.0001331990   0.0002605964  -0.0003101272  -0.0001695157  -0.0001698510
        0.0003179647   0.0002109835   0.0000205639  -0.0002143960  -0.0000496252
        0.0002249086  -0.0001137098   0.0000505183  -0.0000979770   0.0000319452
        0.0000230440   0.0005337523  -0.0003607179  -0.0008116280   0.0011897907
       -0.0006297400   0.0006089185   0.0001572935   0.0004078830  -0.0000872257
        0.0000145864  -0.0001921258   0.0001466505  -0.0000094298   0.0002210895
        0.0000167770   0.0002041036   0.0001310256  -0.0000931059  -0.0001676071
       -0.0001551137   0.0000483668   0.0002713417   0.0002698746  -0.0002428172
       -0.0000686180  -0.0003048272   0.0001887955   0.0001326158   0.0001964888
       -0.0001777965   0.0000212715  -0.0001770786   0.0000840318  -0.0001661913
       -0.0001412279   0.0000238706   0.0001413673   0.0000912111  -0.0000696277
       -0.0008230569  -0.0001606443  -0.0007316033  -0.0013299785   0.0009285696
       -0.0009584678  -0.0031521157   0.0016172571  -0.0000176559   0.0004172392
       -0.0004459831  -0.0009993237  -0.0001007933   0.0000002885   0.0001768762
        0.0001794108   0.0000596233   0.0001680189  -0.0000629287  -0.0000811464
        0.0001778366   0.0000732846  -0.0000610034   0.0002025781  -0.0000223012
        0.0000234922   0.0000020432  -0.0002403366   0.0000451139   0.0000015716
        0.0000463431  -0.0001091296   0.0000407224  -0.0000760476  -0.0000863424
        0.0000110044  -0.0000430910  -0.0000064359   0.0002172222  -0.0000460760
       -0.0000076469   0.0000057537  -0.0000411040   0.0000161428  -0.0000276174
        0.0001627114   0.0000349976   0.0001815165   0.0002354255  -0.0000300010
       -0.0000335173   0.0000283358   0.0000178786  -0.0000587845  -0.0000150556
        0.0000099136  -0.0000362988   0.0000225707  -0.0001891054  -0.0000290250
        0.0000422794   0.0000159916  -0.0002215408   0.0000408957   0.0000184188
       -0.0000341272   0.0000513407   0.0000361228  -0.0000085724  -0.0001287774
        0.0000835995  -0.0002345014  -0.0002727787  -0.0000092731  -0.0000133617
       -0.0001800061   0.0000143194  -0.0025098786   0.0000431814  -0.0007826797
       -0.0263550611  -0.0485877620   0.0401538092  -0.1308684306  -0.3439343229
        0.1571554123   0.1951920665   0.4089776146  -0.2134241359  -0.0413699328
       -0.0193416013   0.0158315380  -0.0006737433   0.0036331120  -0.0003391873
       -0.0021937462  -0.0012041561   0.0002912562   0.0005151243   0.0002681513
        0.0004131387   0.0029615629   0.0031388759   0.0004856472  -0.0060803369
       -0.0044701494   0.0013573322   0.0053417772   0.0003803942   0.0000201403
       -0.0019194490  -0.0016586855  -0.0000813207   0.0019487182  -0.0003376903
       -0.0007356313  -0.0035039689  -0.0000650619   0.0003808065   0.0051859942
        0.0005347671  -0.0008798374  -0.0019502291   0.0017268827   0.0019405406
       -0.0018759202  -0.0019491440  -0.0013811131   0.0016727252   0.0007403673
        0.0000760183  -0.0020491068   0.0012212603   0.0007719620   0.0010837621
       -0.0005982400  -0.0014062730  -0.0008145572  -0.0001530728   0.0005728347
        0.0000309303   0.0001296916  -0.0001554988  -0.0000618861   0.0000839558
        0.0003146374   0.0000677816  -0.0003560386   0.0001973460   0.0001347473
        0.0002688073  -0.0002064753   0.0000338023  -0.0004858431   0.0003455505
        0.0001948934   0.0002619962  -0.0004303605  -0.0001686925  -0.0002529351
        0.0003675256   0.0002385080   0.0000282668  -0.0002542641  -0.0000569536
        0.0003249561  -0.0001552117  -0.0000165690  -0.0001903990   0.0001833934
        0.0001214324   0.0006998110  -0.0004513327  -0.0011401429   0.0020553663
       -0.0011566981   0.0008580451   0.0002738707   0.0006371693  -0.0000850086
       -0.0000780196  -0.0003601585   0.0001813025   0.0000036000   0.0002790620
        0.0000225883   0.0002145861   0.0001379178  -0.0000421761  -0.0001488781
       -0.0000815499  -0.0000514397   0.0003595011   0.0002967517  -0.0004337651
        0.0001444030  -0.0003751528   0.0002570483   0.0000301508   0.0001394855
       -0.0001961112   0.0000550565  -0.0001797793   0.0001587769  -0.0001044379
       -0.0001781625   0.0000641585   0.0002866378   0.0000214852  -0.0001588123
       -0.0014954864  -0.0003655464  -0.0014939552  -0.0003098339  -0.0009022814
        0.0075708591  -0.0022393842   0.0035812797   0.0005558153   0.0006328528
       -0.0005664036  -0.0004317475  -0.0000807036  -0.0003941364   0.0002733807
        0.0002904825   0.0001098533   0.0002864445  -0.0001218447  -0.0001602220
        0.0002872941   0.0001372166  -0.0000671459   0.0003004557  -0.0000250220
        0.0000556695  -0.0001271209  -0.0003301090   0.0000385596   0.0000088919
        0.0000662560  -0.0001906232   0.0000189028  -0.0000773442  -0.0000859969
        0.0000167434   0.0000047330   0.0000060755   0.0003254743  -0.0000269728
        0.0000053083   0.0000054281  -0.0000356507   0.0000077298  -0.0000411755
        0.0002684340   0.0000424234   0.0002620691   0.0003629446  -0.0000648534
       -0.0000761290   0.0000531258   0.0000456793  -0.0000682254  -0.0000116828
        0.0000378605  -0.0000465507   0.0000333756  -0.0002765644  -0.0000394960
        0.0000661561   0.0000251296  -0.0003245800   0.0000474377   0.0000471068
       -0.0000405085   0.0000447613   0.0000770252  -0.0000361311  -0.0001930142
        0.0001725901  -0.0004202541  -0.0004965003   0.0001400195  -0.0001806835
       -0.0001859913   0.0001186909  -0.0007849078   0.0016961190  -0.0015758452
        0.0171647973   0.0503464290  -0.0078701125   0.0628680199   0.1506519023
       -0.1495392424  -0.0889507068  -0.2134241359   0.1452207541   0.0143667558
        0.0136092859   0.0101127330  -0.0014332947   0.0001801630   0.0029338119
        0.0009970228  -0.0001208588  -0.0006929196  -0.0002115967  -0.0002331221
       -0.0001550520  -0.0016531462  -0.0017694762  -0.0001265125   0.0033643924
        0.0026035283  -0.0007618100  -0.0031894232  -0.0002410940   0.0000351958
        0.0011169670   0.0009518352   0.0000402335  -0.0012566786   0.0003322913
        0.0005495173   0.0022081483   0.0000633366  -0.0002506347  -0.0033304183
       -0.0003646196   0.0005150140   0.0012671322  -0.0012225817  -0.0012625147
        0.0012244596   0.0014139162   0.0009363653  -0.0010874969  -0.0005901882
       -0.0001245093   0.0011891304  -0.0007159683  -0.0004383804  -0.0005816941
        0.0003203413   0.0008563623   0.0005816836   0.0000599270  -0.0004226176
       -0.0000099790  -0.0000496015   0.0000303578   0.0000491985  -0.0000408973
       -0.0002625980  -0.0000590027   0.0002118920  -0.0001397273  -0.0001035206
       -0.0001391625   0.0001282013   0.0000159159   0.0002995745  -0.0002412117
       -0.0001090193  -0.0001828975   0.0002522336   0.0000811859   0.0001546063
       -0.0002031452  -0.0001638936   0.0000149089   0.0001580025   0.0000574150
       -0.0002039440   0.0000759132   0.0000015762   0.0000828477  -0.0000828622
       -0.0000709174  -0.0004626360   0.0003439118   0.0005737695  -0.0010380246
        0.0006612257  -0.0004636771  -0.0001256278  -0.0003761833   0.0000210782
        0.0000506004   0.0001834778  -0.0001120499   0.0000309528  -0.0001405195
        0.0000144298  -0.0000986403  -0.0000338538   0.0000162260   0.0000375259
        0.0000149123   0.0000461969  -0.0001930445  -0.0001455700   0.0002071787
       -0.0000746779   0.0001894469  -0.0000909471  -0.0000309855  -0.0000402017
        0.0000775606  -0.0000444877   0.0000559046  -0.0001146147   0.0000684083
        0.0000420013  -0.0000488415  -0.0001267599  -0.0000298342   0.0001094811
        0.0007012066   0.0001684722   0.0011105559  -0.0004980518  -0.0000026933
       -0.0054205136   0.0015382155  -0.0012097107  -0.0004045142  -0.0003333725
        0.0002917597   0.0002168974  -0.0003244399  -0.0001991247  -0.0001333059
       -0.0001394429  -0.0000553062  -0.0001406903   0.0000414466   0.0000699022
       -0.0001440942  -0.0000479135   0.0000440424  -0.0001400622   0.0000167876
       -0.0000410083   0.0000851369   0.0001711442  -0.0000066778   0.0000204072
       -0.0000524546   0.0001666324  -0.0000128615   0.0000717347   0.0000789358