$hessian                                                                        
        0.4961125887   0.2063124915  -0.1216305757  -0.2372071238  -0.1104814867
        0.0508832899  -0.0044787720  -0.0452319825  -0.0632679010  -0.0412823283
       -0.0120583089   0.0239574586   0.0336118348   0.0466784943   0.0328174335
       -0.1665041418  -0.0267931318   0.0966827256   0.0014672444  -0.0049967655
       -0.0025994319   0.0002755290   0.0000773705   0.0013430733  -0.0000786728
       -0.0009638199  -0.0015055728   0.0006429862   0.0011637424   0.0008325190
       -0.0015509341  -0.0004425138   0.0009719095   0.0009203468  -0.0005739552
       -0.0019358002  -0.0008129601   0.0005977914   0.0018789345   0.0019945797
        0.0009513126  -0.0011453257   0.0002886471   0.0004552803   0.0001223337
        0.0000994626  -0.0003995685  -0.0001861916  -0.0000042682   0.0000821388
       -0.0001056138   0.0005535740  -0.0006270772   0.0000511095  -0.0003305901
        0.0004121681  -0.0000139043   0.0000216157   0.0002518047   0.0000473489
        0.0001154227  -0.0001509222   0.0000431697   0.0000903690   0.0002342544
       -0.0000985456  -0.0001509009   0.0000674841   0.0000051499   0.0007091516
       -0.0006810309  -0.0000779839  -0.0008977204   0.0000515543   0.0009548583
       -0.0000755902   0.0004258302  -0.0007480055  -0.0009253451   0.0003894925
        0.0003267599   0.0006347490  -0.0006531799   0.0003784377   0.0004281288
        0.0001089944  -0.0006683213   0.0007162927  -0.0011953245   0.0011470448
       -0.0012840594   0.0009057138   0.0000413532   0.0013388230  -0.0001416624
       -0.0011836036   0.0000927262  -0.0004936436   0.0006567644   0.0007901035
       -0.0003455224  -0.0004104345  -0.0007342210   0.0006951313  -0.0002685133
       -0.0004776899  -0.0001702956   0.0007465436  -0.0003990800   0.0009519395
       -0.0008674051  -0.0001080017  -0.0001945570   0.0000771740  -0.0000288102
       -0.0002237895  -0.0000288224  -0.0000714507   0.0005136893   0.0000142620
        0.0002091712  -0.0012835750  -0.0000279328  -0.0002966341   0.0021351299
       -0.0000689988   0.0001465737  -0.0016551197   0.0001319061   0.0000081939
        0.0002911714   0.0000205492   0.0000487584   0.0001895023   0.0000591211
       -0.0002677655  -0.0001883018  -0.0000045940   0.0000391256   0.0000439981
        0.0000447543   0.0001112656  -0.0000573377  -0.0000984686  -0.0000084210
       -0.0000192477  -0.0000194514  -0.0000078060   0.0000870977   0.0001147734
        0.0000628093   0.0000155339  -0.0000288921  -0.0000290406  -0.0002234939
       -0.0000662184  -0.0002552605   0.0001602883  -0.0000539100   0.0000587769
       -0.0000478435  -0.0000118566   0.0000889784   0.0001431657   0.0001050285
       -0.0000134310   0.0000061696   0.0000026350   0.0000036509  -0.0001284611
       -0.0001110033   0.0000448794  -0.0000078117   0.0000463729   0.0001559745
       -0.0003654655  -0.0000668004  -0.0000995002   0.0017164405   0.0000375008
        0.0002383216  -0.0026384425   0.0000127753  -0.0002712885   0.0016202607
       -0.0001007018  -0.0533654731  -0.0412682777  -0.0402612635  -0.0167725915
       -0.0103368145   0.0032437044   0.0025506605  -0.0032194733   0.0005384434
       -0.0160983177   0.0002549362   0.0194096464   0.0000691738   0.0000736673
        0.0000508171   0.0000760402  -0.0000140736  -0.0000820459   0.0000190738
       -0.0000366455  -0.0000801694  -0.0000661774   0.0000040621  -0.0000575463
       -0.0000004388  -0.0001712237   0.0000420587  -0.0000454605   0.0000914271
       -0.0000260438   0.0000420780   0.0001362962   0.0000004559  -0.0000870670
        0.0000942705   0.0000318317   0.0000937384   0.0000005984  -0.0000155912
       -0.0000004496  -0.0000213355   0.0000856499  -0.0000425679  -0.0000021198
        0.0000659171  -0.0000513302   0.0000613003  -0.0000050310  -0.0000580011
        0.0000553328   0.0000159167   0.0000027517   0.0000545877  -0.0000632066
        0.0000535165  -0.0000202431  -0.0000767535   0.0000812791  -0.0000404460
        0.0000160475  -0.0001328794   0.0000727534  -0.0000222172   0.0000437621
       -0.0000702758  -0.0000004840   0.0000507767   0.0001591948  -0.0000158510
        0.0000027013  -0.0000407966  -0.0000007004  -0.0000151759  -0.0000118626
        0.0000045531  -0.0000157053   0.0000055799  -0.0000068909  -0.0000039099
        0.0000408079  -0.0000037380  -0.0000229638  -0.0000004173   0.0000052164
        0.0001582840  -0.0000080602   0.0000121449   0.0000658262  -0.0001445480
        0.0000408396
        0.2063124915   0.3902147317   0.1918547442  -0.1464417064  -0.1479434738
        0.0143660058  -0.0186390198  -0.0330351087  -0.0327378047  -0.0115486170
       -0.0034286248   0.0151160603   0.0200125304   0.0061492181  -0.0100985247
        0.0090305392  -0.0685893427  -0.0504922396  -0.0034434090   0.0006569947
       -0.0042413558  -0.0000888418   0.0000471108  -0.0020051206  -0.0001863434
       -0.0003969835  -0.0002981896   0.0003202367   0.0001027807   0.0001402193
       -0.0004488457  -0.0000499499   0.0003749913   0.0003738879  -0.0003260947
       -0.0007519210  -0.0007124266   0.0003673370   0.0014252587   0.0004591860
       -0.0020507314  -0.0033397704   0.0003584901   0.0003359837  -0.0000406930
       -0.0000509456  -0.0002497404  -0.0001251960   0.0000296048   0.0000756848
       -0.0000277856   0.0002802869  -0.0003011958   0.0000359121  -0.0001767632
        0.0002096215  -0.0000319208  -0.0000302930   0.0001466429   0.0000387658
        0.0000467519  -0.0000729921   0.0000103487   0.0000350198   0.0001127684
       -0.0000391742  -0.0000827721   0.0000309087   0.0000059014   0.0002913446
       -0.0002892930  -0.0000333051  -0.0003732932   0.0000280619   0.0003943550
       -0.0000308896   0.0001834832  -0.0003433050  -0.0003984068   0.0001633671
        0.0001456127   0.0002702183  -0.0002915866   0.0001701953   0.0001872049
        0.0000528252  -0.0003073933   0.0003075126  -0.0005039879   0.0004783376
       -0.0005441046   0.0003722573   0.0000194926   0.0005700985  -0.0000671120
       -0.0004964675   0.0000355841  -0.0002215421   0.0002978006   0.0003433376
       -0.0001488951  -0.0001828222  -0.0003124668   0.0002989155  -0.0001187431
       -0.0002070041  -0.0000848727   0.0003407001  -0.0001685614   0.0004016967
       -0.0003619946  -0.0000564958  -0.0000891853   0.0000311075  -0.0000153149
       -0.0001033463  -0.0000024590  -0.0000305529   0.0002397859   0.0000063144
        0.0001329797  -0.0005598604  -0.0000126905  -0.0001758644   0.0009297729
       -0.0000375185   0.0000811240  -0.0007503993   0.0000620377  -0.0000128753
        0.0001339613   0.0000040785   0.0000229492   0.0000864396   0.0000235753
       -0.0001114146  -0.0000765889   0.0000033095   0.0000193101   0.0000208098
        0.0000156769   0.0000397048  -0.0000230269  -0.0000461558  -0.0000050047
       -0.0000105376  -0.0000068547  -0.0000075114   0.0000386925   0.0000490405
        0.0000290144   0.0000115387  -0.0000125685  -0.0000277590  -0.0001019299
       -0.0000326995  -0.0000946054   0.0000624075  -0.0000180949   0.0000200889
       -0.0000195942  -0.0000079723   0.0000357891   0.0000489892   0.0000413200
       -0.0000088373   0.0000046351   0.0000012584   0.0000004441  -0.0000466944
       -0.0000444005   0.0000207633  -0.0000009158   0.0000175651   0.0000773417
       -0.0001615341  -0.0000302060  -0.0000723081   0.0007614204   0.0000176452
        0.0001043616  -0.0011238161  -0.0000006202  -0.0000765914   0.0006975778
       -0.0000386808  -0.0413857816  -0.1454834004  -0.1268250559  -0.0001104655
        0.0010012688   0.0003162480  -0.0035627269   0.0015629673  -0.0050928611
       -0.0101813725   0.0009423262   0.0126036434  -0.0000055778   0.0000352442
       -0.0000028243   0.0000232545  -0.0000016811  -0.0000544806  -0.0000114536
        0.0000067303  -0.0000534673  -0.0000137148   0.0000181649  -0.0000001373
       -0.0000138705  -0.0001588198  -0.0000063053  -0.0000368790   0.0000224496
       -0.0000203760   0.0000075432   0.0000918507  -0.0000071022  -0.0000405229
        0.0000467114   0.0000128617   0.0000362590   0.0000009161  -0.0000022239
       -0.0000041963  -0.0000079136   0.0000334402  -0.0000152318  -0.0000019760
        0.0000247427  -0.0000209632   0.0000201060   0.0000007457  -0.0000226647
        0.0000214766   0.0000047159   0.0000009259   0.0000210096  -0.0000248768
        0.0000180209  -0.0000013925  -0.0000304405   0.0000327929  -0.0000131943
        0.0000016624  -0.0000472283   0.0000289546  -0.0000125002   0.0000158503
       -0.0000293398   0.0000001515   0.0000222275   0.0000642169  -0.0000068254
       -0.0000005740  -0.0000140430   0.0000011717  -0.0000064599  -0.0000016360
        0.0000005238  -0.0000078274   0.0000016966  -0.0000049654  -0.0000017836
        0.0000163627  -0.0000034361  -0.0000068032   0.0000017714   0.0000018265
        0.0000411593  -0.0000000955   0.0000055738   0.0000297127  -0.0000581965
        0.0000175884
       -0.1216305757   0.1918547442   0.5488383290  -0.0063776216  -0.0280362262
       -0.0845208590  -0.0216074752  -0.0020647678   0.0241948495   0.0240476656
        0.0148024887  -0.0088231231  -0.0090668505  -0.0404660642  -0.0550025248
        0.1537424787  -0.0092616308  -0.2310447654  -0.0006729973  -0.0025173771
        0.0025237447   0.0011384787  -0.0022375176  -0.0031042685  -0.0002691762
        0.0006087710   0.0011466050  -0.0004431515  -0.0008213270  -0.0009661998
        0.0010568511   0.0004040880  -0.0005122022  -0.0005661923   0.0002829734
        0.0009734822  -0.0001290776  -0.0001071632   0.0000722297  -0.0018018143
       -0.0038799054  -0.0036889218   0.0003260970   0.0002313355  -0.0000367676
       -0.0001807775   0.0000913668   0.0001663634   0.0000738834   0.0000760698
        0.0001336908  -0.0002582749   0.0002639780  -0.0000514028   0.0001514480
       -0.0001718862  -0.0000406304  -0.0000561755  -0.0001392214  -0.0000534114
       -0.0000358132   0.0000793643  -0.0000135837  -0.0000501196  -0.0001281913
        0.0000485764   0.0000940771  -0.0000490675  -0.0000082035  -0.0003517595
        0.0003385857   0.0000464967   0.0004413365  -0.0000292655  -0.0004597213
        0.0000438784  -0.0002224887   0.0003691288   0.0004756754  -0.0002011725
       -0.0001693283  -0.0003249971   0.0003281277  -0.0001972861  -0.0002203785
       -0.0000539179   0.0003376208  -0.0003746704   0.0006047509  -0.0005842711
        0.0006451842  -0.0004558130  -0.0000081059  -0.0006777918   0.0000756825
        0.0005916667  -0.0000492368   0.0002503089  -0.0003303407  -0.0003993042
        0.0001790796   0.0002139117   0.0003814577  -0.0003579255   0.0001377852
        0.0002548986   0.0000792586  -0.0003654079   0.0001966882  -0.0004645263
        0.0004000226   0.0000351189   0.0001046897  -0.0000421809   0.0000326131
        0.0000679085   0.0000169199  -0.0000200782  -0.0002319393   0.0000095012
        0.0000438989   0.0007276622   0.0000244615   0.0000320566  -0.0012337665
        0.0000305157  -0.0000687427   0.0008880856  -0.0000654855  -0.0000126037
       -0.0001627321  -0.0000283723  -0.0000311457  -0.0001054546  -0.0000346126
        0.0001428435   0.0001020347   0.0000112872  -0.0000262320  -0.0000205103
       -0.0000194972  -0.0000614946   0.0000240901   0.0000510208   0.0000002135
        0.0000099845   0.0000063555   0.0000040264  -0.0000421206  -0.0000572222
       -0.0000309681  -0.0000129099   0.0000102065   0.0000025950   0.0001238981
        0.0000281759   0.0001418348  -0.0000892648   0.0000279860  -0.0000326791
        0.0000231685   0.0000010365  -0.0000512947  -0.0001012377  -0.0000522339
        0.0000029241   0.0000055523  -0.0000056330   0.0000012392   0.0000654407
        0.0000576351  -0.0000242645   0.0000106999  -0.0000218578  -0.0000592097
        0.0001920218   0.0000290747   0.0000259265  -0.0008853422   0.0000227083
       -0.0001004846   0.0013817882  -0.0000509456   0.0001544118  -0.0008228703
        0.0000415021  -0.0405442926  -0.1270013346  -0.1839648831   0.0202557470
        0.0130223886  -0.0027991528   0.0003266106  -0.0055062999  -0.0014392778
        0.0025274653   0.0008182300  -0.0019840419  -0.0000546808  -0.0000850298
       -0.0000330656  -0.0000325886  -0.0000180603   0.0000316044   0.0000013380
       -0.0000046265   0.0000449933   0.0000508517   0.0000310010   0.0000556673
        0.0000142905   0.0000349981  -0.0000459277  -0.0000041790  -0.0000736321
       -0.0000034222  -0.0000488058  -0.0000385423  -0.0000210394   0.0000355853
       -0.0000381704  -0.0000207259  -0.0000584193   0.0000065367   0.0000097844
       -0.0000045018   0.0000173238  -0.0000483192   0.0000272327   0.0000015940
       -0.0000442416   0.0000351527  -0.0000422108   0.0000052080   0.0000378354
       -0.0000350538  -0.0000129427  -0.0000003703  -0.0000317479   0.0000417270
       -0.0000342490   0.0000200198   0.0000476631  -0.0000509766   0.0000261050
       -0.0000116972   0.0000869091  -0.0000391663   0.0000110219  -0.0000272206
        0.0000410822  -0.0000022787  -0.0000281805  -0.0000930675   0.0000055695
       -0.0000035561   0.0000230553   0.0000007165   0.0000099406   0.0000071174
       -0.0000043170   0.0000070704  -0.0000034228   0.0000013858  -0.0000021881
       -0.0000274958  -0.0000000994   0.0000154077  -0.0000009404  -0.0000034517
       -0.0001272243   0.0000046784  -0.0000069902  -0.0000363755   0.0000802758
       -0.0000129911
       -0.2372071238  -0.1464417064  -0.0063776216   0.5068106481   0.2037668867
       -0.1441488249  -0.0907400496  -0.0350864704   0.0010655966   0.0338476265
        0.0180869549  -0.0124030941  -0.0208587899  -0.0240559421  -0.0189554812
       -0.0427298660   0.0043804505   0.0584953349   0.0000462660   0.0013677012
        0.0017641321   0.0003713062  -0.0007319935  -0.0014239618  -0.0001513472
        0.0007603849   0.0012796987  -0.0005480529  -0.0008768613  -0.0007164773
        0.0009404435   0.0003917530  -0.0006064019  -0.0009082602   0.0003395337
        0.0012261200   0.0011615250  -0.0000972029  -0.0000120057  -0.0021279532
       -0.0009920124   0.0070494115  -0.0004438154  -0.0007958085  -0.0001555151
       -0.0002546952   0.0002758762  -0.0000256368   0.0002473508   0.0001831289
        0.0000121620  -0.0004382084   0.0004196426  -0.0000610914   0.0001870238
       -0.0003736255  -0.0000242712   0.0000487700   0.0000352697  -0.0001211100
       -0.0001133242   0.0001774077  -0.0000329581  -0.0000620317  -0.0002242539
        0.0000828371   0.0001278640  -0.0000522651  -0.0000161173  -0.0006150006
        0.0005994611   0.0000719384   0.0008009515  -0.0000588885  -0.0008410026
        0.0000525010  -0.0003768073   0.0006937217   0.0008276510  -0.0003436729
       -0.0002985269  -0.0005705518   0.0006004022  -0.0003562029  -0.0003880848
       -0.0001106235   0.0006271047  -0.0006488937   0.0010803517  -0.0010338887
        0.0011706853  -0.0008170530  -0.0000422292  -0.0012173848   0.0001330234
        0.0010698885  -0.0000750107   0.0004520140  -0.0006122356  -0.0007194272
        0.0003073262   0.0003824333   0.0006537252  -0.0006248345   0.0002433818
        0.0004213275   0.0001703643  -0.0006886214   0.0003654065  -0.0008509088
        0.0007633923   0.0000971176   0.0001637646  -0.0000690935   0.0000210370
        0.0002014401   0.0000163599   0.0000551655  -0.0004592135   0.0000063956
       -0.0002071113   0.0010649226   0.0000311620   0.0002731003  -0.0018588006
        0.0000658971  -0.0001401895   0.0014447436  -0.0001158830   0.0000144158
       -0.0002649240  -0.0000252615  -0.0000637983  -0.0001763169  -0.0000523610
        0.0002426540   0.0001709399   0.0000032500  -0.0000376429  -0.0000364915
       -0.0000359463  -0.0000952856   0.0000524348   0.0000916631   0.0000059150
        0.0000222239   0.0000215592   0.0000068889  -0.0000823949  -0.0001060355
       -0.0000532821  -0.0000152687   0.0000260437   0.0000344296   0.0002116099
        0.0000606754   0.0002106762  -0.0001378059   0.0000428069  -0.0000343277
        0.0000401356   0.0000166864  -0.0000867145  -0.0001175839  -0.0000948328
        0.0000181614   0.0000006837   0.0000075810  -0.0000049007   0.0001064138
        0.0000934822  -0.0000329763   0.0000058948  -0.0000345397  -0.0001642565
        0.0003299860   0.0000565626   0.0001555685  -0.0014520165  -0.0000004091
       -0.0002552989   0.0022126549  -0.0000463050   0.0002846961  -0.0013338470
        0.0000843182  -0.0062441938  -0.0055473983  -0.0008382932  -0.1345038384
        0.0042046636   0.1274903384  -0.0068128649  -0.0167576513  -0.0172834708
        0.0001860110  -0.0020453236   0.0046986685  -0.0000206201  -0.0000586632
       -0.0000563202  -0.0000411194   0.0000010835   0.0000781254   0.0000058473
        0.0000205261   0.0001048680   0.0000600864  -0.0000121123   0.0000410666
       -0.0000145147   0.0000214249  -0.0000964116   0.0000481413  -0.0001158490
        0.0000078503  -0.0000659908  -0.0001980541   0.0000090905   0.0000631807
       -0.0000920339  -0.0000291759  -0.0000764661  -0.0000008992   0.0000113200
        0.0000064567   0.0000165295  -0.0000749114   0.0000381973   0.0000003728
       -0.0000573273   0.0000475683  -0.0000516962  -0.0000020510   0.0000522467
       -0.0000507922  -0.0000115488  -0.0000001029  -0.0000512692   0.0000534904
       -0.0000419767   0.0000095883   0.0000655904  -0.0000684313   0.0000314332
       -0.0000152478   0.0001123047  -0.0000677043   0.0000231182  -0.0000382575
        0.0000522891  -0.0000016612  -0.0000494718  -0.0001377893   0.0000102816
       -0.0000034631   0.0000310833  -0.0000011518   0.0000114906   0.0000069213
       -0.0000032219   0.0000125615  -0.0000057571   0.0000074212   0.0000042028
       -0.0000340385   0.0000018709   0.0000149532  -0.0000001145  -0.0000054163
       -0.0001300276   0.0000060019  -0.0000145421  -0.0000591514   0.0001150414
       -0.0000300024
       -0.1104814867  -0.1479434738  -0.0280362262   0.2037668867   0.3750730947
        0.1709831935  -0.0706658253  -0.1639212359  -0.1071662036   0.0434494261
        0.0044292352  -0.0417619048  -0.0236903180  -0.0312699492  -0.0146783357
       -0.0215407316   0.0181129620   0.0507901141   0.0019264816   0.0010917146
       -0.0003348776   0.0001679285  -0.0005268051  -0.0009778092  -0.0001227474
        0.0008002860   0.0014657390  -0.0008217953  -0.0010992916  -0.0008056775
        0.0013828436   0.0002416636  -0.0007871505  -0.0008229099   0.0004272678
        0.0017191950   0.0012032269   0.0002463091  -0.0027290931  -0.0039793648
        0.0042723055   0.0034511630  -0.0004610649  -0.0003016178  -0.0005991718
       -0.0000568987   0.0003080567   0.0002812264   0.0000734313   0.0000453368
        0.0000747406  -0.0005558570   0.0006355119  -0.0000790519   0.0004195036
       -0.0003079758   0.0000412352   0.0001657318  -0.0001760426  -0.0001626463
       -0.0000958849   0.0001451479  -0.0000199049  -0.0000445257  -0.0001927051
        0.0000858082   0.0001101302  -0.0000432441  -0.0000055204  -0.0006301907
        0.0006113559   0.0000671972   0.0008110878  -0.0000449516  -0.0008525746
        0.0000546229  -0.0003647330   0.0006663318   0.0008056280  -0.0003324731
       -0.0002915861  -0.0005574969   0.0005784120  -0.0003404815  -0.0003742068
       -0.0001014461   0.0005932207  -0.0006347194   0.0010681711  -0.0010224662
        0.0011569710  -0.0008145411  -0.0000444757  -0.0011979017   0.0001270226
        0.0010627679  -0.0000765066   0.0004353593  -0.0005833763  -0.0006939716
        0.0002999277   0.0003661746   0.0006363916  -0.0006065017   0.0002402347
        0.0004119674   0.0001610804  -0.0006620683   0.0003675457  -0.0008611576
        0.0007809705   0.0001006963   0.0001485048  -0.0000656747   0.0000048886
        0.0001938213   0.0000258061   0.0001087678  -0.0005027521  -0.0000111198
       -0.0002036439   0.0012211972   0.0000266239   0.0003452011  -0.0020922576
        0.0000618999  -0.0002776399   0.0015942388  -0.0001214643   0.0000331419
       -0.0002824194  -0.0000184005  -0.0000503160  -0.0001735854  -0.0000460906
        0.0002327691   0.0001601105   0.0000103577  -0.0000312811  -0.0000349573
       -0.0000378674  -0.0000959923   0.0000462633   0.0000791516   0.0000087267
        0.0000141323   0.0000221853   0.0000029286  -0.0000780223  -0.0000970828
       -0.0000476968  -0.0000097880   0.0000265507   0.0000619456   0.0002100693
        0.0000555049   0.0002014048  -0.0001323248   0.0000433904  -0.0000319595
        0.0000358477   0.0000151554  -0.0000850065  -0.0001317429  -0.0000902295
        0.0000165179  -0.0000051462   0.0000070963  -0.0000109791   0.0001056428
        0.0000847329  -0.0000266994  -0.0000006679  -0.0000356996  -0.0001605979
        0.0003502480   0.0000522363   0.0000704866  -0.0015957931  -0.0000261881
       -0.0002446946   0.0024722222  -0.0000291843   0.0003239069  -0.0014910181
        0.0000896320  -0.0162970400  -0.0121770201  -0.0009007876   0.0049563964
       -0.0396742386  -0.0141752834  -0.0060267522  -0.0123126570  -0.0129691223
       -0.0020220833   0.0043057672  -0.0026566204  -0.0000572223  -0.0000726629
       -0.0000251882  -0.0000581545   0.0000328870   0.0000603784  -0.0000033473
        0.0000424012   0.0000767146   0.0000627760   0.0000148692   0.0000409139
       -0.0000427764   0.0000765903  -0.0001455898   0.0000507300  -0.0001153775
        0.0000266282  -0.0000929129  -0.0001377697  -0.0000133791   0.0000609515
       -0.0000900871  -0.0000292455  -0.0000776545  -0.0000009808   0.0000106080
        0.0000065298   0.0000161776  -0.0000772724   0.0000421157   0.0000015257
       -0.0000592044   0.0000509352  -0.0000545183   0.0000019504   0.0000575873
       -0.0000497277  -0.0000115443   0.0000028133  -0.0000489314   0.0000562624
       -0.0000409969   0.0000235781   0.0000671991  -0.0000674549   0.0000342084
       -0.0000109200   0.0001258821  -0.0000639547   0.0000202667  -0.0000293740
        0.0000570249   0.0000000838  -0.0000527489  -0.0001474178   0.0000107610
       -0.0000054699   0.0000299264   0.0000019159   0.0000134827   0.0000071922
       -0.0000034858   0.0000098856  -0.0000103840   0.0000058763   0.0000020970
       -0.0000369733   0.0000004262   0.0000182236  -0.0000027799  -0.0000056503
       -0.0001685325   0.0000075344  -0.0000125316  -0.0000681613   0.0001218994
       -0.0000341922
        0.0508832899   0.0143660058  -0.0845208590  -0.1441488249   0.1709831935
        0.5550990268  -0.0552489604  -0.1485167595  -0.2132984476   0.0278424671
       -0.0127490114  -0.0542050413  -0.0183255222  -0.0138677428  -0.0057523135
        0.0176975120   0.0205890821   0.0139728038   0.0026421600   0.0003630395
       -0.0026939585  -0.0001435266  -0.0000108957   0.0001311860  -0.0000735293
        0.0004594851   0.0007796663  -0.0006552335  -0.0007337958  -0.0004288603
        0.0008927583   0.0002169795  -0.0007452675  -0.0003844979   0.0005220484
        0.0010941894   0.0017538918  -0.0015491103  -0.0032887027   0.0030208158
        0.0006705454   0.0027727418  -0.0001476524  -0.0003415998   0.0002716084
       -0.0000373517   0.0003048856   0.0001945469   0.0000024741   0.0000511813
        0.0000401658  -0.0003347004   0.0002996308  -0.0000483649   0.0002261461
       -0.0002320417   0.0000048410   0.0000985243  -0.0001789044  -0.0000382735
       -0.0000343793   0.0000929395  -0.0000049410   0.0000137899  -0.0000832842
        0.0000444066   0.0000442956  -0.0000009392  -0.0000049028  -0.0003075284
        0.0002980923   0.0000408893   0.0003844927  -0.0000136231  -0.0004150574
        0.0000244425  -0.0001506659   0.0002777204   0.0003405631  -0.0001378673
       -0.0001334006  -0.0002366449   0.0002353396  -0.0001397816  -0.0001554825
       -0.0000394317   0.0002348734  -0.0002782056   0.0004655287  -0.0004612279
        0.0005100605  -0.0003611557  -0.0000093978  -0.0005204604   0.0000476862
        0.0004683281  -0.0000387517   0.0001753246  -0.0002303066  -0.0002860794
        0.0001281244   0.0001497902   0.0002681471  -0.0002592448   0.0001091188
        0.0001786835   0.0000692671  -0.0002712266   0.0001641027  -0.0004098001
        0.0003688713   0.0000330124   0.0000459148  -0.0000308248  -0.0000074414
        0.0000849668   0.0000086465   0.0000695708  -0.0002667144  -0.0000025819
       -0.0000989534   0.0006381807   0.0000139684   0.0002926052  -0.0011769650
        0.0000397366  -0.0003167919   0.0008838091  -0.0000716838   0.0000425321
       -0.0001354193  -0.0000056770   0.0000012730  -0.0000834959  -0.0000068428
        0.0000800229   0.0000534559   0.0000141910  -0.0000076102  -0.0000050421
       -0.0000129341  -0.0000382227   0.0000067876   0.0000228912   0.0000049831
        0.0000089861   0.0000033677  -0.0000059671  -0.0000224272  -0.0000265984
       -0.0000128522   0.0000055223   0.0000099018   0.0000981879   0.0001070870
        0.0000170547   0.0000475970  -0.0000301492   0.0000054321   0.0000084711
        0.0000139281   0.0000094087  -0.0000376879  -0.0000675936  -0.0000214980
        0.0000142719   0.0000045387   0.0000016866  -0.0000138081   0.0000319884
        0.0000121399   0.0000029502  -0.0000033970  -0.0000061876  -0.0000966895
        0.0001824934   0.0000119043  -0.0000667602  -0.0008437648  -0.0000099988
       -0.0000788074   0.0013343515  -0.0000274550   0.0001973053  -0.0007559734
        0.0000532727  -0.0175946864  -0.0133201445   0.0000622009   0.1278272009
       -0.0142536424  -0.2079496916  -0.0007762179  -0.0005545739   0.0006722979
        0.0049472636  -0.0024298080  -0.0020731441  -0.0000727932  -0.0000427221
        0.0000202943  -0.0000126756   0.0000029695   0.0000350948   0.0000197691
       -0.0000007408   0.0000212975   0.0000575123  -0.0000014828   0.0000303766
       -0.0000480260   0.0000605223  -0.0001304580   0.0000683565  -0.0000474668
        0.0000137743  -0.0000597582  -0.0000494102  -0.0000297731   0.0000314758
       -0.0000500954  -0.0000225990  -0.0000387048   0.0000006466  -0.0000005756
        0.0000008111   0.0000079045  -0.0000324043   0.0000195339  -0.0000003868
       -0.0000302537   0.0000248628  -0.0000316683   0.0000055203   0.0000277022
       -0.0000244882  -0.0000102095   0.0000002015  -0.0000217294   0.0000299755
       -0.0000216396   0.0000224612   0.0000328702  -0.0000368554   0.0000130794
       -0.0000005317   0.0000734318  -0.0000206616   0.0000103843  -0.0000074420
        0.0000338900  -0.0000015220  -0.0000271120  -0.0000730604  -0.0000022106
       -0.0000046291   0.0000150242   0.0000034784   0.0000066104   0.0000075346
       -0.0000025772  -0.0000005206  -0.0000044512  -0.0000007919  -0.0000050602
       -0.0000164216  -0.0000024472   0.0000126754   0.0000002654  -0.0000023022
       -0.0001202435   0.0000068933  -0.0000036321  -0.0000335189   0.0000581890
       -0.0000082046
       -0.0044787720  -0.0186390198  -0.0216074752  -0.0907400496  -0.0706658253
       -0.0552489604   0.4998788934   0.2210684916  -0.1201393914  -0.1616019209
       -0.0015549664   0.1373831445  -0.0348909999  -0.0135146340   0.0172297336
       -0.0012070375   0.0061507114   0.0072845226  -0.0027568388  -0.0064970146
       -0.0000228529   0.0007267634   0.0013675749   0.0012205739   0.0000715310
        0.0002779292   0.0000209027  -0.0001395436  -0.0000300588   0.0000075002
       -0.0000466744  -0.0001171147  -0.0002740050  -0.0001010841  -0.0001080407
       -0.0002096814   0.0002625497  -0.0017062714  -0.0015284155   0.0078727917
        0.0066870705   0.0040466899  -0.0003723122  -0.0009177218  -0.0014717992
       -0.0007751259   0.0000289605  -0.0008884095   0.0003901107   0.0003655461
       -0.0000319021  -0.0005042015   0.0000443796  -0.0000142800  -0.0000803212
       -0.0004339327   0.0002199470   0.0004805815   0.0001893037  -0.0002142592
       -0.0000481772   0.0001772770   0.0000212133  -0.0000177200  -0.0001799379
        0.0000711419   0.0000913124  -0.0000013503  -0.0000203003  -0.0004442108
        0.0004576132   0.0000411032   0.0005736344  -0.0000396775  -0.0006164041
        0.0000396272  -0.0002631642   0.0004783692   0.0005608789  -0.0002331565
       -0.0002010743  -0.0003886508   0.0004051555  -0.0002459023  -0.0002526248
       -0.0000665344   0.0004071947  -0.0004366574   0.0007281177  -0.0006964166
        0.0008037059  -0.0005427182  -0.0000449246  -0.0008415873   0.0000907334
        0.0007432042  -0.0000409028   0.0002938119  -0.0003883569  -0.0004857893
        0.0002118990   0.0002664090   0.0004366075  -0.0004186014   0.0001757983
        0.0002910941   0.0001221162  -0.0004661306   0.0002584557  -0.0006328148
        0.0005841088   0.0000583187   0.0001043788  -0.0000451373   0.0000204763
        0.0001601083  -0.0000095121   0.0000494777  -0.0003558083   0.0000065622
       -0.0002258228   0.0007565446   0.0000187695   0.0004196724  -0.0014478656
        0.0000655497  -0.0002971278   0.0011678427  -0.0000834705   0.0000490694
       -0.0001917044  -0.0000146777  -0.0000180451  -0.0001284819  -0.0000162963
        0.0001299933   0.0000841913  -0.0000000447  -0.0000177583  -0.0000223149
       -0.0000243149  -0.0000437289   0.0000248015   0.0000447134   0.0000023172
        0.0000114549   0.0000129511   0.0000055416  -0.0000451706  -0.0000564315
       -0.0000270631  -0.0000012150   0.0000212404   0.0001252713   0.0001670836
        0.0000303131   0.0000746531  -0.0000517607   0.0000106172   0.0000075986
        0.0000220841   0.0000232985  -0.0000496044  -0.0000449365  -0.0000475931
        0.0000185938   0.0000006323   0.0000114654  -0.0000128881   0.0000457282
        0.0000332488  -0.0000069896  -0.0000181399  -0.0000235071  -0.0001714618
        0.0002378101   0.0000251254   0.0000677240  -0.0011052298   0.0000101806
       -0.0001273074   0.0016725197  -0.0000372381   0.0002118107  -0.0009495922