92
 energy: -158.323839970270 gnorm: 0.000072008135 xtb: 6.7.1 (edcfbbe)
C           -6.27783509431502       -3.20125514397098       -2.92559028222323
C           -5.11044508632266       -2.46737488287675       -2.99069864568239
C           -4.15131297213229       -2.58337279824667       -1.99617927560696
C           -4.34625802432865       -3.42958330415472       -0.91049002165808
C           -5.51725678280527       -4.19915005309486       -0.87595346445556
C           -6.47323982227628       -4.07694683880850       -1.86810068599397
O           -5.77027136217951       -5.11796910403770        0.11489435599117
C           -4.83177180668006       -5.24936328654293        1.11040216721384
C           -5.10729858108355       -6.16249496137971        2.11202839333977
C           -4.22794275833034       -6.32525087393082        3.17224718537345
C           -3.08576785373378       -5.55180716797632        3.23181067663331
C           -2.80422804607744       -4.63761153065935        2.22810382528872
C           -3.65493445701360       -4.48958443843196        1.13867520629722
N           -3.40026768661310       -3.57493269538927        0.11093687166178
C           -2.18884866416729       -2.85749191382362        0.08098304631562
C           -0.97001237442541       -3.54167668326404        0.02178250116913
C            0.20231862178252       -2.82915240766634       -0.01250707165966
C            0.19765290730138       -1.42934489731133        0.00295574824172
C           -1.02378372376063       -0.72647599280768        0.05762484619263
C           -2.20395293947022       -1.47134958123159        0.10425537041420
C           -1.02299624952939        0.73098611277368        0.05223994431168
C           -2.20220580588670        1.47725726533759        0.09883442669962
C           -2.18628691736393        2.86318352457703        0.06292414808037
N           -3.39681517064540        3.58172920693160        0.09468904294825
C           -3.64361554274598        4.50657613253911        1.11539042445768
C           -2.78254240778312        4.66875167953479        2.19465140339279
C           -3.05651805266349        5.59304666636704        3.19116586703656
C           -4.20144326133309        6.36265614845091        3.13489521406728
C           -5.09103652910835        6.18575140309678        2.08560345948609
C           -4.82285311859708        5.26275830450156        1.09101953855588
O           -5.77112451257334        5.11822570893643        0.10668486930607
C           -5.52702898345833        4.18761402648880       -0.87524121796535
C           -6.49434164725752        4.05007113214331       -1.85432833193406
C           -6.30860109884885        3.16203686762409       -2.90318090038455
C           -5.13944706215687        2.43141299442864       -2.97331551927269
C           -4.16892830708661        2.56293038830694       -1.99191072246091
C           -4.35405117492544        3.42126642826133       -0.91400281069023
C           -0.96718459113664        3.54562695310126       -0.01020249936227
C            0.20447242329607        2.83186112429406       -0.04203266390315
C            0.19892573501085        1.43228360173895       -0.01209454776283
C            1.45132569938376        0.71651669292859       -0.04990937660815
N            2.58069229388581        1.40088201641900       -0.08783204004840
C            3.73195020417296        0.71221498636439       -0.11673042432125
C            4.96068082786447        1.39859910219452       -0.16133290424648
C            6.14879558407143        0.71033602819242       -0.18532492798145
C            7.41112463123161        1.44972531977938       -0.29549450887141
C            8.38215468213645        1.14605090316811       -1.25354350102892
N            9.51962302719626        1.80998721624515       -1.34630001664035
C            9.70536851828492        2.80264123521429       -0.49377659620994
N            8.85003201802421        3.20649058427604        0.42780247888687
C            7.71534233582274        2.53718532364021        0.52671870604670
C            6.14861876923319       -0.71475893338684       -0.14544550704824
C            7.41254690020434       -1.45666961922336       -0.08033205705957
C            8.41117640544434       -1.16030362401501        0.85120309883364
N            9.54968059393241       -1.82655167967910        0.90699622584377
C            9.70869207584889       -2.81440765718170        0.04350786885806
N            8.82576196613832       -3.21217751156698       -0.85437001786161
C            7.68976978736955       -2.54059584203962       -0.91640320069212
C            4.95980053000169       -1.40156452868515       -0.11918914339978
C            3.73129339197228       -0.71355941726441       -0.10549935992531
N            2.57945358618634       -1.40076199078234       -0.06757405606926
C            1.45068740454030       -0.71498361691672       -0.04082885916738
H           -7.03014741351511       -3.11094377675633       -3.69309831426536
H           -4.93026131741760       -1.80143156151997       -3.82010396878756
H           -3.23640343398737       -2.01810074694582       -2.07507383373864
H           -7.36170066628788       -4.68451432896779       -1.79662436329999
H           -6.02014191526811       -6.73326952479624        2.04482107573109
H           -4.44904373647408       -7.04278450428596        3.94651739894455
H           -2.40273592604346       -5.64930096132970        4.06156711600101
H           -1.91624266984741       -4.02944189922832        2.29767695815815
H           -0.96289249460832       -4.62063266520944       -0.00645963141631
H            1.15637753631342       -3.32926500837967       -0.06505490054154
H           -3.16209104422559       -0.98154284217475        0.16563052521189
H           -3.16019001196328        0.98869480411756        0.17128450993775
H           -1.89229342635463        4.06372114799628        2.26227003738586
H           -2.36537040396994        5.70152750426863        4.01279498609329
H           -4.41676152989298        7.08797952297748        3.90351856471293
H           -6.00633123767843        6.75295712225662        2.02154870509382
H           -7.38389366663319        4.65566310873402       -1.77977118276745
H           -7.06981398144622        3.05955601817987       -3.66030333395533
H           -4.96708702687140        1.75568367209267       -3.79643062587402
H           -3.25296757095211        2.00001014064108       -2.07516955803650
H           -0.95930957332596        4.62420868894490       -0.04999766735652
H            1.15867865185122        3.33069609779308       -0.10343405269374
H            4.94153235090867        2.47709453323652       -0.20079323784259
H            8.23310507645891        0.35630604309175       -1.97987714687271
H           10.64219447561215        3.33933452455026       -0.56431418147044
H            7.03004056240500        2.86797127468921        1.29723608878050
H            8.28361823383104       -0.37485779455646        1.58627352308122
H           10.64636165336641       -3.35280060750012        0.08316765228028
H            6.98101133511860       -2.86657570769152       -1.66752832914473
H            4.94120694389776       -2.48005263098641       -0.07915851769914
