$hessian                                                                        
        0.4972972625   0.2150458940   0.1198204225  -0.2417579386  -0.1171091013
       -0.0523158256  -0.0056361314  -0.0448497132   0.0629368843  -0.0443076637
       -0.0167174770  -0.0229622021   0.0393298749   0.0472312902  -0.0281482659
       -0.1614958858  -0.0259863634  -0.0951530781  -0.0020946479  -0.0058835558
       -0.0001509953   0.0006340023   0.0007909859  -0.0020721552   0.0006161074
       -0.0011751821   0.0024945168   0.0014479595   0.0019807190  -0.0013673668
       -0.0024575784  -0.0007825670  -0.0014356454   0.0007937164  -0.0009332162
        0.0026423902  -0.0017057969   0.0009677824  -0.0023237648   0.0047303749
        0.0043908640  -0.0006266366  -0.0017608563  -0.0012214524  -0.0003604578
        0.0007377887  -0.0000101467   0.0006538064  -0.0001608538  -0.0002889622
        0.0002162553   0.0008814901   0.0003372144  -0.0000272071  -0.0008173879
       -0.0001111756  -0.0000354206   0.0005506462   0.0010969031  -0.0004650708
        0.0000540129   0.0000041232   0.0001042768   0.0000176440   0.0000894610
       -0.0000350607   0.0001203692  -0.0000876450  -0.0000119403  -0.0001033300
        0.0000605260   0.0000075853   0.0000434184   0.0000216959  -0.0000212641
       -0.0000094491   0.0000115106  -0.0000029691  -0.0000263057   0.0000158646
        0.0000021151   0.0000115922  -0.0000128814   0.0000114226   0.0000104267
        0.0000029268  -0.0000233065  -0.0000013672  -0.0000197823   0.0000340911
       -0.0000221175   0.0000165759   0.0000043044   0.0000207088   0.0000083241
       -0.0000359323   0.0000030206  -0.0000118707   0.0000242159   0.0000176463
       -0.0000047022  -0.0000094331  -0.0000204016   0.0000172627  -0.0000012524
       -0.0000086541   0.0000010553   0.0000043273  -0.0000018305  -0.0000377953
        0.0000118094  -0.0000623369  -0.0000177418   0.0000289181  -0.0000183299
       -0.0000648643  -0.0000050454  -0.0001021878   0.0000473860   0.0000033561
        0.0001938243  -0.0000725742  -0.0000093179  -0.0004275009   0.0002184209
        0.0000067437   0.0004829151  -0.0001881754  -0.0000057568  -0.0003539750
       -0.0000612795   0.0000263586   0.0002310516  -0.0002317992   0.0000329820
       -0.0000590286  -0.0000407549   0.0000035813  -0.0000096469   0.0000217313
        0.0000347049   0.0000484058  -0.0000029109  -0.0000358474  -0.0000225544
       -0.0000128408  -0.0000001714   0.0000313315   0.0000370736   0.0000327277
        0.0000024809  -0.0000264367  -0.0000317601   0.0000942853   0.0002126789
       -0.0000459175  -0.0000293984   0.0000204281  -0.0000072986  -0.0000254370
       -0.0000217459  -0.0000327409   0.0000457938  -0.0000135103   0.0000304812
       -0.0000290282   0.0000199343  -0.0000048055   0.0000330978  -0.0000425799
       -0.0000198095  -0.0000015820   0.0000360592   0.0000268311  -0.0001008019
        0.0000385406  -0.0000085386   0.0000095683   0.0000888410  -0.0000199879
        0.0005096404  -0.0004143419   0.0000658993  -0.0009689515   0.0000320018
       -0.0000534014  -0.0544328207  -0.0431103846   0.0419381948  -0.0166397468
       -0.0101092132  -0.0032014543   0.0026497939  -0.0030877594  -0.0002810001
       -0.0160207308   0.0000797344  -0.0196899929   0.0000047169   0.0000019042
       -0.0000213451   0.0000032575   0.0000175332  -0.0000252971   0.0000130819
       -0.0000077052  -0.0000382018   0.0000060174   0.0000196113   0.0000007283
        0.0000274440  -0.0001641056   0.0000159553   0.0000241441  -0.0000045885
       -0.0000644831  -0.0000335548  -0.0000262857  -0.0000114734  -0.0000072614
       -0.0000076926  -0.0000019164   0.0000072396   0.0000032017  -0.0000113314
        0.0000022506  -0.0000042373   0.0000025071   0.0000006125  -0.0000004034
       -0.0000003419   0.0000014590   0.0000023199   0.0000000734   0.0000006653
        0.0000015294  -0.0000000328   0.0000022988   0.0000012011  -0.0000014610
        0.0000042449  -0.0000005925   0.0000001789   0.0000010489  -0.0000025446
        0.0000055862   0.0000008821   0.0000104257   0.0000036357   0.0000115600
       -0.0000112134  -0.0000098473   0.0000030754   0.0000091348  -0.0000067186
       -0.0000014996  -0.0000140256   0.0000063677  -0.0000035492  -0.0000025168
       -0.0000001597  -0.0000089071   0.0000019699  -0.0000058167  -0.0000058918
        0.0000089585  -0.0000066974  -0.0000027722  -0.0000022921  -0.0000001952
       -0.0000093111  -0.0000007015   0.0000046850   0.0000007518  -0.0000101909
        0.0000044960
        0.2150458940   0.3920867343  -0.1873707180  -0.1515875502  -0.1519019921
       -0.0160088952  -0.0188362627  -0.0330025146   0.0330209104  -0.0134726960
       -0.0056943513  -0.0145061498   0.0225074313   0.0069659051   0.0114584316
        0.0079186012  -0.0675735245   0.0496801398  -0.0050262282   0.0005210338
        0.0027191033  -0.0001274638   0.0002052837   0.0019163896   0.0000611169
       -0.0004538917   0.0007455487   0.0006348187   0.0004373467  -0.0003916881
       -0.0007874122  -0.0001570865  -0.0005698000   0.0003571270  -0.0004750595
        0.0010232557  -0.0008397830   0.0004466384  -0.0015121957   0.0015192097
       -0.0004513828   0.0022080917  -0.0004757563  -0.0002830091   0.0000397039
        0.0002060604  -0.0000426597   0.0002414978  -0.0000762527  -0.0001606009
        0.0000769043   0.0003578755   0.0001907022  -0.0000136690  -0.0003241270
       -0.0000332030   0.0000072710   0.0001893278   0.0004607730  -0.0001856730
        0.0000123954   0.0000293524   0.0000334571   0.0000052742   0.0000236093
       -0.0000116054   0.0000381625  -0.0000245186  -0.0000044420  -0.0000332373
        0.0000091173   0.0000057146   0.0000129846   0.0000057291  -0.0000053086
       -0.0000043415   0.0000044674  -0.0000045102  -0.0000072332   0.0000007224
        0.0000020855   0.0000042151  -0.0000071865   0.0000063089   0.0000023505
       -0.0000000240  -0.0000086657  -0.0000015439  -0.0000075805   0.0000087848
       -0.0000060660   0.0000065075  -0.0000013887   0.0000076248   0.0000018259
       -0.0000134548  -0.0000008610  -0.0000068913   0.0000112836   0.0000048424
       -0.0000028355  -0.0000034308  -0.0000050917   0.0000053980  -0.0000011496
       -0.0000056692  -0.0000023644   0.0000053442  -0.0000021166  -0.0000072061
       -0.0000018193  -0.0000279707  -0.0000163823   0.0000090065  -0.0000097232
       -0.0000256914  -0.0000027388  -0.0000411938   0.0000190752  -0.0000000083
        0.0000836044  -0.0000465284   0.0000047100  -0.0001720539   0.0000781769
        0.0000034059   0.0001832716  -0.0000540635  -0.0000034940  -0.0001432476
       -0.0000227919   0.0000093302   0.0000913857  -0.0000903503   0.0000109364
       -0.0000257819  -0.0000152355   0.0000032498   0.0000014859   0.0000074797
        0.0000081726   0.0000128034  -0.0000007294  -0.0000108631  -0.0000065100
       -0.0000033568  -0.0000008410   0.0000095483   0.0000143214   0.0000122285
        0.0000009123  -0.0000065995  -0.0000105580   0.0000322887   0.0000827905
       -0.0000150183  -0.0000118304   0.0000076726  -0.0000016461  -0.0000081649
       -0.0000067277  -0.0000117949   0.0000133739  -0.0000014847   0.0000079489
       -0.0000083734   0.0000034059  -0.0000018364   0.0000117808  -0.0000086098
       -0.0000063289  -0.0000019405   0.0000115997   0.0000067757  -0.0000344609
        0.0000047372  -0.0000036354  -0.0000114268   0.0000149537  -0.0000017164
        0.0002203494  -0.0001813651   0.0000110687  -0.0003712431   0.0000682946
       -0.0000170771  -0.0431051185  -0.1438148301   0.1255480107  -0.0001624453
        0.0007559376  -0.0003413195  -0.0035584378   0.0014871722   0.0049733264
       -0.0101550821   0.0007123102  -0.0128496539  -0.0000263958   0.0000164237
        0.0000288865   0.0000043586  -0.0000033172   0.0000097980  -0.0000081932
        0.0000220259   0.0000096956   0.0000252583   0.0000305509  -0.0000173679
       -0.0000314099  -0.0001719748   0.0000482896  -0.0000064504  -0.0000041165
       -0.0000145098  -0.0000202729   0.0000290586   0.0000037000  -0.0000076629
        0.0000056695   0.0000020910   0.0000037698   0.0000007841  -0.0000000513
        0.0000003215  -0.0000037162   0.0000027993   0.0000005441  -0.0000014621
        0.0000002076  -0.0000002511  -0.0000012581   0.0000003704  -0.0000008008
       -0.0000010361   0.0000000242  -0.0000001927  -0.0000013452   0.0000015141
       -0.0000004109  -0.0000008183   0.0000016340   0.0000005675  -0.0000005123
        0.0000015839  -0.0000019324   0.0000012511   0.0000015622   0.0000041136
       -0.0000079454  -0.0000040969   0.0000013254   0.0000045402  -0.0000029430
       -0.0000008956  -0.0000030696   0.0000020956  -0.0000015756   0.0000003921
       -0.0000005951  -0.0000031112   0.0000029018  -0.0000025508  -0.0000013342
        0.0000032527  -0.0000016480  -0.0000001398   0.0000014415  -0.0000003961
       -0.0000015286  -0.0000010032   0.0000018440   0.0000008800  -0.0000031619
        0.0000027600
        0.1198204225  -0.1873707180   0.5511202937   0.0044109335   0.0265048981
       -0.0847587028   0.0211055912   0.0017926792   0.0250124497  -0.0261723403
       -0.0169676976  -0.0088656120   0.0129171340   0.0411058453  -0.0533388437
       -0.1514785723   0.0089991346  -0.2336709250  -0.0011736146   0.0017460389
        0.0014819055  -0.0007540259   0.0029359123  -0.0037908673   0.0006395650
       -0.0006955573   0.0017489028   0.0009606322   0.0012815180  -0.0012339979
       -0.0016773164  -0.0006471178  -0.0007889772   0.0004878724  -0.0005167993
        0.0014387373  -0.0006553610   0.0002886696  -0.0004876771   0.0034727882
        0.0055651847  -0.0039801619  -0.0014946805  -0.0011544179  -0.0001212719
        0.0006775189   0.0000980212   0.0003780787  -0.0002022484  -0.0003346639
        0.0001410217   0.0005732333   0.0003422145  -0.0000167577  -0.0004871549
       -0.0001284608  -0.0000792627   0.0004258432   0.0007323305  -0.0002924605
        0.0000673676  -0.0000236316   0.0000679427   0.0000178509   0.0000793950
       -0.0000284611   0.0001137093  -0.0000781162  -0.0000097297  -0.0001118857
        0.0000574441   0.0000305992   0.0000570934   0.0000210691  -0.0000403735
        0.0000035477  -0.0000009817   0.0000049205  -0.0000337379   0.0000170341
       -0.0000120049   0.0000116984  -0.0000160890   0.0000100496   0.0000063701
        0.0000001698  -0.0000199314  -0.0000112820  -0.0000033205   0.0000165282
       -0.0000251807   0.0000068139   0.0000277654   0.0000276088   0.0000051349
       -0.0000408247   0.0000018742  -0.0000099090   0.0000191662   0.0000096291
       -0.0000032533  -0.0000050757  -0.0000176590   0.0000152360   0.0000021598
       -0.0000057389   0.0000018014  -0.0000000886  -0.0000117780  -0.0000276029
        0.0000027075  -0.0000459684   0.0000049366   0.0000271316  -0.0000042163
       -0.0000530926  -0.0000039739  -0.0000841597   0.0000478327   0.0000086344
        0.0001590352  -0.0000048438  -0.0000263600  -0.0003136132   0.0001543818
        0.0000090032   0.0003399912  -0.0001488466  -0.0000077588  -0.0002313311
       -0.0000393818   0.0000182000   0.0001526302  -0.0001433123   0.0000210982
       -0.0000363280  -0.0000241244   0.0000026161  -0.0000048873   0.0000173033
        0.0000254024   0.0000351328  -0.0000014642  -0.0000260790  -0.0000187085
       -0.0000095308  -0.0000010515   0.0000262455   0.0000331848   0.0000269155
        0.0000006071  -0.0000222847  -0.0000254302   0.0000574661   0.0001325545
       -0.0000324526  -0.0000128888   0.0000132657  -0.0000043244  -0.0000192981
       -0.0000146273  -0.0000239095   0.0000341594  -0.0000078991   0.0000232580
       -0.0000185714   0.0000142309  -0.0000026406   0.0000272926  -0.0000317480
       -0.0000159473  -0.0000032554   0.0000293483   0.0000181520  -0.0000526212
        0.0000348523  -0.0000012411  -0.0000097453   0.0000716718  -0.0000214083
        0.0003763709  -0.0002565933   0.0000674417  -0.0007567761  -0.0000783607
       -0.0000329048   0.0421338713   0.1256063944  -0.1828173999  -0.0206092271
       -0.0134548731  -0.0031569461  -0.0001404318   0.0054363683  -0.0015107983
       -0.0025015316  -0.0009141808  -0.0022407390   0.0000104977   0.0000357382
       -0.0000394494  -0.0000080427   0.0000340392  -0.0000404771  -0.0000205811
        0.0000289439  -0.0000208576  -0.0000232544  -0.0000355674   0.0000175428
        0.0000388500  -0.0000223516  -0.0000052634   0.0000345025  -0.0000016766
       -0.0000732879  -0.0000046818  -0.0000586111  -0.0000344699   0.0000009398
       -0.0000223247  -0.0000081905   0.0000084713   0.0000027457  -0.0000170389
        0.0000054989   0.0000015749   0.0000099816  -0.0000053786   0.0000051513
        0.0000034442  -0.0000002716   0.0000044875   0.0000019506  -0.0000027214
        0.0000036933  -0.0000012486   0.0000003613   0.0000038118  -0.0000018272
        0.0000051143   0.0000002285  -0.0000013556   0.0000012658  -0.0000038935
        0.0000069661   0.0000009495   0.0000121556   0.0000012505   0.0000103734
        0.0000011188  -0.0000078621   0.0000030562   0.0000088560  -0.0000050086
       -0.0000026131  -0.0000101413   0.0000037827  -0.0000021435  -0.0000001567
       -0.0000007148  -0.0000073892   0.0000026137  -0.0000042229  -0.0000073934
        0.0000084552  -0.0000043397  -0.0000022435  -0.0000001837  -0.0000002045
       -0.0000079112   0.0000007805   0.0000028034  -0.0000002052  -0.0000088579
        0.0000003882
       -0.2417579386  -0.1515875502   0.0044109335   0.5070198474   0.2129811121
        0.1428318466  -0.0897462474  -0.0363328925   0.0005482593   0.0365064967
        0.0224587382   0.0110059979  -0.0259983851  -0.0259179188   0.0168815636
       -0.0420647558   0.0039579553  -0.0597066135   0.0026045858   0.0019081093
        0.0001394203   0.0002018762  -0.0011101830   0.0018977023  -0.0006293374
        0.0008900068  -0.0019524464  -0.0010543125  -0.0014364669   0.0011563120
        0.0015897440   0.0006475512   0.0009396911  -0.0007804061   0.0005886603
       -0.0017702152   0.0013672688  -0.0005190398  -0.0000227265  -0.0037914712
       -0.0043704089  -0.0043081565   0.0010533791   0.0004697202   0.0000930813
       -0.0007789848  -0.0000712025  -0.0002212173   0.0003992458   0.0005950489
       -0.0000427322  -0.0006581039  -0.0005161985  -0.0000061538   0.0004795652
        0.0000353771   0.0000805889  -0.0003897068  -0.0005527693   0.0004041570
       -0.0000687008   0.0000467135  -0.0000700410   0.0000058654  -0.0001151108
        0.0000371325  -0.0001422467   0.0001160432   0.0000093922   0.0001354134
       -0.0000818724  -0.0000051569  -0.0000556977  -0.0000279876   0.0000314635
       -0.0000071684   0.0000042877   0.0000006149   0.0000211203  -0.0000144303
        0.0000066434  -0.0000163958   0.0000227891  -0.0000219994  -0.0000086238
       -0.0000066858   0.0000291866  -0.0000038546   0.0000300009  -0.0000463837
        0.0000427519  -0.0000321919  -0.0000003158  -0.0000283174  -0.0000124434
        0.0000545644  -0.0000000783   0.0000155445  -0.0000342392  -0.0000203177
        0.0000051278   0.0000176693   0.0000162333  -0.0000144934  -0.0000020527
        0.0000045319   0.0000047787  -0.0000047175   0.0000015102   0.0000535769
       -0.0000318921   0.0000651364   0.0000107187  -0.0000306067   0.0000089810
        0.0000617655  -0.0000008175   0.0000860365  -0.0000735576  -0.0000060055
       -0.0002000004   0.0000281993   0.0000178988   0.0003690943  -0.0001963140
       -0.0000105226  -0.0004112707   0.0001400157   0.0000103399   0.0003028323
        0.0000501394  -0.0000282175  -0.0002037811   0.0001898642  -0.0000324839
        0.0000573641   0.0000391404  -0.0000028435   0.0000124255  -0.0000171359
       -0.0000286092  -0.0000494202   0.0000003688   0.0000370859   0.0000240963
        0.0000156185  -0.0000014549  -0.0000317893  -0.0000393351  -0.0000313856
       -0.0000015152   0.0000240998   0.0000274425  -0.0000571957  -0.0001656227
        0.0000382282   0.0000218807  -0.0000212247   0.0000036147   0.0000287425
        0.0000171558   0.0000330145  -0.0000489443   0.0000122047  -0.0000292862
        0.0000246302  -0.0000107308   0.0000054204  -0.0000383797   0.0000366428
        0.0000172669   0.0000120035  -0.0000331371  -0.0000193516   0.0000583058
       -0.0000208632   0.0000046200   0.0000607292  -0.0000401237   0.0000190486
       -0.0005160155   0.0003455794  -0.0000466077   0.0009125821  -0.0000227089
        0.0000185770  -0.0066309820  -0.0054783617   0.0008101837  -0.1303000921
        0.0019860979  -0.1259996524  -0.0073599673  -0.0168438289   0.0173218614
        0.0003276651  -0.0019339270  -0.0046113057   0.0000414253  -0.0000009833
        0.0000320254   0.0000164299  -0.0000222672   0.0000012300   0.0000026967
        0.0000050977  -0.0000022866   0.0000021157  -0.0000152360  -0.0000073890
       -0.0000422964  -0.0000031751   0.0000556831  -0.0000003696  -0.0000351646
        0.0000767267   0.0000060428  -0.0000672328   0.0000009787  -0.0000032186
       -0.0000011660   0.0000006375  -0.0000062524  -0.0000029430   0.0000146870
        0.0000021150  -0.0000015078  -0.0000022121   0.0000066137  -0.0000037941
       -0.0000040559   0.0000035424  -0.0000038510   0.0000000972   0.0000026441
       -0.0000038070   0.0000011786   0.0000001594  -0.0000028051   0.0000025399
       -0.0000026505  -0.0000010126   0.0000019046  -0.0000008316   0.0000016185
       -0.0000062116   0.0000019218  -0.0000154137  -0.0000019187  -0.0000115978
        0.0000023431   0.0000118082  -0.0000076131  -0.0000126248   0.0000090662
        0.0000020258   0.0000117611  -0.0000047794  -0.0000002762   0.0000008564
        0.0000009867   0.0000073022  -0.0000037274   0.0000066773   0.0000000656
       -0.0000077573   0.0000056455  -0.0000000018   0.0000020774  -0.0000001793
        0.0000070773   0.0000030402  -0.0000048366   0.0000013939   0.0000056393
       -0.0000026164
       -0.1171091013  -0.1519019921   0.0265048981   0.2129811121   0.3759760314
       -0.1640783238  -0.0701970874  -0.1603454832   0.1043513889   0.0459877790
        0.0094869764   0.0391342399  -0.0286774305  -0.0328804619   0.0123126806
       -0.0214285509   0.0170821618  -0.0511616218   0.0046056230   0.0018671407
        0.0024553209  -0.0000347747  -0.0011145867   0.0014953492  -0.0006252822
        0.0009245389  -0.0022091334  -0.0013984236  -0.0016957603   0.0012566496
        0.0021136299   0.0004877422   0.0011774745  -0.0007690853   0.0007763095
       -0.0022849400   0.0017243474  -0.0000026186   0.0029493474  -0.0064828056
        0.0005234971  -0.0010596462   0.0012154232   0.0011233740   0.0009197354
       -0.0004950015  -0.0000416070  -0.0007102067   0.0001501433   0.0003020437
       -0.0001699814  -0.0007502344  -0.0001563019   0.0000522323   0.0007971488
        0.0001502281  -0.0000162916  -0.0002641376  -0.0008395988   0.0004867916
       -0.0000256798  -0.0000086441  -0.0001019955   0.0000092269  -0.0000611777
        0.0000249973  -0.0001022295   0.0000741781   0.0000088550   0.0000928399
       -0.0000583991   0.0000140715  -0.0000319038  -0.0000213652   0.0000143512
       -0.0000015302   0.0000094300   0.0000053898   0.0000127091  -0.0000040126
        0.0000027566  -0.0000137825   0.0000192414  -0.0000137966  -0.0000065601
       -0.0000030520   0.0000237404  -0.0000075843   0.0000303915  -0.0000413789
        0.0000374593  -0.0000275639   0.0000061162  -0.0000163528  -0.0000087000
        0.0000351601   0.0000001653   0.0000137808  -0.0000244105  -0.0000171567
        0.0000054854   0.0000153174   0.0000145078  -0.0000080582  -0.0000019945
        0.0000048231   0.0000042946  -0.0000025870  -0.0000038876   0.0000467918
       -0.0000348183   0.0000571070   0.0000146183  -0.0000210298   0.0000042588
        0.0000537316   0.0000056925   0.0001044496  -0.0000452988  -0.0000003512
       -0.0001836018   0.0000720755   0.0000045169   0.0003509803  -0.0001854188
       -0.0000066462  -0.0004064087   0.0001299071   0.0000060981   0.0003107234
        0.0000422697  -0.0000223413  -0.0002043289   0.0001925632  -0.0000304044
        0.0000548987   0.0000382964  -0.0000030508   0.0000134781  -0.0000206466
       -0.0000324428  -0.0000461917  -0.0000012802   0.0000338554   0.0000235114
        0.0000103885  -0.0000040119  -0.0000256293  -0.0000351555  -0.0000278318
       -0.0000004986   0.0000180667   0.0000234067  -0.0000761858  -0.0001724891
        0.0000367750   0.0000258519  -0.0000227666   0.0000063264   0.0000251079
        0.0000130913   0.0000266681  -0.0000443588   0.0000100144  -0.0000273761
        0.0000241974  -0.0000179713   0.0000040383  -0.0000343892   0.0000367383
        0.0000158047   0.0000067833  -0.0000372613  -0.0000262922   0.0000863274
       -0.0000226452   0.0000058894   0.0000107451  -0.0000412725   0.0000124479
       -0.0004600200   0.0003537216  -0.0000438432   0.0007933602  -0.0000754211
        0.0000574045  -0.0161950789  -0.0124629167   0.0005823766   0.0028063299
       -0.0393021478   0.0122690122  -0.0063150608  -0.0126165292   0.0130114849
       -0.0018937501   0.0043443501   0.0025503845   0.0000093486  -0.0000104568
        0.0000072945  -0.0000089988   0.0000130162   0.0000321293   0.0000095626
        0.0000108236   0.0000128793   0.0000091945   0.0000103664   0.0000048171
       -0.0000928894   0.0000587124   0.0001184089  -0.0000188543  -0.0000381663
        0.0000405392  -0.0000186725   0.0000000352   0.0000213583  -0.0000017576
       -0.0000030179   0.0000029125  -0.0000002389  -0.0000056855   0.0000074452
        0.0000032133  -0.0000014929   0.0000000038   0.0000071526  -0.0000004944
       -0.0000020920   0.0000052118  -0.0000023653   0.0000010695   0.0000039734
       -0.0000023664   0.0000013615   0.0000018102  -0.0000025622   0.0000045783
       -0.0000018365  -0.0000013172   0.0000042026  -0.0000003856   0.0000007426
       -0.0000024673   0.0000004932  -0.0000127447  -0.0000028556  -0.0000084356
        0.0000048053   0.0000083021  -0.0000053786  -0.0000099613   0.0000053721
       -0.0000005986   0.0000091723  -0.0000045596   0.0000008935  -0.0000021794
       -0.0000010070   0.0000069920  -0.0000045064   0.0000035535   0.0000012898
       -0.0000089378   0.0000039127  -0.0000009964  -0.0000002243  -0.0000014784
        0.0000047789   0.0000005880  -0.0000033398  -0.0000058354   0.0000033510
       -0.0000046388
       -0.0523158256  -0.0160088952  -0.0847587028   0.1428318466  -0.1640783238
        0.5577812130   0.0560064762   0.1458308085  -0.2118141474  -0.0286536954
        0.0100924099  -0.0535875389   0.0205532006   0.0143705979  -0.0041150754
       -0.0181973890  -0.0200798749   0.0127535860  -0.0041714629  -0.0008531331
       -0.0036443963   0.0003745808   0.0004713991  -0.0003751801   0.0003552331
       -0.0005308818   0.0012108767   0.0010101125   0.0010821872  -0.0006532652
       -0.0013185097  -0.0003777154  -0.0009824378   0.0003246524  -0.0006345446
        0.0014580778  -0.0022966347   0.0016280866  -0.0037278178  -0.0018381035
        0.0007441697   0.0019488727  -0.0002740501  -0.0001111518   0.0003656875
        0.0001761752  -0.0000941538   0.0002585792  -0.0000127844  -0.0001524969
        0.0000318020   0.0001823919   0.0000585746  -0.0000190175  -0.0001784038
       -0.0000284645  -0.0000338387   0.0000227969   0.0003721115  -0.0001378250
       -0.0000054673   0.0000439047   0.0000319173  -0.0000153015  -0.0000213980
        0.0000104960  -0.0000055658   0.0000124742  -0.0000041036  -0.0000094352
       -0.0000217220   0.0000173488   0.0000177880   0.0000057873  -0.0000182669
       -0.0000035635  -0.0000121561  -0.0000080412  -0.0000075068  -0.0000028213
       -0.0000126603   0.0000060584  -0.0000078256   0.0000051755   0.0000024552
       -0.0000032322  -0.0000017978  -0.0000065175   0.0000123391  -0.0000131690
       -0.0000026034  -0.0000078106   0.0000262105   0.0000129245  -0.0000022318
       -0.0000061966   0.0000018711  -0.0000026817   0.0000017808   0.0000014849
       -0.0000009782   0.0000021926   0.0000020465  -0.0000019827   0.0000032746
       -0.0000031773  -0.0000020118   0.0000052877  -0.0000060537   0.0000147810
       -0.0000119397  -0.0000076532  -0.0000094748   0.0000008018   0.0000063076
       -0.0000137219  -0.0000070952  -0.0000366655   0.0000094322   0.0000021260
        0.0000473355  -0.0000832490  -0.0000061848  -0.0000788193   0.0000434182
        0.0000060030   0.0001026294  -0.0000007564  -0.0000047509  -0.0000962348
       -0.0000007592   0.0000014874   0.0000600154  -0.0000424295   0.0000001697
       -0.0000175976  -0.0000125621   0.0000037500   0.0000045975   0.0000024202
        0.0000053831   0.0000023397  -0.0000036752  -0.0000036095  -0.0000014844
       -0.0000024944   0.0000004283   0.0000028378   0.0000058163   0.0000065639
       -0.0000005299  -0.0000049131  -0.0000054832   0.0000210940   0.0000317325
       -0.0000052340  -0.0000061920   0.0000022084  -0.0000021723  -0.0000041801
       -0.0000049075  -0.0000034319   0.0000026042   0.0000002711  -0.0000001784
       -0.0000055830  -0.0000008712  -0.0000006618   0.0000046788  -0.0000041947
       -0.0000040512  -0.0000020737   0.0000071361   0.0000072789  -0.0000195285
       -0.0000116999   0.0000000817  -0.0000278858  -0.0000384610  -0.0000040270
        0.0001684378  -0.0001093259   0.0000154274  -0.0001952224   0.0001192186
       -0.0000208119   0.0178845334   0.0134031016   0.0000876862  -0.1261584800
        0.0125339556  -0.2104744346   0.0006676829   0.0002362287   0.0008736601
       -0.0049610280   0.0022479889  -0.0022652250   0.0000407113   0.0000041323
        0.0000202710  -0.0000146183   0.0000185298  -0.0000127553  -0.0000268714
        0.0000073937  -0.0000277855  -0.0000379202   0.0000021205  -0.0000088627
        0.0001258569  -0.0000537608  -0.0001166408  -0.0000281779   0.0000068410
       -0.0000178138   0.0000211649  -0.0000188517  -0.0000344172  -0.0000089197
        0.0000120030  -0.0000140437   0.0000066260   0.0000134839  -0.0000008420
       -0.0000026427   0.0000061049   0.0000168504  -0.0000034064   0.0000024069
        0.0000023320   0.0000005350   0.0000007036   0.0000029715  -0.0000011986
        0.0000025980  -0.0000003233   0.0000000792   0.0000029883   0.0000006851
        0.0000012105   0.0000019660  -0.0000007102   0.0000020368   0.0000020166
       -0.0000025557   0.0000006036  -0.0000010855   0.0000006075   0.0000001217
       -0.0000049845  -0.0000012200   0.0000028831  -0.0000002605   0.0000003212
        0.0000009701  -0.0000018220  -0.0000000219   0.0000001313  -0.0000011977
        0.0000002406   0.0000010314   0.0000003885   0.0000005667  -0.0000025459
       -0.0000015512   0.0000009325  -0.0000002622  -0.0000008589   0.0000000018
        0.0000016603  -0.0000022066  -0.0000001771   0.0000049614   0.0000003263
        0.0000019327
       -0.0056361314  -0.0188362627   0.0211055912  -0.0897462474  -0.0701970874
        0.0560064762   0.4938936987   0.2235061103   0.1245618552  -0.1569022910
       -0.0001898578  -0.1424171793  -0.0375719106  -0.0146463476  -0.0187696797
       -0.0013944682   0.0057734160  -0.0070490289  -0.0010023193  -0.0060960124
        0.0010678554   0.0006058112   0.0009993323  -0.0008648912  -0.0001744253
        0.0002680129  -0.0004472344  -0.0004632331  -0.0003943284   0.0002522051
        0.0004379859   0.0000495081   0.0004396412  -0.0000702734   0.0001531694
       -0.0000461372   0.0001209699  -0.0015905928   0.0017645411   0.0067726119
        0.0038884019  -0.0012871972   0.0001911090  -0.0002684674   0.0015779508
       -0.0012026503  -0.0004357875   0.0010986671   0.0004743942   0.0006121010
        0.0001231193  -0.0002978977  -0.0006335448  -0.0000732307  -0.0001752853
       -0.0000521215  -0.0001720292   0.0002916187  -0.0000996299   0.0001031477
       -0.0000042719   0.0000064359  -0.0000515521  -0.0000064596  -0.0000331876
        0.0000013312  -0.0000425005   0.0000466998   0.0000120736   0.0000538311
       -0.0000096485  -0.0000014452  -0.0000180325  -0.0000201037   0.0000043649
        0.0000181243  -0.0000023052   0.0000104928   0.0000039918  -0.0000007270
       -0.0000007936  -0.0000105891   0.0000106090  -0.0000117165  -0.0000070644
        0.0000043273   0.0000043972  -0.0000061163   0.0000135571  -0.0000198871
        0.0000135267  -0.0000058546   0.0000005698  -0.0000131607  -0.0000033010
        0.0000233191  -0.0000019962   0.0000064737  -0.0000093384  -0.0000086238
        0.0000056956   0.0000057326   0.0000045390  -0.0000048319   0.0000031795
        0.0000105275   0.0000035372  -0.0000117122   0.0000094942   0.0000023521
        0.0000078848   0.0000236890   0.0000066483  -0.0000166253   0.0000016817
        0.0000482485   0.0000065606   0.0000399679  -0.0000175681   0.0000023634
       -0.0000832465   0.0001005171   0.0000422214   0.0001589140  -0.0001072529
       -0.0000181291  -0.0001827003   0.0000378181   0.0000174999   0.0001571834
        0.0000141623  -0.0000180127  -0.0001127308   0.0000798087  -0.0000112775
        0.0000303058   0.0000171169  -0.0000023690   0.0000051321  -0.0000059115
       -0.0000123910  -0.0000112320   0.0000016434   0.0000153086   0.0000043010
        0.0000032343  -0.0000006090  -0.0000042975  -0.0000157188  -0.0000117568
       -0.0000011482   0.0000106257   0.0000163290  -0.0000166549  -0.0000597956
        0.0000133296   0.0000017430  -0.0000054501   0.0000003821   0.0000146341
        0.0000051005   0.0000150578  -0.0000124269  -0.0000021712  -0.0000085418
        0.0000041297   0.0000010968   0.0000043060  -0.0000096751   0.0000046070
        0.0000050656   0.0000076880  -0.0000148405  -0.0000103862   0.0000156534
        0.0000050682  -0.0000084855   0.0000914773   0.0000483058   0.0000320619
       -0.0003181495   0.0001767226  -0.0000763097   0.0004773609  -0.0001538632