$hessian                                                                        
        0.6584453850   0.0133525613  -0.0108684568  -0.1196567037   0.0301617655
        0.0032656382   0.0538309567   0.0044823825  -0.0008714091  -0.0322996933
        0.0341632148   0.0023987650  -0.0017153749  -0.0008856309   0.0000099574
        0.0001940954   0.0014967804   0.0000723707  -0.0007145881  -0.0003508724
        0.0000165289  -0.0000401804   0.0001237030   0.0000021497   0.0000737178
        0.0000157034   0.0000014086   0.0000334148  -0.0000267392   0.0000023004
       -0.0000082802  -0.0000005854   0.0000000102  -0.0000043587   0.0000301117
       -0.0000029308  -0.0000408142  -0.0000617247  -0.0000032395   0.0004204023
       -0.0002400491  -0.0000179212  -0.0000044752   0.0001048548   0.0000187887
        0.0000327499  -0.0000126798  -0.0000033399  -0.0000105391   0.0000469565
       -0.0000043748   0.0000059616  -0.0000177143   0.0000005441  -0.0000328342
       -0.0000098048   0.0000009903  -0.0000258712  -0.0000038559   0.0000014345
        0.0000155084  -0.0000013528  -0.0000016104  -0.0000083828   0.0000069687
       -0.0000005372   0.0000040391  -0.0000061234  -0.0000093142   0.0000009308
       -0.0000009059  -0.0000042677   0.0000000692   0.0000030604   0.0000035513
       -0.0000005435  -0.0000028546  -0.0000024382  -0.0000003428  -0.0000067208
       -0.0000029876  -0.0000023084   0.0000016305   0.0000050347   0.0000022744
        0.0000033729   0.0000008134  -0.0000023138  -0.0000019991  -0.0000070217
       -0.0000002356  -0.0000066595   0.0000033352  -0.0000003953  -0.0000026400
        0.0000023530   0.0000004207   0.0000023302  -0.0000048515   0.0000011572
       -0.0000009134   0.0000037916   0.0000042057  -0.0000048268   0.0000098537
        0.0000087557   0.0000057784   0.0000000173  -0.0000079015  -0.0000074402
       -0.0000002545   0.0000206834   0.0000041691   0.0000003113  -0.0000425445
       -0.0000077361   0.0000006862   0.0000300284  -0.0000063776   0.0000002027
       -0.0000232341   0.0000046322   0.0000003989   0.0000082280  -0.0000051803
        0.0000004506  -0.0000013344   0.0000048093   0.0000001051   0.0000020058
       -0.0000020279   0.0000003129   0.0000024515   0.0000031581   0.0000003397
       -0.0000025342  -0.0000005136   0.0000002905  -0.0000033108  -0.0000030784
        0.0000001966   0.0000100859   0.0000017246  -0.0000004863  -0.0000209278
       -0.0000109978   0.0000004186   0.0000022323   0.0000069690  -0.0000003731
        0.0000009771  -0.0000026435   0.0000000212   0.0000010679   0.0000006049
       -0.0000002460  -0.0000009994  -0.0000013797  -0.0000001448  -0.0000021919
        0.0000015128  -0.0000000930  -0.0000033546   0.0000009923  -0.0000000909
        0.0000243901   0.0000156923  -0.0000010311  -0.0000010447   0.0000040273
        0.0000000578   0.0000079499  -0.0000032913  -0.0000001891  -0.0000041662
       -0.0000027908   0.0000000910   0.0001606512  -0.0003016289  -0.0000503939
       -0.0562371091  -0.0679705244  -0.0026204967  -0.3172067873   0.0868537633
        0.0108020456  -0.1574362664  -0.1272216155  -0.0046519181  -0.0124721226
        0.0284555715   0.0019136733  -0.0019544077  -0.0035562297   0.0000292204
        0.0000116498   0.0000104341  -0.0000023584  -0.0000128036   0.0000030506
       -0.0000015796   0.0000081668   0.0000023767  -0.0000003183  -0.0000025019
        0.0000012742   0.0000005239   0.0000031882   0.0000023953  -0.0000004604
        0.0000693415  -0.0000575602   0.0000074400  -0.0000052670  -0.0000086958
        0.0000003679  -0.0000095968   0.0000000312  -0.0000010988   0.0000006774
       -0.0000001743   0.0000019382  -0.0000011894  -0.0000015797  -0.0000000581
       -0.0000010889  -0.0000003512   0.0000019862  -0.0000011522   0.0000013702
       -0.0000004049  -0.0000010305   0.0000014809  -0.0000003133  -0.0000008298
       -0.0000010982  -0.0000027484  -0.0000010058  -0.0000021432   0.0000000130
        0.0000008906  -0.0000003738  -0.0000024259  -0.0000017654   0.0000037687
       -0.0000002931   0.0000021759   0.0000008633   0.0000002842   0.0000006998
        0.0000006852   0.0000003479   0.0000012886  -0.0000007621   0.0000003910
        0.0000024506   0.0000007553   0.0000002672  -0.0000001210   0.0000012504
        0.0000001456   0.0000020335  -0.0000003504  -0.0000001379  -0.0000002902
        0.0000000910  -0.0000002208   0.0000001144   0.0000017276  -0.0000002258
        0.0000010815   0.0000009588  -0.0000001307  -0.0000003293   0.0000000976
        0.0000000329  -0.0000012478  -0.0000046847   0.0000002843  -0.0000008024
       -0.0000015198   0.0000002743  -0.0019642079  -0.0031915817   0.0000523326
       -0.0114548521   0.0046275706   0.0005081042
        0.0133525613   0.6598639301   0.0307160486   0.1099838920  -0.3026936258
       -0.0169326696  -0.0550763787  -0.0634646100  -0.0025429527   0.0341396117
       -0.0242514258  -0.0016330567  -0.0008824258  -0.0018956879  -0.0001066731
       -0.0002888365   0.0002817748   0.0000368453  -0.0000002049   0.0000015450
       -0.0000058245  -0.0000118129   0.0000376460  -0.0000005525   0.0000454314
       -0.0000000464   0.0000046260  -0.0000056354  -0.0000043159  -0.0000004468
       -0.0000072804  -0.0000384850  -0.0000042478  -0.0000071699  -0.0000438288
       -0.0000028152  -0.0000113700   0.0000188839   0.0000006035  -0.0002179789
        0.0003515833   0.0000092536  -0.0003148382  -0.0007282034  -0.0000195431
        0.0001524401  -0.0000232663   0.0000007590   0.0000000116   0.0000706466
       -0.0000017803  -0.0000116070   0.0000230148  -0.0000023940  -0.0000193518
       -0.0000002686  -0.0000013786   0.0000219449  -0.0000285844   0.0000012751
       -0.0000561022  -0.0000478357  -0.0000001415   0.0000037648   0.0000139735
       -0.0000007916   0.0000032339  -0.0000055154   0.0000002486  -0.0000000184
        0.0000011144  -0.0000008809   0.0000005281   0.0000025001  -0.0000054548
        0.0000001898  -0.0000068118  -0.0000019929  -0.0000005829   0.0000000865
       -0.0000037877  -0.0000036190  -0.0000064244   0.0000085999   0.0000039808
        0.0000054229  -0.0000030931  -0.0000031952  -0.0000029316  -0.0000059884
       -0.0000005001   0.0000001025   0.0000035557   0.0000004485  -0.0000068591
        0.0000023116   0.0000006760   0.0000029830   0.0000055428  -0.0000000840
        0.0000006940  -0.0000000782   0.0000031912  -0.0000057198   0.0000000991
        0.0000218149  -0.0000044365  -0.0000004105  -0.0000190106   0.0000032826
       -0.0000000197   0.0000326214  -0.0000027522  -0.0000001763  -0.0000492875
       -0.0000069900  -0.0000001975   0.0000323381  -0.0000094339   0.0000000647
       -0.0000278577   0.0000069165  -0.0000008240   0.0000050492  -0.0000069934
        0.0000001931   0.0000019378   0.0000026893  -0.0000002081   0.0000021655
        0.0000029870   0.0000000059  -0.0000031937  -0.0000004967  -0.0000000557
        0.0000002655  -0.0000019574   0.0000001096  -0.0000043182   0.0000000055
        0.0000001307   0.0000122054  -0.0000022395   0.0000004529  -0.0000247024
       -0.0000087943   0.0000004666   0.0000023796   0.0000057417  -0.0000000263
        0.0000005750  -0.0000028691   0.0000001873  -0.0000001014   0.0000009169
        0.0000000580  -0.0000003261  -0.0000006535   0.0000002485  -0.0000021452
        0.0000002583   0.0000001808  -0.0000045505   0.0000007277   0.0000000720
        0.0000256405   0.0000155692   0.0000003152  -0.0000109455   0.0000022635
       -0.0000005166   0.0000052079   0.0000125272  -0.0000006119   0.0000071693
       -0.0000002077   0.0000000916   0.0014893964   0.0003384629   0.0000069715
       -0.0083792669   0.0462447943   0.0027481702   0.0070433000  -0.1057270467
       -0.0034489106  -0.1272147529  -0.1868008010  -0.0059707387   0.0045084216
       -0.0075494813  -0.0005595531  -0.0031917880  -0.0027239995  -0.0005718671
       -0.0000607966   0.0000636167  -0.0000049915  -0.0000111796  -0.0000039538
       -0.0000012005  -0.0000069111   0.0000013097   0.0000007931   0.0000089251
        0.0000060264   0.0000009307   0.0000048316  -0.0000070941   0.0000002672
        0.0000179472   0.0000141718   0.0000038400   0.0000115467  -0.0000082076
        0.0000003044   0.0000052637   0.0000041684   0.0000002757  -0.0000024210
        0.0000029848  -0.0000022780  -0.0000023491  -0.0000003915   0.0000001152
       -0.0000016700   0.0000013536   0.0000000237  -0.0000013546  -0.0000014769
       -0.0000000066  -0.0000011090  -0.0000012542  -0.0000003973  -0.0000012826
        0.0000019220  -0.0000005114  -0.0000020229  -0.0000001813  -0.0000009625
       -0.0000021928   0.0000031820   0.0000016587  -0.0000015737   0.0000003259
       -0.0000002245  -0.0000001230   0.0000013260  -0.0000001272  -0.0000004244
       -0.0000014200  -0.0000000747   0.0000013591  -0.0000007635   0.0000000649
        0.0000004614  -0.0000000329   0.0000001477  -0.0000009794  -0.0000004270
        0.0000000882   0.0000005138  -0.0000005660   0.0000000463   0.0000001067
       -0.0000007462   0.0000002140  -0.0000003162   0.0000004270   0.0000002387
        0.0000004217   0.0000004292   0.0000002722  -0.0000007600  -0.0000003467
        0.0000001989   0.0000013311  -0.0000020250   0.0000001340  -0.0000021424
       -0.0000007820   0.0000000189  -0.0035633812  -0.0027126216  -0.0005649895
        0.0285591262  -0.0085683985  -0.0011506962
       -0.0108684568   0.0307160486   0.1200455944   0.0078496218  -0.0151539466
       -0.0494550306  -0.0043191034  -0.0038024824   0.0011205461   0.0025067833
       -0.0017396548  -0.0069594448  -0.0000199151  -0.0000704459  -0.0002283862
       -0.0000278549  -0.0000300616  -0.0000303771   0.0000202384   0.0000069352
        0.0000455639  -0.0000006556  -0.0000049784  -0.0000130898   0.0000023916
        0.0000011915  -0.0000033663  -0.0000004178  -0.0000007545   0.0000010843
       -0.0000019418  -0.0000036142   0.0000002546  -0.0000000309  -0.0000019726
        0.0000015693   0.0000010820   0.0000022530   0.0000006943  -0.0000246483
        0.0000216918  -0.0000096198  -0.0000206101  -0.0000329024   0.0000450991
        0.0000104157   0.0000046266  -0.0000128841  -0.0000003417  -0.0000022557
       -0.0000036507   0.0000033347   0.0000012596   0.0000008391  -0.0000005751
        0.0000042539   0.0000001390   0.0000013917  -0.0000021445   0.0000013762
       -0.0000016414  -0.0000036096   0.0000007997  -0.0000009949  -0.0000011297
        0.0000001116  -0.0000000474  -0.0000013644  -0.0000010979  -0.0000002503
       -0.0000007269  -0.0000011639  -0.0000001786   0.0000006976   0.0000008894
        0.0000000340   0.0000009762  -0.0000018436  -0.0000002188  -0.0000010724
        0.0000013046   0.0000000685   0.0000017798  -0.0000019711   0.0000001584
       -0.0000004942   0.0000023967  -0.0000003535  -0.0000020586  -0.0000024510
        0.0000001746   0.0000005021   0.0000019240   0.0000002285  -0.0000001583
       -0.0000009385   0.0000003329  -0.0000000210  -0.0000000603   0.0000002010
        0.0000005270   0.0000013039   0.0000002401   0.0000001880   0.0000004896
        0.0000004637   0.0000009562   0.0000000976   0.0000000709  -0.0000012243
        0.0000000364   0.0000005977   0.0000009443   0.0000000684  -0.0000028329
        0.0000007199  -0.0000001217   0.0000014757  -0.0000008525  -0.0000006630
       -0.0000007204   0.0000010848  -0.0000003918   0.0000007572  -0.0000000079
        0.0000000988  -0.0000002201   0.0000002118  -0.0000000372   0.0000001303
       -0.0000002668  -0.0000000046   0.0000003314   0.0000003149  -0.0000000139
       -0.0000002867  -0.0000001514   0.0000000552  -0.0000003776  -0.0000003107
        0.0000000570   0.0000005134  -0.0000008818   0.0000011736  -0.0000013084
       -0.0000004703  -0.0000007615   0.0000001538  -0.0000001247   0.0000001954
       -0.0000002982   0.0000002584   0.0000001879   0.0000002020   0.0000000970
        0.0000001694  -0.0000002216  -0.0000001704   0.0000002127  -0.0000001780
        0.0000000654   0.0000000953   0.0000001138   0.0000001555   0.0000002200
        0.0000008454  -0.0000002218   0.0000008745   0.0000004432   0.0000005798
       -0.0000000817   0.0000008365  -0.0000001778   0.0000000865  -0.0000009797
        0.0000003017  -0.0000001934   0.0000963494   0.0000296721  -0.0000297409
        0.0007633032   0.0040666588   0.0014597409   0.0061588792  -0.0051857062
       -0.0488507926  -0.0046452467  -0.0059641508  -0.0351530547   0.0005476135
       -0.0010981982   0.0007407749   0.0000459890  -0.0005538687   0.0082672487
       -0.0000038304   0.0000050967   0.0000067624  -0.0000010750   0.0000002343
       -0.0000005020  -0.0000004138   0.0000006830  -0.0000002604   0.0000008302
        0.0000003456  -0.0000001651   0.0000004556  -0.0000002384  -0.0000006048
       -0.0000034477   0.0000016157   0.0000069457  -0.0000005209  -0.0000000173
       -0.0000004895  -0.0000003017  -0.0000004703  -0.0000006094  -0.0000001242
       -0.0000003520  -0.0000001293   0.0000000049  -0.0000003008   0.0000004015
       -0.0000000108   0.0000001316   0.0000006907  -0.0000000333  -0.0000000491
        0.0000001520  -0.0000000413   0.0000002966  -0.0000002212  -0.0000001628
       -0.0000000587   0.0000003838  -0.0000002567   0.0000002475  -0.0000000216
       -0.0000002181   0.0000001693  -0.0000002948   0.0000000002   0.0000000929
       -0.0000001113   0.0000000717   0.0000000440  -0.0000001184  -0.0000000621
        0.0000000066  -0.0000001505  -0.0000001015  -0.0000000488  -0.0000000852
       -0.0000000392  -0.0000001132  -0.0000000415  -0.0000001356  -0.0000000885
       -0.0000000613   0.0000000817  -0.0000000345  -0.0000000283  -0.0000000017
       -0.0000000629   0.0000000861   0.0000000117   0.0000000048   0.0000001010
        0.0000000393  -0.0000000334   0.0000001452  -0.0000000203  -0.0000000598
        0.0000000193  -0.0000000435  -0.0000002563  -0.0000000449  -0.0000001431
       -0.0000002857  -0.0000002712   0.0000217438  -0.0005682314   0.0082713478
        0.0019128844  -0.0006405858   0.0007350342
       -0.1196567037   0.1099838920   0.0078496218   0.6760403515  -0.0009658761
       -0.0122547880  -0.2037005973  -0.1598955411  -0.0057242933  -0.0528171368
       -0.0104101489   0.0006255803  -0.0049176154   0.0024893455   0.0004415815
        0.0010635828   0.0010477002  -0.0000038895  -0.0004053412  -0.0003629443
       -0.0000273850   0.0000030686   0.0001926955   0.0000034099  -0.0000048019
       -0.0000120720  -0.0000054483   0.0000790175   0.0000334150   0.0000056825
        0.0000417826  -0.0000154119   0.0000003016  -0.0000632915  -0.0000012436
       -0.0000007144  -0.0000675896  -0.0000232534  -0.0000029875   0.0004077243
        0.0000151452   0.0000085501  -0.0006832139   0.0000502392  -0.0000270084
        0.0000482681  -0.0001417404  -0.0000040236  -0.0000030250   0.0001055073
       -0.0000006634   0.0000053293   0.0000163006  -0.0000013398  -0.0000320757
       -0.0000234784  -0.0000005520  -0.0000107675  -0.0000393253   0.0000032136
       -0.0000647115  -0.0000298860  -0.0000009573   0.0000019310   0.0000257298
       -0.0000015973   0.0000043150  -0.0000085010  -0.0000001474   0.0000012239
        0.0000047694  -0.0000008815   0.0000015034   0.0000026726  -0.0000071291
        0.0000005735  -0.0000112629  -0.0000020249   0.0000007150  -0.0000015933
       -0.0000042992  -0.0000058261  -0.0000058788   0.0000098789   0.0000073028
        0.0000106317  -0.0000002738  -0.0000056304  -0.0000048326  -0.0000093983
        0.0000006745  -0.0000010160   0.0000040725   0.0000006937  -0.0000114944
        0.0000023356   0.0000015323   0.0000034151   0.0000071465   0.0000011667
        0.0000045339  -0.0000006660   0.0000044541  -0.0000083907   0.0000008339
        0.0000255103  -0.0000059379  -0.0000001381  -0.0000230640   0.0000048019
       -0.0000001879   0.0000463965  -0.0000052595   0.0000000282  -0.0000698257
       -0.0000173419  -0.0000000146   0.0000468567  -0.0000101376   0.0000003670
       -0.0000406329   0.0000045402  -0.0000008054   0.0000056955  -0.0000094556
        0.0000002087   0.0000022983   0.0000057077  -0.0000003481   0.0000016470
        0.0000021938  -0.0000000844  -0.0000025755  -0.0000002568  -0.0000001600
       -0.0000003196  -0.0000020342   0.0000000183  -0.0000058210  -0.0000014862
        0.0000000870   0.0000172454   0.0000031939   0.0000003349  -0.0000331016
       -0.0000179451   0.0000004807   0.0000046864   0.0000108657  -0.0000001269
        0.0000014935  -0.0000039302   0.0000002501   0.0000015798   0.0000010442
        0.0000001611  -0.0000001313  -0.0000026296   0.0000003802  -0.0000040371
        0.0000007871   0.0000001926  -0.0000060151   0.0000014893   0.0000000692
        0.0000378687   0.0000284615  -0.0000000987  -0.0000127790   0.0000016761
       -0.0000004786   0.0000055901   0.0000168518  -0.0000007084   0.0000094422
       -0.0000073685   0.0000001301  -0.0013445855  -0.0009747681  -0.0000507646
        0.0007201548  -0.0134436509  -0.0008998613  -0.0105139170   0.0342430182
        0.0021915571   0.0051147927  -0.0188936813  -0.0011589929  -0.2895690057
        0.0503110753   0.0084263634   0.0052821675   0.0053950158   0.0002406084
        0.0000705564  -0.0001054567   0.0000023001  -0.0000181955   0.0000144586
       -0.0000011720  -0.0000054713   0.0000212146   0.0000012832   0.0000109807
        0.0000190162   0.0000010471   0.0000052722   0.0000002380  -0.0000005733
        0.0000155889  -0.0000441095   0.0000004592   0.0000137615  -0.0000129180
        0.0000001389  -0.0000103415   0.0000043276   0.0000003980  -0.0000015705
        0.0000038226  -0.0000009288  -0.0000024800  -0.0000006040   0.0000014880
       -0.0000017322   0.0000020478   0.0000012445  -0.0000019253  -0.0000006795
       -0.0000005550  -0.0000016952  -0.0000003919   0.0000003947  -0.0000013909
        0.0000025753  -0.0000015533  -0.0000021740  -0.0000001342  -0.0000020806
       -0.0000012437   0.0000041653   0.0000004504  -0.0000027770   0.0000018301
       -0.0000002524   0.0000005732   0.0000017225  -0.0000002446   0.0000002949
       -0.0000012121  -0.0000002154   0.0000020767  -0.0000012068  -0.0000000728
        0.0000018721   0.0000002715   0.0000000280  -0.0000007143   0.0000005819
       -0.0000000110   0.0000009972  -0.0000006511   0.0000000751  -0.0000005443
       -0.0000002606   0.0000002460  -0.0000000269   0.0000016894   0.0000002488
        0.0000015821   0.0000007585   0.0000002735  -0.0000007345  -0.0000006015
        0.0000001827   0.0000019014  -0.0000027879  -0.0000000127  -0.0000008448
       -0.0000015818  -0.0000000773   0.0007096812  -0.0003149293  -0.0000234630
       -0.0057557744   0.0017618634   0.0003907461
        0.0301617655  -0.3026936258  -0.0151539466  -0.0009658761   0.6471310351
        0.0304160938  -0.0822829188  -0.2303082485  -0.0085966608  -0.0660023443
        0.0398574016   0.0034356928   0.0051194735   0.0047549517  -0.0002645515
        0.0001777992  -0.0016020967  -0.0000464586   0.0004362102   0.0006051171
        0.0000477044   0.0000556801  -0.0001053081  -0.0000052516   0.0000126460
        0.0000382508   0.0000147829  -0.0000812211  -0.0000340087  -0.0000047082
        0.0000018572  -0.0000134438  -0.0000008086   0.0000186118  -0.0000102564
        0.0000042190   0.0000388115   0.0000351140   0.0000005327  -0.0002047534
       -0.0007669306  -0.0000616623   0.0010051108   0.0011952250   0.0001186290
       -0.0002378689   0.0000579132  -0.0000068988  -0.0000518954  -0.0001017960
       -0.0000006748  -0.0000142953  -0.0000469379   0.0000051303   0.0000116987
       -0.0000319798   0.0000022015  -0.0000486841   0.0000824867  -0.0000023774
        0.0001014210   0.0000982306  -0.0000008209  -0.0000014383  -0.0000085655
        0.0000008404  -0.0000062336   0.0000124291   0.0000088778  -0.0000022792
       -0.0000018220   0.0000013876  -0.0000021179  -0.0000077202   0.0000090131
       -0.0000007463   0.0000078307   0.0000036985  -0.0000017201   0.0000042331
        0.0000039830   0.0000084445   0.0000039361  -0.0000084742  -0.0000103174
       -0.0000048823   0.0000035577   0.0000078975   0.0000016917   0.0000041051
       -0.0000014659   0.0000040434  -0.0000024259  -0.0000007036   0.0000074116
       -0.0000043667  -0.0000019714  -0.0000088306  -0.0000083173  -0.0000021736
       -0.0000022919  -0.0000014455  -0.0000061575   0.0000137910  -0.0000104638
       -0.0000404138  -0.0000046939   0.0000006866   0.0000275356   0.0000021290
        0.0000000982  -0.0000616499   0.0000028597  -0.0000002782   0.0000989398
        0.0000153148  -0.0000005051  -0.0000661297   0.0000201623  -0.0000004208
        0.0000551728  -0.0000120138   0.0000005312  -0.0000128585   0.0000120399
       -0.0000005003  -0.0000026943  -0.0000072687   0.0000001612  -0.0000047244
       -0.0000032113  -0.0000001387   0.0000005224  -0.0000019934  -0.0000001255
        0.0000020603   0.0000044635  -0.0000002921   0.0000076631   0.0000039694
       -0.0000002351  -0.0000297411   0.0000030025  -0.0000001077   0.0000474299
        0.0000157547  -0.0000007611  -0.0000061913  -0.0000113374   0.0000003606
       -0.0000001143   0.0000043325  -0.0000001460  -0.0000038998  -0.0000013489
        0.0000001421   0.0000012359   0.0000024888  -0.0000000390   0.0000032048
       -0.0000017841   0.0000000443   0.0000054166  -0.0000011039   0.0000000427
       -0.0000501387  -0.0000316795   0.0000007590   0.0000079457  -0.0000054817
        0.0000005999  -0.0000181330  -0.0000277762   0.0000013391   0.0000054122
        0.0000078275  -0.0000010735  -0.0029723471  -0.0000059889   0.0000315049
       -0.0144434464  -0.0607610848  -0.0028314081   0.0917515984   0.0042551004
       -0.0018155546   0.0050008747  -0.0245714882  -0.0015888489   0.0503294419
       -0.0541576649  -0.0022453294  -0.0176406642  -0.0235887391  -0.0010210673
        0.0000136584   0.0001486938  -0.0000124878   0.0000121588  -0.0000016640
        0.0000015124  -0.0000073886  -0.0000238262  -0.0000015069  -0.0000072519
       -0.0000192698  -0.0000013699  -0.0000070768   0.0000072527   0.0000002891
        0.0000371245  -0.0000741819  -0.0000015531  -0.0000318195   0.0000170544
       -0.0000013934   0.0000177638   0.0000154795  -0.0000025126   0.0000030886
       -0.0000028505   0.0000058601   0.0000015400   0.0000010493  -0.0000044049
        0.0000009477  -0.0000041477  -0.0000035134   0.0000015174  -0.0000024935
       -0.0000004882   0.0000012162  -0.0000023663   0.0000013346   0.0000004787
       -0.0000037870   0.0000046562   0.0000010082   0.0000017901   0.0000054328
        0.0000027178  -0.0000029725  -0.0000057695   0.0000015505  -0.0000029967
        0.0000003320   0.0000003991  -0.0000034381  -0.0000001152  -0.0000001242
        0.0000029650  -0.0000002789  -0.0000026253   0.0000022519  -0.0000003231
       -0.0000029274   0.0000002431  -0.0000002427   0.0000015113  -0.0000006511
       -0.0000001045  -0.0000006947   0.0000012467  -0.0000000171   0.0000009138
       -0.0000000476   0.0000000344  -0.0000012551  -0.0000024405   0.0000000730
       -0.0000031600  -0.0000011090  -0.0000000446  -0.0000001029   0.0000008123
       -0.0000001276  -0.0000053931   0.0000053959  -0.0000005143   0.0000031114
        0.0000042562  -0.0000006060  -0.0004021099  -0.0004074959   0.0000098052
        0.0011496707   0.0010301132  -0.0004215308
        0.0032656382  -0.0169326696  -0.0494550306  -0.0122547880   0.0304160938
        0.1180537095  -0.0012819215  -0.0070281065  -0.0476981701  -0.0026504961
        0.0025016370   0.0021609227   0.0005716006  -0.0002688692   0.0080252957
       -0.0000852910  -0.0001691617  -0.0006007034   0.0000573576   0.0000554092
       -0.0004127948  -0.0000007146  -0.0000101976   0.0000800664  -0.0000015220
       -0.0000014626   0.0000050412  -0.0000068542  -0.0000018528  -0.0000075388
       -0.0000023620   0.0000001902   0.0000010782   0.0000050605  -0.0000004192
       -0.0000073954   0.0000067517   0.0000040607   0.0000085212  -0.0000369680
       -0.0000332984   0.0003469206   0.0000965935   0.0000499942  -0.0009437346
       -0.0000096078   0.0000106643   0.0000467920  -0.0000038932  -0.0000070190
       -0.0000003488  -0.0000030157  -0.0000040383  -0.0000061272   0.0000017089
       -0.0000018502   0.0000009180  -0.0000020893   0.0000066129  -0.0000066824
        0.0000066685   0.0000049274   0.0000160588   0.0000008675  -0.0000007742
       -0.0000023258  -0.0000004616   0.0000000362   0.0000006826  -0.0000002182
       -0.0000004003  -0.0000001507  -0.0000004915  -0.0000002422   0.0000007201
       -0.0000001849   0.0000011602  -0.0000009447  -0.0000003013   0.0000000032
        0.0000016564   0.0000009241   0.0000028002  -0.0000048459  -0.0000006943
        0.0000001989   0.0000072695   0.0000001229  -0.0000037849  -0.0000031013
        0.0000001631   0.0000013268   0.0000012428   0.0000001041  -0.0000000100
       -0.0000023768   0.0000001573  -0.0000012849  -0.0000004038   0.0000000236
        0.0000007063   0.0000001062  -0.0000004899   0.0000020135  -0.0000017607
       -0.0000025236   0.0000000967   0.0000004815   0.0000020709   0.0000000282
        0.0000010354  -0.0000049025   0.0000005822   0.0000001181   0.0000076764
        0.0000014458  -0.0000005757  -0.0000050918   0.0000010631  -0.0000002166
        0.0000045845  -0.0000003772  -0.0000004323  -0.0000009243   0.0000010914
        0.0000001268  -0.0000001551  -0.0000003236   0.0000000791  -0.0000003742
       -0.0000003369   0.0000000599   0.0000002890  -0.0000000444   0.0000000534
        0.0000000644   0.0000003271   0.0000000473   0.0000003373   0.0000000994
        0.0000000530  -0.0000024217  -0.0000000888   0.0000011593   0.0000040308
        0.0000008815  -0.0000008728  -0.0000005779  -0.0000010981   0.0000002017
       -0.0000000342   0.0000008614   0.0000001063   0.0000000440  -0.0000002357
        0.0000001018  -0.0000002414   0.0000000274   0.0000000853   0.0000002039
       -0.0000000121   0.0000000031   0.0000007615  -0.0000000423   0.0000001418
       -0.0000041832  -0.0000024355   0.0000007950   0.0000007785  -0.0000005659
       -0.0000000179  -0.0000015481  -0.0000023351   0.0000004580   0.0000020861
        0.0000011244   0.0000019377  -0.0000766692   0.0000962466  -0.0000741415
       -0.0009575716  -0.0028543992  -0.0058363069   0.0055064750  -0.0005499846
        0.0011173629   0.0002040975  -0.0010730607   0.0012593191   0.0084249997
       -0.0022222713  -0.0350461128  -0.0010935598  -0.0015526921   0.0013094471
       -0.0000017694   0.0000091464  -0.0000122334   0.0000022359  -0.0000012239
       -0.0000020181   0.0000001680  -0.0000025162   0.0000021427  -0.0000007600
       -0.0000020966  -0.0000016397  -0.0000007359   0.0000004028   0.0000019156
        0.0000024443  -0.0000021432   0.0000035874  -0.0000014070   0.0000015553
       -0.0000008047   0.0000026047   0.0000013558   0.0000017606   0.0000002831
       -0.0000003274   0.0000001213   0.0000004362  -0.0000000573   0.0000000190
        0.0000003117  -0.0000000691   0.0000001044   0.0000001656  -0.0000004657
        0.0000000088  -0.0000000003  -0.0000001458   0.0000000753  -0.0000002080
       -0.0000005653   0.0000010825  -0.0000001986   0.0000004803   0.0000007466
        0.0000000894  -0.0000003997  -0.0000005710   0.0000000594  -0.0000004074
       -0.0000000465  -0.0000000910  -0.0000002824  -0.0000000813  -0.0000000155
        0.0000001090  -0.0000000715  -0.0000001851   0.0000001117  -0.0000000558
       -0.0000001434  -0.0000000228  -0.0000000560   0.0000001299   0.0000000219
       -0.0000000985  -0.0000002093   0.0000000155  -0.0000001184  -0.0000000316
        0.0000000722  -0.0000000694  -0.0000000331  -0.0000001479  -0.0000000646
       -0.0000001939  -0.0000001285  -0.0000000160   0.0000000100   0.0000000367
       -0.0000000863  -0.0000005084   0.0000005598  -0.0000000896   0.0000002365
        0.0000005008  -0.0000002158  -0.0000406870  -0.0000071147  -0.0002249169
        0.0003589051  -0.0004322193   0.0078946261
        0.0538309567  -0.0550763787  -0.0043191034  -0.2037005973  -0.0822829188
       -0.0012819215   0.6425591605   0.0090597544  -0.0109717785  -0.2974974745
        0.0224292487   0.0067650427  -0.0367329032  -0.0148089345  -0.0001384964
       -0.0029015039   0.0053956204   0.0003520574  -0.0009482731  -0.0005085555
       -0.0000984015  -0.0000179116   0.0003390025   0.0000225349   0.0002899999
        0.0001682918   0.0000309224   0.0000049090  -0.0000016809   0.0000006774
        0.0000273818  -0.0000644918  -0.0000021643  -0.0000909393  -0.0000423331
       -0.0000018556  -0.0001816276  -0.0000711471  -0.0000056991   0.0002982020
        0.0017440659   0.0000971856  -0.0034092068  -0.0027813880  -0.0001955474
        0.0004490065  -0.0002973121   0.0000029534   0.0000621801   0.0002328219
       -0.0000009404   0.0000526301   0.0000656548  -0.0000065953  -0.0000464421
        0.0000622730  -0.0000020110   0.0000694141  -0.0001592037   0.0000065957
       -0.0002676616  -0.0001964386  -0.0000003806  -0.0000094467   0.0000223996
       -0.0000005152   0.0000089182  -0.0000293463  -0.0000197020   0.0000052949
        0.0000085986  -0.0000100489   0.0000033821   0.0000115224  -0.0000074344
        0.0000002729  -0.0000116806   0.0000007235   0.0000021063  -0.0000063012
       -0.0000097608  -0.0000108001  -0.0000092698   0.0000240612   0.0000113083
        0.0000213271  -0.0000060829  -0.0000098786  -0.0000075299  -0.0000158923
        0.0000012672  -0.0000047027   0.0000100692  -0.0000003814  -0.0000108624
        0.0000018154   0.0000026013   0.0000123754   0.0000070041   0.0000048414
        0.0000113000   0.0000104999   0.0000088346  -0.0000295348   0.0000252247
        0.0000479095  -0.0000031172   0.0000001425  -0.0000539125   0.0000030222
       -0.0000004508   0.0001131173  -0.0000004461   0.0000005582  -0.0001736109