$hessian                                                                        
        0.8786110559   0.6089852018  -0.0453241663  -0.8479095222  -0.5743610908
        0.0422486327  -0.0320760149  -0.0353018939   0.0031246202   0.0075897660
       -0.0023975637   0.0023756837  -0.0019009121  -0.0019981947   0.0007498846
        0.0021654355   0.0012403202   0.0000286232  -0.0001255325   0.0002026524
       -0.0001265028  -0.0005082795  -0.0002098416  -0.0001159388   0.0002811483
        0.0002801671   0.0000501426  -0.0000520031  -0.0000086775   0.0000037491
       -0.0000812098  -0.0000263787   0.0000027584  -0.0000378324   0.0000121232
       -0.0000458848  -0.0000071971   0.0000114991  -0.0000086011   0.0000337647
        0.0000076272   0.0000301947   0.0000971244  -0.0000435116   0.0000161142
       -0.0001863359   0.0002071356  -0.0000216672   0.0000693294  -0.0004703859
        0.0000247448   0.0000331857  -0.0000782337  -0.0000207741  -0.0000430784
        0.0001023585  -0.0000019574   0.0000456962  -0.0000335112   0.0000012207
       -0.0001566093   0.0001007542  -0.0000015140   0.0002884615  -0.0002026922
       -0.0000202163  -0.0001812758   0.0001390959   0.0000087179   0.0000645043
       -0.0000436593  -0.0000116491  -0.0000360167   0.0000254261   0.0000422036
        0.0001435665  -0.0002616762   0.0001673760  -0.0027802724  -0.0020250343
        0.0005527007  -0.0031408473   0.0070413235  -0.0037806273   0.0002618119
        0.0001216617  -0.0000821592  -0.0001196243  -0.0001078146  -0.0000327365
        0.0000179562   0.0000768331   0.0000416002  -0.0000092466   0.0000240904
       -0.0000321317   0.0000209107  -0.0000423555   0.0000187304  -0.0000068123
       -0.0000473912  -0.0000027172  -0.0000259028  -0.0000386199  -0.0000195036
       -0.0000002229   0.0000153075   0.0000151829  -0.0000608716  -0.0000510891
        0.0000139395   0.0000187750  -0.0000096030   0.0000077456  -0.0000343447
        0.0000039302  -0.0000120584  -0.0000022522   0.0000257110   0.0000063153
        0.0000416035  -0.0000431736  -0.0000504808  -0.0004365796  -0.0004494144
        0.0001187523   0.0001347008  -0.0003714122   0.0000616531
        0.6089852018   0.4465756614  -0.0318285838  -0.5744532316  -0.4402286482
        0.0307560298  -0.0353342730  -0.0071905166   0.0011520887   0.0036976587
       -0.0043936945   0.0030297952  -0.0024496507  -0.0013635153  -0.0006879455
        0.0012239720   0.0012290966  -0.0001717781  -0.0001793692   0.0002421407
        0.0001093319  -0.0002928554  -0.0001274789  -0.0000825358   0.0002045614
        0.0001848531   0.0000210510  -0.0000331634  -0.0000175301   0.0000054078
       -0.0000582967  -0.0000142512   0.0000038138  -0.0000281344   0.0000149724
       -0.0000275495  -0.0000036319   0.0000082998  -0.0000000415   0.0000187430
        0.0000062687   0.0000191004   0.0000670952  -0.0000242366   0.0000182733
       -0.0001553996   0.0001503036  -0.0000169506   0.0000509708  -0.0003401638
       -0.0000001263   0.0000310144  -0.0000615368  -0.0000111013  -0.0000328682
        0.0000735238  -0.0000039273   0.0000311125  -0.0000136391   0.0000039198
       -0.0001252171   0.0000796314  -0.0000003411   0.0002310258  -0.0001723378
       -0.0000145696  -0.0001384047   0.0001234008   0.0000065011   0.0000482121
       -0.0000472699  -0.0000192188  -0.0000498075   0.0000219177   0.0000246830
        0.0000483399  -0.0001984434   0.0001491807  -0.0016750318  -0.0005566276
       -0.0008585254   0.0010069020   0.0059200617  -0.0015934469  -0.0003875388
        0.0001927629   0.0000011174  -0.0003515089  -0.0002675234  -0.0000530112
        0.0000175539   0.0000648178   0.0000255316  -0.0000021280   0.0000114029
       -0.0000245398   0.0000118916  -0.0000243458   0.0000080789  -0.0000069021
       -0.0000315352  -0.0000038005  -0.0000196075  -0.0000268379  -0.0000150160
       -0.0000051213   0.0000089810   0.0000051641  -0.0000437325  -0.0000334892
        0.0000097285   0.0000179957  -0.0000034019   0.0000093153  -0.0000242188
        0.0000037088  -0.0000075542  -0.0000100079   0.0000318828   0.0000119078
        0.0000342520  -0.0000458766  -0.0000348644  -0.0000405984  -0.0000604463
        0.0000088740   0.0001741965   0.0002996580   0.0000765332
       -0.0453241663  -0.0318285838   0.0190555945   0.0423292966   0.0308109924
       -0.0355039838   0.0030488784   0.0011009252   0.0162101894   0.0000157776
        0.0016603639   0.0005352706   0.0008885870  -0.0005753143  -0.0012787609
        0.0000385310  -0.0002398405   0.0001289183  -0.0000635071   0.0001258019
        0.0003718982   0.0000838379   0.0000456407   0.0000062639  -0.0000491744
       -0.0000057237  -0.0000281474   0.0000078272   0.0000055700   0.0000048184
       -0.0000027145  -0.0000062542  -0.0000011037  -0.0000001428   0.0000001984
        0.0000026833  -0.0000031532   0.0000019783   0.0000009488   0.0000007994
        0.0000003552   0.0000025845  -0.0000098288   0.0000029725   0.0000000582
        0.0000200848  -0.0000291044   0.0000063370   0.0000054842   0.0000467774
       -0.0000398295   0.0000004313   0.0000018305   0.0000019465   0.0000028963
       -0.0000065126   0.0000036612  -0.0000028321   0.0000058196   0.0000029704
        0.0000086613  -0.0000040557  -0.0000006672  -0.0000101547   0.0000084232
       -0.0000052507   0.0000086705  -0.0000066120   0.0000086587  -0.0000034426
       -0.0000028064   0.0000012904  -0.0000124823  -0.0000041105  -0.0000013278
       -0.0000765289  -0.0000193654   0.0000350751   0.0004349073  -0.0008937567
       -0.0012355151  -0.0013810074  -0.0002561228   0.0009897696   0.0001068420
        0.0001141437   0.0004023199   0.0001438077   0.0000715018  -0.0000371388
       -0.0000021147   0.0000038601  -0.0000083817   0.0000030854  -0.0000004447
       -0.0000002359   0.0000010002  -0.0000006062  -0.0000007689   0.0000018555
        0.0000026316   0.0000006273   0.0000031993   0.0000033554   0.0000017099
        0.0000043753  -0.0000011949   0.0000000619   0.0000020993   0.0000020169
       -0.0000005165   0.0000012277   0.0000041058  -0.0000002114   0.0000036240
        0.0000010574   0.0000005002  -0.0000022137   0.0000028554  -0.0000025619
       -0.0000034614   0.0000020222  -0.0000044173  -0.0000777618  -0.0001093879
       -0.0000390796  -0.0001411005  -0.0000354028   0.0004137419
       -0.8479095222  -0.5744532316   0.0423292966   1.0939701212   0.7013536574
       -0.0464978891  -0.1969805271  -0.0983588846   0.0059875750  -0.0493577874
       -0.0116457353  -0.0065647572  -0.0008806848   0.0062431743  -0.0045732782
       -0.0041176617  -0.0018856099  -0.0001998062   0.0004259636   0.0001280120
        0.0004596137   0.0008632133   0.0002990621   0.0001996786  -0.0004564832
       -0.0004258991  -0.0001062847   0.0000783647   0.0000177523  -0.0000001475
        0.0001339359   0.0000478478  -0.0000008620   0.0000650465  -0.0000181113
        0.0000728681   0.0000132315  -0.0000240237   0.0000111874  -0.0000537342
       -0.0000143560  -0.0000493328  -0.0001571271   0.0000726025  -0.0000289852
        0.0002820961  -0.0004076720   0.0000261995   0.0000107158   0.0008752173
       -0.0000720138  -0.0000593360   0.0001295230   0.0000420398   0.0000759863
       -0.0001627246   0.0000093787  -0.0000816392   0.0000347828  -0.0000112197
        0.0002443548  -0.0001656156   0.0000005200  -0.0004889042   0.0003428289
        0.0000309169   0.0002882284  -0.0002319499  -0.0000102124  -0.0000873077
        0.0000741612   0.0000285167   0.0000813128  -0.0000435917  -0.0000476136
       -0.0003644253   0.0002825760  -0.0002407379   0.0075782886   0.0022222212
       -0.0010084093  -0.0034199370  -0.0259972801   0.0095412478   0.0005685996
       -0.0005272552   0.0009456133  -0.0009450689  -0.0005936858   0.0000804732
       -0.0000346904  -0.0001022610  -0.0000642619   0.0000102903  -0.0000308328
        0.0000462416  -0.0000296153   0.0000658517  -0.0000279029   0.0000147724
        0.0000749634   0.0000069440   0.0000442930   0.0000604065   0.0000338901
        0.0000067521  -0.0000232287  -0.0000171922   0.0000912712   0.0000718400
       -0.0000128937  -0.0000349187   0.0000143658  -0.0000133331   0.0000472782
       -0.0000038304   0.0000206906  -0.0000020920  -0.0000476863  -0.0000161627
       -0.0000710104   0.0000615554   0.0000526629   0.0003701222   0.0005213887
       -0.0002211846   0.0002682348   0.0021696751  -0.0001410738
       -0.5743610908  -0.4402286482   0.0308109924   0.7013536574   0.5965703001
       -0.0459143880  -0.0982723339  -0.1279580030   0.0068865991  -0.0113342733
        0.0085809300  -0.0060121971   0.0052118047   0.0049086965   0.0025356473
       -0.0019697153  -0.0026864805   0.0004601448   0.0006040830  -0.0004185174
       -0.0006107972   0.0004448774   0.0000903969   0.0001369445  -0.0002391195
       -0.0003146172  -0.0000114944   0.0000453307   0.0000070945  -0.0000166439
        0.0000992067   0.0000375499   0.0000058413   0.0000406690  -0.0000125083
        0.0000449956   0.0000091906  -0.0000163839   0.0000066955  -0.0000373500
       -0.0000122840  -0.0000347824  -0.0001068078   0.0000476313  -0.0000217761
        0.0001735668  -0.0002167301   0.0000298004  -0.0000585169   0.0005426975
        0.0000301523  -0.0000325468   0.0000970218   0.0000250534   0.0000440136
       -0.0001238469   0.0000018650  -0.0000585160   0.0000277827  -0.0000054817
        0.0001856383  -0.0001176724   0.0000047966  -0.0003416310   0.0002453107
        0.0000224467   0.0002017729  -0.0001724888  -0.0000082889  -0.0000760362
        0.0000623141   0.0000239181   0.0000692419  -0.0000265714  -0.0000423170
       -0.0000283463   0.0004182463  -0.0002988234   0.0034899700  -0.0032474589
        0.0055006045  -0.0262513785  -0.0355518601   0.0078550794   0.0020041021
       -0.0002924267  -0.0004838411   0.0006231137   0.0003789261   0.0001367561
       -0.0000346898  -0.0000194104  -0.0000273005   0.0000052399  -0.0000065545
        0.0000265732  -0.0000191623   0.0000453567  -0.0000166408   0.0000104026
        0.0000506467   0.0000044601   0.0000314919   0.0000416268   0.0000237935
        0.0000050463  -0.0000154221  -0.0000113507   0.0000668512   0.0000536159
       -0.0000172783  -0.0000254823   0.0000073361  -0.0000111229   0.0000360075
       -0.0000056928   0.0000139567   0.0000072828  -0.0000389406  -0.0000134096
       -0.0000566917   0.0000614720   0.0000558204  -0.0009830135  -0.0007518764
        0.0000741430  -0.0004758590  -0.0000405586  -0.0011591458
        0.0422486327   0.0307560298  -0.0355039838  -0.0464978891  -0.0459143880
        0.0853622816   0.0061028558   0.0069537511  -0.0550636498  -0.0068144952
       -0.0060572747   0.0006708148  -0.0040334608   0.0027281906   0.0063612998
       -0.0003192577   0.0007174542  -0.0005477593   0.0003468099  -0.0006603473
       -0.0017357375  -0.0002744886  -0.0001453297   0.0000480259   0.0001588994
       -0.0000203377   0.0001003925  -0.0000134771  -0.0000115965  -0.0000180037
       -0.0000062060   0.0000037918  -0.0000054093   0.0000002270   0.0000013486
       -0.0000019513  -0.0000003447  -0.0000023447  -0.0000005988  -0.0000020460
       -0.0000001940  -0.0000017400   0.0000150533  -0.0000086258   0.0000010984
       -0.0000509807   0.0000860741  -0.0000043676  -0.0000086662  -0.0001370300
        0.0001260409   0.0000036523   0.0000005643  -0.0000023383  -0.0000079896
        0.0000079019  -0.0000054425   0.0000067858  -0.0000027279   0.0000009742
       -0.0000165076   0.0000082399  -0.0000008275   0.0000311259  -0.0000225639
        0.0000015830  -0.0000203523   0.0000146296  -0.0000056600  -0.0000029696
       -0.0000025432  -0.0000034211   0.0000214184   0.0000114760   0.0000129878
        0.0003036106   0.0001395741  -0.0000481820  -0.0015914712   0.0050159807
        0.0059567469   0.0096316743   0.0080400254  -0.0012198163  -0.0000219678
       -0.0010542545  -0.0022727064  -0.0005352313  -0.0002959274   0.0000564946
       -0.0000039889  -0.0000380877  -0.0000097756  -0.0000038248  -0.0000019218
        0.0000029739  -0.0000003326  -0.0000031131   0.0000015521  -0.0000014908
       -0.0000036590  -0.0000009197  -0.0000034932  -0.0000048290  -0.0000026902
       -0.0000037438   0.0000023469   0.0000000795  -0.0000044464  -0.0000052296
       -0.0000083584  -0.0000002386  -0.0000054386  -0.0000011150  -0.0000046891
       -0.0000020852  -0.0000020860   0.0000041593  -0.0000026112   0.0000026932
        0.0000109211  -0.0000062936  -0.0000051317   0.0004683360   0.0004913780
        0.0000459039   0.0008898880  -0.0005700026  -0.0022802708
       -0.0320760149  -0.0353342730   0.0030488784  -0.1969805271  -0.0982723339
        0.0061028558   0.6201176495   0.0549657758   0.0927175257  -0.2412361863
        0.0944229759  -0.0809734441  -0.0661233785  -0.0406066922  -0.0000463637
       -0.0112782920   0.0291822544  -0.0121249293  -0.0024361357  -0.0008909133
       -0.0000446553  -0.0000818287   0.0008885235  -0.0002593812  -0.0001889477
        0.0003133678   0.0000026050  -0.0000146296   0.0000595887   0.0000076529
       -0.0000697910  -0.0000339562   0.0000025618  -0.0000350506  -0.0000070165
       -0.0000372941  -0.0000060239   0.0000167750  -0.0000065878   0.0000383657
        0.0000148995   0.0000381312   0.0000789644  -0.0000449763   0.0000103488
       -0.0000118875   0.0000899224  -0.0000558549   0.0000247407  -0.0006763753
       -0.0001173634   0.0000605154  -0.0000818218  -0.0000265140  -0.0000297259
        0.0001016791   0.0000060796   0.0000299851  -0.0000076332   0.0000084076
       -0.0001538596   0.0000823873  -0.0000062513   0.0002443440  -0.0001862553
       -0.0000164122  -0.0001564603   0.0001257096   0.0000086638   0.0000539151
       -0.0000590361  -0.0000192442  -0.0000690530   0.0000413444   0.0000485700
        0.0007500445  -0.0005418562   0.0006322259   0.0249746037  -0.0177931438
        0.0126217474  -0.0834716534  -0.0044308455  -0.0067675995  -0.0030842824
        0.0032778677  -0.0022246780  -0.0028677332  -0.0038060371  -0.0012859244
        0.0000417531   0.0000211272   0.0001012390  -0.0000032356   0.0000267695
       -0.0000298517   0.0000183011  -0.0000305243   0.0000172494  -0.0000046834
       -0.0000440052  -0.0000022462  -0.0000241264  -0.0000348947  -0.0000162536
        0.0000066971   0.0000190258   0.0000186062  -0.0000477141  -0.0000654219
        0.0000559199   0.0000209819   0.0000005782   0.0000164609  -0.0000342076
        0.0000045733  -0.0000061868  -0.0000224293   0.0000282429   0.0000112637
        0.0000421841  -0.0001062342  -0.0000815119  -0.0030448871  -0.0041331867
       -0.0010820734  -0.0029503007   0.0235040446  -0.0102463719
       -0.0353018939  -0.0071905166   0.0011009252  -0.0983588846  -0.1279580030
        0.0069537511   0.0549657758   0.5650005861  -0.1648294940   0.0463648572
       -0.1111008116   0.0350683461   0.0104160128   0.0430534239  -0.0136115326
        0.0294992354  -0.0299308945   0.0156068443  -0.0014674239  -0.0011740287
        0.0000472014  -0.0004654047   0.0000088677  -0.0003547299   0.0002207139
        0.0002250300   0.0001736023  -0.0000420715   0.0000075558  -0.0000069386
       -0.0000313158  -0.0000045334   0.0000251791  -0.0000344116   0.0000079483
       -0.0000330428  -0.0000102165  -0.0000049253  -0.0000080517   0.0000127052
       -0.0000156152   0.0000140341   0.0000637138  -0.0000176679   0.0000179467
       -0.0001095671   0.0004224293   0.0000274074  -0.0002784276  -0.0007035642
        0.0001620634   0.0000826538  -0.0000657323  -0.0000359546  -0.0000543958
        0.0000639234  -0.0000092180   0.0000415834  -0.0000182112   0.0000110194
       -0.0000820763   0.0000557545   0.0000000520   0.0001650579  -0.0001176524
       -0.0000081936  -0.0001003554   0.0000796497   0.0000039840   0.0000239006
       -0.0000171819  -0.0000058093  -0.0000464362   0.0000158079   0.0000192741
        0.0012089064  -0.0001950434   0.0000014060  -0.0689121883  -0.0445788421
        0.0028930539   0.0431688181  -0.2628604685   0.0962337716   0.0235808979
       -0.0113778839   0.0102253815  -0.0036877872  -0.0001309014   0.0025344955
       -0.0001025334   0.0002821108   0.0000351433  -0.0000191641   0.0000473375
       -0.0000430618   0.0000075836  -0.0000255148   0.0000086423  -0.0000079662
       -0.0000317234  -0.0000037866  -0.0000157257  -0.0000258669  -0.0000101768
       -0.0000045128  -0.0000001131   0.0000071832  -0.0000579719  -0.0000045433
       -0.0000693144   0.0000191531  -0.0000017814   0.0000096735  -0.0000195167
       -0.0000007029  -0.0000053423  -0.0000033200   0.0000130462   0.0000072850
        0.0000130175  -0.0000059731  -0.0000244708  -0.0039456383  -0.0002636075
        0.0025274442   0.0033046191  -0.0114611672   0.0053440074
        0.0031246202   0.0011520887   0.0162101894   0.0059875750   0.0068865991
       -0.0550636498   0.0927175257  -0.1648294940   0.2048497997  -0.0618379951
        0.0464387822  -0.0800928301  -0.0197595674  -0.0257598028   0.0075644305
       -0.0130128038   0.0160589884  -0.0157208241   0.0000595518   0.0002886137
       -0.0003595710   0.0001790301   0.0002440307   0.0001153229  -0.0001287841
       -0.0000379875  -0.0000485232   0.0000111436   0.0000074403  -0.0000007997
        0.0000036940  -0.0000041676  -0.0000075308   0.0000047792  -0.0000078061
        0.0000030754   0.0000016809   0.0000071615   0.0000018840   0.0000044492
        0.0000090715   0.0000036828  -0.0000088588  -0.0000078170  -0.0000076101
        0.0000458621  -0.0001763063  -0.0000194052   0.0001647766   0.0001441655
       -0.0000705292  -0.0000189628   0.0000140164   0.0000036966   0.0000155207
       -0.0000045652   0.0000031548  -0.0000136015   0.0000094762  -0.0000013140
       -0.0000062818  -0.0000000696  -0.0000010886   0.0000005521  -0.0000047385
       -0.0000005781  -0.0000015620   0.0000002981  -0.0000006934  -0.0000044430
       -0.0000106002  -0.0000045558   0.0000195446   0.0000095949   0.0000132841
       -0.0004174345  -0.0001481423   0.0001280049   0.0331999856   0.0143592490
        0.0037874544  -0.0258851532   0.0844086543  -0.0878622275  -0.0101602817
        0.0055941926  -0.0035832083  -0.0009976622   0.0023924823   0.0069210797
        0.0000717530  -0.0001226580  -0.0000015287   0.0000056333  -0.0000100835
        0.0000129350   0.0000014136   0.0000043780   0.0000008670   0.0000021324
        0.0000021742   0.0000009099   0.0000002259   0.0000023106  -0.0000000858
        0.0000023266   0.0000053011   0.0000011079   0.0000163034  -0.0000181947
        0.0000407670  -0.0000047970  -0.0000018547  -0.0000013778  -0.0000008416
       -0.0000002532   0.0000003972  -0.0000022048  -0.0000017003  -0.0000006815
        0.0000075690  -0.0000260832  -0.0000181620  -0.0011489553   0.0025648913
        0.0069008490  -0.0022374578   0.0105683638  -0.0036961178
        0.0075897660   0.0036976587   0.0000157776  -0.0493577874  -0.0113342733
       -0.0068144952  -0.2412361863   0.0463648572  -0.0618379951   0.6164963683
        0.0538851483   0.0934942744  -0.2570534272  -0.0874325609  -0.0128904399
        0.0271329652  -0.0690025117   0.0322477579   0.0048281403   0.0024570287
       -0.0014271574  -0.0004863960  -0.0020270599   0.0003239654   0.0007756541
       -0.0000592932   0.0002915436  -0.0000166798  -0.0000794144  -0.0000532307
        0.0000290949   0.0000109722   0.0000190493   0.0000021292   0.0000010739
        0.0000065917  -0.0000112277  -0.0000126288  -0.0000094048  -0.0000177438
       -0.0000190826  -0.0000127906  -0.0000197277   0.0000096043  -0.0000013515
       -0.0003288585   0.0000321492   0.0000246326   0.0004066806   0.0005528946
        0.0002541333   0.0000171245   0.0000781074   0.0000602280   0.0000526247
       -0.0000417667   0.0000060031  -0.0000134913   0.0000038257  -0.0000106243
        0.0000539502  -0.0000239996  -0.0000044697  -0.0000872300   0.0000762528
       -0.0000029681   0.0000644630  -0.0000483913  -0.0000034358   0.0000173759
        0.0000045085   0.0000119846   0.0000578931  -0.0000180093   0.0000046552
       -0.0010737288   0.0004633825  -0.0005476952  -0.0577802157  -0.0092362002
       -0.0085570199   0.0176519579   0.0728046947  -0.0253188883  -0.0440472698
        0.0135913760  -0.0075500852  -0.0241921405  -0.0143468236  -0.0001011619
       -0.0001266858   0.0001252111  -0.0001132074  -0.0000203612   0.0000089966
       -0.0000153687  -0.0000139891   0.0000030178  -0.0000087661  -0.0000034825
        0.0000151256  -0.0000025999   0.0000084412   0.0000080287   0.0000040515
        0.0000028828  -0.0000107138  -0.0000036235   0.0000124056   0.0000117677
       -0.0001242830  -0.0000151349   0.0000007468  -0.0000106054   0.0000160966
        0.0000045647  -0.0000007219   0.0000105485  -0.0000135644  -0.0000101434
       -0.0000294119   0.0000393112  -0.0000289303  -0.0004782838  -0.0000925751
        0.0000852041   0.0011828970  -0.0004514362  -0.0013883888
       -0.0023975637  -0.0043936945   0.0016603639  -0.0116457353   0.0085809300
       -0.0060572747   0.0944229759  -0.1111008116   0.0464387822   0.0538851483
        0.6033692044  -0.1799078548  -0.1575101704  -0.1733573247   0.0142562828
       -0.0176699237  -0.0434826593   0.0136530526   0.0015396345  -0.0033795035
        0.0044716428  -0.0007662089  -0.0009676737  -0.0000023506  -0.0001169259
       -0.0002865619  -0.0003947348  -0.0000658593  -0.0000253847   0.0000316706
        0.0000577321   0.0000116433   0.0000401454   0.0000018635  -0.0000254539
       -0.0000021533  -0.0000168065  -0.0000003725  -0.0000135467   0.0000108171
       -0.0000067212  -0.0000056855  -0.0000317244  -0.0000102816  -0.0000033866
        0.0001039672  -0.0000288818   0.0000286032   0.0000080145   0.0001884377
       -0.0002261369   0.0000374036   0.0000124046  -0.0000051490   0.0000102216
       -0.0000350825   0.0000048278  -0.0000115018  -0.0000013498  -0.0000045285
        0.0000590139  -0.0000173262   0.0000105765  -0.0000740385   0.0000624569
        0.0000025625   0.0000435503  -0.0000473859   0.0000028400  -0.0000045128
        0.0000391161   0.0000247842  -0.0000102885  -0.0000309448  -0.0000504251
        0.0000176573   0.0004562011  -0.0003085695  -0.0081426408   0.0011877148
       -0.0044282533   0.0282419450  -0.0145877009   0.0132362013   0.0138511808
       -0.2640395448   0.0932667654   0.0062518976   0.0051702684  -0.0000118005
       -0.0000870604   0.0001762589   0.0000866469  -0.0000199349   0.0000164516
       -0.0000178318  -0.0000069115   0.0000172784  -0.0000043011  -0.0000025309
        0.0000062619   0.0000000956   0.0000033525   0.0000051157   0.0000018049
        0.0000033486  -0.0000062222   0.0000011892   0.0000157439   0.0000222257
        0.0000508860  -0.0000009107   0.0000001811  -0.0000051285   0.0000095269
        0.0000010498   0.0000011763   0.0000025948  -0.0000037080  -0.0000079372
       -0.0000583745   0.0000495374   0.0000542051  -0.0000781992   0.0006574128
       -0.0003900599   0.0001402326  -0.0041955603   0.0045220031
        0.0023756837   0.0030297952   0.0005352706  -0.0065647572  -0.0060121971
        0.0006708148  -0.0809734441   0.0350683461  -0.0800928301   0.0934942744
       -0.1799078548   0.2060792370   0.0134513747   0.0302674428  -0.0547146554
        0.0138522119   0.0010444905   0.0034206561  -0.0015105171   0.0048385549
        0.0052323068   0.0009176860   0.0004595812  -0.0000579842  -0.0000314162
        0.0003772039  -0.0004546944   0.0000911162   0.0000253781   0.0000348032
       -0.0000154899  -0.0000106433  -0.0000037912  -0.0000040711   0.0000007669
       -0.0000060341   0.0000011444   0.0000023406   0.0000025705   0.0000082313
       -0.0000000581   0.0000099963   0.0000023256   0.0000255246   0.0000004294
       -0.0000963589  -0.0000832680  -0.0000004182   0.0000624678   0.0001996417
       -0.0002519405  -0.0000236405  -0.0000164147   0.0000091483   0.0000045810
        0.0000161009   0.0000075298  -0.0000026054   0.0000096783   0.0000002941
       -0.0000192497   0.0000058227  -0.0000046300   0.0000284953  -0.0000238980
       -0.0000032778  -0.0000116418   0.0000191959   0.0000011657   0.0000119707
       -0.0000248079  -0.0000114555  -0.0000062797   0.0000038242   0.0000109788
       -0.0011052731  -0.0008808380   0.0001464147  -0.0091066222  -0.0046268019
       -0.0055120068  -0.0074837740   0.0238373675  -0.0083902088  -0.0077188099
        0.0931870179  -0.0726639901  -0.0081611977  -0.0048057485   0.0010128458
        0.0000345189  -0.0000443207   0.0000856341   0.0000009022  -0.0000066080
        0.0000028749   0.0000005503  -0.0000056820   0.0000000965  -0.0000001626
       -0.0000004633   0.0000011628   0.0000003609   0.0000032699  -0.0000002651
        0.0000012922  -0.0000006690   0.0000019611   0.0000105530   0.0000010887
        0.0000557876   0.0000015866   0.0000044262   0.0000043210  -0.0000012633
        0.0000029167  -0.0000010189  -0.0000061949   0.0000090130   0.0000046387
       -0.0000070524  -0.0000233906  -0.0000238391  -0.0000219850  -0.0003942537
       -0.0001401620  -0.0014795202   0.0044291291   0.0050022632
       -0.0019009121  -0.0024496507   0.0008885870  -0.0008806848   0.0052118047
       -0.0040334608  -0.0661233785   0.0104160128  -0.0197595674  -0.2570534272
       -0.1575101704   0.0134513747   0.6648608964   0.0483100429   0.1050888908
       -0.0910171904   0.0455811687  -0.0249715310  -0.0009682022  -0.0253937947
        0.0086049071  -0.0039034649  -0.0012714089   0.0000183720  -0.0002848760
       -0.0009986333  -0.0006041528  -0.0002942202  -0.0000066218   0.0000860518
       -0.0000920095  -0.0000592518  -0.0000476485  -0.0000095700   0.0000321046
       -0.0000403280  -0.0000020013   0.0000052223  -0.0000019020   0.0000283750
       -0.0000095380  -0.0000078635   0.0000872787  -0.0001091692   0.0000304132
       -0.0000402972  -0.0001050748  -0.0000283294   0.0004073741  -0.0008711759
       -0.0003660653   0.0001465420  -0.0001322526  -0.0001235867  -0.0000418238
        0.0001004966  -0.0000054967   0.0000471804  -0.0000198596   0.0000159162
       -0.0000691222   0.0000465945   0.0000195318   0.0000813649  -0.0000695629
        0.0000214367  -0.0000360455   0.0000499944  -0.0000125215   0.0000579765
        0.0000101556  -0.0000063158  -0.0001658533   0.0000061428  -0.0001569386
       -0.0016733337  -0.0020558324   0.0014546417   0.0188247547   0.0288009206
       -0.0074240955  -0.0093190178  -0.0244080956   0.0088017356   0.0005826699
       -0.0012607687   0.0002230261  -0.2474358746   0.0767735302  -0.0784718713
       -0.0000343141   0.0000708463   0.0001263699  -0.0000324031   0.0000155065
       -0.0000066457   0.0000150647  -0.0000327404   0.0000118414  -0.0000048019
       -0.0000266069   0.0000034657  -0.0000172136  -0.0000317817  -0.0000111781
       -0.0000039117   0.0000110223   0.0000211944   0.0000037771  -0.0000430870
        0.0001986179   0.0000444896   0.0000101669   0.0000391353  -0.0000108222
        0.0000066165   0.0000067435  -0.0000219490   0.0000333866   0.0000259605
       -0.0000349593  -0.0000247586   0.0001537901  -0.0042057626   0.0017467529
       -0.0036622076   0.0004896990  -0.0003486527   0.0004497027
       -0.0019981947  -0.0013635153  -0.0005753143   0.0062431743   0.0049086965
        0.0027281906  -0.0406066922   0.0430534239  -0.0257598028  -0.0874325609
       -0.1733573247   0.0302674428   0.0483100429   0.5709351129  -0.1668263000
       -0.0112675341  -0.2645296636   0.0812420399  -0.0187914679  -0.0302463666
        0.0074674251  -0.0012268450   0.0037763378   0.0002074233  -0.0019803225
       -0.0010534653  -0.0005040386  -0.0001447470   0.0000696365   0.0000270991
        0.0000356459  -0.0000115374  -0.0000029249  -0.0000004559   0.0000044026
       -0.0000055548   0.0000098011  -0.0000000935   0.0000097942   0.0000025501
       -0.0000021044  -0.0000140466  -0.0000466155  -0.0000763840  -0.0000281305
        0.0008025675  -0.0000950149  -0.0001586575  -0.0003055687  -0.0009120358
       -0.0005025224   0.0001618653   0.0000032246  -0.0000297049  -0.0000008876
        0.0000039985   0.0000033951  -0.0000109294   0.0000021762   0.0000070263
       -0.0000412176   0.0000158019  -0.0000096118   0.0000434244  -0.0000264799
       -0.0000114887  -0.0000253073   0.0000218613   0.0000041497   0.0000178971
       -0.0000310195  -0.0000038059  -0.0000059341  -0.0000064193   0.0000308791
        0.0044456081  -0.0024824503   0.0023758480   0.0719635179  -0.0142089013
        0.0232234649  -0.0237884467  -0.0457517629   0.0105924789  -0.0223581649
       -0.0186126445   0.0025253724   0.0769599809  -0.0705384185   0.0306089016
        0.0001391953  -0.0001648845   0.0002613174  -0.0000146530  -0.0000210592
       -0.0000041784   0.0000030072  -0.0000056136   0.0000026431   0.0000001103
       -0.0000080682   0.0000011397  -0.0000022201  -0.0000042750  -0.0000036060
        0.0000269544   0.0000124912   0.0000231991   0.0000704172  -0.0000099827
        0.0001651320   0.0000159430   0.0000254070   0.0000085049  -0.0000024312
        0.0000115998  -0.0000026501  -0.0000123105   0.0000113228  -0.0000013940
        0.0000015178  -0.0000431980  -0.0000687414   0.0013348009   0.0009003496
        0.0027631763  -0.0005245149  -0.0001931603  -0.0000335700
        0.0007498846  -0.0006879455  -0.0012787609  -0.0045732782   0.0025356473
        0.0063612998  -0.0000463637  -0.0136115326   0.0075644305  -0.0128904399
        0.0142562828  -0.0547146554   0.1050888908  -0.1668263000   0.2045997437
       -0.0011864903   0.0942905789  -0.0878743506   0.0044385865   0.0052901064
        0.0007870836  -0.0005621964  -0.0012334539   0.0013723731   0.0004177350
        0.0001558288   0.0000135688  -0.0000106939  -0.0000368700  -0.0000755890
       -0.0000113383   0.0000178694   0.0000031837   0.0000016582  -0.0000001289