$hessian                                                                        
        0.2158295105   0.4258225781  -0.1692072686  -0.2196046144  -0.3988208473
        0.1600566606   0.0042098435  -0.0309167305   0.0118662113   0.0072733132
        0.0059985732  -0.0015385193  -0.0022364871  -0.0054436432   0.0016617458
        0.0048930756  -0.0001839715   0.0004777506  -0.0032608998   0.0000654476
       -0.0002561062   0.0013247593   0.0020753606  -0.0004286176   0.0002868002
       -0.0003156340   0.0000953804  -0.0000109641   0.0002370273  -0.0000585734
        0.0001059569  -0.0001017677   0.0000338568  -0.0000878435   0.0000542147
       -0.0000168266   0.0000459978  -0.0000709503   0.0000232481  -0.0001663953
        0.0000853120  -0.0000303303  -0.0005053259   0.0004538840  -0.0001669909
        0.0019628971  -0.0021705736   0.0006941888   0.0003594717   0.0005225226
       -0.0001002750  -0.0002045198  -0.0001435008   0.0000238110   0.0000598158
        0.0001086142  -0.0000255781  -0.0001165082  -0.0000958148   0.0000198402
        0.0001361036   0.0001657851  -0.0000378353  -0.0000370112  -0.0003252778
        0.0000834178  -0.0030894989  -0.0006606798  -0.0000447881  -0.0004918087
        0.0025907217  -0.0008292525   0.0000583568  -0.0022275246   0.0008930432
       -0.0065482017   0.0030599845  -0.0016990343  -0.0002153540   0.0014274825
        0.0000038955  -0.0003444985  -0.0004128396  -0.0006064065  -0.0000089176
        0.0011387748  -0.0002534803  -0.0005447674   0.0000114724  -0.0001739914
        0.0000704559  -0.0000968536  -0.0001072176  -0.0003345221  -0.0001240716
       -0.0001427316   0.0005297106   0.0003241113   0.0002731831  -0.0017169040
       -0.0006188274  -0.0004387230   0.0003631271  -0.0002170930  -0.0001641855
       -0.0002465445  -0.0001528637  -0.0001172599  -0.0001221222   0.0001928429
        0.0001269831  -0.0005322251  -0.0001406800  -0.0000943818   0.0006749047
       -0.0001423271  -0.0001061763  -0.0004551075   0.0003777053   0.0002117022
        0.0003483382  -0.0006335830  -0.0004342366   0.0025029859  -0.0000985854
        0.0003856585   0.0003837313   0.0001718513  -0.0001795357   0.0000537418
       -0.0000111193  -0.0000008463   0.0000064843  -0.0000111583   0.0000026975
       -0.0000193260   0.0000065241   0.0000008995  -0.0000254541  -0.0000027783
        0.0000021410  -0.0000085761  -0.0000397725   0.0000100307  -0.0000057251
        0.0000202246  -0.0000062862  -0.0000185682  -0.0000036187   0.0000055551
       -0.0000062197  -0.0000131866   0.0000053162   0.0000137932  -0.0000231988
        0.0000080092   0.0000094379   0.0000100708   0.0000019520  -0.0000212395
       -0.0001401011   0.0000014710  -0.0001200089  -0.0004839026   0.0000933821
       -0.0003887351   0.0000640775   0.0000945865  -0.0000391387  -0.0000427354
        0.0000598301  -0.0000093902  -0.0000105237   0.0000485745  -0.0000269808
       -0.0000527814   0.0000137168   0.0000432595   0.0000070557   0.0000199652
        0.0000310036  -0.0000053194  -0.0000034835   0.0000048603  -0.0000082246
       -0.0000163921  -0.0000113323  -0.0000291579  -0.0000133743
        0.4258225781   0.9308057760  -0.3645961227  -0.3979409574  -0.8916441076
        0.3429634648  -0.0286093110  -0.0455761725   0.0232088965   0.0144292672
        0.0060571917   0.0000318531  -0.0070612211  -0.0115879258   0.0022844580
        0.0093879774  -0.0010208520   0.0008419086  -0.0056224925   0.0018037931
       -0.0008651028   0.0024984749   0.0036215778  -0.0007589276   0.0008257890
       -0.0006923098   0.0002140916  -0.0003043664   0.0005475598  -0.0001525905
        0.0003277255  -0.0002714701   0.0000866424  -0.0001930396   0.0001437718
       -0.0000492902   0.0001571907  -0.0001280669   0.0000410424  -0.0003192881
        0.0002560296  -0.0000862270  -0.0014089762   0.0005774653  -0.0002737464
        0.0036769650  -0.0040196352   0.0013430902   0.0007341086   0.0009730528
       -0.0001943215  -0.0003334189  -0.0003459090   0.0000718012   0.0001318591
        0.0002212667  -0.0000468525  -0.0002342723  -0.0001684979   0.0000360853
        0.0002697757   0.0003238481  -0.0000676278  -0.0001857905  -0.0006196482
        0.0001551772  -0.0061129490  -0.0025567819   0.0003321654  -0.0017245471
        0.0057172623  -0.0017968383  -0.0010677054  -0.0028419559   0.0005415920
       -0.0077211873   0.0112815630  -0.0044629519   0.0000024684   0.0021185215
        0.0009117219   0.0000210955  -0.0012570132  -0.0001559423   0.0010802754
        0.0011177634   0.0005267442  -0.0009497321  -0.0003973784  -0.0002655497
        0.0002091272  -0.0003265476  -0.0002916190  -0.0004889671   0.0000923632
        0.0000413202   0.0001069461   0.0003363787   0.0004512018  -0.0025739172
       -0.0007523520  -0.0006356989   0.0004743831  -0.0003089758  -0.0002441820
       -0.0004130274  -0.0002437797  -0.0001665424  -0.0001948530   0.0001972052
        0.0001368050  -0.0007095573  -0.0001618794  -0.0001043347   0.0009880001
       -0.0001912382  -0.0001278731  -0.0004607788   0.0004656584   0.0002637645
        0.0004802519  -0.0005870521  -0.0004472162   0.0035119836   0.0001269684
        0.0004279526  -0.0000896349  -0.0000672545   0.0000712436  -0.0000009241
       -0.0000994396   0.0000049749  -0.0000437773   0.0000837991  -0.0000355144
       -0.0000383726   0.0000302322  -0.0000120819  -0.0000620993   0.0000050833
       -0.0000047964   0.0000165412  -0.0000809678   0.0000176959  -0.0000125100
        0.0000638053  -0.0000211927  -0.0000622379  -0.0000149772   0.0000112129
       -0.0000185256  -0.0000265586   0.0000138585   0.0000267491  -0.0000567292
        0.0000243529   0.0000339327   0.0000299133   0.0000003088  -0.0000567230
       -0.0002486817   0.0001538972   0.0000313907  -0.0003682397   0.0000607652
       -0.0003056138  -0.0002774523   0.0004334314   0.0000200925   0.0000248390
        0.0001353550   0.0000083090   0.0000266740   0.0000408710  -0.0000249834
       -0.0000431519   0.0000007338   0.0000225563   0.0000012971   0.0000204713
        0.0000575667  -0.0000171158  -0.0000081226   0.0000160359  -0.0000212502
       -0.0000277720  -0.0000236592  -0.0000292922  -0.0000019140
       -0.1692072686  -0.3645961227   0.1634555715   0.1596879705   0.3431347278
       -0.1692867005   0.0106185418   0.0220508001   0.0059707545  -0.0054181967
       -0.0012073092   0.0015111491   0.0029729814   0.0034859887  -0.0028007145
       -0.0032669769   0.0002892611  -0.0006625351   0.0020085198  -0.0004520378
        0.0003518058  -0.0010232410  -0.0012092818   0.0001643316  -0.0002668729
        0.0002244517  -0.0000556306   0.0001218864  -0.0001639002   0.0000689707
       -0.0001091298   0.0001011209  -0.0000211139   0.0000646646  -0.0000524858
        0.0000143520  -0.0000616511   0.0000384517  -0.0000079685   0.0000885511
       -0.0000960056   0.0000306392   0.0005345886  -0.0001891524   0.0001249530
       -0.0014444969   0.0012980600  -0.0004365871  -0.0002287261  -0.0003135782
        0.0000360744   0.0000843209   0.0001241990  -0.0000190928  -0.0000533084
       -0.0000695038   0.0000215458   0.0000781613   0.0000591334  -0.0000050361
       -0.0000836091  -0.0001137068   0.0000292114   0.0000847745   0.0001964041
       -0.0000357391   0.0022489923   0.0008228480   0.0001019715   0.0005134679
       -0.0020569354   0.0007514365   0.0004781271   0.0008655818  -0.0012798093
        0.0028307352  -0.0035247175   0.0028825368  -0.0000333746  -0.0009752677
       -0.0000703224  -0.0003918967   0.0002615993  -0.0004464798  -0.0003145551
        0.0000548379  -0.0014236163   0.0002105937   0.0003124552   0.0000126704
       -0.0000890405   0.0000878467   0.0001985625   0.0000658657  -0.0001047172
       -0.0000654559   0.0002240605  -0.0001719256  -0.0001241062   0.0009640428
        0.0003202161   0.0002480299  -0.0001700440   0.0001299847   0.0000748909
        0.0001309360   0.0001163957   0.0000889237   0.0000916412  -0.0001418044
       -0.0000970563   0.0003911875   0.0001182558   0.0000853649  -0.0004979044
        0.0001138905   0.0000877296   0.0002670147  -0.0001755418  -0.0000831803
       -0.0003039411   0.0005398436   0.0003845820  -0.0015281035  -0.0001693744
       -0.0003911162   0.0000207746   0.0002176077   0.0006623086   0.0000052532
        0.0000252093  -0.0000442704   0.0000161690  -0.0000386334   0.0000009756
        0.0000171355  -0.0000131728   0.0000000164   0.0000277875  -0.0000021729
        0.0000001406  -0.0000090303   0.0000319848  -0.0000089690   0.0000025849
       -0.0000264962   0.0000036578   0.0000269466   0.0000077006  -0.0000040419
        0.0000079538   0.0000143309  -0.0000060370  -0.0000116370   0.0000242181
       -0.0000092982  -0.0000113429  -0.0000148568  -0.0000035958   0.0000214442
        0.0001824957   0.0002740643  -0.0000041675   0.0001325208  -0.0000803888
       -0.0003262727   0.0003348597  -0.0002333578   0.0000226842   0.0000849525
        0.0000529112  -0.0000396053  -0.0000050131   0.0000057507  -0.0000265602
        0.0000367899   0.0000017694   0.0000074796  -0.0000023278  -0.0000150557
       -0.0000226254   0.0000078815   0.0000021232  -0.0000036256   0.0000135124
        0.0000123473   0.0000093657   0.0000256237   0.0000051527
       -0.2196046144  -0.3979409574   0.1596879705   0.3346859404   0.4918204897
       -0.1906437685  -0.0915122687  -0.0683450630   0.0245040653  -0.0337186501
       -0.0368448579   0.0103381770  -0.0017043800   0.0088464634  -0.0037159645
       -0.0083070309  -0.0000636074  -0.0007853447   0.0050151647  -0.0012441801
        0.0007173604  -0.0021591879  -0.0031011934   0.0006446374  -0.0005967362
        0.0005388916  -0.0001626733   0.0000083411  -0.0004591212   0.0001157071
       -0.0002272573   0.0002292157  -0.0000714118   0.0001525113  -0.0001188835
        0.0000353966  -0.0001218997   0.0001330545  -0.0000414812   0.0003125420
       -0.0001281767   0.0000479034   0.0013324365  -0.0006891269   0.0002660866
       -0.0036355269   0.0042233606  -0.0013076458  -0.0006356559  -0.0010089255
        0.0001936445   0.0003428110   0.0002948930  -0.0000508875  -0.0000933156
       -0.0002269383   0.0000570445   0.0001928471   0.0001661894  -0.0000280902
       -0.0002606776  -0.0003101439   0.0000694999   0.0000962825   0.0005817929
       -0.0001418656   0.0052659414   0.0006600348   0.0002176564   0.0008101304
       -0.0043017117   0.0013943207  -0.0003337300   0.0051730260  -0.0023635339
        0.0153812768  -0.0003055846   0.0014965854  -0.0003299067  -0.0006553166
       -0.0004956095  -0.0002896903   0.0015285032   0.0004448856  -0.0007901496
       -0.0015541010  -0.0010358118   0.0008952160   0.0001905809   0.0002624157
       -0.0000835302   0.0002020886   0.0002229219   0.0005712742   0.0001121857
        0.0001524730  -0.0004792603  -0.0005328659  -0.0004772533   0.0027128774
        0.0009492808   0.0007437457  -0.0004894811   0.0002813803   0.0002380404
        0.0003629250   0.0002720956   0.0001889950   0.0002074066  -0.0002986371
       -0.0002015746   0.0008335126   0.0002159850   0.0001391293  -0.0010465792
        0.0002159163   0.0001605959   0.0006661576  -0.0005582052  -0.0002970065
       -0.0005575987   0.0008665047   0.0006368923  -0.0037383045  -0.0000726623
       -0.0007815009  -0.0002169029  -0.0005413903   0.0006966998  -0.0000326128
        0.0000168519   0.0000025652   0.0000148499  -0.0000100032   0.0000046395
        0.0000457384  -0.0000203467   0.0000023819   0.0000539674   0.0000054392
        0.0000006100   0.0000346262   0.0000528041  -0.0000110142   0.0000221350
       -0.0000486250   0.0000185764   0.0000477241   0.0000141098  -0.0000079305
        0.0000150489   0.0000224095  -0.0000053090  -0.0000246829   0.0000491503
       -0.0000124332  -0.0000362244  -0.0000026912  -0.0000053158   0.0000387640
        0.0003163759   0.0000844995   0.0002437224   0.0011531694  -0.0002402951
        0.0006416852   0.0000627331  -0.0008131167   0.0000441844   0.0000497950
       -0.0000660110   0.0000209047   0.0000041857  -0.0000516522   0.0000501532
        0.0000707189   0.0000029304  -0.0000510088  -0.0000200521  -0.0000340159
       -0.0000551251   0.0000105691   0.0000023467  -0.0000089594   0.0000210116
        0.0000276137   0.0000218496   0.0000521120   0.0000295038
       -0.3988208473  -0.8916441076   0.3431347278   0.4918204897   1.1549752906
       -0.4217143715  -0.0701220331  -0.2041357849   0.0560593985  -0.0413732966
       -0.0237623888   0.0044048743   0.0078543105   0.0213708734  -0.0029095933
       -0.0142532170   0.0010561890  -0.0011508135   0.0086008048  -0.0025888695
        0.0012771446  -0.0044081836  -0.0057841771   0.0013199867  -0.0012782795
        0.0011540508  -0.0003410655   0.0004147634  -0.0008897011   0.0002446679
       -0.0005313855   0.0004548556  -0.0001398280   0.0003086061  -0.0002350857
        0.0000745503  -0.0002541760   0.0002379636  -0.0000672949   0.0005375737
       -0.0004186931   0.0001421457   0.0034365397  -0.0006822682   0.0003467570
       -0.0061243810   0.0062573416  -0.0021019176  -0.0011167347  -0.0015733236
        0.0003236612   0.0005411512   0.0005629362  -0.0001126964  -0.0002077736
       -0.0003676532   0.0000788195   0.0003530076   0.0002742704  -0.0000478220
       -0.0004392061  -0.0005403151   0.0001155493   0.0002703105   0.0009906111
       -0.0002389173   0.0091828565   0.0036852581  -0.0005084358   0.0038081219
       -0.0093527199   0.0029720306   0.0052858063   0.0011868108   0.0014020550
        0.0076136382  -0.0511342975   0.0189638123  -0.0027230684  -0.0023285916
       -0.0015381481   0.0006929104   0.0018922885   0.0009917346  -0.0010766764
       -0.0017585271  -0.0001130349   0.0013138724   0.0004402368   0.0004188531
       -0.0002263032   0.0003531077   0.0003113270   0.0006878088  -0.0000018308
        0.0000649903  -0.0003920016  -0.0004915082  -0.0006253216   0.0032631335
        0.0011052002   0.0009439034  -0.0006756019   0.0003288394   0.0002736868
        0.0006217585   0.0004199215   0.0002849592   0.0003180804  -0.0003137510
       -0.0002221383   0.0010486773   0.0002293864   0.0001534581  -0.0013667329
        0.0001806985   0.0001379243   0.0007396733  -0.0006228751  -0.0003439147
       -0.0008832798   0.0010353312   0.0006729503  -0.0043913892  -0.0007290898
       -0.0010232815   0.0016554771   0.0006425271  -0.0010341787  -0.0000016424
        0.0001225876  -0.0000088260   0.0000593141  -0.0001275176   0.0000497813
        0.0000701050  -0.0000573229   0.0000178955   0.0001149783  -0.0000083695
        0.0000082177   0.0000176754   0.0001194171  -0.0000222269   0.0000499635
       -0.0000906754   0.0000347047   0.0001121999   0.0000259959  -0.0000107640
        0.0000370192   0.0000464690  -0.0000146764  -0.0000405280   0.0001000229
       -0.0000341916  -0.0000526847  -0.0000306324   0.0000008948   0.0001496608
        0.0004278140  -0.0005184174  -0.0005075175  -0.0007309531   0.0001521328
        0.0005913323   0.0006324454  -0.0002438087  -0.0000566591  -0.0000726691
       -0.0002219765  -0.0000483716  -0.0000482760  -0.0000998299  -0.0000040041
        0.0000399363  -0.0000335833  -0.0000608488  -0.0000194942  -0.0000455402
       -0.0001164413   0.0000375463   0.0000146701  -0.0000446780   0.0000501221
        0.0000480826   0.0000263223   0.0001051239   0.0000462674
        0.1600566606   0.3429634648  -0.1692867005  -0.1906437685  -0.4217143715
        0.2416760582   0.0250979937   0.0581373919  -0.0698849536   0.0132408274
        0.0055753238  -0.0017328580  -0.0045288444  -0.0040940205   0.0101112665
        0.0044765697  -0.0004532243   0.0012636553  -0.0024616779   0.0008937967
       -0.0005475087   0.0015967702   0.0013743689  -0.0000044811   0.0003092814
       -0.0002514097   0.0000658312  -0.0001466645   0.0002010821  -0.0000805785
        0.0001404420  -0.0001404068   0.0000400032  -0.0000759534   0.0000663991
       -0.0000218733   0.0000902786  -0.0000393314   0.0000155792  -0.0001039904
        0.0001221118  -0.0000399243  -0.0014103677   0.0002430770  -0.0003166923
        0.0023935336  -0.0018015123   0.0005409876   0.0002676208   0.0004345576
       -0.0000181505  -0.0001002305  -0.0001828392   0.0000276790   0.0000696234
        0.0000902918  -0.0000334995  -0.0001043561  -0.0000789680   0.0000103398
        0.0001121505   0.0001649165  -0.0000513759  -0.0001177082  -0.0002493656
        0.0000493257  -0.0030954742  -0.0009409095  -0.0004264661  -0.0008927508
        0.0029146555  -0.0012681749  -0.0024353315   0.0009793177   0.0050653151
       -0.0015126973   0.0173997186  -0.0068032859   0.0010148988   0.0003730688
       -0.0015235521  -0.0001245987   0.0004654226  -0.0000248143  -0.0005430419
        0.0006346573  -0.0003343532  -0.0000969189  -0.0003074977  -0.0001288865
       -0.0001939514   0.0001369474   0.0000912236  -0.0002683082  -0.0003298368
       -0.0002339845  -0.0001503119   0.0005838499   0.0005206660  -0.0011316745
       -0.0009303101  -0.0006108697   0.0000505748   0.0001036508   0.0000535198
       -0.0000026464  -0.0002831247  -0.0001984456  -0.0001506655   0.0004424375
        0.0002874602  -0.0007664462  -0.0002652916  -0.0001678645   0.0008349691
       -0.0001720929  -0.0001342328  -0.0006998622   0.0001758563   0.0000975486
        0.0005962750  -0.0010784931  -0.0007675387   0.0020701189   0.0009600924
        0.0009360370  -0.0005085574  -0.0014303838  -0.0032566895  -0.0000159937
       -0.0000312960   0.0000340374  -0.0000211730   0.0000536970  -0.0000066507
       -0.0000257779   0.0000267753  -0.0000015775  -0.0000444967   0.0000065677
        0.0000004210   0.0000031435  -0.0000327473   0.0000110630  -0.0000081167
        0.0000368787  -0.0000133105  -0.0000457159  -0.0000104075   0.0000027744
       -0.0000164648  -0.0000217411   0.0000003361   0.0000128785  -0.0000398462
        0.0000083570   0.0000106102   0.0000241663   0.0000006696  -0.0000087399
       -0.0005641095  -0.0013591934   0.0001948494   0.0003229617   0.0000658871
       -0.0004039001  -0.0003111670  -0.0017171943   0.0000303832  -0.0000411423
        0.0000394562   0.0000946751   0.0000151152   0.0000225216   0.0000431663
       -0.0000370637  -0.0000073498   0.0000072811   0.0000024947   0.0000221640
        0.0000436888  -0.0000146453  -0.0000054427   0.0000113931  -0.0000273156
       -0.0000265229  -0.0000134807  -0.0000502421  -0.0000251874
        0.0042098435  -0.0286093110   0.0106185418  -0.0915122687  -0.0701220331
        0.0250979937   0.6288055081   0.0469093338   0.0207643991  -0.3357674995
       -0.0037527929  -0.0220678811  -0.0368506152  -0.0558982850   0.0151142304
        0.0060916673  -0.0001190179   0.0001993010   0.0042057512   0.0002246345
       -0.0005514988  -0.0007413556  -0.0062471863   0.0022555705  -0.0014808025
        0.0015173212  -0.0004213925   0.0001051370  -0.0009698941   0.0002632791
       -0.0005460034   0.0003315380  -0.0001278804   0.0003117977  -0.0002132039
        0.0000717519  -0.0001275728   0.0003941777  -0.0001376823   0.0007846866
       -0.0002727824   0.0001184548   0.0015266064  -0.0013624756   0.0001004827
       -0.0019382895   0.0069519761  -0.0021312486  -0.0018091014  -0.0023627315
        0.0004555704   0.0010488150   0.0004436995  -0.0000701267  -0.0001587110
       -0.0005604789   0.0001522923   0.0003106741   0.0003586204  -0.0000943028
       -0.0006335944  -0.0005450065   0.0001104905  -0.0000900593   0.0012826239
       -0.0003654997   0.0007924892  -0.0001432300   0.0006629320  -0.0299611121
        0.0100097535  -0.0058610862   0.0342539933   0.0218306872  -0.0060974748
       -0.1184834896   0.0570381200  -0.0246946491  -0.0370178911   0.0226242806
       -0.0100047288   0.0015417523   0.0024566400   0.0003033200  -0.0005784326
       -0.0004820480  -0.0006032212   0.0009938700   0.0006202765   0.0002558927
       -0.0014094686   0.0011381756   0.0009191564  -0.0003340948  -0.0018592734
       -0.0012944405   0.0007797631   0.0023549963   0.0016526517   0.0005061776
       -0.0018900799   0.0002201131  -0.0011459836   0.0013518154   0.0010536588
        0.0011971661  -0.0003232143  -0.0002688178  -0.0000806316   0.0011881526
        0.0007564522  -0.0009218010  -0.0005616884  -0.0003488888   0.0007872336
       -0.0002081585  -0.0001509291  -0.0019943213  -0.0003146697  -0.0001445490
        0.0003166658  -0.0019137804  -0.0011451500  -0.0039193473   0.0009682617
       -0.0018704937  -0.0205668085   0.0008854131  -0.0030202298  -0.0000156640
       -0.0000296357   0.0000045982  -0.0000128928   0.0000098339   0.0000093545
        0.0000023384   0.0000173096  -0.0000003001   0.0000137760   0.0000014032
        0.0000046360   0.0000397202   0.0000794565  -0.0000087865   0.0000683040
       -0.0000501353   0.0000171781   0.0000202166  -0.0000219686  -0.0000072388
        0.0000080515  -0.0000222182  -0.0000175215  -0.0000162408   0.0000381386
       -0.0000140133   0.0000367411   0.0001204004  -0.0000380845  -0.0003130690
        0.0008163722   0.0002813226  -0.0002521216  -0.0025665382   0.0005759627
       -0.0003026778  -0.0005736631  -0.0005888944   0.0000646103   0.0000528284
        0.0000223451   0.0000188315  -0.0000045724   0.0000411873   0.0000196542
       -0.0000151497   0.0000107401   0.0000808865   0.0000520073   0.0000313690
        0.0000153220   0.0000174352   0.0000003512   0.0000594192  -0.0000459677
       -0.0000166544  -0.0000355484  -0.0000244922   0.0000180853
       -0.0309167305  -0.0455761725   0.0220508001  -0.0683450630  -0.2041357849
        0.0581373919   0.0469093338   0.5453432988  -0.1556672411  -0.0298873482
       -0.0596724800   0.0043905080  -0.0345343506  -0.0168289824   0.0030395420
        0.0131450824  -0.0058584174   0.0039473043  -0.0107535451   0.0024238499
       -0.0009938975   0.0045595459   0.0081638398  -0.0021129063   0.0014927625
       -0.0013597939   0.0003895259  -0.0003706852   0.0009909870  -0.0002820598
        0.0006296445  -0.0004386354   0.0001573980  -0.0003205193   0.0002361813
       -0.0000803901   0.0002303726  -0.0003141912   0.0001142149  -0.0006421526
        0.0004008220  -0.0001500589  -0.0024754667   0.0020842292  -0.0007020196
        0.0071026070  -0.0097415805   0.0032771329   0.0015865690   0.0022282225
       -0.0004553595  -0.0008775835  -0.0006216471   0.0001241135   0.0002297465
        0.0005056807  -0.0001308205  -0.0004486155  -0.0003551834   0.0000819040
        0.0006186255   0.0006819035  -0.0001515109  -0.0001312613  -0.0013804937
        0.0003718595  -0.0122238840  -0.0039528118  -0.0000567075   0.0119289177
        0.0088425054  -0.0020412365  -0.0118241881  -0.0541876696   0.0180816933
        0.0838786957  -0.1670049240   0.0450376516   0.0136903650   0.0074001340
        0.0034922384  -0.0018612133  -0.0025302702  -0.0010847664   0.0004953030
        0.0017502522   0.0010254518  -0.0022180167  -0.0009926961  -0.0006906918
        0.0015804403  -0.0014884587  -0.0012295894  -0.0001916767   0.0017997924
        0.0013484043  -0.0007448673  -0.0019044615  -0.0008147592  -0.0055267659
        0.0009322820   0.0001518426   0.0017191006  -0.0021195009  -0.0013601360
       -0.0018745381   0.0000737429   0.0001077623  -0.0001957087  -0.0009201367
       -0.0005839498  -0.0001126362   0.0003557660   0.0002113377   0.0005655227
       -0.0000876827  -0.0000216563   0.0011755173   0.0010258940   0.0006657355
        0.0005041915   0.0010039993   0.0002479657   0.0053243494  -0.0013955465
       -0.0008452191   0.0221182117   0.0005526405   0.0015295834  -0.0000571126
        0.0000471125  -0.0000217056  -0.0000210523   0.0000697507  -0.0000294533
       -0.0000362881   0.0000189556  -0.0000088813  -0.0000716839   0.0000038082
       -0.0000016584  -0.0000456498  -0.0001445267   0.0000249170  -0.0000977242
        0.0000892298  -0.0000354521  -0.0000776020   0.0000015491   0.0000119042
       -0.0000274000  -0.0000079018   0.0000186625   0.0000324536  -0.0000602668
        0.0000278653   0.0000003602  -0.0000029277   0.0000123966   0.0003587711
       -0.0000140062  -0.0004870204  -0.0023239870  -0.0039680056   0.0022251503
       -0.0006476133   0.0001977209  -0.0002800917  -0.0000220838  -0.0000473922
        0.0000974731   0.0000312957   0.0000117814   0.0000452333  -0.0000093515
       -0.0000132201  -0.0000254057  -0.0000326697  -0.0000325759   0.0000033633
        0.0000456599  -0.0000332084  -0.0000226563  -0.0000305214   0.0000180765
       -0.0000225219   0.0000241112  -0.0000624559  -0.0000585044
        0.0118662113   0.0232088965   0.0059707545   0.0245040653   0.0560593985
       -0.0698849536   0.0207643991  -0.1556672411   0.1640258969  -0.0158900450
        0.0055021399  -0.0442496098   0.0092347807   0.0016507680   0.0018558723
       -0.0028225060   0.0034021482   0.0034540942   0.0024372782  -0.0015696978
        0.0004239323  -0.0011937438  -0.0020015350   0.0003788248  -0.0004584971
        0.0003337498  -0.0001325292   0.0001458346  -0.0002570820   0.0000683666
       -0.0001720219   0.0001326490  -0.0000377809   0.0000743136  -0.0000606678
        0.0000279187  -0.0000800786   0.0000729835  -0.0000181744   0.0001426391
       -0.0001212547   0.0000592200   0.0010802991  -0.0007116934   0.0001319821
       -0.0019257414   0.0025713507  -0.0008903990  -0.0005141926  -0.0006527118
        0.0000747898   0.0002202148   0.0001987883  -0.0000055290  -0.0000855608
       -0.0001387580   0.0000598348   0.0001225547   0.0000924144  -0.0000178509
       -0.0001754379  -0.0001956885   0.0000570602   0.0000891842   0.0003893313
       -0.0000981599   0.0027459954   0.0018813205   0.0000655740  -0.0069761003
       -0.0027417227  -0.0032873480   0.0080766845   0.0202727713  -0.0051271447
       -0.0404086229   0.0453864043  -0.0563253861  -0.0019807862   0.0008863965
       -0.0013064184  -0.0002167491  -0.0007755149  -0.0004294897  -0.0005755262
       -0.0003677524  -0.0003202483   0.0003116206   0.0001619862  -0.0000596315
       -0.0000912287   0.0001302333   0.0001260579   0.0002514050  -0.0000222298
       -0.0000302715  -0.0000468000   0.0000063285  -0.0000417747   0.0004935875
        0.0000154728   0.0004124578   0.0002964222  -0.0001544737  -0.0000947339
       -0.0000029362   0.0001335424   0.0000541050   0.0001150472  -0.0001323407
       -0.0000951934   0.0002329185   0.0000617640   0.0000174580  -0.0002380376
        0.0000202659  -0.0000101944   0.0002664853  -0.0000999530   0.0000588990
       -0.0004243423   0.0008210430   0.0005419009   0.0002600141  -0.0000899713
       -0.0003995448  -0.0090566092   0.0001664637  -0.0001484830   0.0000317449
       -0.0000074678   0.0000120840   0.0000074230  -0.0000303426   0.0000185963
        0.0000140644  -0.0000105551   0.0000090092   0.0000315594  -0.0000064518
        0.0000129022  -0.0000055661   0.0000512759  -0.0000012387   0.0000101785
       -0.0000313033   0.0000192292   0.0000321766   0.0000025890  -0.0000012599
        0.0000089230   0.0000069631   0.0000010699  -0.0000119083   0.0000328655
       -0.0000048209   0.0000218341   0.0000039555  -0.0000048449  -0.0000952102
       -0.0000149486  -0.0000340122   0.0000409707   0.0024824499   0.0053888233
       -0.0004769016  -0.0003048437  -0.0002360420   0.0000156530   0.0000222639
       -0.0000574147  -0.0000134242  -0.0000365963  -0.0000089948   0.0000146188
        0.0000244514   0.0000130271   0.0000016257   0.0000217404  -0.0000128901
       -0.0000261882   0.0000059403  -0.0000040849  -0.0000003124  -0.0000007757
        0.0000142024   0.0000023477  -0.0000095320   0.0000225090
        0.0072733132   0.0144292672  -0.0054181967  -0.0337186501  -0.0413732966
        0.0132408274  -0.3357674995  -0.0298873482  -0.0158900450   0.6670938417
       -0.0029570237   0.0466549311  -0.1010571591  -0.0498161306   0.0094499154
       -0.0424555035  -0.0301957725   0.0058199483   0.0003251393  -0.0042759908
        0.0018925246  -0.0015216139   0.0043838355  -0.0016847934   0.0020130637
       -0.0018995601   0.0005259333  -0.0000539837   0.0011205296  -0.0002929610
        0.0006953795  -0.0003579104   0.0001279242  -0.0003335366   0.0002900537
       -0.0000830865   0.0001574965  -0.0005439589   0.0001520538  -0.0010008483
        0.0003257063  -0.0001459961  -0.0006662390   0.0004485728  -0.0000792812
       -0.0029917169  -0.0073438670   0.0019709925   0.0016475219   0.0027353664
       -0.0005015306  -0.0012984669  -0.0006719930   0.0000903600   0.0001115336
        0.0006643206  -0.0001725329  -0.0003358612  -0.0004410555   0.0000841919
        0.0007246439   0.0005872229  -0.0001040221   0.0001904075  -0.0014046601
        0.0003793514  -0.0007986464   0.0034112127  -0.0017517333   0.0352713319
       -0.0056866916   0.0055658913  -0.0215205688  -0.0151685682   0.0035558074
       -0.0430594049   0.0454350791  -0.0184757949  -0.0010675154   0.0027144333
        0.0012317036  -0.0007771997   0.0004584749  -0.0000241121   0.0000095118
       -0.0001527000   0.0001188201  -0.0002147164  -0.0002289013  -0.0000332838
        0.0009039916  -0.0006693852  -0.0004654947   0.0004877397   0.0012944409
        0.0010456352  -0.0006255407  -0.0019204557  -0.0010655742   0.0003177889
        0.0017251683   0.0009188634   0.0002262775  -0.0007110865  -0.0003931246
       -0.0005636093   0.0003115687   0.0002367457   0.0000387510  -0.0008524878
       -0.0005673924   0.0010280265   0.0004409332   0.0002682222  -0.0010422093
        0.0003010673   0.0001652804   0.0014352581  -0.0000473090   0.0000494808
       -0.0004425614   0.0010455905   0.0005611266  -0.0013476662  -0.0015292487
       -0.0014331992  -0.1252488062   0.1138822749  -0.0433563630  -0.0000907857
        0.0000445866   0.0000005522  -0.0000096665   0.0000572616  -0.0000135431
       -0.0000149904   0.0000102992  -0.0000078275  -0.0000394029   0.0000036305
        0.0000028461  -0.0000581580  -0.0000586059   0.0000094401  -0.0000885940