$hessian                                                                        
        0.4751784094  -0.0052455027  -0.0215719651  -0.1922361794  -0.0287738706
       -0.0462577111  -0.0091987902  -0.0061343409  -0.0078224534   0.0020524314
       -0.0003606945  -0.0001391082  -0.0011831054  -0.0001752347  -0.0000808255
       -0.0006883350   0.0018555835   0.0023608610  -0.0016733705  -0.0000812990
        0.0000196314  -0.0000054380  -0.0004750585  -0.0002438963  -0.0000820853
        0.0000340356   0.0000579071  -0.0000079481  -0.0000313288   0.0000309825
        0.0000036107   0.0000513233   0.0000331950  -0.0000167290  -0.0001224518
       -0.0000355427   0.0000216312  -0.0000133555   0.0000076811   0.0001770089
        0.0000911578  -0.0001169552   0.0000506019   0.0003321695  -0.0000012765
        0.0001013450  -0.0000572058  -0.0000180006   0.0000283335  -0.0000906802
       -0.0000123594   0.0000410559   0.0000396787   0.0000064655  -0.0001116515
        0.0000729680  -0.0000154808  -0.0001503574  -0.0000432590   0.0000974895
        0.0000695436  -0.0000170509   0.0000084173   0.0000107715  -0.0002259848
       -0.0000045136  -0.0000476122   0.0002001738  -0.0001299905  -0.0000096066
       -0.0000116630  -0.0000342536  -0.0000401882  -0.0001912344  -0.0001494257
        0.0000029183   0.0002235312  -0.0000008736   0.0000570261  -0.0001881334
        0.0001541223   0.0000366223   0.0002091968   0.0001106454  -0.0000018018
       -0.0000082135   0.0000403497  -0.0000319463  -0.0000381773   0.0000013685
       -0.0000241153  -0.0000608180   0.0000017474   0.0000979182  -0.0000400357
       -0.0000110830   0.0000869671  -0.0000152324   0.0000139263   0.0000041323
        0.0001048280   0.0000021120  -0.0000728186  -0.0000027357  -0.0000222220
       -0.0000571903  -0.0000293600  -0.0000021110   0.0000123834  -0.0000629355
        0.0000337849   0.0000516175   0.0000173806  -0.0000065604   0.0000027586
        0.0000131247  -0.0000087369   0.0000328049   0.0000729415  -0.0000275187
        0.0000003812  -0.0000090531   0.0000079908  -0.0000506038  -0.0000595019
        0.0000184373   0.0000602820   0.0001227405  -0.0000457714  -0.0000512471
       -0.0000131737   0.0000403538  -0.0000264811   0.0000303951  -0.0000201300
        0.0000051264   0.0000014097  -0.0000070244  -0.0000164274   0.0000118234
       -0.0000074086  -0.0000175625   0.0000131169  -0.0000148638  -0.0000162314
        0.0000102888   0.0000085776   0.0000086010   0.0000010911   0.0000018326
       -0.0000056161  -0.0000093183   0.0000085533  -0.0000097195  -0.0000013754
        0.0000052890  -0.0000632784  -0.0000332489  -0.0000055658  -0.0000288570
       -0.0000180244   0.0000008874  -0.0000329227  -0.0000022419   0.0000033674
        0.0000557682   0.0000398434   0.0000048188   0.0000041202  -0.0000184105
       -0.0000054334   0.0000242279   0.0000286582   0.0000036935   0.0000880896
       -0.0000228842  -0.0000169587  -0.0000551157  -0.0000323670   0.0000066562
        0.0000423992   0.0000143577   0.0000037495  -0.0000144885  -0.0000135422
        0.0000117975   0.0000069125   0.0000011385   0.0000040553   0.0000071094
       -0.0000007812   0.0000047778   0.0000067875   0.0000090772  -0.0000098385
       -0.0000079143  -0.0000110930   0.0000056816  -0.0000191660  -0.0000051781
       -0.0000145412   0.0000249042   0.0000883567   0.0000189861   0.0000461516
        0.0000962698  -0.0000028678   0.0000722660  -0.0001317169  -0.0000402748
       -0.0000474264   0.0000387106   0.0000222440  -0.0000035112  -0.0000061735
       -0.0000021930   0.0000372010  -0.0000014783  -0.0000277765   0.0000112217
       -0.0000056740  -0.0000242070   0.0000028403  -0.0000116775  -0.0000026834
       -0.0000132836   0.0000077930   0.0000369462  -0.0000010580   0.0000057663
       -0.0000168584  -0.0000390419   0.0000157881   0.0000132326   0.0000150134
        0.0000053786   0.0000029190  -0.0000323595   0.0000340844  -0.0000029252
       -0.0000106454   0.0000131797  -0.0000192857  -0.0000007233   0.0000102197
       -0.0000113655   0.0000329119  -0.0000209767   0.0000246240  -0.0000224751
        0.0000015143   0.0000031021   0.0000125075  -0.0000380900   0.0000199367
       -0.0000113383  -0.0000523298   0.0000058283  -0.0000523168  -0.0000609458
       -0.0000070208  -0.0000492042   0.0000322266   0.0000069314  -0.0000253401
        0.0000581345   0.0000077872  -0.0000061741  -0.0002083581  -0.0000198145
       -0.0000217694   0.0002234651  -0.0000429423  -0.0000199391  -0.0000239218
       -0.0000773734  -0.0000449821  -0.0001609290  -0.0001413234   0.0000107562
        0.0001913983   0.0000169107   0.0000344997  -0.0001896939   0.0001139290
        0.0000279335   0.0002058602   0.0000757645   0.0000194506  -0.0000356281
        0.0000706027  -0.0331116809  -0.0026968554  -0.0057072858  -0.0631850515
        0.0571092769  -0.0420787628  -0.1344727173  -0.0199737800   0.1166634911
       -0.0430741311   0.0043224764   0.0054471564   0.0008718354   0.0008887966
        0.0007344429  -0.0001925258   0.0000639202  -0.0000334345   0.0001023867
        0.0000502650  -0.0000713067   0.0000095599   0.0000181338  -0.0000067196
       -0.0000063685   0.0000158430   0.0000108965  -0.0000147994   0.0000199670
        0.0000209394  -0.0000248196   0.0000023562  -0.0000042636   0.0000080552
        0.0000065962  -0.0000008262  -0.0000049668   0.0000269980   0.0000016171
       -0.0001058099  -0.0000509079   0.0001193444  -0.0000539257   0.0000952157
       -0.0000295233  -0.0000067876  -0.0000199833  -0.0000095173  -0.0000010893
        0.0000007992   0.0000011230  -0.0000023629  -0.0000004319  -0.0000022272
       -0.0000034340   0.0000020332  -0.0000022550  -0.0000060788   0.0000214567
        0.0000011407  -0.0000034482  -0.0000180254  -0.0000034696  -0.0000174731
       -0.0000000432  -0.0000000069  -0.0000166273  -0.0000106398   0.0000042781
       -0.0000014324  -0.0000051967  -0.0000049852   0.0000071305  -0.0000002727
       -0.0000025080  -0.0000021137  -0.0000043363   0.0000053941   0.0000090418
       -0.0000063040  -0.0000033255  -0.0000020518  -0.0000031955  -0.0000020088
        0.0000008050  -0.0000041400   0.0000136678   0.0000087996  -0.0000148729
       -0.0000015896   0.0000144891   0.0000090027   0.0000100251  -0.0000009771
       -0.0000236983  -0.0000062934  -0.0000149533   0.0000093791  -0.0000173471
        0.0000087499   0.0000059529   0.0000096488   0.0000073308   0.0000013431
        0.0000007180   0.0000078890  -0.0000097562  -0.0000073529   0.0000001294
       -0.0000063801   0.0000039717  -0.0000029639  -0.0000028121  -0.0000067686
       -0.0000066115  -0.0000008203   0.0000007114  -0.0000174472  -0.0000043612
        0.0000001876   0.0000037857   0.0000034681  -0.0000003899  -0.0000058804
        0.0000000399  -0.0000048369  -0.0000071757  -0.0000010070   0.0000006810
        0.0000014894  -0.0000057819   0.0000005059  -0.0000017975   0.0000054447
        0.0000024202   0.0000012276   0.0000039756  -0.0000009463   0.0000034007
        0.0000034706   0.0000016140  -0.0000132423  -0.0000026736   0.0000043758
       -0.0000089186  -0.0000042872   0.0000052503  -0.0000056863   0.0000106262
        0.0000055420   0.0000015595   0.0000107415  -0.0000019552  -0.0000035703
       -0.0000024106  -0.0000069916   0.0000060339   0.0000052533   0.0000008461
        0.0000043117  -0.0000004496   0.0000050090   0.0000098476  -0.0000061907
        0.0000052078   0.0000069193  -0.0000073444  -0.0000068818  -0.0000004606
       -0.0000085610   0.0000098373  -0.0000094884  -0.0000035966   0.0000059600
        0.0000042812   0.0000025403  -0.0000041836  -0.0000042787   0.0000066713
        0.0000041929  -0.0000030441  -0.0000063587  -0.0000031432   0.0000023982
        0.0000104043  -0.0000028482   0.0000030508   0.0000204955   0.0000005953
       -0.0000001586   0.0000010481  -0.0000037311  -0.0000003885   0.0000034145
       -0.0000010468  -0.0000005288   0.0000022116   0.0000046893   0.0009918944
       -0.0007906784  -0.0013283891
       -0.0052455027   0.5039576676   0.0175546428  -0.0341269194  -0.0695785508
       -0.0151287289  -0.0173704298  -0.0048931364  -0.0093286772   0.0000067234
        0.0022923653  -0.0058519894   0.0000701870  -0.0001545182  -0.0000043196
        0.0006085130   0.0041683937  -0.0041153169   0.0010283151  -0.0000064134
       -0.0001060635   0.0000058772   0.0000449936   0.0000926015   0.0000273496
        0.0000268576  -0.0000104424  -0.0000142759  -0.0000464077  -0.0000033326
        0.0000113969  -0.0000033444  -0.0000312457  -0.0000113249   0.0000043728
        0.0000600488  -0.0000576777   0.0000487072   0.0000022522  -0.0000367933
       -0.0000428290   0.0000401776  -0.0000434717  -0.0001702001  -0.0000032526
        0.0000683248   0.0000277611   0.0000132378  -0.0000777455  -0.0000432172
        0.0000187041   0.0000173287   0.0000041900  -0.0000028048  -0.0000076264
       -0.0000298986   0.0000063700   0.0001231543   0.0000164554  -0.0000383204
        0.0000143242  -0.0000034226   0.0000051524  -0.0000001743  -0.0000078004
        0.0000003949  -0.0000057552   0.0000014287  -0.0000217180   0.0000024880
        0.0000066886   0.0000133707  -0.0000022952  -0.0000054623  -0.0000026293
       -0.0000028998   0.0000050221  -0.0000021114  -0.0000008133  -0.0000061003
        0.0000033610   0.0000077434   0.0000052195   0.0000197745  -0.0000015674
        0.0000046687  -0.0000137077  -0.0000034489   0.0000064362   0.0000022908
       -0.0000015222   0.0000025892  -0.0000009408   0.0000102804  -0.0000059797
       -0.0000003374   0.0000077177   0.0000041042   0.0000013295   0.0000070711
       -0.0000057306   0.0000030368  -0.0000176340  -0.0000083631   0.0000000087
        0.0000085072  -0.0000059000  -0.0000037661  -0.0000371979   0.0000160524
       -0.0000010709  -0.0000177301   0.0000030116   0.0000053845  -0.0000232031
        0.0000097579   0.0000016402   0.0000461981  -0.0000075770  -0.0000016797
        0.0000061801   0.0000091093  -0.0000028432   0.0000098022  -0.0000473252
        0.0000089208   0.0000650600   0.0000579570  -0.0000250842  -0.0000618313
        0.0000079451   0.0000176395   0.0000691772  -0.0000287981   0.0000006935
       -0.0000036486   0.0000040444   0.0000173378   0.0000216546  -0.0000071493
       -0.0000142227   0.0000163193   0.0000051053   0.0000054959   0.0000232988
       -0.0000092776  -0.0000173893   0.0000111388   0.0000141434   0.0000272888
       -0.0000041868  -0.0000042850  -0.0000122004   0.0000031630  -0.0000048516
       -0.0000036571   0.0000105444  -0.0000105483  -0.0000047302  -0.0000005856
        0.0000073548   0.0000024115   0.0000135641   0.0000054777   0.0000008066
       -0.0000234299   0.0000028105   0.0000035442  -0.0000000020   0.0000045708
        0.0000018969   0.0000045527  -0.0000225141  -0.0000054240  -0.0000123364
        0.0000207741   0.0000089444   0.0000125106   0.0000105564  -0.0000005658
       -0.0000034133   0.0000001799  -0.0000007992   0.0000037783   0.0000014837
        0.0000001882   0.0000007150   0.0000002396  -0.0000014013  -0.0000017915
        0.0000008334   0.0000007087   0.0000000535  -0.0000006378   0.0000008804
        0.0000014262   0.0000004610  -0.0000000377   0.0000044306   0.0000003699
        0.0000003622   0.0000127940  -0.0000327141  -0.0000076264  -0.0000124254
        0.0000096668   0.0000026701   0.0000158948  -0.0000130844  -0.0000013669
        0.0000074842  -0.0000060007  -0.0000053304   0.0000008790   0.0000281370
       -0.0000084215   0.0000007467  -0.0000062667   0.0000034154   0.0000000954
        0.0000058711  -0.0000009742  -0.0000006107   0.0000002471   0.0000000882
        0.0000016615   0.0000042853  -0.0000053603  -0.0000001796  -0.0000025736
        0.0000031781  -0.0000007923  -0.0000072037  -0.0000003846  -0.0000266262
       -0.0000120934   0.0000142447   0.0000064681   0.0000028708  -0.0000034612
       -0.0000044114  -0.0000028276   0.0000031280   0.0000020936  -0.0000001630
        0.0000008764  -0.0000076732   0.0000004827  -0.0000000692   0.0000043460
       -0.0000000686  -0.0000006913   0.0000042435   0.0000037662  -0.0000053097
       -0.0000097723   0.0000056289   0.0000035531   0.0000178934  -0.0000090633
       -0.0000019343  -0.0000074661   0.0000068619   0.0000012464  -0.0000202181
       -0.0000011633  -0.0000010560  -0.0000003265  -0.0000348028  -0.0000030447
       -0.0000095847   0.0000372932  -0.0000379768   0.0000007596  -0.0000003283
        0.0000069533  -0.0000116164  -0.0000255761  -0.0000288002   0.0000009747
        0.0000386425   0.0000026819   0.0000080750  -0.0000313041   0.0000233904
        0.0000156326   0.0000296334   0.0000450194  -0.0000027558   0.0000025406
       -0.0000094108   0.0087111907   0.0023560192   0.0016667684   0.0612528008
       -0.1765239912   0.1012147828  -0.0193331518  -0.0470737091   0.0210914943
        0.0049992201  -0.2113435826  -0.1108923519  -0.0008153134  -0.0008975971
        0.0017057086  -0.0009066800  -0.0003813253  -0.0003372101  -0.0000392309
       -0.0008527323   0.0007796901   0.0000131654   0.0000125519  -0.0000087388
        0.0000130891   0.0000068314  -0.0000116274   0.0000101058  -0.0000017557
       -0.0000142010   0.0000267360   0.0000057536  -0.0000117644   0.0000092679
       -0.0000044903  -0.0000086289   0.0000168171  -0.0000057347  -0.0000016745
       -0.0000178265   0.0000408276  -0.0000459355  -0.0000094599  -0.0000146537
        0.0000092985  -0.0000050637   0.0000059979   0.0000058624   0.0000002395
        0.0000003909  -0.0000000382   0.0000002709   0.0000015074   0.0000007289
        0.0000005136   0.0000007225   0.0000000225  -0.0000000131  -0.0000015776
       -0.0000020581  -0.0000015105   0.0000049885   0.0000004661   0.0000012669
       -0.0000013254   0.0000004632   0.0000004420   0.0000033717  -0.0000011082
       -0.0000011633   0.0000024023   0.0000021073  -0.0000062190   0.0000008363
        0.0000005752  -0.0000014123   0.0000004557  -0.0000004799  -0.0000111351
        0.0000072357   0.0000003548  -0.0000092582   0.0000041390   0.0000077800
       -0.0000132823   0.0000045326  -0.0000005166  -0.0000206759   0.0000103072
       -0.0000046471   0.0000049592   0.0000052879  -0.0000018016  -0.0000062219
       -0.0000116393   0.0000031311  -0.0000244489   0.0000102347   0.0000016661
       -0.0000007670   0.0000009772  -0.0000031452  -0.0000024946  -0.0000004192
       -0.0000003051  -0.0000026885   0.0000017308   0.0000014462   0.0000003077
        0.0000021841  -0.0000003639   0.0000019728   0.0000014619   0.0000016400
       -0.0000006549  -0.0000009325   0.0000000211   0.0000026437  -0.0000004514
        0.0000000723  -0.0000006753  -0.0000005105   0.0000004943  -0.0000001299
        0.0000000190   0.0000001893   0.0000003696  -0.0000007804  -0.0000002292
       -0.0000003777   0.0000011824  -0.0000001613  -0.0000006530  -0.0000002951
       -0.0000001592  -0.0000004121  -0.0000002503   0.0000001356  -0.0000002658
       -0.0000001449  -0.0000013429  -0.0000002051   0.0000005989  -0.0000003785
        0.0000007788   0.0000010151  -0.0000025305   0.0000004202  -0.0000009838
       -0.0000017727  -0.0000000248  -0.0000007007  -0.0000000027   0.0000008571
        0.0000001150   0.0000000263  -0.0000005304  -0.0000001380  -0.0000006065
       -0.0000003224   0.0000004889  -0.0000010277  -0.0000008269   0.0000027548
       -0.0000008075  -0.0000015480   0.0000010058  -0.0000003235  -0.0000008131
        0.0000016555  -0.0000024690   0.0000016023   0.0000011130  -0.0000018754
       -0.0000002540  -0.0000000906  -0.0000000545   0.0000003774  -0.0000007531
       -0.0000012588   0.0000003426   0.0000015275  -0.0000000379  -0.0000013522
       -0.0000011831  -0.0000001727  -0.0000001678  -0.0000018981  -0.0000021537
        0.0000009330   0.0000000681   0.0000009638   0.0000001122  -0.0000006730
       -0.0000008093   0.0000003464  -0.0000001819  -0.0000020897   0.0010488627
       -0.0010184059   0.0017016560
       -0.0215719651   0.0175546428   0.5058093230  -0.0457012548  -0.0137853027
       -0.0809480956  -0.0226346608  -0.0082094521  -0.0113622849   0.0006493539
       -0.0052988089  -0.0009316814  -0.0003797847   0.0002523998   0.0001784865
        0.0023323633  -0.0051656621   0.0017871707   0.0003432480   0.0003672186
        0.0001889530   0.0000009002   0.0001425128  -0.0000205044   0.0000081812
       -0.0000114423  -0.0000045866   0.0000109867   0.0000379340  -0.0000016200
       -0.0000147713  -0.0000056780   0.0000201489   0.0000252771  -0.0000250290
       -0.0000419160  -0.0000084848  -0.0000149529  -0.0000317512  -0.0000260657
        0.0000565913  -0.0000454371   0.0000924328  -0.0000828928  -0.0000467586
       -0.0000014483  -0.0000019087   0.0000436182   0.0000208370  -0.0000585631
       -0.0000012391  -0.0000281262  -0.0000130467   0.0000076047  -0.0000401797
        0.0000088743   0.0000080519   0.0000376974   0.0000375429  -0.0000212536
       -0.0000244729  -0.0000255243  -0.0000004653  -0.0000006984   0.0000400134
       -0.0000038400   0.0000135990  -0.0000561604   0.0000217530   0.0000055433
        0.0000173438   0.0000203408   0.0000094941   0.0000303967   0.0000254627
        0.0000016822  -0.0000428886   0.0000011861  -0.0000145309   0.0000345021
       -0.0000326522  -0.0000197927  -0.0000362350  -0.0000647612   0.0000023588
       -0.0000065925   0.0000260280   0.0000813757   0.0000204181  -0.0000058807
       -0.0000404100   0.0000078130  -0.0000013573  -0.0000069209   0.0000461110
        0.0000075085  -0.0000308005  -0.0000107762  -0.0000151928   0.0000074253
       -0.0000116098   0.0000026516   0.0000239380  -0.0000012233   0.0000083792
        0.0000011516   0.0000063020  -0.0000060705  -0.0000058588   0.0000029330
        0.0000043145   0.0000106489   0.0000076610  -0.0000037771   0.0000028869
        0.0000001007  -0.0000006465   0.0000026968   0.0000112608  -0.0000049978
       -0.0000013002  -0.0000074362   0.0000026922  -0.0000065574  -0.0000037267
        0.0000032953   0.0000409588   0.0000289933  -0.0000168873  -0.0000126627
        0.0000074310   0.0000192706  -0.0000299860   0.0000153997  -0.0000263874
       -0.0000083355   0.0000054691  -0.0000045634  -0.0000129780   0.0000007256
       -0.0000158819  -0.0000045052  -0.0000030768  -0.0000103551   0.0000058785
       -0.0000063119  -0.0000507622   0.0000037569  -0.0000077128   0.0000068344
       -0.0000090973  -0.0000089030   0.0000138495  -0.0000131197   0.0000065561
        0.0000027660  -0.0000080833   0.0000389242   0.0000206865   0.0000231528
       -0.0000170761  -0.0000074804  -0.0000138949  -0.0000109749  -0.0000024283
        0.0000397526  -0.0000188723  -0.0000115955  -0.0000002116  -0.0000066572
       -0.0000015511  -0.0000195607   0.0000446829   0.0000150604   0.0000097863
       -0.0000469535  -0.0000182506  -0.0000214603  -0.0000167469   0.0000021696
       -0.0000013130  -0.0000024699  -0.0000006361  -0.0000043420  -0.0000022942
       -0.0000021978  -0.0000005874  -0.0000003041   0.0000012535   0.0000006380
        0.0000004000  -0.0000004426  -0.0000009232   0.0000014346  -0.0000004975
       -0.0000007239  -0.0000013813  -0.0000003971  -0.0000048466  -0.0000000853
        0.0000017379  -0.0000360535   0.0000557681   0.0000122519   0.0000182907
       -0.0000397019  -0.0000109254  -0.0000168071   0.0000333338   0.0000054310
       -0.0000210756   0.0000145469   0.0000081552  -0.0000026906  -0.0000400596
        0.0000084807  -0.0000021640   0.0000083113  -0.0000029762  -0.0000011561
       -0.0000077603   0.0000019333   0.0000008886   0.0000009477  -0.0000010949
       -0.0000000169  -0.0000076944   0.0000034953   0.0000019975   0.0000006498
       -0.0000045657   0.0000022061   0.0000098538  -0.0000020246   0.0000386013
        0.0000191978  -0.0000169555  -0.0000070649  -0.0000077014   0.0000062031
        0.0000071835   0.0000035497  -0.0000048757  -0.0000036813   0.0000002985
        0.0000005225   0.0000101582   0.0000011583  -0.0000017655  -0.0000056196
       -0.0000004771   0.0000000423  -0.0000095910  -0.0000015121   0.0000059881
        0.0000249958  -0.0000095972  -0.0000034471  -0.0000375428   0.0000394999
        0.0000091435   0.0000357544  -0.0000346214  -0.0000044839   0.0000450589
        0.0000073569   0.0000011265   0.0000006950   0.0001109408   0.0000077459
        0.0000287270  -0.0001290192   0.0000896552   0.0000010744   0.0000083752
        0.0000036985   0.0000356807   0.0000835996   0.0000918316  -0.0000066030
       -0.0001254814  -0.0000091333  -0.0000282628   0.0001019667  -0.0000773354
       -0.0000433335  -0.0000999036  -0.0001197751   0.0000018945   0.0000012670
        0.0000099527   0.0095136916   0.0011538104   0.0050416141  -0.0442565813
        0.0993548054  -0.1165249057   0.1175207016   0.0208705752  -0.1851803008
        0.0050863091  -0.1112216885  -0.1166763001  -0.0011051271   0.0014992037
       -0.0000589811  -0.0011148641  -0.0003240650  -0.0005295816   0.0000196788
        0.0008274376  -0.0004725560  -0.0000131255  -0.0000027847   0.0000136263
       -0.0000048067  -0.0000014443   0.0000097187  -0.0000004535  -0.0000013893
        0.0000131634  -0.0000014693  -0.0000173921   0.0000381591  -0.0000155014
        0.0000021990   0.0000088096  -0.0000021318  -0.0000072973   0.0000041510
        0.0000122014   0.0000078902   0.0000436234  -0.0000154535  -0.0000066008
       -0.0000400879  -0.0000036816  -0.0000015683  -0.0000004863   0.0000026126
        0.0000009545   0.0000010265   0.0000019986  -0.0000000225   0.0000013870
        0.0000017404   0.0000020952   0.0000010562  -0.0000011242   0.0000015644
        0.0000015880   0.0000010509  -0.0000040199  -0.0000006405  -0.0000037236
        0.0000011635   0.0000004524  -0.0000022737  -0.0000011971   0.0000012942
        0.0000012965  -0.0000009459  -0.0000016475   0.0000025546   0.0000006410
       -0.0000013185  -0.0000016464  -0.0000002038   0.0000026050   0.0000056365
       -0.0000035923  -0.0000025701  -0.0000025243   0.0000010383   0.0000099554
        0.0000086963  -0.0000049412   0.0000241981   0.0000059022  -0.0000019958
        0.0000021598   0.0000152428   0.0000189003   0.0000168293  -0.0000040520
       -0.0000123372   0.0000103666  -0.0000260648   0.0000176878  -0.0000010143
        0.0000139764   0.0000064980   0.0000110222  -0.0000004003   0.0000006567
       -0.0000004451   0.0000017057   0.0000013174  -0.0000000543   0.0000001286
       -0.0000022771   0.0000004034  -0.0000018351  -0.0000022739  -0.0000005495
       -0.0000005194  -0.0000002339   0.0000005118  -0.0000033443   0.0000018254
        0.0000009392   0.0000014937   0.0000009904  -0.0000005955  -0.0000001984
       -0.0000003567   0.0000012799  -0.0000011626  -0.0000006865   0.0000005179
        0.0000010834  -0.0000010565   0.0000005132   0.0000000543   0.0000007709
        0.0000009039   0.0000000147   0.0000002202   0.0000004292   0.0000017786
        0.0000005458   0.0000027984  -0.0000017214  -0.0000030542   0.0000003817
       -0.0000016504  -0.0000006605   0.0000046613  -0.0000013659   0.0000021068
        0.0000011298   0.0000001247   0.0000017445   0.0000001785  -0.0000013914
       -0.0000009276  -0.0000008250   0.0000003009  -0.0000001035   0.0000006671
        0.0000000037   0.0000005291   0.0000020304   0.0000014686  -0.0000031861
       -0.0000006333   0.0000037515  -0.0000013874   0.0000008860   0.0000004519
       -0.0000015472   0.0000040175  -0.0000029145  -0.0000012645   0.0000019346
        0.0000011254  -0.0000001176   0.0000002936  -0.0000004146   0.0000012935
        0.0000015852  -0.0000005120  -0.0000017799   0.0000003541   0.0000015797
        0.0000005582  -0.0000013545   0.0000011414   0.0000014455   0.0000021179
       -0.0000008970   0.0000020945  -0.0000049658   0.0000001953   0.0000060175
        0.0000011377   0.0000022145   0.0000023627   0.0000058546   0.0012461945
        0.0020385070  -0.0002823308
       -0.1922361794  -0.0341269194  -0.0457012548   0.6350269578  -0.0188873592
       -0.0023274148  -0.0931831258  -0.0378804307  -0.0510824564   0.0133836411
       -0.0189214678  -0.0244292145  -0.0057683494   0.0137651670   0.0178652687
       -0.0652983985  -0.0045354188  -0.0103056926   0.0004224427  -0.0038504625
       -0.0023598361   0.0002292634   0.0010680175   0.0010096371   0.0001868314
       -0.0002203659  -0.0000605084  -0.0000270876   0.0000248308   0.0000342139
        0.0000973364  -0.0001127350  -0.0002768740   0.0000107552   0.0005545928
        0.0002736819  -0.0000423010  -0.0000834701   0.0000170853   0.0000254009
       -0.0010395612   0.0000714767  -0.0029125160   0.0001753204  -0.0004034785
       -0.0000813648   0.0001700098   0.0002502081  -0.0001653874   0.0000457799
        0.0001611598  -0.0001398237  -0.0002189432  -0.0000258296  -0.0000560470
        0.0000187271   0.0000052448   0.0001553302  -0.0003485639  -0.0000440004
       -0.0001683585  -0.0001319628   0.0000281228   0.0000053584   0.0001524522
        0.0000423793  -0.0000113253  -0.0002988168  -0.0000663922   0.0000139942
        0.0000831558   0.0001709426   0.0000243616   0.0002514550   0.0001494302
       -0.0000179532  -0.0002022867  -0.0000323910  -0.0000367783   0.0002160173
       -0.0001031647   0.0000308299  -0.0003207241   0.0000697111  -0.0000210658
        0.0000758269  -0.0001864210   0.0001469919   0.0001529783   0.0000099164
       -0.0000502959   0.0000504940  -0.0000112142  -0.0000428991   0.0001020060
        0.0000250212  -0.0000848842   0.0000197496  -0.0000180311   0.0001788060
       -0.0000746920   0.0000150212  -0.0002034138  -0.0000580127   0.0000044545
        0.0002475857   0.0000508744  -0.0000484096  -0.0001786085   0.0000647151
       -0.0000232872  -0.0000376342   0.0000473430   0.0000265214  -0.0000887621
        0.0000394936   0.0000168397   0.0001666237  -0.0000568775   0.0000120216
       -0.0000057481   0.0000304169  -0.0000196260   0.0000187392  -0.0001245095
        0.0000074325   0.0002572806   0.0001382823  -0.0000795879  -0.0001173351
       -0.0001223541   0.0000461265  -0.0000291246  -0.0000391687   0.0000019503
       -0.0000183433   0.0000331849   0.0000508197   0.0000333314  -0.0000114598
        0.0000372007   0.0000368587  -0.0000292713   0.0000238905   0.0000326211
       -0.0000107569  -0.0000296389  -0.0000507999   0.0000227684   0.0000178807
       -0.0000281789   0.0000440569  -0.0000756814   0.0000712040   0.0000050217
       -0.0000225931   0.0000648856  -0.0000077771  -0.0000203447   0.0000452036
        0.0000230333   0.0000024530   0.0000960805   0.0000317617   0.0000023368
       -0.0001330892  -0.0000298143   0.0000137510  -0.0000073026   0.0000377241
        0.0000111700  -0.0000140854  -0.0001118505  -0.0000312278  -0.0001030911
        0.0000871890   0.0000381674   0.0000891760   0.0000675093  -0.0000123620
       -0.0000787290  -0.0000226378  -0.0000023097   0.0000310997   0.0000287041
       -0.0000122927  -0.0000045073   0.0000033339  -0.0000068878  -0.0000004194
       -0.0000046226  -0.0000005238  -0.0000015271  -0.0000143779   0.0000090962
        0.0000110149   0.0000169830  -0.0000047034   0.0000372289   0.0000038364
        0.0000174307  -0.0000017914  -0.0001867091  -0.0000335761  -0.0000811600
       -0.0000412941   0.0000402100  -0.0001534868   0.0001334577   0.0000435622
        0.0001103223  -0.0001026961  -0.0000430469   0.0000100205   0.0000307716
        0.0000166665  -0.0000495814  -0.0000094568   0.0000335679  -0.0000134926
        0.0000124039   0.0000371550  -0.0000037178   0.0000072361   0.0000087923
        0.0000149324  -0.0000028430  -0.0000504929   0.0000024351  -0.0000065007
        0.0000341282   0.0000578494  -0.0000416171  -0.0000049934  -0.0000359975
       -0.0000149549  -0.0000180444   0.0000473451  -0.0000399499  -0.0000116856
        0.0000141833  -0.0000227944   0.0000368989   0.0000137683  -0.0000090843
        0.0000110238  -0.0000471468   0.0000303112  -0.0000318301   0.0000421345
        0.0000032974  -0.0000001670  -0.0000067758   0.0000572393  -0.0000223469
        0.0000409478   0.0000586569  -0.0000232497   0.0001330961   0.0001133619
        0.0000094769   0.0000166487   0.0000054569   0.0000038634  -0.0000729482
       -0.0001076150  -0.0000083672   0.0000070508   0.0002950056   0.0000267340
        0.0000155807  -0.0003542352  -0.0000102140   0.0000341549   0.0000497090
        0.0001656575   0.0000453366   0.0002596973   0.0001833183  -0.0000062100
       -0.0002526560  -0.0000194384  -0.0000281598   0.0002914998  -0.0001400832
       -0.0000051115  -0.0003461405  -0.0000385943  -0.0000490418   0.0000825390
       -0.0001554814  -0.2428020586   0.0953069975   0.1164057577  -0.0172362527
        0.0014828424  -0.0090206881  -0.0255464393  -0.0029294912  -0.0035985695
       -0.0018609817  -0.0026684697  -0.0042707149   0.0002714919   0.0146465430
        0.0196502284  -0.0047717981  -0.0016367739  -0.0024642249   0.0005595539
        0.0001568074   0.0006841482   0.0000149188   0.0000368268  -0.0000619448
        0.0000208956  -0.0000135677  -0.0000557216  -0.0000052695  -0.0000352257
       -0.0000625242   0.0000694968   0.0000293145   0.0000087765  -0.0000078125
       -0.0000257447   0.0000120862   0.0000181780  -0.0000368096  -0.0000247883
       -0.0000391143   0.0002064419  -0.0002129480  -0.0001687372  -0.0001128834
        0.0000488037   0.0000408452  -0.0000754856   0.0000517385  -0.0000022959
       -0.0000059332   0.0000014637  -0.0000030909   0.0000041508  -0.0000020395
       -0.0000016870  -0.0000077755  -0.0000000725  -0.0000022731  -0.0000212119
       -0.0000042824  -0.0000030717   0.0000290278   0.0000059966   0.0000207314
       -0.0000131980   0.0000026724   0.0000161539  -0.0000107218  -0.0000169206
       -0.0000023150   0.0000040951   0.0000144004  -0.0000098179  -0.0000037896
        0.0000009870   0.0000087435  -0.0000077405  -0.0000057346  -0.0000200523