164
 energy: -256.989851208622 gnorm: 0.000058929706 xtb: 6.7.1 (edcfbbe)
C           12.07098574463446        1.08298438952099       -0.48171136014381
C           10.69726913402418        0.75977334717415       -0.98802259058243
C           10.52808721828394       -0.07612443262679       -2.08756130248249
C            9.25772555772274       -0.38990771672892       -2.53861730145337
C            8.14077513594185        0.12162814067540       -1.90719118564645
C            8.29198040203610        0.95774495144939       -0.80150295471866
N            7.16886024934930        1.48092077334506       -0.14877861005904
C            7.18731592360274        2.78932964038014        0.34502980085457
C            6.55071696347061        3.10584348457495        1.54533202202760
C            6.57529978630771        4.40500305606921        2.01370602744951
C            7.23193454028362        5.39796068739174        1.30761728788459
C            7.87756678553469        5.09892240062357        0.11167087635033
C            8.57191199718040        6.17552557984056       -0.66720366204137
C            7.84468406333584        3.79733665125504       -0.36076439163135
C            6.03451170685045        0.68359347370414        0.02952403658446
C            6.16994868196524       -0.67924830464283        0.28643996204460
C            5.03750676227375       -1.47669112356898        0.44489835769465
C            3.74215655404411       -0.91812890268523        0.38118487624014
C            3.63310278266936        0.46869118524135        0.15037617192575
C            4.76604097371529        1.25309365001032       -0.05286656350794
N            2.37550314756883        1.05536964570131        0.10602221072356
C            2.32401046680757        2.46955810048539        0.06143181300397
C            1.94754749376759        3.17687636387132       -1.08858405119322
F            1.61303760676654        2.46950112844577       -2.19537429191124
C            1.90400695062446        4.55158548922769       -1.13594989921623
C            2.25215126694733        5.28416572861941       -0.00598316535609
C            2.63507509467722        4.62527387397077        1.15713477855373
C            2.66562387582216        3.24966030096332        1.17464468940529
F            3.04309107120485        2.61239360136751        2.30857659558029
C            1.19030922515070        0.34462457230956        0.10879359321165
C           -0.01607793345093        1.03672377975430        0.05309918233209
C           -1.23860938994453        0.37673167587306       -0.03162382094505
C           -1.26482683568677       -1.03664268438050       -0.20050790210964
C           -0.04852816061122       -1.69528644715490       -0.01311168948638
C            1.18250785674771       -1.07561061305893        0.20822463747111
B            2.51015582130130       -1.78902395784353        0.52039580549607
C            2.79017407389972       -3.24399165613168        0.94316691911218
C            1.82176224546648       -4.17442104887340        1.34780509622224
C            2.12923888060845       -5.47453925275432        1.67884481829991
C            3.45026197491434       -5.92231808201847        1.62652207413480
C            3.78345285028407       -7.34333192834943        1.96655304553948
C            4.43666531502360       -5.02048927359707        1.27712036756641
C            4.13588485072892       -3.68987607037626        0.95887215228354
N            5.18066764139898       -2.82854717695857        0.67101489199435
C            6.50815333276419       -3.35754253088758        0.64919217388607
C            7.27169483971520       -3.38142783052571        1.80840335346180
C            8.56082247984194       -3.88371942643439        1.75969892030489
C            9.08134514587433       -4.35583080596197        0.56823544967805
C            8.32366424457479       -4.33853161296723       -0.59858573855890
C            8.89149493180202       -4.86963977805778       -1.87881528011675
C            7.03209757173914       -3.83302001445073       -0.54510955617268
B           -2.61050180258699       -1.70288952190313       -0.53856051813994
C           -2.92712877749672       -3.12969856108860       -1.02607033416251
C           -1.98329933924506       -4.06165873365956       -1.48196762635914
C           -2.32263796445485       -5.33904093928587       -1.86608553467223
C           -3.65275224888464       -5.75997790764204       -1.81980637236437
C           -4.01944774787850       -7.15848873277996       -2.21428432382065
C           -4.61600736242086       -4.85284958092873       -1.42267421932136
C           -4.28265060054618       -3.54449036759351       -1.04940655691592
N           -5.30511674593201       -2.67369848360293       -0.71426236016400
C           -6.64494866788393       -3.17100517758878       -0.70861944264641
C           -7.41552377811046       -3.11911192219191       -1.86232365465164
C           -8.71752765389743       -3.58819225116864       -1.82837797934804
C           -9.24352225287403       -4.10298977306582       -0.65713240797258
C           -8.47868590075041       -4.16240662380420        0.50357414786016
C           -9.05219454029016       -4.74034489124867        1.76070351427890
C           -7.17426155225327       -3.68938366982151        0.46522099824682
C           -5.12918933633946       -1.33722020247570       -0.42766863454638
C           -6.24185957400584       -0.52282809111743       -0.22226474492812
C           -6.07293022593834        0.82350002900739        0.09411241082622
N           -7.18723289778280        1.63909684244799        0.31415662872747
C           -7.17962149537318        2.96471251440984       -0.13233098660004
C           -7.79941122880091        3.96692610828775        0.61500526622068
C           -7.77811166333259        5.27227067408364        0.16476793833195
C           -7.14092064260743        5.59963275040565       -1.02025961438886
C           -6.51901825620420        4.61333795123909       -1.77845338247091
C           -5.85893195720585        4.94736005432903       -3.08238874991765
C           -6.54663192608141        3.30310280655013       -1.32802039744706
C           -8.31477487982980        1.11684799023830        0.95858451181187
C           -8.17099030261475        0.23088577968964        2.02542333901249
C           -9.29264089730893       -0.28432995415402        2.64605788436254
C          -10.55971235609539        0.07369033960911        2.22111290369513
C          -10.72161395322637        0.95994291879647        1.15971435073154
C          -12.09621503872111        1.34827330361286        0.70433013328200
C           -9.59599934910817        1.47082888087799        0.53570169078694
C           -4.79136141821118        1.35970954376342        0.19339922919737
C           -3.67805273293682        0.56010538844672       -0.05373422659418
C           -3.82095448814476       -0.81137689782731       -0.34937327040091
N           -2.40651956756263        1.11422307842014        0.01088302556682
C           -2.32170374197255        2.52139423521688        0.13888774064168
C           -2.66079567098938        3.37525679194431       -0.91924707721155
F           -3.06552268535553        2.81657888193619       -2.08523880501374
C           -2.60354528045383        4.74631583296577       -0.81777729594883
C           -2.19440424035540        5.32421664340151        0.37877417489592
C           -1.84703886732524        4.51675831034756        1.45676848474515
C           -1.91773124068588        3.14866285733188        1.32525865616342
F           -1.58464722376262        2.36713109383841        2.38150847903247
C            9.57535524572090        1.26561008909232       -0.35180706055095
H           12.44100462511389        0.26455649875304        0.13685205478258
H           12.76480945903499        1.21669312136912       -1.30906560349296
H           12.06013029784232        1.98706212309221        0.12222733867747
H           11.39476705047069       -0.47815930166571       -2.59148953952066
H            9.13478067343360       -1.03074448449151       -3.39953616942550
H            7.14968931102786       -0.11310158682046       -2.26622021594604
H            6.04448700236606        2.33299040763920        2.10483368683758
H            6.08442646026495        4.64005911838886        2.94708184556610
H            7.24757606543997        6.40963020254779        1.68563177134026
H            9.28713932360498        5.74965312813606       -1.36657232133518
H            7.84157970847564        6.75314388035177       -1.23485470410250
H            9.09171805153080        6.85890451051028        0.00105673999422
H            8.33163206699743        3.55146966423240       -1.29383824895071
H            7.16053146320880       -1.09903758627712        0.35457820501374
H            4.68388736766764        2.30418967287455       -0.28516484032970
H            1.60441661673555        5.03695223610800       -2.05069007755289
H            2.22332978032988        6.35994463694277       -0.03147732792074
H            2.90631620702830        5.16964486372178        2.04671252486011
H           -0.00308220213709        2.11545464343689        0.07838456106674
H           -0.06105308807607       -2.77050267208155       -0.04032590208062
H            0.79532955906755       -3.85136761348598        1.41990660756715
H            1.34628422952968       -6.15730000374986        1.97863050772132
H            3.22351099585278       -8.02641524961163        1.32836580740136
H            4.84592937825575       -7.53673011102544        1.83950679521425
H            3.51118726337885       -7.55829081491175        3.00001914114864
H            5.46340697307304       -5.35466291535302        1.26250728917740
H            6.85303100225962       -3.00828913197523        2.73124882384799
H            9.16078329963981       -3.90437871248614        2.65750309793549
H           10.08859089738442       -4.74509330088631        0.53972543069962
H            8.25418433466275       -4.61708690605003       -2.72196065920778
H            8.97941606247983       -5.95489244291749       -1.82583291838432
H            9.88623489301475       -4.46339492096186       -2.05177518869486
H            6.41864457850367       -3.80384124385837       -1.43413510403260
H           -0.95079593211695       -3.75756117944889       -1.55059129657098
H           -1.55801860931574       -6.02504774539403       -2.20335602393957
H           -3.48680641205152       -7.87812221427505       -1.59290530194022
H           -3.73884046197839       -7.34517095040603       -3.25087763232460
H           -5.08825445078511       -7.32735982773185       -2.10688564566632
H           -5.64996173820380       -5.16437570160405       -1.41332910262125
H           -6.99246025685853       -2.71294563269734       -2.76906700784292
H           -9.32345062597587       -3.54913730531256       -2.72151267446944
H          -10.26094459308537       -4.46549785153376       -0.64001150964978
H           -9.14489900945268       -5.82233446331987        1.66441821611621
H          -10.04511872709632       -4.33619360319091        1.94791703766691
H           -8.41518803063315       -4.52516682879043        2.61441001870848
H           -6.55525729311093       -3.71853382908502        1.35045466468140
H           -7.24250242390791       -0.91635178874988       -0.29876283167093
H           -8.28578558630572        3.71486200508373        1.54577077490665
H           -8.25506123266909        6.04481210259506        0.75053300322038
H           -7.12773240623542        6.62486305292454       -1.35994761900381
H           -6.57122114586858        4.82682789611869       -3.89957733259981
H           -5.51160302173613        5.97790228656379       -3.08861463771120
H           -5.01941241612949        4.28229914115381       -3.27112704545410
H           -6.07128631558702        2.52733512905082       -1.91168348122134
H           -7.18180026869650       -0.04147289286762        2.36255007993563
H           -9.17480608061302       -0.96579507729282        3.47590236598352
H          -11.43065126835102       -0.33272119739605        2.71404301471680
H          -12.05107065278428        1.96566464916541       -0.18915429703988
H          -12.60626666026089        1.90874533498647        1.48763519936407
H          -12.69079176900598        0.46155298079561        0.48963044211279
H           -9.70285408293652        2.15288017913403       -0.29596673492554
H           -4.68502400030989        2.39654936258792        0.47445288161383
H           -2.87637950408665        5.34982304187249       -1.66751837718706
H           -2.14554796752361        6.39563530240742        0.47132103226129
H           -1.52754615999652        4.93886634585496        2.39582968404638
H            9.68866638490310        1.90761409146614        0.51031589289108
