53
 energy: -85.997470497703 gnorm: 0.000112535921 xtb: 6.7.1 (edcfbbe)
C            9.11505230913876        0.02299216552748       -0.23687588210857
C            8.45652775581413       -0.82457085089626        0.63871006882960
C            7.07477037850748       -0.83614094027376        0.68876123017430
C            6.33076733449741       -0.00273186970927       -0.14324699627731
C            4.86233459776522       -0.01183223804270       -0.10249333475843
C            4.09891664889832        0.02045577924588       -1.26208306003585
C            2.70753910753562        0.01279994900662       -1.24091284328708
C            1.98187469907054       -0.00919167377736       -0.05958638043444
C            0.51744696086040       -0.00867699174201       -0.04699379187939
C           -0.19773825094005       -0.70668421119002       -1.02114438054355
C           -1.57751534683972       -0.70616463800247       -1.02288450477902
C           -2.27853188037606       -0.00286600565960       -0.04628456393185
N           -3.68031244397218        0.00077880560457       -0.04666705533593
C           -4.49212723966164       -1.11544800467890       -0.10194734375711
C           -4.14711815705735       -2.45976650262078       -0.11769967490766
C           -5.17004763092130       -3.38859898082924       -0.14518931025917
C           -6.50783483189673       -2.99811133621319       -0.14855007722431
C           -6.85755484150534       -1.66286990869887       -0.10934012329239
C           -5.84687826843686       -0.71022929547403       -0.08057901278047
C           -5.84257832637811        0.72482760294807       -0.01460684117236
C           -6.84748653926909        1.68362051765446        0.01237462976469
C           -6.48966121536992        3.01668221765138        0.05246556557753
C           -5.14948464749675        3.39897077133381        0.05271702006701
C           -4.13219155586977        2.46391767199388        0.02712625028396
C           -4.48543630029903        1.12176744137791        0.00953791844346
C           -1.57263113067567        0.69399885533308        0.93132842607010
C           -0.19287731315883        0.68901727818950        0.92992485080874
C            2.73163963903235       -0.02871472185426        1.13289121729257
N            2.25374589409745       -0.05010932734672        2.40111076531217
N            3.11877896774275       -0.06523058880043        3.29622621674809
S            4.70004693770846       -0.06493957530878        2.73815205139768
C            4.15003882257562       -0.04479738675511        1.09722631530264
C            7.00183702576808        0.84217312949289       -1.02544529969027
C            8.38365687673030        0.85644136414508       -1.06757360086077
H           10.19441929667206        0.03392579663793       -0.27145497107735
H            9.02045141715598       -1.48078349896537        1.28541329585360
H            6.56871494900902       -1.51284020427881        1.36222598644119
H            4.60642367586630        0.03561768411493       -2.21497374203554
H            2.17720395060203        0.04889802891016       -2.18033797036353
H            0.33146270857791       -1.27181974673267       -1.77373009995137
H           -2.12098007750407       -1.24161762836164       -1.78712798728694
H           -3.11418274777689       -2.77318302599701       -0.09750839859904
H           -4.92714661504445       -4.44129163500118       -0.15990587356771
H           -7.27866921806987       -3.75456827396300       -0.17238295684553
H           -7.89434289369926       -1.36106356101727       -0.09531179045379
H           -7.88606005666248        1.38812280300980       -0.00305703954626
H           -7.25588289211390        3.77784059925440        0.07523211179474
H           -4.90020545013672        4.45013761817060        0.06948841513328
H           -3.09722979215453        2.77086596256841        0.01251017610042
H           -2.11229609099592        1.22608933760682        1.70035131652232
H            0.34376235261362        1.22758202998614        1.69488724137510
H            6.43535514899400        1.50529134129668       -1.66298439870536
H            8.89223529905593        1.52202787112948       -1.74977976355010
