$hessian                                                                        
        0.4723088021  -0.0119252251  -0.0169403315  -0.1745176210  -0.0134642299
       -0.0635887301  -0.0312052236   0.0009531189  -0.0148094171   0.0011298228
        0.0051253459   0.0001293205  -0.0024077553  -0.0001154584  -0.0012682579
        0.0004074549   0.0000170169   0.0007010250  -0.0000933104  -0.0000001526
       -0.0001121997   0.0001389102   0.0000256013   0.0000170856   0.0000461140
       -0.0002931793  -0.0000196814  -0.0001364110   0.0002433735   0.0000228607
        0.0000487415  -0.0000561775  -0.0000104524  -0.0000107958   0.0001732495
        0.0000097259  -0.0000488153  -0.0002704190  -0.0000091104   0.0003212251
        0.0000155743  -0.0000091727  -0.0002108068  -0.0000833835   0.0000027068
        0.0002170876  -0.0002010618   0.0000054445  -0.0004371356   0.0001384070
        0.0000156883   0.0002894046   0.0001741295  -0.0000146672  -0.0002237879
       -0.0000265024  -0.0000452039   0.0000188727   0.0000194176  -0.0000169672
        0.0000038192  -0.0000106945   0.0000137351   0.0000046371  -0.0000151815
       -0.0000121576  -0.0000419890   0.0000075481   0.0000076943  -0.0000296144
        0.0000422604  -0.0000004018  -0.0000338628   0.0000348819   0.0000046281
        0.0000345604  -0.0000584983   0.0000011940   0.0000580659  -0.0000020714
        0.0000040127   0.0000112921  -0.0000086313  -0.0000118915  -0.0001143150
        0.0000057918   0.0000008475   0.0001503350  -0.0001723916  -0.0000188064
       -0.0000916191   0.0000925487   0.0001671465   0.0000691397  -0.0000850281
        0.0001385068  -0.0001265784   0.0001415581   0.0000202300   0.0000861756
       -0.0000910831  -0.0001566867  -0.0000828836   0.0000926940  -0.0001501750
       -0.0004221764   0.0001731316   0.0000242564   0.0007365379  -0.0001313914
        0.0007054418  -0.0006986122  -0.0003526913  -0.0005962064   0.0001761810
        0.0011816735  -0.0001244010   0.0001640643  -0.0000743692   0.0000736864
       -0.0004203478  -0.0087182927  -0.0083333619  -0.0492968930   0.0434152635
       -0.0266802320  -0.0455554856   0.0196896140   0.0163888362  -0.1705731819
       -0.0339891319   0.1147036232   0.0003735364  -0.0016325844  -0.0000208059
        0.0000680712  -0.0000555967  -0.0001026822  -0.0000214137  -0.0000483510
        0.0000433928  -0.0000035460   0.0000129722   0.0000041597  -0.0000073022
        0.0000242474   0.0000033459   0.0000084373   0.0000005242   0.0000024507
        0.0000002729  -0.0000240707  -0.0000010146   0.0000062764   0.0000237591
       -0.0000133757   0.0000119232  -0.0000275863  -0.0000112816   0.0000036164
       -0.0000015952   0.0000284746  -0.0000148982   0.0000279300   0.0000117364
        0.0000106595  -0.0000076835   0.0000074741  -0.0000136013   0.0000256780
       -0.0000116859   0.0000047501  -0.0000048364  -0.0000267042   0.0000030820
       -0.0000076614  -0.0000004303  -0.0000086942  -0.0000147042  -0.0000000092
       -0.0000192939   0.0000030838   0.0000005898   0.0000027670   0.0000062226
       -0.0000008554   0.0000096478  -0.0000111096   0.0000046102   0.0000025893
        0.0000180937   0.0000128620  -0.0000091986   0.0000135731   0.0000009933
       -0.0000001514   0.0000188163  -0.0000100756   0.0000100375  -0.0000095536
       -0.0000012580  -0.0000113930   0.0000804092  -0.0001116318  -0.0000481963
       -0.0000269310  -0.0000374635
       -0.0119252251   0.5206875800   0.0240288934  -0.0171687908  -0.0630841064
       -0.0107441476   0.0140619646   0.0027038615   0.0059442192   0.0039167824
        0.0020264224  -0.0055316060   0.0004090611   0.0002046976   0.0002879471
        0.0000189193  -0.0005440137   0.0004885014   0.0000165627  -0.0000636910
        0.0001521217  -0.0000321124   0.0000712542   0.0000268829  -0.0000090097
       -0.0002249694  -0.0000002891  -0.0001657969   0.0001999452   0.0000297892
        0.0002549106   0.0000496695  -0.0000292612  -0.0000908201  -0.0001118824
        0.0000037624   0.0000476168  -0.0000540920  -0.0000094455   0.0000351518
        0.0001889262  -0.0000166867  -0.0000522882  -0.0000332298   0.0000034244
        0.0000583870   0.0001677799   0.0000150332  -0.0001073454  -0.0001353202
        0.0000218992   0.0002594039   0.0001306111  -0.0000324315   0.0001442602
       -0.0001943225  -0.0000729441   0.0000108960   0.0000011301  -0.0000058649
        0.0000137520  -0.0000212059  -0.0000159070   0.0000115928  -0.0000192105
        0.0000181036   0.0000222168  -0.0000296048   0.0000032411   0.0000167910
       -0.0000213673   0.0000027181  -0.0000025259  -0.0000564683   0.0000035596
       -0.0000446373   0.0000074963  -0.0000005867  -0.0000316205   0.0000027661
        0.0000003918  -0.0000613013  -0.0001360684   0.0000064522   0.0000299983
        0.0000563974  -0.0000044590   0.0001555098  -0.0001917724  -0.0000343700
       -0.0001443988   0.0001487977   0.0003781007   0.0000992223  -0.0001233785
        0.0002843694  -0.0002583209   0.0002911999   0.0000302048   0.0001291027
       -0.0001290680  -0.0003187631  -0.0001189593   0.0001533698  -0.0003467522
       -0.0001376074   0.0001394802   0.0000506533   0.0001742681  -0.0001821238
        0.0008628491  -0.0014920573   0.0005102835  -0.0003781986   0.0048733629
       -0.0009594263  -0.0010245341  -0.0016287790  -0.0010525075  -0.0014939884
       -0.0250985367  -0.0111973953  -0.0221072471   0.0464507612  -0.2102783403
        0.1005825817   0.0209379713  -0.1885843503  -0.1192501580  -0.0338273137
       -0.0499372298   0.0264334105   0.0001629052  -0.0006457206   0.0019007452
       -0.0000109834   0.0001637566  -0.0000148975   0.0000102432   0.0000221858
       -0.0000208707  -0.0000049795  -0.0000016187   0.0000075841   0.0000040314
       -0.0000043291  -0.0000017590  -0.0000013713  -0.0000023794   0.0000044834
        0.0000008848  -0.0000128241   0.0000003541  -0.0000194210  -0.0000173508
       -0.0000129089   0.0000060635   0.0000037295  -0.0000020789  -0.0000014633
        0.0000000869   0.0000040691  -0.0000189367  -0.0000029935   0.0000031916
        0.0000057617   0.0000057280   0.0000009691  -0.0000188907  -0.0000038619
       -0.0000025309  -0.0000010950  -0.0000003666  -0.0000030104  -0.0000078155
        0.0000129108  -0.0000008579   0.0000051279   0.0000155416  -0.0000011859
        0.0000124091   0.0000074837  -0.0000004965   0.0000114297  -0.0000014479
        0.0000004535  -0.0000070883   0.0000083472  -0.0000231836   0.0000110413
       -0.0000092234  -0.0000224693   0.0000222712  -0.0000242570  -0.0000003901
        0.0000092399  -0.0000099899   0.0000231405  -0.0000081208   0.0000072712
        0.0000220936   0.0000308308   0.0001114441  -0.0001132109   0.0000569070
        0.0000013539   0.0000112969
       -0.0169403315   0.0240288934   0.5005934592  -0.0669995888  -0.0090257907
       -0.0978571922  -0.0033946764   0.0000967997   0.0016498982  -0.0013388636
       -0.0040632890   0.0060611454  -0.0003922970  -0.0001422105  -0.0001827488
        0.0005510633   0.0010782446   0.0001363515   0.0002498817   0.0000085150
       -0.0001010920  -0.0000009589  -0.0000189073   0.0000185107  -0.0000075258
        0.0000615446  -0.0000109263   0.0000314768  -0.0000734847  -0.0000113351
       -0.0000770209  -0.0000593927   0.0000151135   0.0000785623   0.0000396546
       -0.0000011023  -0.0000062940   0.0000019835  -0.0000077117   0.0000848717
       -0.0001286307   0.0000054628   0.0000100595  -0.0000734484   0.0000013604
        0.0002396368  -0.0000589105  -0.0000083401  -0.0000804859   0.0001551133
       -0.0000134130  -0.0000088244   0.0000307648  -0.0000042820  -0.0001932712
        0.0000575662   0.0000074950   0.0000155189  -0.0000170621  -0.0000056674
        0.0000068894   0.0000031589   0.0000077112   0.0000102033   0.0000039937
       -0.0000075886  -0.0000379369   0.0000168530   0.0000007721  -0.0000139152
        0.0000184185   0.0000025113  -0.0000235602   0.0000140524   0.0000020704
        0.0000134551  -0.0000413749   0.0000014354   0.0000270647  -0.0000018185
        0.0000049285  -0.0000074808  -0.0000306167  -0.0000067505  -0.0001632241
       -0.0000189488   0.0000045722   0.0000860708  -0.0000986941  -0.0000033331
       -0.0000572146   0.0000631295   0.0001037228   0.0000400874  -0.0000480915
        0.0000863334  -0.0000766658   0.0000867169   0.0000172745   0.0000451891
       -0.0000459617  -0.0000986825  -0.0000467057   0.0000543708  -0.0000952541
        0.0000293909  -0.0004610873  -0.0003436835   0.0003756818   0.0007198409
       -0.0003161397  -0.0008642563  -0.0006340401  -0.0007205574   0.0024036405
       -0.0021507259   0.0019218278  -0.0011902016  -0.0012073916  -0.0017281135
       -0.0222491472  -0.0148265182  -0.0219197110  -0.0274192161   0.0988556865
       -0.1029631059   0.0175227510  -0.1197960072  -0.1416916701   0.1183399513
        0.0267229129  -0.1417586825   0.0015482975   0.0010746942  -0.0010803912
       -0.0000609629  -0.0000511905   0.0000849895   0.0000019280   0.0000206453
        0.0000316175  -0.0000047299  -0.0000043720   0.0000005786   0.0000015972
        0.0000052566   0.0000056661   0.0000087315  -0.0000022503   0.0000026723
        0.0000049395  -0.0000187353  -0.0000017287  -0.0000072122  -0.0000008216
        0.0000012959   0.0000101419  -0.0000087974  -0.0000052310   0.0000004772
       -0.0000038979   0.0000176437  -0.0000094169   0.0000145929   0.0000079563
        0.0000099989   0.0000063235   0.0000024011  -0.0000101139   0.0000130541
       -0.0000082773   0.0000027151  -0.0000065215  -0.0000171929  -0.0000019416
        0.0000008096   0.0000006149  -0.0000009844  -0.0000007298   0.0000008974
       -0.0000040078   0.0000013303   0.0000015478   0.0000025215   0.0000005661
       -0.0000009999   0.0000026782  -0.0000058629  -0.0000035576   0.0000003997
        0.0000093459   0.0000006665   0.0000026766  -0.0000009155  -0.0000000660
       -0.0000004851   0.0000074227   0.0000026800   0.0000018617  -0.0000049438
        0.0000051271  -0.0001057460  -0.0001001423   0.0001232535   0.0000348530
       -0.0000406713   0.0000429631
       -0.1745176210  -0.0171687908  -0.0669995888   0.6780454311  -0.1931228326
        0.0741190884  -0.3246297804   0.1880334309   0.0346478114  -0.0653298142
        0.0100820774  -0.0200304053   0.0106815490  -0.0051446190  -0.0012801069
       -0.0060961532  -0.0006431781  -0.0040343705   0.0001065949  -0.0004003948
        0.0002019278  -0.0007066588  -0.0008722440   0.0000874180   0.0001834219
        0.0018324239  -0.0000370509   0.0007808313  -0.0014918734  -0.0000941012
       -0.0004923116   0.0001846677   0.0001371603   0.0003138412  -0.0009772843
       -0.0000365228   0.0003802403   0.0019870161   0.0000408882  -0.0015237054
       -0.0014953057   0.0000346375   0.0013833646   0.0007461001  -0.0000735849
       -0.0001231461  -0.0004212560  -0.0000168005   0.0015495884   0.0005773732
       -0.0000941889  -0.0018723093  -0.0012133563   0.0000543679   0.0002973650
        0.0015287654   0.0000322216   0.0000046432  -0.0002924683   0.0000580557
        0.0000056539   0.0000797663  -0.0000368344  -0.0000027000   0.0000607102
        0.0000227262  -0.0000570428   0.0002009502   0.0000072648   0.0000000402
       -0.0002023236  -0.0000226624   0.0000578616   0.0000304837  -0.0000027108
       -0.0000279815  -0.0000422588   0.0000022423   0.0000332732   0.0001205454
       -0.0000298690  -0.0001272597  -0.0002962385   0.0000260943   0.0000920197
        0.0000819609   0.0000120616  -0.0006008886   0.0006783890   0.0000965860
        0.0003826216  -0.0003762815  -0.0007420144  -0.0002998997   0.0003631121
       -0.0005555703   0.0005404530  -0.0006009616  -0.0000964043  -0.0003705823
        0.0003978106   0.0006627269   0.0003285390  -0.0003720777   0.0006588329
        0.0006673076   0.0003382365   0.0007068192  -0.0008551070   0.0003208900
        0.0000759827  -0.0029886087   0.0052903729   0.0036566808   0.0196371426
       -0.0187080546  -0.0060416902  -0.0073376406  -0.0030055404  -0.0075201135
       -0.0839886104   0.0331778534   0.0093899517  -0.0137326656   0.0048329301
       -0.0087492609   0.0021893926  -0.0013789555  -0.0000348034  -0.0310694610
       -0.0031865085  -0.0100089235  -0.0013044195   0.0006441862   0.0018414637
        0.0001877996  -0.0001894844  -0.0000972658  -0.0000844716   0.0000045901
       -0.0001299484  -0.0000126368  -0.0000402524  -0.0000241309  -0.0000043371
       -0.0001011273  -0.0000081143  -0.0000423363   0.0000235900  -0.0000611143
       -0.0000448262   0.0001232748   0.0000454138   0.0000017809   0.0000549372
        0.0000726671  -0.0000402155   0.0000995394   0.0000343698   0.0000026681
       -0.0000053518  -0.0000748409   0.0000200862  -0.0001344354  -0.0000673504
       -0.0000354508   0.0000518851  -0.0000357364   0.0000223589  -0.0001308656
        0.0000513896  -0.0000221009   0.0000001125   0.0000761541  -0.0000132976
        0.0000261277  -0.0000113359   0.0000229585   0.0000540472  -0.0000107065
        0.0000539939   0.0000087220  -0.0000085451  -0.0000313431  -0.0000269709
        0.0000089221  -0.0000254607   0.0000143229  -0.0000008604   0.0000065548
       -0.0000395690  -0.0000302111   0.0000066607  -0.0000217955   0.0000037878
        0.0000145250  -0.0000340462   0.0000275662  -0.0000231906   0.0000160310
       -0.0000031418   0.0001480242  -0.0000194870   0.0000881901   0.0002854480
        0.0000889575   0.0001194095
       -0.0134642299  -0.0630841064  -0.0090257907  -0.1931228326   0.4296683605
        0.1647590343   0.1698035723  -0.1739517887  -0.0430037001   0.0228842243
        0.0019917045   0.0122081362  -0.0059040174   0.0057165129   0.0002326597
       -0.0009984781  -0.0051372500  -0.0058295958  -0.0005178358  -0.0001763237
       -0.0007828091   0.0006062907   0.0002167004  -0.0000970549  -0.0000459496
       -0.0011055119   0.0001378381  -0.0006246772   0.0009054362   0.0001409115
        0.0004291468  -0.0001343548  -0.0002544281  -0.0001207049   0.0004989386
        0.0000500022  -0.0004788902  -0.0013523239   0.0000306567   0.0008385704
        0.0013008509   0.0001318078  -0.0010495913  -0.0007986793  -0.0000155825
       -0.0001160020   0.0006720230  -0.0001201501  -0.0008708895  -0.0005398934
        0.0000601380   0.0013667145   0.0009041083   0.0001503162   0.0003680426
       -0.0008534552   0.0000351105  -0.0000104811   0.0001720058  -0.0000390901
        0.0000032768  -0.0001099205  -0.0000081924   0.0000154851  -0.0001022517
        0.0000448098   0.0000728493  -0.0002192446  -0.0000071412   0.0000018277
        0.0001838532   0.0000238830  -0.0001058694  -0.0000607232   0.0000203820
       -0.0000315883   0.0000891140  -0.0000033491  -0.0000960611  -0.0001448148
        0.0000410630   0.0001258807   0.0003131965  -0.0000169572  -0.0001673154
       -0.0001391272  -0.0000458704   0.0003132485  -0.0003136961  -0.0001124123
       -0.0002144496   0.0002061099   0.0003333361   0.0001498055  -0.0001769506
        0.0002087367  -0.0002245922   0.0002491727   0.0001001908   0.0001985104
       -0.0002245515  -0.0003097050  -0.0002066881   0.0001997275  -0.0002647722
       -0.0023422781   0.0065649057   0.0044951868  -0.0010855493  -0.0033382584
       -0.0032720652   0.0130500781  -0.0036552932   0.0052435911  -0.0484867969
       -0.0047982933  -0.0231418985   0.0065187014  -0.0074652356  -0.0069420967
        0.0376576239  -0.1621762435  -0.0892053847   0.0222740961   0.0034213646
        0.0140070138  -0.0184440717  -0.0062653302  -0.0136417256  -0.0048461512
        0.0004641119  -0.0026856372   0.0166750892  -0.0171369968  -0.0038206834
       -0.0000042292  -0.0003537857  -0.0000684511  -0.0000397286  -0.0000069125
        0.0002220195  -0.0000742444  -0.0000350392   0.0000542025   0.0000111876
        0.0000596032   0.0000048109   0.0001103912  -0.0000317673   0.0001156570
        0.0001049682  -0.0002014835  -0.0000340682  -0.0000135310   0.0000055586
       -0.0001236711   0.0000842262  -0.0000802131  -0.0000402374   0.0000315000
       -0.0000235771   0.0001372683  -0.0000652448   0.0001867571   0.0000936294
        0.0000741640   0.0000018271   0.0000298192  -0.0000811860   0.0001852140
       -0.0000708723   0.0000664552  -0.0000368403  -0.0001387078  -0.0000060388
        0.0000041323   0.0000123011  -0.0000032385  -0.0000195092   0.0000092342
       -0.0000344563   0.0000185864   0.0000080711   0.0000244185  -0.0000169154
       -0.0000132439   0.0000378056  -0.0000289937   0.0000322451   0.0000250212
        0.0000454212   0.0000449436  -0.0000244743   0.0000467349  -0.0000070575
        0.0000068970   0.0000380007  -0.0000496999   0.0000418122  -0.0000323112
       -0.0000312821   0.0000426200  -0.0001346277  -0.0000072206  -0.0000921381
        0.0001325621   0.0000115985
       -0.0635887301  -0.0107441476  -0.0978571922   0.0741190884   0.1647590343
        0.3186569410   0.0187476322  -0.0341498359  -0.0594218066  -0.0091037272
        0.0060486615   0.0004139027  -0.0016678933   0.0007159026   0.0021449609
       -0.0039596087  -0.0062111030  -0.0065745664  -0.0006715875  -0.0000793153
       -0.0005850697   0.0002788822  -0.0000643652  -0.0000542417  -0.0000032172
       -0.0005506344   0.0001011413  -0.0003635904   0.0004984854   0.0001141290
        0.0003263099  -0.0000072053  -0.0001883029  -0.0000938621   0.0001078574
        0.0000343310  -0.0002776592  -0.0005321604   0.0000560691   0.0002187172
        0.0007297020   0.0001155693  -0.0004510525  -0.0002724729  -0.0000609358
       -0.0003719564   0.0002961144  -0.0000730207  -0.0002573839  -0.0003697698
        0.0000497129   0.0006165145   0.0002983593   0.0001100672   0.0006016762
       -0.0002770494  -0.0000475063  -0.0000233711   0.0000751835  -0.0000038466
        0.0000098398  -0.0000687675  -0.0000304126   0.0000189599  -0.0000671764
        0.0000514115   0.0001074086  -0.0001016801  -0.0000061902  -0.0000113144
        0.0000419571   0.0000097579  -0.0000340403  -0.0000339364   0.0000157323
       -0.0000588588   0.0000636433  -0.0000023249  -0.0000717504  -0.0000568373
        0.0000196022   0.0000369588   0.0001010056   0.0000053196   0.0001363850
       -0.0000131523  -0.0000497795   0.0000896429  -0.0000730068  -0.0000723922
       -0.0000820664   0.0000728997   0.0001403450   0.0000518694  -0.0000599931
        0.0000626484  -0.0000780802   0.0000863794   0.0000632361   0.0000726159
       -0.0000857807  -0.0001226703  -0.0000841923   0.0000750130  -0.0000960012
       -0.0020078545   0.0062761357   0.0046395084  -0.0008913881  -0.0026290393
       -0.0027055968   0.0103014101   0.0015028002   0.0047226631  -0.0312976741
       -0.0102693085  -0.0266230144   0.0005183056  -0.0107158962  -0.0050626542
        0.0129324774  -0.0911879570  -0.1146766418  -0.0175634048   0.0009424122
       -0.0092060763  -0.0152206095  -0.0058576648  -0.0124016073   0.0127287147
        0.0031552152   0.0109291646   0.0158908885  -0.0111245735  -0.0066098866
        0.0000914762  -0.0003677142  -0.0001109341  -0.0000447295  -0.0000207143
        0.0001192606  -0.0000617129  -0.0000301760   0.0000441596   0.0000150790
        0.0000072492  -0.0000037128   0.0000817917  -0.0000178261   0.0000730755
        0.0000689420  -0.0001150965  -0.0000180554  -0.0000193239   0.0000434769
       -0.0000848920   0.0000602289  -0.0000227753  -0.0000174575   0.0000206031
       -0.0000179162   0.0000708568  -0.0000559399   0.0000951366   0.0000646673
        0.0000524827   0.0000257811   0.0000095871  -0.0000729399   0.0000964461
       -0.0000359357   0.0000493496  -0.0000317058  -0.0000844791  -0.0000105925
        0.0000214385   0.0000064062   0.0000052391   0.0000074771   0.0000031585
       -0.0000056827   0.0000256240   0.0000030439   0.0000064483  -0.0000223634
       -0.0000058182   0.0000195277  -0.0000124333   0.0000188994   0.0000310812
        0.0000166966   0.0000179993  -0.0000115911   0.0000227547  -0.0000055037
        0.0000177734   0.0000131501  -0.0000241540   0.0000223862  -0.0000161888
       -0.0000240601   0.0001091875  -0.0001197103   0.0000254288   0.0000614919
        0.0001754569   0.0000339837
       -0.0312052236   0.0140619646  -0.0033946764  -0.3246297804   0.1698035723
        0.0187476322   0.6220789419  -0.1818489231   0.0812185789  -0.1663314837
       -0.0228044816  -0.0755409892  -0.0602553200   0.0061056547  -0.0225690752
        0.0105787307   0.0132933724   0.0140386781  -0.0017531024   0.0003742624
       -0.0011842780   0.0003622292   0.0000784067  -0.0001088489  -0.0002244276
       -0.0008308262  -0.0000221186  -0.0004715234   0.0006408332  -0.0000067684
        0.0002523550  -0.0001368749  -0.0000033676  -0.0001750019   0.0005899064
        0.0000034635   0.0000768633  -0.0010349149  -0.0001268518   0.0009056598
        0.0003468194   0.0000694210  -0.0006909698  -0.0004406573   0.0001194638
        0.0007192283  -0.0000099070   0.0000234299  -0.0011742150   0.0000712309
       -0.0000108276   0.0011603782   0.0006859678  -0.0000318702  -0.0004678326
       -0.0003526753   0.0000203939   0.0000135747   0.0001148902  -0.0000626823
        0.0000242308  -0.0000387591   0.0000352170   0.0000361487   0.0000099506
       -0.0000318410  -0.0000503070  -0.0000276439  -0.0000424670  -0.0000065778
        0.0001347105   0.0000438373  -0.0000757503  -0.0000191633  -0.0000159128
        0.0000025938  -0.0000577180   0.0000040163   0.0000221139  -0.0000537517
        0.0000316991   0.0000494679   0.0000862206  -0.0000139629  -0.0003736034
       -0.0000855902   0.0000152752   0.0004793416  -0.0005484175  -0.0000281693
       -0.0003204475   0.0003218062   0.0006280626   0.0002372124  -0.0002928820
        0.0005105871  -0.0004741523   0.0005271924   0.0000506994   0.0002919485
       -0.0003124707  -0.0005762289  -0.0002699759   0.0003043795  -0.0005839088
        0.0011496203  -0.0077188190  -0.0062703622   0.0009988343   0.0029402052
        0.0000498761   0.0061484494  -0.0244828377  -0.0187792138  -0.0164323315
       -0.0003603572  -0.0062254465   0.0022930142   0.0005047159   0.0011522271
        0.0000546741   0.0231619210   0.0169570049  -0.0016050265  -0.0009484815
       -0.0006065245   0.0006711831   0.0009219856   0.0012899457  -0.0014464775
       -0.0001373097  -0.0015652741  -0.0409886262   0.0093176091   0.0021746304
        0.0008825575  -0.0016306640  -0.0000619101  -0.0000586128   0.0000021299
        0.0001662994  -0.0000242730   0.0000367369   0.0000007308   0.0000188191
        0.0000659272   0.0000223046   0.0000533821  -0.0000165883   0.0000366873
        0.0000279656  -0.0001317945  -0.0000736322  -0.0000436900  -0.0000148130
       -0.0000589469   0.0000210245  -0.0000579352  -0.0000192348  -0.0000101811
       -0.0000024357   0.0000567919  -0.0000294111   0.0001482369   0.0000671404
        0.0000154757  -0.0000302280   0.0000187244  -0.0000275355   0.0001383866
       -0.0000538641   0.0000202303   0.0000003776  -0.0000500880  -0.0000083188
        0.0000032957   0.0000163599  -0.0000088575  -0.0000167656   0.0000154557
       -0.0000194608  -0.0000231904   0.0000113857   0.0000346796   0.0000148366
       -0.0000141711   0.0000025517   0.0000077471  -0.0000318931  -0.0000186231
        0.0000105699  -0.0000123925   0.0000289674  -0.0000243384  -0.0000073726
       -0.0000253301   0.0000010505   0.0000085570  -0.0000011149   0.0000005111
        0.0000301491   0.0000426218  -0.0001788906   0.0002308517  -0.0000575043
       -0.0001562783   0.0003195938
        0.0009531189   0.0027038615   0.0000967997   0.1880334309  -0.1739517887
       -0.0341498359  -0.1818489231   0.4762771220   0.2511882622  -0.0453196512
       -0.0717729058  -0.0418906374   0.0179132299   0.0027138273   0.0091768099
        0.0015613689   0.0016389384  -0.0035852255   0.0016738694   0.0000388496
        0.0001322981  -0.0001464812  -0.0001336250   0.0000720519  -0.0000927102
        0.0006853695  -0.0000301376   0.0004447525  -0.0006344900  -0.0000681872
       -0.0004478444  -0.0000526859   0.0000622619   0.0002352374  -0.0001000973
       -0.0000228598  -0.0000261882   0.0004774128   0.0000058761  -0.0003770113
       -0.0003560121  -0.0000369323   0.0004125396   0.0000404683  -0.0000093334
       -0.0000440790   0.0000633633  -0.0000266344   0.0007378353   0.0001631464
       -0.0000532037  -0.0007360617  -0.0003931358   0.0000168482   0.0000470903
        0.0001792524   0.0000555919  -0.0000178755  -0.0000727477   0.0000237437
        0.0000139392   0.0000409303  -0.0000074784   0.0000173633   0.0000495261
        0.0000015952   0.0000220348   0.0000563678  -0.0000150450  -0.0000000293
       -0.0000436268   0.0000057151   0.0000167660   0.0000098459  -0.0000037460
       -0.0000225071   0.0000101056  -0.0000009193  -0.0000165593   0.0000104346
        0.0000001281  -0.0000107063   0.0000185987   0.0000041512  -0.0000737922
       -0.0000583655  -0.0000017395  -0.0001852164   0.0002216854   0.0000449074
        0.0001441735  -0.0001424978  -0.0003145507  -0.0001081463   0.0001327902
       -0.0002283961   0.0002210484  -0.0002456084  -0.0000341446  -0.0001368507
        0.0001442035   0.0002680747   0.0001236997  -0.0001438126   0.0002866489
        0.0006252407  -0.0007275999  -0.0002534018   0.0010277002  -0.0012756899
       -0.0056425537  -0.0195565829  -0.0077849742  -0.0167348401   0.0057388131
       -0.0001958500   0.0052564339  -0.0014990516   0.0014140308   0.0001882398
        0.0280168957  -0.0402151978  -0.0287672400  -0.0009873312   0.0001617375
       -0.0003464668  -0.0012226708   0.0003488264   0.0000154495  -0.0018435444
       -0.0000981749  -0.0004389084   0.0074674218  -0.1878449616  -0.1364833774
        0.0004374380  -0.0004351592   0.0020679904   0.0000217049   0.0001123198
        0.0000462073  -0.0000281993  -0.0000377611   0.0000030899   0.0000195505
       -0.0000432332   0.0000063338   0.0000269522  -0.0000007619   0.0000119546
        0.0000186724   0.0000066016   0.0000198873  -0.0000243407  -0.0000035811
        0.0000229206   0.0000076869   0.0000334328   0.0000089135  -0.0000033641
       -0.0000120822  -0.0000122110  -0.0000007455  -0.0000156114   0.0000059202
        0.0000052110   0.0000331795  -0.0000125438  -0.0000098697  -0.0000108770
        0.0000066671   0.0000078001  -0.0000121993   0.0000037246  -0.0000096142
        0.0000205978   0.0000025066   0.0000105002   0.0000215608  -0.0000004180
        0.0000176487  -0.0000008998   0.0000005025  -0.0000149434  -0.0000125054
       -0.0000013226  -0.0000064337   0.0000029630  -0.0000014165  -0.0000008927
       -0.0000069534  -0.0000124277   0.0000070211  -0.0000093354  -0.0000021366
       -0.0000030493  -0.0000065089   0.0000066296  -0.0000059033  -0.0000014790
       -0.0000061686  -0.0003001500  -0.0005237937   0.0006659334  -0.0009004351
       -0.0004547602  -0.0005866288
       -0.0148094171   0.0059442192   0.0016498982   0.0346478114  -0.0430037001
       -0.0594218066   0.0812185789   0.2511882622   0.3529540566  -0.0930920392
       -0.0334319802  -0.1205683949  -0.0129407053   0.0044733334  -0.0001729991
        0.0034281948  -0.0005448163   0.0084833865  -0.0006191283   0.0002632703
        0.0003121009   0.0000234027   0.0001947680  -0.0000521291   0.0001324851
       -0.0004078849  -0.0000759427  -0.0003161456   0.0003453187   0.0000240239
        0.0003240580   0.0000896935  -0.0000369574  -0.0002095160   0.0000350751
        0.0000105045   0.0001101382  -0.0003333040  -0.0000485965   0.0000863960
        0.0002401288  -0.0000653203  -0.0001785504  -0.0000632904   0.0000206131
       -0.0002363002   0.0001305883   0.0000480677  -0.0001789432  -0.0002736610
        0.0000431052   0.0003685280   0.0002309830  -0.0000252520   0.0000965907
       -0.0002701919  -0.0001207353  -0.0000463265   0.0000993851  -0.0000328626
        0.0000183249  -0.0000117998  -0.0000051194   0.0000099101   0.0000109704
        0.0000146815   0.0001015115  -0.0000641267  -0.0000126283   0.0000231589
        0.0000159196   0.0000287720   0.0000136146  -0.0000513342  -0.0000055225
       -0.0000577598   0.0000830176  -0.0000023164  -0.0000974192  -0.0000397854
        0.0000139980   0.0000425971   0.0001375635  -0.0000045327   0.0001656165
       -0.0000476535   0.0000022593   0.0000513114  -0.0000492793  -0.0000192946
       -0.0000434610   0.0000339726   0.0001057608   0.0000345635  -0.0000409712
        0.0000715528  -0.0000727983   0.0000797416   0.0000099505   0.0000408381
       -0.0000483887  -0.0000893979  -0.0000315181   0.0000350795  -0.0001020032
        0.0003061307  -0.0026008074  -0.0022032184  -0.0005878693  -0.0048957475
        0.0009759023  -0.0156705245  -0.0174427099  -0.0211722892  -0.0004604675
        0.0020188026  -0.0013588486  -0.0004479751   0.0013054349   0.0011890147
        0.0207421702  -0.0302292374  -0.0098210221  -0.0022890846  -0.0000950895
       -0.0012083968  -0.0006193641   0.0009969802   0.0003184493  -0.0013778901
        0.0001133074  -0.0009279997   0.0006356713  -0.1356658909  -0.1467240826
        0.0019624304   0.0011415406  -0.0006833119  -0.0000280803   0.0000245494
        0.0001190390  -0.0000473607  -0.0000651113   0.0000156722   0.0000040461
       -0.0000063121   0.0000065689   0.0000310170  -0.0000133840   0.0000320739
        0.0000290960  -0.0000610535  -0.0000356850  -0.0000125295  -0.0000332222
       -0.0000972619   0.0000149795  -0.0000037257  -0.0000015312   0.0000033019
       -0.0000105552   0.0000240266  -0.0000168835   0.0000576561   0.0000238410
        0.0000143216   0.0000063563   0.0000008272  -0.0000169922   0.0000494445
       -0.0000382678   0.0000059391  -0.0000057937  -0.0000057181  -0.0000112933
        0.0000165645   0.0000062194   0.0000062610   0.0000126608   0.0000045424
        0.0000137322  -0.0000084562   0.0000046548   0.0000144949  -0.0000046746