$hessian                                                                        
        0.0598169858   0.0771988953   0.0438188659  -0.0703071549  -0.0675277119
       -0.0412038063   0.0105241243   0.0020728915   0.0015199509   0.0066022933
        0.0094161146   0.0058564556  -0.0008212420   0.0008827214   0.0000391084
        0.0014818240   0.0000539770   0.0000787316  -0.0005468979  -0.0001840271
       -0.0001447604   0.0017872182   0.0001029632   0.0000016413  -0.0048630232
        0.0026035587  -0.0016118062   0.0014598546   0.0003436334   0.0002970224
        0.0000954588   0.0001732911   0.0000448681   0.0000149815  -0.0000141782
        0.0000946810   0.0000002408  -0.0000008369   0.0000074116   0.0000132298
        0.0000323765   0.0000073082   0.0000200876  -0.0000216669  -0.0000195093
        0.0001014602  -0.0000154607  -0.0000541872  -0.0071898969  -0.0006687693
        0.0005627078  -0.0010578500  -0.0010703891   0.0005540453  -0.0002291564
       -0.0029496585   0.0000303691   0.0022340570   0.0007881487   0.0000587448
       -0.0001712977  -0.0007260830  -0.0002110318  -0.0003300106   0.0000844701
       -0.0000150413   0.0001320178   0.0001501430  -0.0001909093  -0.0001709202
       -0.0001033268   0.0001319101   0.0000551776   0.0001512335  -0.0000861676
        0.0001311886  -0.0001692316  -0.0000098460  -0.0000059654  -0.0000114021
        0.0002505891  -0.0002088943   0.0002329606   0.0000660174   0.0002067087
       -0.0003648656   0.0000624236  -0.0001522908   0.0002084872  -0.0000419055
        0.0001875520   0.0000031557  -0.0001435307  -0.0001387704  -0.0000083854
       -0.0002065062  -0.0004252011   0.0002958995   0.0000013840   0.0006862574
        0.0009357979   0.0004396358   0.0020278884  -0.0019313265  -0.0004417479
       -0.0016312533  -0.0197578861  -0.0091765063   0.0012062020   0.0004522794
        0.0001061899   0.0000553872  -0.0000440079   0.0000519921   0.0000107639
        0.0000958953   0.0000559411  -0.0001913223   0.0003172031  -0.0000908834
       -0.0000449539   0.0000109904  -0.0000046518  -0.0000171008  -0.0000313655
       -0.0000093483  -0.0000227502  -0.0000118922  -0.0000120308  -0.0000215319
       -0.0000159142   0.0000018688  -0.0000413589   0.0000191933  -0.0000238512
       -0.0006501977  -0.0002044528  -0.0002652963   0.0000096804   0.0000162695
        0.0000115186   0.0000424869  -0.0000318510  -0.0000150134   0.0000089186
       -0.0000673764   0.0000162094  -0.0000468586   0.0000116389   0.0000269492
       -0.0000211599  -0.0000288989   0.0000250137  -0.0000313480   0.0000377385
        0.0000070126   0.0000155803   0.0000561084   0.0000069200   0.0000485629
       -0.0000143778  -0.0000040074  -0.0000315570  -0.0000126565   0.0000387644
        0.0003937754  -0.0007600367  -0.0002899072
        0.0771988953   0.3731950648   0.1989333176  -0.0643660140  -0.3452018840
       -0.1768930109  -0.0010023580   0.0057498138  -0.0092754684  -0.0074914525
       -0.0156651763  -0.0089336957  -0.0037808401  -0.0012450593  -0.0008518169
       -0.0006634973   0.0011135343   0.0004646414  -0.0009249363  -0.0003332914
       -0.0001485509  -0.0012510415  -0.0008301591   0.0009398386   0.0086388482
       -0.0043761883   0.0008706583  -0.0017516361   0.0012888418  -0.0001934057
        0.0002885555   0.0015018809   0.0001240810  -0.0000177985  -0.0001296843
        0.0000115695  -0.0000140753   0.0000255724   0.0001452657   0.0000270675
        0.0000065982   0.0000009207   0.0000637661   0.0000123195  -0.0000509221
       -0.0000074089  -0.0000992229  -0.0002167744  -0.0038940708   0.0003934088
       -0.0014171856  -0.0009022280  -0.0008060198   0.0003959479  -0.0003282566
       -0.0020335253   0.0002940880   0.0027951129   0.0011588938   0.0003504094
        0.0000903475  -0.0006949439  -0.0003243773  -0.0006303098  -0.0001043914
       -0.0002342134   0.0004707610   0.0005363958  -0.0004849444  -0.0003555777
       -0.0005148699   0.0001717058  -0.0000514562   0.0007933724  -0.0000745304
        0.0000213930  -0.0010259858  -0.0000329643   0.0001137808  -0.0000923896
        0.0008109257  -0.0009225152   0.0009180277   0.0001221965   0.0005436439
       -0.0009614297   0.0000117838  -0.0005918162   0.0004969378   0.0000380708
        0.0007791597  -0.0000806568  -0.0004664954  -0.0006003748   0.0001149553
       -0.0003099956  -0.0003267485   0.0003572836  -0.0001113621  -0.0007212629
        0.0006626680   0.0004166297   0.0050001708  -0.0027883473  -0.0011396763
       -0.0050893799  -0.0109255992  -0.0029581753   0.0007259082  -0.0000044969
       -0.0003604427   0.0003458352  -0.0001136646   0.0001446766   0.0002124056
       -0.0001708222  -0.0001294207   0.0005153558  -0.0007667409   0.0001712180
       -0.0000143002   0.0001075445   0.0001307846  -0.0000212800  -0.0000718987
       -0.0000456787  -0.0000381050  -0.0000694331  -0.0000180446  -0.0000417719
       -0.0000759462   0.0000411226  -0.0000159426  -0.0000038180  -0.0000169057
       -0.0006530553  -0.0000771640  -0.0000604235   0.0000602403  -0.0000214236
       -0.0000369345   0.0001107833  -0.0000926385  -0.0000100817   0.0000413164
       -0.0001343533   0.0000479269  -0.0000923152  -0.0000145757   0.0000770124
       -0.0000467892  -0.0000444040   0.0000611636  -0.0000688092   0.0001073974
        0.0000473965  -0.0000368031   0.0001607345  -0.0000066268   0.0000337111
       -0.0000510809  -0.0001096348  -0.0004091313  -0.0000603373   0.0001751686
       -0.0009536997   0.0009803768  -0.0000867617
        0.0438188659   0.1989333176   0.1777775899  -0.0370559935  -0.1667600428
       -0.1573486182  -0.0078109744  -0.0371578026  -0.0282364962  -0.0010352578
        0.0026813609   0.0048867888  -0.0011540633  -0.0001143747   0.0004499213
        0.0002409809  -0.0000267763  -0.0002077700   0.0001398552   0.0003269781
        0.0000306242  -0.0005165901   0.0000096473  -0.0003362293   0.0008912205
        0.0008918994  -0.0003626513  -0.0002314386   0.0004383867   0.0005732440
        0.0001448788   0.0005026080  -0.0002281063   0.0000098800  -0.0000783556
       -0.0000171259  -0.0000008724   0.0000411452   0.0000797830  -0.0000024103
        0.0000182188   0.0000719832   0.0000313291   0.0000485267   0.0000085528
        0.0000552077  -0.0000209750  -0.0001336175  -0.0002626684   0.0017066515
        0.0000026802   0.0000852940  -0.0004611619   0.0002477785  -0.0004476978
       -0.0001917843   0.0001601456   0.0011595011   0.0004267922   0.0001914435
        0.0000495379   0.0000013990  -0.0001105720  -0.0000869316  -0.0002216676
       -0.0002097875   0.0002365193   0.0002537134  -0.0001885111  -0.0000860900
       -0.0003175162   0.0000096854  -0.0000509132   0.0004842082   0.0001105502
       -0.0002176270  -0.0005047255   0.0001037005   0.0000745450  -0.0000192532
        0.0002510478  -0.0003371901   0.0002813356   0.0000423703   0.0002098830
       -0.0003132423   0.0000301855  -0.0001715588   0.0001475136   0.0000061931
        0.0002289582  -0.0000252645  -0.0001524222  -0.0001662863   0.0000365989
       -0.0000956386  -0.0001475883   0.0001192009  -0.0000729624  -0.0003794833
        0.0000054292  -0.0000058883   0.0017750682  -0.0010533887  -0.0000595348
        0.0010658298  -0.0006855443   0.0035722242   0.0003817074   0.0003270880
       -0.0003747695   0.0001821048  -0.0000669299   0.0000336477   0.0000501658
       -0.0000376766   0.0000694092   0.0000922677  -0.0001381734  -0.0000384136
        0.0000022419   0.0001376845   0.0000339064  -0.0000030702  -0.0000099263
       -0.0000172296  -0.0000186854  -0.0000143450   0.0000013369  -0.0000226337
       -0.0000334396   0.0000193067  -0.0000578947  -0.0000578893   0.0000771891
       -0.0002256468  -0.0000149532  -0.0001053424   0.0000220602  -0.0000005185
       -0.0000536501   0.0000462108  -0.0000193924  -0.0000089849   0.0000116365
       -0.0000377821   0.0000105368  -0.0000366118   0.0000048305   0.0000222084
       -0.0000212932  -0.0000170832   0.0000145065  -0.0000230537   0.0000340826
        0.0000019652   0.0000112587   0.0000467393  -0.0000112561   0.0000335692
       -0.0000062172  -0.0000816618  -0.0002017398  -0.0000047278   0.0000413301
       -0.0002783131   0.0005055738  -0.0004745948
       -0.0703071549  -0.0643660140  -0.0370559935   0.3881993308   0.0530265638
       -0.0020720812  -0.0490397632  -0.0059050249   0.0355899038  -0.0825793179
        0.0485623542  -0.0233247156  -0.0212743553   0.0117997152  -0.0072225826
       -0.0057583659  -0.0039500574  -0.0023308496   0.0018354998   0.0013751143
        0.0004921129  -0.0046463766   0.0003944669  -0.0022319806   0.0207229548
        0.0000726113   0.0055008375  -0.0089559130   0.0008437812  -0.0007406665
       -0.0003414198   0.0007607951  -0.0001339879  -0.0000387680  -0.0001164981
       -0.0003866367  -0.0000044438   0.0000174587   0.0001108081  -0.0000731260
       -0.0001709844  -0.0000253382   0.0000223403   0.0001359276  -0.0000278226
       -0.0004140544  -0.0001314754   0.0002330239  -0.0028382541  -0.0193887705
       -0.0005666097   0.0063786917  -0.0018619086  -0.0002864812   0.0035363923
        0.0117236928  -0.0011278382  -0.0121313155  -0.0042596148  -0.0001454112
       -0.0020099120  -0.0005849084   0.0020589231   0.0004799888   0.0023034864
        0.0015037134  -0.0031453141  -0.0031968756   0.0027324349   0.0023797162
        0.0023965118  -0.0019491485  -0.0001714460  -0.0017119974  -0.0003721939
        0.0039656232   0.0024981605  -0.0031115632  -0.0005562149  -0.0002705184
       -0.0001826199   0.0049531913   0.0006045838  -0.0030105035  -0.0014344769
        0.0022413580  -0.0006682423   0.0028022591  -0.0010436343  -0.0013149327
       -0.0040365615   0.0003232553   0.0024274172   0.0014930212  -0.0024472659
        0.0017635578  -0.0018596630  -0.0002519052   0.0011946593   0.0031558226
       -0.0025657386   0.0002069457  -0.0368812646   0.0105343781   0.0078505892
       -0.1337424098  -0.0367807546   0.0251834735  -0.0006126636   0.0002201473
        0.0001714498  -0.0003384217   0.0005898323  -0.0001269326   0.0000275301
       -0.0002847196   0.0003342245   0.0005417904  -0.0012744544   0.0002290784
        0.0001648383   0.0000580590   0.0001005253   0.0000655403   0.0001174459
        0.0000190498   0.0000614981   0.0000282415   0.0000091676   0.0000932363
        0.0000673451   0.0000203518   0.0001250366   0.0000031114  -0.0000258795
        0.0008163002   0.0002548902   0.0005655093   0.0000713715  -0.0001179249
        0.0001911537  -0.0001071021   0.0001289705   0.0000783025  -0.0000070177
        0.0002034950  -0.0000478477   0.0001879112  -0.0000250460  -0.0000372991
        0.0001087090   0.0001312747  -0.0000310885   0.0001461998  -0.0000910567
       -0.0000015787  -0.0000391409  -0.0001920955   0.0000336232  -0.0001288306
        0.0000993191   0.0002093641   0.0000594613   0.0001496955  -0.0005770718
        0.0010788131  -0.0006767990   0.0003256970
       -0.0675277119  -0.3452018840  -0.1667600428   0.0530265638   0.5869205480
        0.1016540699  -0.0047580271  -0.0582637981   0.0268898828   0.0445370581
       -0.1041729132   0.0234015131   0.0134853382   0.0064073644   0.0020490763
       -0.0023171622  -0.0003355453   0.0009213703   0.0023006845   0.0008105103
        0.0002357412  -0.0027137956  -0.0047865632   0.0011554407   0.0003404103
       -0.0178518202   0.0048539823   0.0066632454   0.0013880827  -0.0001934129
       -0.0004463971  -0.0031715301  -0.0000826675  -0.0000343208   0.0003260242
        0.0002413059  -0.0000067290  -0.0000856688  -0.0002643817  -0.0000643950
       -0.0000088096   0.0000424435  -0.0001186379  -0.0000341951  -0.0000040682
        0.0001173047   0.0002826065   0.0002584417  -0.0205756154  -0.0063619056
        0.0050619180   0.0032529083  -0.0060610674   0.0005796194  -0.0006086658
        0.0057827298  -0.0002431964  -0.0042235267  -0.0020559832  -0.0006734087
       -0.0004032371   0.0009878936   0.0006265208   0.0010159687   0.0004793259
        0.0004910591  -0.0010386171  -0.0011926518   0.0010304048   0.0007604287
        0.0010643002  -0.0003967217   0.0000615490  -0.0015568698   0.0001039082
        0.0003545494   0.0021344710  -0.0001685012  -0.0002852394   0.0000404470
       -0.0013932458   0.0021484592  -0.0017632210  -0.0004023667  -0.0011972636
        0.0021849491  -0.0001689961   0.0011796341  -0.0011634817   0.0000431094
       -0.0016616084   0.0002744834   0.0008817561   0.0012017110  -0.0006035548
        0.0008312413   0.0003060630  -0.0002332706   0.0000528756   0.0050873744
       -0.0047216549  -0.0013214666  -0.0009082244   0.0124084718   0.0003733552
       -0.0267082226  -0.0615796106   0.0032405060  -0.0027356845  -0.0000033790
       -0.0009617057  -0.0012304680   0.0006273669  -0.0003506075  -0.0003318037
        0.0002155755  -0.0004152770   0.0001884940  -0.0000683838  -0.0000341784
        0.0000543565  -0.0001265599  -0.0003295894   0.0000415140   0.0001650386
        0.0000754083   0.0000879676   0.0001634453   0.0000045991   0.0000914147
        0.0001605577  -0.0001013675   0.0000441736   0.0000209631  -0.0000503993
       -0.0004002542  -0.0005987736  -0.0002985131  -0.0001252664   0.0000769795
        0.0001003179  -0.0001958048   0.0001890660   0.0000110877  -0.0000641113
        0.0002544988  -0.0001055858   0.0001711962   0.0000357622  -0.0001561830
        0.0001257093   0.0000818141  -0.0001097445   0.0001320149  -0.0002129423
       -0.0000745722   0.0000977933  -0.0003226122   0.0000412372  -0.0000204308
        0.0000852974   0.0002153502   0.0015892567   0.0003197176  -0.0002097787
        0.0022380791  -0.0013496406  -0.0001975636
       -0.0412038063  -0.1768930109  -0.1573486182  -0.0020720812   0.1016540699
        0.6690198826   0.0491569597   0.0411653607  -0.4324692933  -0.0211844398
        0.0257350661  -0.0480404408  -0.0073892061   0.0006217417  -0.0035460004
       -0.0019499585   0.0004631813   0.0046634955  -0.0005256161   0.0000086957
       -0.0003600587  -0.0013384190   0.0014879371   0.0043558597   0.0056207207
        0.0024182414   0.0021191891  -0.0021929655  -0.0014440625  -0.0047435272
        0.0000464784   0.0011495670   0.0012959068  -0.0002184259  -0.0000430508
        0.0003392810   0.0000373333   0.0000492067  -0.0000246468   0.0001304987
        0.0000417152  -0.0003867898   0.0000578721   0.0001955680   0.0000288924
       -0.0001377187  -0.0002656028  -0.0000841014  -0.0006610695   0.0009764756
        0.0021931851  -0.0012963357   0.0001674099   0.0015294056  -0.0002971027
       -0.0023147861  -0.0001474130   0.0024948640   0.0009716411  -0.0004502130
        0.0007016692  -0.0003592352  -0.0004743286  -0.0008354564  -0.0003052965
       -0.0000747570   0.0011083632   0.0011763329  -0.0010356982  -0.0011370592
       -0.0006237393   0.0009378253   0.0000663251   0.0001429277  -0.0004309354
       -0.0005402195  -0.0008528139   0.0006333764   0.0000497547   0.0000075792
        0.0005135639  -0.0008047153   0.0003712469   0.0004879521   0.0002430510
       -0.0002863430  -0.0002467098  -0.0009345142  -0.0000572855   0.0005813574
        0.0012497743  -0.0001694025  -0.0008199247  -0.0007870701  -0.0001291700
       -0.0002281512   0.0001539599   0.0005494475  -0.0002201478  -0.0004106161
        0.0007435416   0.0029326183   0.0057210109  -0.0030246727  -0.0007875748
        0.0182740785   0.0084838305  -0.0367419121   0.0002641223  -0.0001963893
       -0.0013706964   0.0001925894  -0.0000122437   0.0003410002   0.0004080913
       -0.0003653861  -0.0010325817   0.0001468920  -0.0004530693   0.0000795255
        0.0000673682  -0.0003733264  -0.0003296152  -0.0000212996  -0.0001397349
       -0.0000558619  -0.0000200379  -0.0000379709  -0.0000383057  -0.0000087965
       -0.0000364911   0.0000199849   0.0000990576   0.0001794619  -0.0001486837
       -0.0002921619  -0.0000797251  -0.0001036748  -0.0000387979  -0.0001409497
       -0.0000181948   0.0000340353  -0.0001363523  -0.0000366551   0.0000655152
       -0.0001234666   0.0000741536  -0.0000647769  -0.0000151795   0.0000472609
       -0.0000557227  -0.0000334527   0.0000512899  -0.0000280752   0.0001058426
        0.0000868574  -0.0000592752   0.0001483362   0.0000115089  -0.0000986696
        0.0000910340   0.0000112085  -0.0001699156  -0.0001762740   0.0002429299
        0.0003839399  -0.0000169747  -0.0008019995
        0.0105241243  -0.0010023580  -0.0078109744  -0.0490397632  -0.0047580271
        0.0491569597   0.0411697064   0.0067543151  -0.0470195188   0.0056079302
        0.0037768713  -0.0138871555   0.0009254730   0.0006011785  -0.0001691597
        0.0005840198   0.0008757097   0.0012036727  -0.0006805903  -0.0003591640
       -0.0001742436   0.0013235364  -0.0000552324   0.0011790530  -0.0049483726
        0.0004906260  -0.0016454788   0.0020500328   0.0002385839  -0.0000071059
       -0.0000594526  -0.0001697431  -0.0000193214   0.0000465566   0.0000251971
        0.0001507854   0.0000258474  -0.0000142523  -0.0000202989   0.0000259296
        0.0000577557  -0.0000093217   0.0000036804  -0.0000586369  -0.0000010858
        0.0001298281   0.0000482521  -0.0000742521  -0.0017135038   0.0034159529
        0.0011174053  -0.0013405800  -0.0001117097   0.0000137254  -0.0015689228
       -0.0032304849   0.0005756605   0.0037173231   0.0012780114   0.0001093832
        0.0004711125   0.0006037582  -0.0005023081   0.0000911947  -0.0009647942
       -0.0006963575   0.0009060943   0.0009778268  -0.0007446609  -0.0004948642
       -0.0009046310   0.0003229294  -0.0000303537   0.0009114398   0.0003989598
       -0.0014168167  -0.0009887045   0.0009878028   0.0002399206   0.0001304743
       -0.0000537174  -0.0018930140  -0.0001630165   0.0010568713   0.0006003940
       -0.0010482793   0.0003857246  -0.0008973564   0.0005701678   0.0002678945
        0.0013106403  -0.0001315126  -0.0007409219  -0.0004717847   0.0011397915
       -0.0007180587   0.0007853572  -0.0003439994  -0.0003371000  -0.0013580340
        0.0015001409  -0.0003600797   0.0038690048  -0.0037024847  -0.0006674591
       -0.0079480263  -0.0053145484   0.0194613008   0.0004771363  -0.0000081571
        0.0000054341  -0.0000521052  -0.0000100768  -0.0000252444   0.0000306366
        0.0000263676  -0.0002297229  -0.0001757134   0.0003013269  -0.0000598971
       -0.0000956028   0.0000056704  -0.0000273712  -0.0000225448  -0.0000411642
       -0.0000163161  -0.0000211418  -0.0000226375   0.0000121924  -0.0000347968
       -0.0000258760  -0.0000026199  -0.0000461038   0.0000187972  -0.0000088628
       -0.0003426365  -0.0000864896  -0.0002406774  -0.0000308281   0.0000794546
       -0.0000524438   0.0000226498  -0.0000526675  -0.0000221759  -0.0000097019
       -0.0000477374   0.0000025404  -0.0000547411   0.0000017510   0.0000096012
       -0.0000394683  -0.0000539728   0.0000111545  -0.0000384229   0.0000136690
       -0.0000109262   0.0000119503   0.0000623036  -0.0000141158   0.0000710759
       -0.0000529087  -0.0000636840  -0.0002244156  -0.0000554925   0.0000402686
        0.0000285033  -0.0001266341  -0.0000366824
        0.0020728915   0.0057498138  -0.0371578026  -0.0059050249  -0.0582637981
        0.0411653607   0.0067543151   0.0520435044  -0.0290000662   0.0010661251
        0.0007473592   0.0183298004  -0.0016033400  -0.0020003260   0.0004517144
        0.0007393737   0.0006700179  -0.0014438863  -0.0012339987  -0.0008663006
       -0.0000373289   0.0010935900   0.0001907393  -0.0012044085   0.0021579284
       -0.0014914963   0.0006682248  -0.0014800312   0.0007687390   0.0007589053
        0.0001437005   0.0006114395  -0.0002455226   0.0000271330  -0.0000488996
       -0.0000729483  -0.0000186689  -0.0000376794   0.0000878047   0.0000022153
       -0.0000147129   0.0000154009   0.0000099676  -0.0000508336  -0.0000283566
       -0.0000021083   0.0000471366  -0.0000118283   0.0009121416  -0.0017282874
       -0.0006309663  -0.0012251733   0.0011602653  -0.0002692240   0.0004368175
       -0.0022161722   0.0000027824   0.0008805256   0.0004412630   0.0001795302
        0.0000567367  -0.0002083679  -0.0001547044  -0.0002395800  -0.0000572804
       -0.0000770158   0.0001884541   0.0002183118  -0.0002078713  -0.0001568241
       -0.0002136295   0.0000715110  -0.0000253813   0.0003229106  -0.0000048011
       -0.0000101734  -0.0004467755  -0.0000071874   0.0000616860  -0.0000389965
        0.0003110174  -0.0004745884   0.0004676078   0.0000099463   0.0002908564
       -0.0006082857   0.0001115091  -0.0001604772   0.0003937575  -0.0001703559
        0.0002540327  -0.0000565778  -0.0001023081  -0.0001980570   0.0002124021
       -0.0002282241  -0.0000928159  -0.0000907472   0.0000831701  -0.0006784919
        0.0012305295   0.0001222626   0.0016881879  -0.0018881394   0.0005406193
       -0.0052051646   0.0051245990   0.0066477842   0.0002221389   0.0000368085
        0.0006983133   0.0002013875  -0.0001366052   0.0000265130  -0.0000232160
        0.0000076953   0.0003349252   0.0001008543  -0.0001763339   0.0000405887
       -0.0000014758   0.0001646425   0.0001527330  -0.0000047129  -0.0000361240
       -0.0000201819  -0.0000167812  -0.0000434354   0.0000162296  -0.0000192607
       -0.0000308452   0.0000196216   0.0000009647   0.0000122364  -0.0000135857
       -0.0000313759   0.0000562046   0.0000100447   0.0000435563  -0.0000161370
        0.0000016931   0.0000382137  -0.0000481460   0.0000042047   0.0000137883
       -0.0000485012   0.0000257030  -0.0000363703  -0.0000202567   0.0000418484
       -0.0000231296  -0.0000150051   0.0000221496  -0.0000319042   0.0000335948
        0.0000050362  -0.0000316740   0.0000798166  -0.0000091255   0.0000036877
       -0.0000473667  -0.0000288778  -0.0001772108  -0.0000255360  -0.0000682387
       -0.0003542597   0.0001802032   0.0002378683
        0.0015199509  -0.0092754684  -0.0282364962   0.0355899038   0.0268898828
       -0.4324692933  -0.0470195188  -0.0290000662   0.4815881482  -0.0000275560
        0.0038307893  -0.0132708330   0.0023146843   0.0034195040  -0.0000511425
       -0.0005289028  -0.0008439333   0.0015452302   0.0012588128   0.0003964043
        0.0001286664  -0.0001195796   0.0000115849   0.0014795587  -0.0063677078
       -0.0000461110  -0.0032663511   0.0024689804  -0.0002905642   0.0017150483
       -0.0001235684  -0.0010735156  -0.0005082356   0.0001540638   0.0000154682
       -0.0003028644  -0.0000415751  -0.0000734598  -0.0000562541  -0.0001186855
       -0.0000900885   0.0002608159  -0.0000621759  -0.0001185033  -0.0000041248
       -0.0000571390   0.0001144196   0.0002582337  -0.0005704900  -0.0038941339
       -0.0033511473   0.0021548527   0.0000959684  -0.0000573753   0.0011559442
        0.0031157670  -0.0006712828  -0.0038734686  -0.0013332562   0.0000825175
       -0.0006544349  -0.0008917731   0.0005145548   0.0002708885   0.0012354778
        0.0008166172  -0.0013949173  -0.0016007634   0.0011248496   0.0008025067
        0.0013474805  -0.0004805111   0.0000987640  -0.0014245240  -0.0003800194
        0.0016100684   0.0018344294  -0.0010704081  -0.0003037478  -0.0000875910
       -0.0004245218   0.0025341767  -0.0004192504  -0.0011833041  -0.0008470110
        0.0015255415  -0.0003240206   0.0013692288  -0.0007882766  -0.0004020458
       -0.0020415636   0.0002942316   0.0011396278   0.0009423475  -0.0012154969
        0.0008459823  -0.0010151544   0.0005037418   0.0003572197   0.0020954398
       -0.0012684092  -0.0003428541  -0.0056950436   0.0051730786   0.0001980495
        0.0140059227   0.0025392019  -0.0042966898   0.0004977359  -0.0003382354
       -0.0006824587  -0.0004099740   0.0002469539  -0.0001172898  -0.0000321774
        0.0001329761  -0.0004226737  -0.0002573944   0.0005213477  -0.0001433142
       -0.0000127423   0.0002675095   0.0001336967   0.0000299861   0.0001345050
        0.0000463388   0.0000329440   0.0000727127  -0.0000161015   0.0000489817
        0.0000594771  -0.0000543000  -0.0000002742  -0.0000907888  -0.0000073022
        0.0003710137  -0.0000021980   0.0002936093   0.0000619390   0.0000247546
        0.0000940336  -0.0000510222   0.0001718752   0.0000400248  -0.0000211262
        0.0001307838  -0.0000491101   0.0001032087   0.0000210276  -0.0000540517
        0.0000784353   0.0000698103  -0.0000524712   0.0000666226  -0.0000802732
       -0.0000433146   0.0000536115  -0.0001655869   0.0000206700   0.0000386522
        0.0000005632   0.0000876151   0.0003714384   0.0001079025   0.0001074765
       -0.0004541543   0.0001070965  -0.0000864216
        0.0066022933  -0.0074914525  -0.0010352578  -0.0825793179   0.0445370581
       -0.0211844398   0.0056079302   0.0010661251  -0.0000275560   0.5671989335
        0.0865862889   0.1028465463  -0.3024208144  -0.0795699573  -0.0484309942
       -0.0578738647   0.0543527120  -0.0229017450  -0.0179139007  -0.0205236162
       -0.0000511668   0.0276571395  -0.0033380277   0.0081984557  -0.0973526483
       -0.0452126530  -0.0061624486  -0.0219273997  -0.0398109993  -0.0035107912
       -0.0046154609   0.0005001626  -0.0002121464  -0.0002841883  -0.0011843275
        0.0000236421   0.0005053344   0.0001116189  -0.0000301122   0.0000225714
       -0.0001084911  -0.0002297975   0.0003244954   0.0002971766   0.0005539720
       -0.0001158009  -0.0015864724  -0.0002772917   0.0012501150   0.0156593769
        0.0009642816   0.0111216358  -0.0084979892   0.0005924813  -0.0095458810
        0.0184893096   0.0024085282   0.0026728059   0.0005915852  -0.0006752546
        0.0012948271   0.0030625035   0.0000025883   0.0009328532  -0.0019480095
       -0.0015838080   0.0014813823   0.0016826137  -0.0008631613  -0.0006973630
       -0.0013440332   0.0005325846  -0.0001973830   0.0010322583   0.0007554282
       -0.0029815731  -0.0011652294   0.0020330334   0.0003925623   0.0002403486
       -0.0008458178  -0.0028253407  -0.0015900195   0.0023738107   0.0000606813
        0.0003366198  -0.0000614722  -0.0022122323  -0.0006033763   0.0019232703
        0.0029254682  -0.0003345206  -0.0019159843  -0.0010417953   0.0017097192
       -0.0003639067   0.0029580878  -0.0007815496  -0.0016640433  -0.0034118040
       -0.0102173259  -0.0004416829  -0.0071487615   0.0018949900   0.0013072767
       -0.0010951757  -0.0048180528  -0.0053431974  -0.0129740272  -0.0068113892
       -0.0014800226  -0.0014190353   0.0030002886  -0.0026296453  -0.0000099269
       -0.0009489235  -0.0001718623  -0.0016913612   0.0031057023  -0.0020137973
       -0.0001478402   0.0000968376  -0.0000214996  -0.0000144722  -0.0001663135
       -0.0000550023  -0.0001177067  -0.0000183142  -0.0000382761  -0.0000510868
       -0.0001650769   0.0000352358  -0.0001379110   0.0000935613  -0.0000613165
        0.0003024540   0.0001731738   0.0005511251  -0.0000553816   0.0000563068
       -0.0000395113  -0.0000178353   0.0000636025  -0.0000337871  -0.0000307981
        0.0000369302  -0.0000254037  -0.0000125340   0.0000473121  -0.0000710979
        0.0000289187  -0.0000086046  -0.0000554844   0.0000398961   0.0000111672
        0.0000519902   0.0000073404  -0.0001057235  -0.0000379550  -0.0000475952
       -0.0001022234  -0.0000234353  -0.0005699688   0.0000429875  -0.0006886778
        0.0001504606  -0.0004256650   0.0001046001
        0.0094161146  -0.0156651763   0.0026813609   0.0485623542  -0.1041729132
        0.0257350661   0.0037768713   0.0007473592   0.0038307893   0.0865862889
        0.5331524037  -0.0551798749  -0.0282126848  -0.0918573132   0.0019908294
        0.0074187928   0.0264883080  -0.0018456503  -0.0144405111  -0.0116233886
       -0.0019539587   0.0275664613  -0.0528522479   0.0167606741  -0.0845745942
       -0.2616737857   0.0143610113  -0.0256110218  -0.0158239046  -0.0061608396
       -0.0010140368   0.0011022586   0.0001246556  -0.0002082318  -0.0008084699
        0.0001975232   0.0002747278   0.0002363828   0.0000304222   0.0000460817
        0.0000976466  -0.0001329683   0.0001082565   0.0004181781   0.0002638257
        0.0000298879  -0.0009770158  -0.0003591638   0.0005072958   0.0071386987
        0.0012463431   0.0086937081  -0.0053522946   0.0005693632  -0.0064510814
        0.0131402774   0.0014390699   0.0009060691   0.0003625443  -0.0005440179
        0.0007840992   0.0020565728   0.0001801837   0.0007254700  -0.0010109346
       -0.0008628813   0.0007254063   0.0008335522  -0.0003667979  -0.0003163413
       -0.0006269851   0.0002844511  -0.0000834456   0.0003982524   0.0004644051
       -0.0017627386  -0.0003912925   0.0011494874   0.0002346965   0.0001292777
       -0.0006815513  -0.0016859691  -0.0012438588   0.0014461097  -0.0000834978
        0.0005184919  -0.0000756736  -0.0013091207  -0.0005292911   0.0012940776
        0.0017242372  -0.0001548367  -0.0011569984  -0.0005245663   0.0010296055
       -0.0000092325   0.0020836392  -0.0006576827  -0.0011006655  -0.0021418471
       -0.0075316299  -0.0006158690  -0.0048945755   0.0033623151   0.0024807301
       -0.0034179464  -0.0051035013  -0.0028617829  -0.0278263878  -0.0082635915
       -0.0052327697   0.0031141308  -0.0023750411   0.0019322812  -0.0005360623
        0.0002871875  -0.0005859841   0.0023752893  -0.0028762532   0.0016783568
       -0.0000299000   0.0000492916  -0.0000827030  -0.0000041094  -0.0001382533
       -0.0000657098  -0.0000482456  -0.0000545714  -0.0000027844  -0.0000258352
       -0.0001365316   0.0000621361  -0.0000922962   0.0000318128   0.0000313007
        0.0003374367   0.0003017378   0.0002400827  -0.0000359208   0.0000167127
        0.0000211709  -0.0000317819   0.0000590989  -0.0000274667  -0.0000316243
        0.0000280785  -0.0000221255  -0.0000068593   0.0000283694  -0.0000421067
        0.0000272651   0.0000051517  -0.0000423146   0.0000140768  -0.0000127497
        0.0000093176  -0.0000048089  -0.0000856115  -0.0000564473  -0.0000149535
       -0.0000938520  -0.0000219703  -0.0002456350   0.0002077039  -0.0006661047