$hessian                                                                        
        0.0458865539   0.0297637096   0.0443681852  -0.0600307521  -0.0256739635
       -0.0410975367   0.0113455519   0.0016462452   0.0030020928   0.0066664867
        0.0085227858   0.0108722528   0.0001753198   0.0001312482   0.0007460113
        0.0007903213   0.0005638953  -0.0006609905  -0.0003941306  -0.0002726391
        0.0000241532   0.0014058902   0.0005201201  -0.0007898304  -0.0068838429
        0.0006482367   0.0003258980   0.0058534507  -0.0015498631  -0.0000355714
        0.0001409740   0.0002861224   0.0000376013   0.0000681940  -0.0000851404
        0.0000299540   0.0000031676   0.0000069533   0.0000217775   0.0000044384
        0.0000169199   0.0000060668   0.0000078013   0.0000035416  -0.0000203273
        0.0000770752  -0.0000952252  -0.0000431742  -0.0090317837   0.0031235783
       -0.0008823987   0.0013650642  -0.0014520868   0.0013363753   0.0004485954
        0.0014220600   0.0001418990  -0.0007392727  -0.0002664322  -0.0003630456
        0.0001456124   0.0000350326   0.0006975825   0.0000478054   0.0000051238
       -0.0002048100  -0.0000253539  -0.0000267073   0.0000975748  -0.0000253650
       -0.0000084722  -0.0000254832  -0.0000203348  -0.0000171559   0.0000515276
       -0.0001101577  -0.0000192408  -0.0002185667   0.0000051597  -0.0000095128
       -0.0000130733  -0.0000638397  -0.0000021603   0.0001975142  -0.0000179260
       -0.0000143619  -0.0000432837  -0.0000337415  -0.0000134072   0.0000147021
       -0.0000142663  -0.0000304465  -0.0001175082   0.0001044721   0.0000096728
        0.0002009143   0.0001847781   0.0000475786  -0.0006029887   0.0000414813
       -0.0014263913   0.0011554350   0.0012963261  -0.0011164153  -0.0009137927
        0.0010436259  -0.0147548313  -0.0171371154   0.0008405734   0.0002463851
       -0.0001188812   0.0000152701  -0.0000408346  -0.0000427015  -0.0000209069
        0.0000841725   0.0001433783  -0.0002493203   0.0003080399  -0.0000220756
       -0.0000478075   0.0000345396   0.0000171211  -0.0000149122  -0.0000198367
       -0.0000150063  -0.0000129198  -0.0000223669  -0.0000001693  -0.0000173289
       -0.0000232368   0.0000154198  -0.0000634022   0.0000299547  -0.0000161758
       -0.0005055430  -0.0002065594  -0.0000393440   0.0000355378   0.0000117344
        0.0001490381   0.0000149760   0.0000144248  -0.0000140199  -0.0000235686
       -0.0000081395  -0.0000242499  -0.0000272878  -0.0000128668  -0.0000054106
       -0.0000316723  -0.0000158785   0.0000049554  -0.0000289058  -0.0000102302
        0.0000290254   0.0000230498   0.0000215675   0.0000083307   0.0000089242
        0.0000277452  -0.0001174393  -0.0000892178   0.0000281669   0.0000842909
        0.0004770833  -0.0003651520  -0.0001941075
        0.0297637096   0.1790028551   0.2072030322  -0.0255506703  -0.1772984481
       -0.1933781258   0.0016411109   0.0189865691   0.0139224100  -0.0028979782
       -0.0107561905  -0.0167730409  -0.0032102718  -0.0011058572  -0.0003936179
        0.0000859876  -0.0009934103   0.0014841375   0.0004442970   0.0010021072
       -0.0000331584  -0.0013096196  -0.0006273090   0.0015733043   0.0068871265
       -0.0013115736  -0.0014828195  -0.0014881973  -0.0001015105  -0.0002202910
        0.0002908167   0.0014676019   0.0001450988  -0.0000748096  -0.0002331261
        0.0001856905   0.0000126113   0.0000573795   0.0000954260   0.0000125010
        0.0000307082   0.0000268408   0.0000100238   0.0000483476  -0.0000828259
       -0.0000835538  -0.0002646324  -0.0002463789  -0.0032227161   0.0003637246
       -0.0012333014   0.0001138646  -0.0005700599   0.0010396988   0.0010960638
        0.0011321058   0.0000737248  -0.0010309942   0.0000392628  -0.0002198563
        0.0002232823  -0.0000677878   0.0007856185   0.0000201077   0.0000931534
       -0.0001843593  -0.0000029442   0.0000023053   0.0001351394  -0.0000114622
        0.0000123939  -0.0000351433  -0.0000273311  -0.0000075639   0.0001085340
       -0.0000681721  -0.0000028111  -0.0002659069  -0.0000467546  -0.0000259446
       -0.0000001761  -0.0000791220  -0.0000118276   0.0002279227  -0.0000173454
       -0.0000015662  -0.0000881662   0.0000100150   0.0000206307   0.0000576059
       -0.0000008667   0.0000120011  -0.0001477762   0.0000062530   0.0000964664
        0.0002243315   0.0003509976  -0.0000006214  -0.0008595345  -0.0011345866
       -0.0007105209   0.0010158936   0.0025640614  -0.0020027203  -0.0000342717
       -0.0033881011  -0.0056543293  -0.0108238078   0.0004097576   0.0001356545
       -0.0007579381   0.0003221798  -0.0001220766   0.0000981396   0.0001511737
       -0.0000935728  -0.0003655693   0.0003688125  -0.0004198797  -0.0000580191
        0.0000400339   0.0001021544   0.0000913479  -0.0000159880  -0.0000914083
       -0.0000578885  -0.0000142882  -0.0000945772  -0.0000002491  -0.0000193645
       -0.0001079570   0.0000611258   0.0000338282   0.0000665710  -0.0000793505
       -0.0002840004  -0.0000677093  -0.0000829572   0.0000505724  -0.0000768610
        0.0001143914   0.0000187060  -0.0000053313  -0.0000144959  -0.0000213211
       -0.0000187368  -0.0000228023  -0.0000295493  -0.0000216850  -0.0000142311
       -0.0000229026  -0.0000225359   0.0000057699  -0.0000269637  -0.0000245205
        0.0000269737   0.0000049436  -0.0000196487   0.0000477307   0.0000097318
       -0.0001201077  -0.0001311569  -0.0002833134  -0.0000205505   0.0000663510
       -0.0005793812   0.0004029760  -0.0007290234
        0.0443681852   0.2072030322   0.3926175579  -0.0380920611  -0.1815430081
       -0.3482867342  -0.0030157288  -0.0140586452  -0.0414393085  -0.0022423870
       -0.0049529316  -0.0006532830  -0.0027284582  -0.0009832959   0.0006322575
        0.0001176687  -0.0004055845   0.0003895243   0.0000842252   0.0007622891
        0.0000019774  -0.0010191758  -0.0005282959   0.0005072970   0.0042725480
        0.0002716664  -0.0018316604  -0.0000540645  -0.0003417385   0.0008219662
        0.0002933497   0.0013905038  -0.0002665162  -0.0000645971  -0.0002729869
        0.0001907782   0.0000274850   0.0001068084   0.0001185519   0.0000209952
        0.0000778589   0.0001020407   0.0000248506   0.0001178410  -0.0000531635
       -0.0000453718  -0.0002009442  -0.0003555564  -0.0037248108   0.0020295794
       -0.0018948947   0.0003534298  -0.0009125128   0.0005271396   0.0012702917
        0.0011721626  -0.0001197999  -0.0010958300  -0.0001257748   0.0001096473
        0.0002047960  -0.0000373919   0.0007562990   0.0000032188   0.0000234477
       -0.0001337059   0.0000278466   0.0000161939   0.0001451962  -0.0000227851
        0.0000003496  -0.0000096432  -0.0000330843  -0.0000193287   0.0001628715
       -0.0000407216   0.0000231620  -0.0002815284  -0.0000670180  -0.0000542039
       -0.0000347097  -0.0001135922  -0.0000174375   0.0002658311   0.0000032144
       -0.0000033098  -0.0000700084   0.0000655441   0.0000398918   0.0000989073
        0.0000296885  -0.0000067042  -0.0001601374  -0.0000647038   0.0000100236
        0.0002750622   0.0004523982   0.0000829941  -0.0010708336  -0.0007327127
       -0.0006741580   0.0004204010   0.0022471068  -0.0019958566   0.0005652219
       -0.0008284622  -0.0057987676  -0.0007871992  -0.0000844684   0.0003704334
       -0.0004878401   0.0003173508  -0.0000996695  -0.0000277503   0.0001375887
       -0.0001175777  -0.0001381300   0.0002963964  -0.0003601441  -0.0000219742
        0.0000339491   0.0001427314   0.0000537010  -0.0000119992  -0.0000635402
       -0.0000635807  -0.0000119936  -0.0000778028   0.0000016825  -0.0000223341
       -0.0001094912   0.0000598051  -0.0000121142  -0.0000725661   0.0000718896
       -0.0003828070  -0.0001136183  -0.0000460930   0.0000775827  -0.0000153201
        0.0000249321   0.0000445481   0.0000113156   0.0000012594  -0.0000165183
       -0.0000128741  -0.0000151422  -0.0000438277  -0.0000284970  -0.0000180386
       -0.0000029529  -0.0000084720  -0.0000001841  -0.0000220935  -0.0000192369
        0.0000193850  -0.0000472360  -0.0000157970   0.0000865118  -0.0000592353
       -0.0000864868  -0.0001986196  -0.0002820817   0.0000017663  -0.0000312466
        0.0002109685   0.0002799192  -0.0005304126
       -0.0600307521  -0.0255506703  -0.0380920611   0.3915312918   0.0308279139
        0.0000033469  -0.0600135023  -0.0254437380   0.0381118184  -0.0926206210
        0.0546969580  -0.0000682281  -0.0237772686   0.0148560756  -0.0000214838
       -0.0046459864  -0.0061378769   0.0000001307   0.0025306537   0.0025262737
        0.0000009825  -0.0051337915  -0.0007929940  -0.0000028056   0.0278796162
        0.0059269317   0.0000049865  -0.0264186908   0.0074591331  -0.0000050583
       -0.0009690057  -0.0007906087   0.0000002508  -0.0002434231   0.0002821942
       -0.0001174333   0.0000317082  -0.0000680926  -0.0000186496  -0.0000255756
       -0.0000264763   0.0000000958   0.0000314946  -0.0000680991   0.0000190265
       -0.0002436182   0.0002821567   0.0001178722   0.0190799025  -0.0243470292
        0.0000132367  -0.0054825515   0.0015893010   0.0000006453  -0.0015163224
       -0.0070268227   0.0000026473   0.0031945723   0.0010450437  -0.0000009680
       -0.0006573351  -0.0001386038  -0.0025301363  -0.0001714191   0.0000136973
        0.0007153261  -0.0000115938   0.0000732403  -0.0004347220   0.0000270060
       -0.0000037768   0.0001218055   0.0000532426   0.0000547793  -0.0003057331
        0.0002707362  -0.0000108357   0.0008212351   0.0001294789   0.0001492749
       -0.0000002851   0.0002706489  -0.0000112753  -0.0008213606   0.0000528780
        0.0000547636   0.0003055625   0.0000263976  -0.0000042962  -0.0001219184
       -0.0000119923   0.0000730341   0.0004348564  -0.0001716793   0.0000132459
       -0.0007150702  -0.0006568250  -0.0001389399   0.0025310473   0.0013220131
        0.0088803473  -0.0000030762  -0.0297948526   0.0008869841   0.0000026996
       -0.1353844869  -0.0384804784   0.0000463439  -0.0006822093  -0.0002650813
        0.0000010218  -0.0005009565   0.0006156995  -0.0000000187   0.0001227622
       -0.0003584295   0.0000009838   0.0006379720  -0.0010081132   0.0000012250
        0.0001711436  -0.0000702414  -0.0000203936   0.0000542293   0.0000784463
        0.0000436562   0.0000338936   0.0000696600   0.0000000220   0.0000539838
        0.0000782017  -0.0000434452   0.0001707295  -0.0000704085   0.0000209376
        0.0008540949   0.0004355368  -0.0000000551  -0.0000231416  -0.0000023846
       -0.0003276800  -0.0000392887  -0.0000393875   0.0000551305   0.0000908375
        0.0000391355   0.0000818904   0.0001035367   0.0000540389   0.0000365387
        0.0001031492   0.0000537224  -0.0000369515   0.0000901495   0.0000385493
       -0.0000820582  -0.0000398839  -0.0000398715  -0.0000549533  -0.0000233947
       -0.0000023549   0.0003281403  -0.0000470827  -0.0002370096   0.0000006345
        0.0004191284  -0.0000204431   0.0000004485
       -0.0256739635  -0.1772984481  -0.1815430081   0.0308279139   0.5447228849
        0.0002763464  -0.0255612092  -0.1764612417   0.1811503786   0.0516785477
       -0.1049263093   0.0000670605   0.0153287772   0.0050867976   0.0000093789
       -0.0029461500   0.0047102861  -0.0000015635  -0.0016199554  -0.0034799676
       -0.0000003728   0.0007020598  -0.0041391398   0.0000063026  -0.0008822477
       -0.0212046213   0.0000177050   0.0070132257   0.0035429425  -0.0000022165
       -0.0007209464  -0.0043090773   0.0000015987   0.0002510676   0.0008365228
       -0.0004529435  -0.0000682637  -0.0002271978  -0.0001748249  -0.0000331675
       -0.0001287218  -0.0000002791  -0.0000682140  -0.0002271400   0.0001743348
        0.0002511568   0.0008365500   0.0004529542  -0.0167893323  -0.0096893750
        0.0000111760   0.0002663403  -0.0040041246   0.0000043283  -0.0028860055
       -0.0030979064   0.0000019657   0.0027081771   0.0000726819  -0.0000011829
       -0.0007308526   0.0000141345  -0.0021672732  -0.0000084443  -0.0001762253
        0.0005269512  -0.0000462682  -0.0000360577  -0.0004073417  -0.0000431747
       -0.0000592838   0.0001274200   0.0000336465   0.0000200007  -0.0002808381
        0.0001615371  -0.0000179223   0.0006751338   0.0002513004   0.0001545963
        0.0000000545   0.0001617756  -0.0000182284  -0.0006748624   0.0000338925
        0.0000200271   0.0002811895  -0.0000429837  -0.0000596362  -0.0001271607
       -0.0000458858  -0.0000362417   0.0004074662  -0.0000082168  -0.0001764430
       -0.0005266899  -0.0007301100   0.0000141831   0.0021681971   0.0060469492
        0.0001952919   0.0000018416   0.0003999803   0.0111976322  -0.0000077975
       -0.0363385361  -0.0623973109   0.0000109141  -0.0024797000  -0.0001837186
       -0.0000016724  -0.0014139353   0.0006290005  -0.0000008317  -0.0005423826
        0.0003120470  -0.0000006186   0.0001268845  -0.0000963081  -0.0000002578
       -0.0000922567  -0.0001677644  -0.0001457953   0.0000500410   0.0002922060
        0.0001668387   0.0000479664   0.0002706458  -0.0000003837   0.0000502310
        0.0002920539  -0.0001675050  -0.0000919741  -0.0001674538   0.0001448013
       -0.0005795611  -0.0004206273   0.0000001025  -0.0000236194   0.0002368198
       -0.0002530092  -0.0000134935   0.0000332073   0.0000901530   0.0000693934
        0.0000602796   0.0000655825   0.0000760524   0.0000623769   0.0000336756
        0.0000762504   0.0000621878  -0.0000333036   0.0000697948   0.0000599450
       -0.0000652806  -0.0000130767   0.0000329003  -0.0000900469  -0.0000233847
        0.0002368492   0.0002530952   0.0015830718   0.0002684739   0.0000001246
        0.0022512782  -0.0010670324  -0.0000000116
       -0.0410975367  -0.1933781258  -0.3482867342   0.0000033469   0.0002763464
        0.7678760429   0.0411173924   0.1929973219  -0.3491126661  -0.0000529893
        0.0000651775  -0.0407964146  -0.0000223684  -0.0000004764  -0.0021609606
       -0.0000006242  -0.0000028794   0.0056064475   0.0000031000   0.0000034295
       -0.0001619243  -0.0000049372   0.0000042004   0.0051987124   0.0000103079
        0.0000162937   0.0014005594  -0.0000070123  -0.0000058223  -0.0044233216
        0.0000004572   0.0000043801   0.0011535108   0.0000260010   0.0000934358
        0.0002551014   0.0000049968   0.0000015391  -0.0001022268   0.0000000749
        0.0000002452  -0.0002007416  -0.0000047679  -0.0000010215  -0.0001025828
       -0.0000265785  -0.0000954522   0.0002542255   0.0000047079   0.0000078468
        0.0013791327  -0.0000000892   0.0000021099   0.0048284967   0.0000025395
        0.0000041908   0.0008702301  -0.0000028101  -0.0000013975  -0.0021294432
        0.0001593924   0.0000534266   0.0005940789  -0.0001619644  -0.0000881192
       -0.0001292067  -0.0000129639   0.0000014189  -0.0000136725   0.0001095801
        0.0000507478  -0.0001143425   0.0000158687   0.0000199670  -0.0000534361
       -0.0002237965  -0.0000888218  -0.0000140968  -0.0000002426  -0.0000002375
       -0.0000751774   0.0002234809   0.0000889146  -0.0000129246  -0.0000158750
       -0.0000200047  -0.0000539064  -0.0001094234  -0.0000506912  -0.0001140631
        0.0000132996  -0.0000016488  -0.0000147031   0.0001617725   0.0000879672
       -0.0001279149  -0.0001580711  -0.0000530314   0.0005903090  -0.0000046169
        0.0000007003   0.0052086588   0.0000070282  -0.0000098577  -0.0022295513
        0.0000424529   0.0000224131  -0.0407587510   0.0000007471  -0.0000006523
       -0.0014614315   0.0000009524  -0.0000003213   0.0003767058   0.0000009004
       -0.0000010304  -0.0012601593   0.0000004921  -0.0000007872  -0.0001465315
       -0.0000639114  -0.0002600201  -0.0002560647  -0.0000124205  -0.0000467641
       -0.0000184143  -0.0000000283  -0.0000002291  -0.0000375942   0.0000123775
        0.0000462856  -0.0000181637   0.0000639230   0.0002598605  -0.0002560663
       -0.0000002995  -0.0000001708  -0.0002014777  -0.0000763082  -0.0000348655
        0.0002074381  -0.0000862259  -0.0000206632  -0.0001247530  -0.0000020141
        0.0000052619  -0.0000063545   0.0000381434   0.0000191984   0.0000141423
       -0.0000382694  -0.0000192898   0.0000142277   0.0000018587  -0.0000053415
       -0.0000062480   0.0000861625   0.0000205771  -0.0001245984   0.0000761772
        0.0000347270   0.0002063955  -0.0000011817   0.0000001041   0.0004026364
       -0.0000002076  -0.0000003641  -0.0013304328
        0.0113455519   0.0016411109  -0.0030157288  -0.0600135023  -0.0255612092
        0.0411173924   0.0458759669   0.0296452082  -0.0443881374   0.0066663427
        0.0085024328  -0.0108899808   0.0001777138   0.0001306703  -0.0007456232
        0.0007891689   0.0005648059   0.0006622600  -0.0003941373  -0.0002730006
       -0.0000246603   0.0014049633   0.0005200196   0.0007909677  -0.0068846948
        0.0006425644  -0.0003313331   0.0058578924  -0.0015513280   0.0000379205
        0.0001409161   0.0002860235  -0.0000378082   0.0000770276  -0.0000952547
        0.0000431468   0.0000077605   0.0000035109   0.0000203293   0.0000043875
        0.0000168878  -0.0000060201   0.0000031302   0.0000069559  -0.0000217275
        0.0000682364  -0.0000850837  -0.0000299857  -0.0090277189   0.0031308898
        0.0008797490   0.0013655748  -0.0014511820  -0.0013364438   0.0004484293
        0.0014228572  -0.0001430512  -0.0007392033  -0.0002661728   0.0003638448
        0.0001848637   0.0000475552   0.0006025827   0.0001044673   0.0000096187
       -0.0002010842  -0.0000143619  -0.0000306332   0.0001175642  -0.0000338169
       -0.0000135150  -0.0000145841  -0.0000179205  -0.0000143196   0.0000432620
       -0.0000638349  -0.0000022425  -0.0001975134   0.0000051790  -0.0000094298
        0.0000131465  -0.0001101635  -0.0000190419   0.0002186508  -0.0000202133
       -0.0000169924  -0.0000514580  -0.0000252015  -0.0000082373   0.0000254510
       -0.0000253335  -0.0000264875  -0.0000974763   0.0000480086   0.0000052775
        0.0002047152   0.0001453139   0.0000350742  -0.0006976888   0.0000397658
       -0.0014278958  -0.0011558904   0.0012971284  -0.0011169822   0.0009138609
        0.0010381674  -0.0147198101   0.0171721176   0.0008390762   0.0002451712
        0.0001182082   0.0000151140  -0.0000407856   0.0000426443  -0.0000207974
        0.0000838328  -0.0001438558  -0.0002492076   0.0003078338   0.0000215269
       -0.0000635554   0.0000298915   0.0000160272  -0.0000174158  -0.0000233384
       -0.0000153617  -0.0000129750  -0.0000223695   0.0000002698  -0.0000148673
       -0.0000197624   0.0000150327  -0.0000477890   0.0000345619  -0.0000171242
       -0.0005050660  -0.0002062760   0.0000394961   0.0000089384   0.0000278156
        0.0001172598   0.0000230592   0.0000214604  -0.0000083698  -0.0000289949
       -0.0000103399  -0.0000290243  -0.0000317402  -0.0000159020  -0.0000048738
       -0.0000272235  -0.0000126684   0.0000054717  -0.0000234844  -0.0000078848
        0.0000242922   0.0000151176   0.0000146371   0.0000139465   0.0000355429
        0.0000117381  -0.0001491659  -0.0000893193   0.0000280435  -0.0000847268
        0.0004697338  -0.0003683034   0.0001975611
        0.0016462452   0.0189865691  -0.0140586452  -0.0254437380  -0.1764612417
        0.1929973219   0.0296452082   0.1780773320  -0.2067238540  -0.0028842606
       -0.0107099188   0.0167935331  -0.0032035638  -0.0011064214   0.0003901211
        0.0000885443  -0.0009954933  -0.0014828047   0.0004445021   0.0010008458
        0.0000335270  -0.0013056568  -0.0006257133  -0.0015737441   0.0068734967
       -0.0013042985   0.0014831060  -0.0014888260  -0.0001015960   0.0002211009
        0.0002902372   0.0014646127  -0.0001462036  -0.0000834202  -0.0002641520
        0.0002458330   0.0000099228   0.0000481737   0.0000827681   0.0000124124
        0.0000305184  -0.0000265901   0.0000125926   0.0000571414  -0.0000950970
       -0.0000747608  -0.0002326298  -0.0001851584  -0.0032102284   0.0003623999
        0.0012282490   0.0001132414  -0.0005672550  -0.0010387294   0.0010930245
        0.0011304164  -0.0000749086  -0.0010288748   0.0000395750   0.0002201183
        0.0003507212  -0.0000005431   0.0008577307   0.0000063245   0.0000962422
       -0.0002240165  -0.0000006484   0.0000120361   0.0001475034   0.0000099936
        0.0000205333  -0.0000576822  -0.0000173199  -0.0000014786   0.0000879472
       -0.0000789033  -0.0000118602  -0.0002274265  -0.0000466914  -0.0000258554
        0.0000000803  -0.0000679543  -0.0000026235   0.0002652870  -0.0000273986
       -0.0000075508  -0.0001083898  -0.0000115537   0.0000124913   0.0000351154
       -0.0000029336   0.0000021639  -0.0001351168   0.0000199513   0.0000931835
        0.0001840783   0.0002226428  -0.0000676755  -0.0007842953  -0.0011348425
       -0.0007109477  -0.0010148723   0.0025576680  -0.0020000773   0.0000378990
       -0.0033931486  -0.0056154244   0.0108418448   0.0004087510   0.0001355447
        0.0007588022   0.0003217486  -0.0001222312  -0.0000979513   0.0001505608
       -0.0000930052   0.0003654865   0.0003677432  -0.0004186979   0.0000586161
        0.0000338824   0.0000667045   0.0000795770  -0.0000192944  -0.0001078207
       -0.0000608132  -0.0000143193  -0.0000944302   0.0000004473  -0.0000160733
       -0.0000911998   0.0000579414   0.0000398948   0.0001017886  -0.0000910041
       -0.0002827265  -0.0000672375   0.0000828334   0.0000098291  -0.0001199345
        0.0001310648   0.0000050559  -0.0000197178  -0.0000476672  -0.0000268474
       -0.0000245316  -0.0000270052  -0.0000228267  -0.0000224824  -0.0000058636
       -0.0000295587  -0.0000215275   0.0000141384  -0.0000213738  -0.0000185466
        0.0000226834   0.0000185445  -0.0000052441   0.0000144211   0.0000503951
       -0.0000767658  -0.0001144331  -0.0002827463  -0.0000204427  -0.0000664840
       -0.0005826445   0.0003982994   0.0007295803
        0.0030020928   0.0139224100  -0.0414393085   0.0381118184   0.1811503786
       -0.3491126661  -0.0443881374  -0.2067238540   0.3935308340   0.0022409013
        0.0049761135  -0.0007001499   0.0027326416   0.0009893451   0.0006360813
       -0.0001183834   0.0004088825   0.0003921343  -0.0000848324  -0.0007648455
        0.0000017920   0.0010207212   0.0005300195   0.0005121305  -0.0042865574
       -0.0002731434  -0.0018384193   0.0000566936   0.0003450903   0.0008225872
       -0.0002938771  -0.0013934523  -0.0002657995   0.0000455412   0.0002013576
       -0.0003562670  -0.0000248380  -0.0001180280  -0.0000532298  -0.0000211025
       -0.0000780807   0.0001022352  -0.0000275194  -0.0001069700   0.0001187508
        0.0000648385   0.0002736876   0.0001910887   0.0037323403  -0.0020360961
       -0.0018974239  -0.0003535780   0.0009143152   0.0005297070  -0.0012724563
       -0.0011758225  -0.0001185487   0.0010979908   0.0001263013   0.0001086082
       -0.0004534512  -0.0000833553  -0.0010723822   0.0000643518  -0.0000099357
        0.0002753648  -0.0000296314   0.0000063510  -0.0001600913  -0.0000656280
       -0.0000399049   0.0000991056  -0.0000032608   0.0000032771  -0.0000700327
        0.0001137535   0.0000175148   0.0002664253   0.0000671137   0.0000541721
       -0.0000347796   0.0000408733  -0.0000233195  -0.0002820812   0.0000331655
        0.0000194613   0.0001632160   0.0000229137  -0.0000004024  -0.0000095881
       -0.0000275573  -0.0000164697   0.0001452485  -0.0000035230  -0.0000236403
       -0.0001337352  -0.0002048850   0.0000373866   0.0007580295   0.0007358459
        0.0006773125   0.0004226726  -0.0022539269   0.0020029061   0.0005668979
        0.0008445894   0.0058124264  -0.0008320005   0.0000853025  -0.0003705268
       -0.0004899215  -0.0003179397   0.0000999771  -0.0000280235  -0.0001377830
        0.0001178435  -0.0001389648  -0.0002968992   0.0003609349  -0.0000224916
        0.0000119838   0.0000727431   0.0000715510   0.0000223939   0.0001098002
        0.0000598436   0.0000120464   0.0000779464   0.0000015850   0.0000121173
        0.0000637026  -0.0000638256  -0.0000340839  -0.0001428946   0.0000540293
        0.0003833676   0.0001137785  -0.0000462170   0.0000593926   0.0000863740
       -0.0001985553   0.0000473193   0.0000158557   0.0000866641   0.0000220765
        0.0000193069   0.0000194859   0.0000029635   0.0000084966  -0.0000001256
        0.0000439519   0.0000284990  -0.0000179934   0.0000166099   0.0000128594
       -0.0000151165  -0.0000444624  -0.0000113648   0.0000012684  -0.0000776120
        0.0000153135   0.0000247028   0.0002827667  -0.0000010636  -0.0000312125
       -0.0002085527  -0.0002789704  -0.0005330887
        0.0066664867  -0.0028979782  -0.0022423870  -0.0926206210   0.0516785477
       -0.0000529893   0.0066663427  -0.0028842606   0.0022409013   0.5846237648
        0.0828188954   0.0001424517  -0.3073882794  -0.0884856968  -0.0000497647
       -0.0618368601   0.0674323515  -0.0000602644  -0.0342195064  -0.0358497138
        0.0000086737   0.0465098108  -0.0013276248   0.0000168592  -0.1076215217
       -0.0412770655   0.0000006812  -0.0167662844  -0.0381921102   0.0000140551
       -0.0047921262   0.0004386407  -0.0000007107  -0.0000287965  -0.0008897409
        0.0001431990   0.0003791951  -0.0001661514  -0.0001688511  -0.0000208208
       -0.0000029884   0.0000000955   0.0003791885  -0.0001662248   0.0001689758
       -0.0000284019  -0.0008896793  -0.0001426999   0.0018716377   0.0018412919
       -0.0000009140   0.0005504805   0.0002278929   0.0000003363   0.0009519316
        0.0002488196  -0.0000001644  -0.0005166762  -0.0002187603  -0.0000000097
        0.0001582197   0.0000309022   0.0004886206   0.0000319403   0.0000047800
       -0.0001278954  -0.0000048868  -0.0000130800   0.0000812670  -0.0000114454
       -0.0000038751  -0.0000202761  -0.0000064686  -0.0000093737   0.0000470591
       -0.0000551898  -0.0000042123  -0.0001446786   0.0000070943  -0.0000053405
       -0.0000000453  -0.0000551785  -0.0000041262   0.0001446226  -0.0000065171
       -0.0000094028  -0.0000471183  -0.0000115044  -0.0000038469   0.0000202258
       -0.0000049549  -0.0000130486  -0.0000812698   0.0000319244   0.0000048237
        0.0001278508   0.0001580295   0.0000309262  -0.0004886983  -0.0002937202
        0.0009797722   0.0000004970  -0.0057755919  -0.0023565668   0.0000015964
       -0.0001800271   0.0112485648  -0.0000104173  -0.0113518694  -0.0063881863
        0.0000010259  -0.0023034503   0.0034694441  -0.0000050401   0.0000353324
       -0.0010168850  -0.0000002632  -0.0023782737   0.0030853426  -0.0000044558
       -0.0001769021   0.0001083587   0.0000405539  -0.0000309292  -0.0001168456
       -0.0000219564  -0.0001194054  -0.0000007837   0.0000000275  -0.0000309894
       -0.0001168194   0.0000220711  -0.0001768692   0.0001083789  -0.0000405087
        0.0000589874   0.0000357220  -0.0000000164  -0.0000019145   0.0000012417
        0.0000901992   0.0000047222   0.0000072553  -0.0000086665  -0.0000149806
       -0.0000081828  -0.0000128008  -0.0000156052  -0.0000115920  -0.0000041773
       -0.0000156521  -0.0000115791   0.0000040941  -0.0000150759  -0.0000081655
        0.0000127425   0.0000046392   0.0000072695   0.0000086439  -0.0000019985
        0.0000011450  -0.0000901760  -0.0004674299  -0.0001670683   0.0000000653
        0.0002569966  -0.0002933910  -0.0000001756
        0.0085227858  -0.0107561905  -0.0049529316   0.0546969580  -0.1049263093
        0.0000651775   0.0085024328  -0.0107099188   0.0049761135   0.0828188954
        0.5690817096  -0.0002472931  -0.0348957780  -0.0991717928   0.0000178571
        0.0070762349   0.0402513444  -0.0000184263  -0.0282535484  -0.0244506709
        0.0000009983   0.0476678141  -0.0555277450   0.0000503112  -0.0882680229
       -0.2799139979   0.0001051954  -0.0243198280  -0.0160289763   0.0000009081
       -0.0012104164   0.0009936471  -0.0000004069   0.0000460690  -0.0005457888
        0.0002737530   0.0001626413   0.0000650324  -0.0000746317   0.0000195269
        0.0001542389   0.0000000331   0.0001626864   0.0000648440   0.0000744819
        0.0000462112  -0.0005457324  -0.0002737803   0.0034743722  -0.0006755764
       -0.0000002434  -0.0000137892   0.0005180642   0.0000003150   0.0007212777
        0.0004273403  -0.0000003269  -0.0004004307  -0.0000056717   0.0000000240
        0.0001372642   0.0000140334   0.0003870110   0.0000115633   0.0000169618
       -0.0001080216  -0.0000031849  -0.0000094991   0.0000675883  -0.0000016833
        0.0000039746  -0.0000146881  -0.0000072030  -0.0000021853   0.0000376959
       -0.0000382702  -0.0000031974  -0.0001180686  -0.0000104652  -0.0000110879
        0.0000000360  -0.0000382489  -0.0000031721   0.0001180447  -0.0000071377
       -0.0000022060  -0.0000376862  -0.0000016052   0.0000039948   0.0000146775
       -0.0000031451  -0.0000096249  -0.0000677210   0.0000115255   0.0000170651
        0.0001080541   0.0001372879   0.0000140032  -0.0003872063  -0.0006006971
        0.0003785473   0.0000001893  -0.0032392102  -0.0009993616   0.0000017739
       -0.0089907710   0.0064214147  -0.0000042784  -0.0285034197  -0.0089559370
       -0.0000049803   0.0033630652  -0.0023824635   0.0000065917  -0.0007229444
        0.0002962762  -0.0000008680   0.0026856023  -0.0029566938   0.0000054010
       -0.0000947987   0.0000395398  -0.0000780697  -0.0000162048  -0.0000958192
       -0.0000378935  -0.0000512361  -0.0000243073  -0.0000000251  -0.0000161833
       -0.0000957967   0.0000378440  -0.0000947929   0.0000394291   0.0000781050
        0.0000967305   0.0001266418  -0.0000001514   0.0000073801  -0.0000236908
        0.0000853910   0.0000051077  -0.0000007971  -0.0000134237  -0.0000106821
       -0.0000074966  -0.0000107079  -0.0000104866  -0.0000089222  -0.0000009590
       -0.0000104261  -0.0000089079   0.0000009882  -0.0000105624  -0.0000074492
        0.0000107035   0.0000051904  -0.0000007696   0.0000133961   0.0000073997
       -0.0000237053  -0.0000854763  -0.0002438797  -0.0000297134  -0.0000001285