 Entering Gaussian System
 *********************************************
 Gaussian 98:
 frequency output generated by the xtb code
 *********************************************
                         Standard orientation:
 --------------------------------------------------------------------
  Center     Atomic     Atomic              Coordinates (Angstroms)
  Number     Number      Type              X           Y           Z
 --------------------------------------------------------------------
    1          6             0       -6.672019   -2.425788   -0.327684
    2          6             0       -6.216720   -1.718484    0.772646
    3          6             0       -4.916814   -1.250757    0.810724
    4          6             0       -4.051382   -1.486956   -0.254115
    5          6             0       -2.659514   -1.004466   -0.221396
    6          6             0       -1.636438   -1.887484   -0.478924
    7          6             0       -0.297531   -1.477553   -0.410645
    8          7             0        0.700435   -2.357295   -0.673381
    9          6             0        1.921504   -1.931604   -0.577217
   10          6             0        2.234763   -0.582428   -0.225239
   11          7             0        3.540111   -0.155333   -0.161853
   12          6             0        3.847622    1.216571   -0.267984
   13          6             0        4.820164    1.774903    0.556616
   14          6             0        5.144982    3.113049    0.437668
   15          6             0        4.501839    3.908504   -0.495442
   16          6             0        3.531083    3.354984   -1.313793
   17          6             0        3.205550    2.016389   -1.207918
   18          6             0        4.582970   -1.057267    0.112765
   19          6             0        5.791395   -0.946516   -0.571912
   20          6             0        6.825272   -1.821194   -0.298488
   21          6             0        6.668139   -2.816047    0.652907
   22          6             0        5.469676   -2.926657    1.338232
   23          6             0        4.432657   -2.050919    1.077751
   24          7             0        1.280662    0.295741    0.002160
   25          6             0        0.005149   -0.131213   -0.075522
   26          6             0       -1.050121    0.762318    0.172715
   27          6             0       -2.358908    0.346950    0.101980
   28          6             0       -3.435573    1.325912    0.335532
   29          6             0       -3.409945    2.133953    1.468650
   30          6             0       -4.415232    3.055525    1.696512
   31          6             0       -5.452909    3.190348    0.789823
   32          6             0       -5.476991    2.402610   -0.349125
   33          6             0       -4.477406    1.475473   -0.575816
   34          6             0       -4.512650   -2.212984   -1.348615
   35          6             0       -5.815555   -2.674183   -1.386831
   36          1             0       -7.690200   -2.784798   -0.358263
   37          1             0       -6.878120   -1.530064    1.605687
   38          1             0       -4.563312   -0.708625    1.675459
   39          1             0       -1.842683   -2.921406   -0.711138
   40          1             0        2.705329   -2.639459   -0.813245
   41          1             0        5.317299    1.157272    1.290464
   42          1             0        5.900356    3.536930    1.082865
   43          1             0        4.755237    4.954195   -0.584085
   44          1             0        3.028064    3.968195   -2.046802
   45          1             0        2.453589    1.587803   -1.851645
   46          1             0        5.909509   -0.171812   -1.315158
   47          1             0        7.757240   -1.729117   -0.836049
   48          1             0        7.477024   -3.499319    0.862028
   49          1             0        5.343191   -3.693004    2.088396
   50          1             0        3.504771   -2.126221    1.626075
   51          1             0       -0.804753    1.787442    0.405540
   52          1             0       -2.605585    2.020917    2.181538
   53          1             0       -4.389624    3.669638    2.585081
   54          1             0       -6.239045    3.908994    0.968848
   55          1             0       -6.279529    2.510333   -1.064080
   56          1             0       -4.495414    0.869709   -1.469845
   57          1             0       -3.847313   -2.397494   -2.180086
   58          1             0       -6.164293   -3.228209   -2.246367
 --------------------------------------------------------------------
     1 basis functions        1 primitive gaussians
     1 alpha electrons        1 beta electrons
 
 Harmonic frequencies (cm**-1), IR intensities (km*mol⁻¹),
 Raman scattering activities (A**4/amu), Raman depolarization ratios,
 reduced masses (AMU), force constants (mDyne/A) and normal coordinates:
                      1                      2                      3
                        a                      a                      a 
 Frequencies --    14.2975                20.7408                27.5486
 Red. masses --    10.8614                11.1538                10.5857
 Frc consts  --     0.0000                 0.0000                 0.0000
 IR Inten    --     0.0868                 0.2596                 0.4162
 Raman Activ --     0.0000                 0.0000                 0.0000
 Depolar     --     0.0000                 0.0000                 0.0000
 Atom AN      X      Y      Z        X      Y      Z        X      Y      Z
   1   6     0.00  -0.05   0.21     0.04  -0.10   0.22     0.04  -0.11  -0.05
   2   6     0.02   0.03   0.15     0.11  -0.08   0.19    -0.00  -0.09  -0.04
   3   6     0.02   0.05   0.09     0.10  -0.04   0.08    -0.02  -0.04  -0.02
   4   6    -0.00  -0.02   0.08     0.02  -0.01   0.01     0.01  -0.02  -0.01
   5   6    -0.00  -0.01   0.02     0.01   0.02  -0.09    -0.00   0.02   0.02
   6   6    -0.00  -0.02   0.05     0.01   0.04  -0.16     0.02   0.04   0.03
   7   6    -0.00  -0.01   0.01     0.01   0.06  -0.20     0.01   0.06   0.04
   8   7    -0.00  -0.00   0.00     0.01   0.08  -0.26     0.02   0.08   0.06
   9   6    -0.01   0.00  -0.02     0.01   0.07  -0.22     0.01   0.09   0.06
  10   6    -0.00   0.00  -0.02     0.00   0.06  -0.16    -0.01   0.10   0.05
  11   7    -0.01   0.00   0.00     0.01   0.03  -0.08    -0.01   0.10   0.05
  12   6    -0.00   0.01   0.10     0.04   0.02  -0.03     0.08   0.06   0.02
  13   6    -0.00  -0.06   0.14    -0.01  -0.00   0.05     0.25  -0.03  -0.12
  14   6     0.00  -0.05   0.24     0.02  -0.01   0.09     0.37  -0.06  -0.16
  15   6     0.01   0.02   0.30     0.10   0.02   0.06     0.30   0.01  -0.05
  16   6     0.01   0.09   0.26     0.15   0.05  -0.02     0.12   0.11   0.10
  17   6     0.00   0.08   0.15     0.12   0.05  -0.06     0.01   0.14   0.13
  18   6     0.00  -0.01  -0.07    -0.04   0.00   0.02    -0.04   0.03   0.01
  19   6    -0.02   0.02  -0.10     0.03  -0.02   0.15    -0.11  -0.14  -0.12
  20   6    -0.01   0.01  -0.17    -0.02  -0.05   0.25    -0.16  -0.22  -0.16
  21   6     0.02  -0.03  -0.21    -0.14  -0.06   0.23    -0.15  -0.12  -0.06
  22   6     0.05  -0.06  -0.18    -0.22  -0.04   0.09    -0.09   0.04   0.07
  23   6     0.04  -0.05  -0.10    -0.17  -0.01  -0.01    -0.04   0.12   0.11
  24   7    -0.01   0.01  -0.03     0.00   0.06  -0.18    -0.02   0.10   0.04
  25   6    -0.01   0.00  -0.03     0.00   0.06  -0.19    -0.02   0.07   0.04
  26   6    -0.01   0.01  -0.06    -0.00   0.04  -0.15    -0.04   0.05   0.03
  27   6    -0.01   0.01  -0.05     0.00   0.03  -0.10    -0.03   0.02   0.02
  28   6    -0.01   0.02  -0.11    -0.00   0.00  -0.03    -0.06  -0.00   0.00
  29   6    -0.01   0.11  -0.18     0.05   0.00  -0.04    -0.11  -0.01   0.01
  30   6    -0.01   0.13  -0.25     0.04  -0.02   0.03    -0.15  -0.05   0.00
  31   6    -0.01   0.06  -0.26    -0.03  -0.05   0.10    -0.14  -0.09  -0.01
  32   6    -0.01  -0.03  -0.20    -0.08  -0.05   0.10    -0.09  -0.08  -0.02
  33   6    -0.01  -0.05  -0.13    -0.07  -0.03   0.04    -0.05  -0.04  -0.01
  34   6    -0.02  -0.10   0.15    -0.05  -0.02   0.04     0.05  -0.03  -0.01
  35   6    -0.02  -0.12   0.21    -0.04  -0.07   0.15     0.07  -0.08  -0.03
  36   1     0.00  -0.02   0.08     0.02  -0.04   0.09     0.02  -0.04  -0.02
  37   1     0.01   0.02   0.04     0.05  -0.03   0.07    -0.01  -0.03  -0.01
  38   1     0.01   0.03   0.01     0.04  -0.01   0.01    -0.01  -0.01  -0.00
  39   1    -0.00  -0.01   0.03     0.00   0.01  -0.05     0.01   0.01   0.01
  40   1    -0.00   0.00  -0.01     0.00   0.02  -0.07     0.01   0.03   0.02
  41   1    -0.00  -0.03   0.03    -0.02  -0.01   0.02     0.09  -0.02  -0.06
  42   1     0.00  -0.03   0.08    -0.00  -0.01   0.04     0.15  -0.04  -0.08
  43   1     0.00   0.01   0.11     0.04   0.00   0.03     0.11  -0.00  -0.02
  44   1     0.00   0.04   0.09     0.06   0.02  -0.01     0.02   0.05   0.05
  45   1     0.00   0.04   0.03     0.04   0.02  -0.03    -0.04   0.06   0.07
  46   1    -0.01   0.02  -0.02     0.04  -0.00   0.05    -0.03  -0.06  -0.06
  47   1    -0.01   0.01  -0.06     0.01  -0.02   0.10    -0.06  -0.10  -0.08
  48   1     0.01  -0.01  -0.08    -0.05  -0.02   0.09    -0.06  -0.05  -0.03
  49   1     0.02  -0.03  -0.06    -0.09  -0.01   0.02    -0.02   0.03   0.04
  50   1     0.02  -0.02  -0.02    -0.07   0.00  -0.03     0.00   0.07   0.06
  51   1    -0.00   0.01  -0.03    -0.00   0.01  -0.04    -0.02   0.02   0.01
  52   1    -0.00   0.05  -0.05     0.03   0.01  -0.03    -0.03   0.00   0.01
  53   1    -0.00   0.06  -0.09     0.02  -0.01   0.01    -0.05  -0.02   0.00
  54   1    -0.00   0.02  -0.09    -0.01  -0.02   0.05    -0.05  -0.04  -0.00
  55   1    -0.00  -0.02  -0.06    -0.04  -0.02   0.05    -0.03  -0.03  -0.01
  56   1    -0.00  -0.03  -0.02    -0.03  -0.01   0.01    -0.01  -0.01  -0.00
  57   1    -0.01  -0.04   0.04    -0.03  -0.00  -0.00     0.02  -0.00  -0.00
  58   1    -0.01  -0.05   0.07    -0.03  -0.02   0.05     0.03  -0.03  -0.01
                      4                      5                      6
                        a                      a                      a 
 Frequencies --    44.3751                49.4567                52.5617
 Red. masses --    10.6073                10.4495                10.4759
 Frc consts  --     0.0000                 0.0000                 0.0000
 IR Inten    --     0.0251                 0.4161                 0.9821
 Raman Activ --     0.0000                 0.0000                 0.0000
 Depolar     --     0.0000                 0.0000                 0.0000
 Atom AN      X      Y      Z        X      Y      Z        X      Y      Z
   1   6    -0.08   0.32   0.09     0.08  -0.18  -0.01    -0.01  -0.06  -0.05
   2   6     0.04   0.17   0.13    -0.00  -0.09  -0.03    -0.04  -0.03  -0.06
   3   6     0.09   0.04   0.11    -0.04   0.01  -0.02    -0.06   0.02  -0.05
   4   6     0.01   0.05   0.04     0.01   0.02   0.02    -0.04   0.03  -0.04
   5   6     0.03  -0.00   0.00    -0.01   0.06   0.05    -0.05   0.05  -0.04
   6   6     0.03  -0.00   0.00    -0.00   0.08   0.02    -0.05   0.03   0.04
   7   6     0.03   0.00  -0.00    -0.01   0.08   0.04    -0.04   0.02   0.04
   8   7     0.03   0.00   0.00    -0.02   0.11  -0.06    -0.05  -0.03   0.19
   9   6     0.03  -0.00   0.01    -0.02   0.09  -0.04    -0.05  -0.04   0.18
  10   6     0.03  -0.01   0.01    -0.01   0.05   0.09    -0.03  -0.01   0.05
  11   7     0.03  -0.01   0.03    -0.00   0.03   0.15    -0.04  -0.03   0.08
  12   6     0.04  -0.01   0.01     0.02   0.02   0.06     0.01  -0.04   0.05
  13   6     0.01  -0.00   0.04    -0.07   0.09   0.10    -0.09  -0.04   0.17
  14   6     0.03  -0.01   0.02    -0.03   0.07  -0.01    -0.00  -0.07   0.14
  15   6     0.08  -0.03  -0.03     0.10  -0.03  -0.18     0.19  -0.10  -0.02
  16   6     0.10  -0.04  -0.05     0.17  -0.10  -0.22     0.28  -0.09  -0.13
  17   6     0.08  -0.03  -0.03     0.13  -0.08  -0.10     0.18  -0.07  -0.09
  18   6     0.04  -0.01   0.01    -0.01   0.00   0.06    -0.00  -0.01   0.02
  19   6     0.05   0.04   0.02     0.04   0.13   0.17    -0.05   0.04  -0.06
  20   6     0.06   0.05   0.01     0.02   0.07   0.06     0.02   0.10  -0.11
  21   6     0.07   0.02  -0.02    -0.06  -0.13  -0.17     0.12   0.11  -0.08
  22   6     0.07  -0.02  -0.04    -0.10  -0.26  -0.26     0.17   0.05  -0.01
  23   6     0.05  -0.04  -0.02    -0.07  -0.19  -0.14     0.11  -0.01   0.04
  24   7     0.03  -0.00   0.00     0.00   0.05   0.17    -0.03   0.04  -0.11
  25   6     0.03   0.00  -0.00    -0.00   0.06   0.12    -0.03   0.05  -0.10
  26   6     0.03   0.01  -0.01    -0.01   0.04   0.16    -0.04   0.07  -0.19
  27   6     0.03   0.00  -0.02    -0.01   0.05   0.10    -0.04   0.07  -0.13
  28   6    -0.02  -0.04  -0.05    -0.03   0.04   0.06    -0.04   0.06  -0.07
  29   6    -0.18  -0.12   0.01    -0.12   0.03   0.07     0.09   0.11  -0.11
  30   6    -0.30  -0.25   0.01    -0.15   0.02  -0.00     0.07   0.06   0.01
  31   6    -0.25  -0.30  -0.05    -0.07   0.03  -0.09    -0.09  -0.05   0.18
  32   6    -0.08  -0.20  -0.12     0.02   0.04  -0.10    -0.22  -0.10   0.22
  33   6     0.04  -0.07  -0.12     0.04   0.05  -0.02    -0.19  -0.04   0.09
  34   6    -0.10   0.18   0.01     0.08  -0.05   0.03    -0.00  -0.01  -0.03
  35   6    -0.15   0.32   0.03     0.12  -0.15   0.02     0.01  -0.05  -0.04
  36   1    -0.04   0.12   0.03     0.03  -0.08  -0.00     0.00  -0.03  -0.02
  37   1     0.03   0.05   0.05    -0.01  -0.03  -0.02    -0.02  -0.01  -0.02
  38   1     0.05  -0.02   0.04    -0.03   0.02  -0.01    -0.02   0.01  -0.02
  39   1     0.01  -0.00   0.00     0.00   0.02  -0.01    -0.01   0.00   0.04
  40   1     0.01  -0.00   0.00    -0.01   0.03  -0.04    -0.01  -0.02   0.08
  41   1    -0.01   0.00   0.02    -0.05   0.04   0.06    -0.07  -0.01   0.08
  42   1     0.00  -0.00   0.01    -0.03   0.04   0.01    -0.02  -0.02   0.07
  43   1     0.03  -0.01  -0.01     0.04  -0.01  -0.08     0.08  -0.03  -0.02
  44   1     0.04  -0.01  -0.03     0.08  -0.05  -0.10     0.13  -0.03  -0.07
  45   1     0.03  -0.01  -0.01     0.05  -0.04  -0.04     0.07  -0.02  -0.05
  46   1     0.01   0.02   0.01     0.03   0.08   0.09    -0.04   0.01  -0.02
  47   1     0.02   0.03   0.01     0.02   0.05   0.04    -0.01   0.04  -0.05
  48   1     0.03   0.01  -0.01    -0.02  -0.06  -0.08     0.05   0.04  -0.04
  49   1     0.02  -0.01  -0.02    -0.05  -0.12  -0.12     0.07   0.02   0.00
  50   1     0.01  -0.02  -0.01    -0.03  -0.08  -0.06     0.04  -0.01   0.03
  51   1     0.01   0.00  -0.00    -0.01   0.01   0.06    -0.01   0.03  -0.08
  52   1    -0.06  -0.03   0.02    -0.05   0.01   0.04     0.06   0.06  -0.07
  53   1    -0.12  -0.09   0.02    -0.06   0.00   0.00     0.05   0.03  -0.01
  54   1    -0.10  -0.12  -0.01    -0.03   0.01  -0.04    -0.03  -0.03   0.08
  55   1    -0.01  -0.07  -0.05     0.02   0.01  -0.05    -0.10  -0.05   0.10
  56   1     0.05  -0.00  -0.05     0.03   0.01  -0.01    -0.09  -0.02   0.03
  57   1    -0.05   0.05  -0.01     0.03  -0.01   0.01     0.00  -0.00  -0.01
  58   1    -0.07   0.12  -0.00     0.05  -0.06   0.01     0.01  -0.02  -0.01
                      7                      8                      9
                        a                      a                      a 
 Frequencies --    57.8752                63.9344                67.4765
 Red. masses --    10.1103                10.3282                10.6447
 Frc consts  --     0.0000                 0.0000                 0.0000
 IR Inten    --     0.1289                 0.2333                 0.0199
 Raman Activ --     0.0000                 0.0000                 0.0000
 Depolar     --     0.0000                 0.0000                 0.0000
 Atom AN      X      Y      Z        X      Y      Z        X      Y      Z
   1   6    -0.05   0.08  -0.08    -0.01   0.17  -0.19     0.13  -0.09   0.10
   2   6    -0.17   0.32  -0.19    -0.06   0.11  -0.12     0.11   0.03   0.02
   3   6    -0.15   0.26  -0.10    -0.03   0.00   0.03     0.08   0.13  -0.07
   4   6    -0.01  -0.02   0.07     0.06  -0.03   0.11     0.06   0.11  -0.08
   5   6    -0.00  -0.04   0.09     0.06  -0.04   0.16     0.05   0.13  -0.12
   6   6     0.00  -0.04   0.13     0.06  -0.05   0.21     0.03   0.10  -0.07
   7   6     0.00  -0.02   0.04     0.06  -0.02   0.12     0.04   0.07  -0.02
   8   7    -0.00  -0.02   0.02     0.06  -0.00   0.07     0.02   0.02   0.11
   9   6    -0.00   0.00  -0.06     0.05   0.03  -0.04     0.03  -0.03   0.15
  10   6     0.00   0.01  -0.12     0.05   0.04  -0.06     0.05  -0.01   0.08
  11   7     0.00   0.00  -0.14     0.05   0.04  -0.08     0.06  -0.02   0.07
  12   6     0.02   0.01  -0.07     0.03   0.04  -0.06     0.01  -0.01   0.01
  13   6    -0.03  -0.04   0.02    -0.00   0.07  -0.03    -0.06   0.08   0.01
  14   6    -0.01  -0.03   0.09    -0.08   0.09   0.01    -0.22   0.12   0.03
  15   6     0.06   0.01   0.08    -0.12   0.09   0.04    -0.30   0.06   0.03
  16   6     0.11   0.05  -0.00    -0.08   0.06   0.00    -0.20  -0.05  -0.01
  17   6     0.08   0.05  -0.07     0.00   0.04  -0.04    -0.04  -0.09  -0.03
  18   6    -0.01   0.00  -0.08     0.01   0.01  -0.03     0.04  -0.03   0.06
  19   6     0.01  -0.01  -0.04     0.06  -0.02   0.06    -0.01  -0.14  -0.04
  20   6     0.01   0.01   0.03    -0.01  -0.11   0.06    -0.07  -0.25  -0.12
  21   6    -0.01   0.05   0.07    -0.14  -0.18  -0.03    -0.08  -0.22  -0.10
  22   6    -0.04   0.06   0.02    -0.18  -0.13  -0.09    -0.01  -0.08   0.03
  23   6    -0.04   0.04  -0.05    -0.10  -0.03  -0.08     0.05   0.01   0.11
  24   7     0.00   0.02  -0.15     0.05   0.03  -0.05     0.07   0.03  -0.01
  25   6     0.00   0.00  -0.06     0.05   0.01   0.02     0.06   0.07  -0.05
  26   6     0.00   0.00  -0.06     0.04   0.01  -0.00     0.07   0.11  -0.12
  27   6     0.01  -0.02   0.01     0.04  -0.01   0.06     0.07   0.13  -0.14
  28   6     0.01  -0.01   0.02     0.03  -0.02   0.02     0.05   0.11  -0.10
  29   6    -0.08  -0.15   0.11     0.12   0.17  -0.12    -0.00  -0.01  -0.02
  30   6    -0.10  -0.18   0.15     0.08   0.13  -0.13    -0.09  -0.13   0.10
  31   6    -0.02  -0.07   0.07    -0.07  -0.11   0.01    -0.11  -0.12   0.12
  32   6     0.08   0.08  -0.03    -0.16  -0.29   0.13    -0.04   0.01   0.03
  33   6     0.09   0.10  -0.05    -0.10  -0.23   0.13     0.04   0.12  -0.08
  34   6     0.11  -0.27   0.19     0.12   0.01   0.05     0.06   0.01  -0.01
  35   6     0.10  -0.23   0.11     0.09   0.11  -0.10     0.10  -0.10   0.08
  36   1    -0.02   0.04  -0.04    -0.01   0.08  -0.09     0.05  -0.05   0.05
  37   1    -0.08   0.16  -0.10    -0.04   0.04  -0.05     0.04   0.01   0.01
  38   1    -0.07   0.12  -0.05    -0.02  -0.01   0.02     0.02   0.06  -0.03
  39   1     0.00  -0.02   0.06     0.02  -0.02   0.08     0.00   0.03  -0.01
  40   1    -0.00   0.00  -0.02     0.01   0.02  -0.03     0.01  -0.02   0.07
  41   1    -0.02  -0.02   0.01     0.01   0.02  -0.01    -0.00   0.04   0.01
  42   1    -0.01  -0.02   0.05    -0.03   0.03   0.01    -0.08   0.06   0.02
  43   1     0.02   0.00   0.04    -0.06   0.03   0.03    -0.13   0.03   0.02
  44   1     0.05   0.02  -0.00    -0.03   0.02   0.01    -0.07  -0.03  -0.01
  45   1     0.03   0.02  -0.04     0.01   0.00  -0.02     0.01  -0.05  -0.02
  46   1     0.01  -0.01  -0.02     0.05   0.01   0.03    -0.00  -0.05  -0.02
  47   1     0.01   0.00   0.02     0.01  -0.04   0.03    -0.03  -0.10  -0.06
  48   1    -0.00   0.02   0.04    -0.06  -0.07  -0.01    -0.04  -0.09  -0.05
  49   1    -0.02   0.02   0.01    -0.08  -0.05  -0.04    -0.00  -0.01   0.02
  50   1    -0.02   0.01  -0.02    -0.04   0.00  -0.04     0.03   0.03   0.06
  51   1    -0.00   0.00  -0.03     0.01   0.01  -0.03     0.03   0.03  -0.04
  52   1    -0.04  -0.07   0.05     0.06   0.10  -0.06     0.00  -0.01  -0.01
  53   1    -0.05  -0.08   0.07     0.05   0.08  -0.07    -0.04  -0.07   0.05
  54   1    -0.01  -0.03   0.03    -0.03  -0.05   0.00    -0.05  -0.07   0.06
  55   1     0.04   0.05  -0.02    -0.08  -0.14   0.07    -0.02   0.01   0.01
  56   1     0.05   0.05  -0.03    -0.05  -0.10   0.06     0.02   0.06  -0.04
  57   1     0.06  -0.14   0.09     0.06  -0.01   0.03     0.01  -0.00  -0.01
  58   1     0.06  -0.13   0.06     0.04   0.05  -0.04     0.03  -0.06   0.04
                     10                     11                     12
                        a                      a                      a 
 Frequencies --    73.4600                78.2625                93.2931
 Red. masses --    10.2648                10.7637                10.8315
 Frc consts  --     0.0000                 0.0000                 0.0000
 IR Inten    --     0.4313                 0.2162                 0.0371
 Raman Activ --     0.0000                 0.0000                 0.0000
 Depolar     --     0.0000                 0.0000                 0.0000
 Atom AN      X      Y      Z        X      Y      Z        X      Y      Z
   1   6     0.05  -0.09  -0.05    -0.11   0.18   0.02     0.02  -0.07  -0.01
   2   6     0.03  -0.24   0.05    -0.01   0.12   0.02     0.02  -0.17   0.05
   3   6     0.01  -0.18   0.11     0.05  -0.06   0.01     0.00  -0.12   0.07
   4   6     0.01  -0.00   0.08     0.01  -0.15  -0.01    -0.01  -0.01   0.04
   5   6     0.01   0.00   0.13     0.02  -0.17  -0.05    -0.01  -0.02   0.06
   6   6     0.00  -0.01   0.14     0.06  -0.13  -0.05    -0.01  -0.07   0.24
   7   6     0.00   0.00   0.09     0.05  -0.06  -0.04    -0.01  -0.05   0.17
   8   7    -0.01  -0.01   0.09     0.11  -0.01   0.01    -0.00  -0.09   0.34
   9   6    -0.01   0.00  -0.01     0.08   0.05   0.07    -0.01  -0.05   0.19
  10   6    -0.00   0.02  -0.10     0.00   0.07   0.08    -0.00   0.01  -0.03
  11   7     0.00  -0.00  -0.19    -0.02   0.13   0.20    -0.01   0.02  -0.03
  12   6     0.02   0.00  -0.10    -0.02   0.12   0.11    -0.00   0.03  -0.03
  13   6    -0.16  -0.01   0.10    -0.08   0.17   0.14     0.07  -0.01  -0.08
  14   6    -0.18   0.01   0.23    -0.05   0.16   0.05     0.09  -0.01  -0.07
  15   6    -0.02   0.02   0.12     0.06   0.08  -0.09     0.03   0.03   0.01
  16   6     0.17   0.02  -0.11     0.12   0.02  -0.12    -0.05   0.07   0.08
  17   6     0.18   0.01  -0.21     0.07   0.04  -0.01    -0.06   0.07   0.05
  18   6    -0.02  -0.00  -0.10    -0.02   0.11   0.13    -0.01   0.02  -0.01
  19   6    -0.05  -0.13  -0.17    -0.08   0.04   0.02     0.06   0.12   0.13
  20   6    -0.08  -0.15  -0.11    -0.15  -0.09  -0.14     0.05   0.10   0.14
  21   6    -0.08  -0.02   0.03    -0.15  -0.13  -0.18    -0.04  -0.04  -0.03
  22   6    -0.04   0.13   0.11    -0.08  -0.02  -0.03    -0.11  -0.13  -0.16
  23   6    -0.02   0.13   0.04    -0.01   0.10   0.12    -0.08  -0.09  -0.13
  24   7     0.01   0.04  -0.10    -0.05   0.03  -0.01    -0.02   0.05  -0.23
  25   6     0.01   0.02   0.02    -0.02  -0.04  -0.06    -0.01   0.02  -0.13
  26   6     0.01   0.01   0.07    -0.06  -0.09  -0.09    -0.01   0.06  -0.27
  27   6     0.01  -0.00   0.12    -0.03  -0.16  -0.06    -0.01   0.02  -0.15
  28   6     0.00  -0.00   0.08    -0.02  -0.15  -0.03    -0.01   0.02  -0.11
  29   6    -0.09  -0.02   0.09     0.07  -0.18  -0.01    -0.01  -0.12  -0.01
  30   6    -0.08   0.01  -0.00     0.18  -0.07   0.01     0.02  -0.12   0.08
  31   6     0.03   0.07  -0.12     0.21   0.08   0.00     0.06   0.04   0.06
  32   6     0.11   0.07  -0.12     0.11   0.08  -0.00     0.06   0.17  -0.04
  33   6     0.09   0.03  -0.02    -0.01  -0.04  -0.01     0.02   0.15  -0.11
  34   6     0.03   0.16  -0.04    -0.08  -0.11   0.01    -0.01   0.11  -0.03
  35   6     0.05   0.12  -0.11    -0.14   0.05   0.02    -0.00   0.08  -0.06
  36   1     0.02  -0.04  -0.03    -0.05   0.10   0.01     0.01  -0.03  -0.01
  37   1     0.01  -0.12   0.02     0.01   0.06   0.01     0.01  -0.08   0.03
  38   1    -0.00  -0.08   0.05     0.04  -0.03   0.00     0.00  -0.05   0.03
  39   1    -0.00  -0.00   0.05     0.03  -0.04  -0.01    -0.00  -0.03   0.12
  40   1    -0.00  -0.00  -0.00     0.03   0.02   0.03    -0.00  -0.02   0.07
  41   1    -0.08  -0.01   0.05    -0.04   0.06   0.07     0.03  -0.01  -0.04
  42   1    -0.10   0.00   0.12    -0.03   0.06   0.02     0.04  -0.01  -0.04
  43   1    -0.01   0.01   0.06     0.03   0.02  -0.05     0.01   0.01   0.01
  44   1     0.09   0.01  -0.06     0.06  -0.01  -0.07    -0.03   0.03   0.04
  45   1     0.09  -0.00  -0.11     0.03  -0.00  -0.01    -0.03   0.03   0.03
  46   1    -0.02  -0.06  -0.08    -0.02   0.02   0.01     0.04   0.06   0.07
  47   1    -0.03  -0.08  -0.05    -0.06  -0.05  -0.07     0.03   0.06   0.07
  48   1    -0.03  -0.01   0.02    -0.06  -0.07  -0.09    -0.02  -0.02  -0.01
  49   1    -0.01   0.07   0.07    -0.02  -0.01  -0.02    -0.05  -0.07  -0.08
  50   1    -0.00   0.07   0.02     0.01   0.05   0.06    -0.03  -0.04  -0.06
  51   1     0.00   0.01   0.01    -0.03  -0.02  -0.03    -0.01   0.03  -0.13
  52   1    -0.05  -0.01   0.05     0.02  -0.08  -0.00    -0.01  -0.07  -0.00
  53   1    -0.04   0.00   0.00     0.07  -0.02   0.01     0.00  -0.07   0.05
  54   1     0.01   0.03  -0.06     0.09   0.05  -0.00     0.02   0.01   0.03
  55   1     0.05   0.03  -0.06     0.03   0.05   0.00     0.02   0.09  -0.01
  56   1     0.05   0.01  -0.01    -0.02  -0.01  -0.00     0.00   0.07  -0.05
  57   1     0.01   0.09  -0.02    -0.03  -0.06   0.00    -0.00   0.06  -0.02
  58   1     0.02   0.07  -0.06    -0.06   0.03   0.01    -0.00   0.05  -0.04
                     13                     14                     15
                        a                      a                      a 
 Frequencies --   138.9337               163.3932               172.1954
 Red. masses --    11.3594                10.8678                10.9335
 Frc consts  --     0.0000                 0.0000                 0.0000
 IR Inten    --     0.4979                 0.1065                 0.8918
 Raman Activ --     0.0000                 0.0000                 0.0000
 Depolar     --     0.0000                 0.0000                 0.0000
 Atom AN      X      Y      Z        X      Y      Z        X      Y      Z
   1   6    -0.01  -0.03   0.13     0.12  -0.05   0.01     0.07  -0.01   0.01
   2   6     0.09   0.07   0.02     0.05  -0.01   0.01     0.04   0.05  -0.02
   3   6     0.08   0.10  -0.17     0.02   0.09   0.03     0.02   0.08  -0.02
   4   6    -0.02   0.05  -0.24     0.04   0.11   0.04     0.03   0.07  -0.02
   5   6    -0.01   0.01  -0.20     0.05   0.03   0.07     0.02   0.06  -0.03
   6   6    -0.00  -0.01  -0.08    -0.02  -0.08   0.16    -0.03   0.05  -0.24
   7   6     0.01  -0.06   0.16    -0.00  -0.14   0.06    -0.02  -0.02  -0.19
   8   7     0.01  -0.09   0.28    -0.01  -0.11  -0.13    -0.03  -0.13   0.11
   9   6     0.01  -0.06   0.19    -0.01  -0.06  -0.23    -0.01  -0.18   0.25
  10   6     0.01  -0.02   0.05    -0.04  -0.11  -0.04    -0.01  -0.09  -0.06
  11   7     0.01   0.03  -0.24    -0.11   0.02   0.03    -0.06   0.00  -0.01
  12   6    -0.01   0.05  -0.14    -0.21   0.04   0.12    -0.13   0.02   0.02
  13   6    -0.04  -0.02  -0.05    -0.21   0.01   0.13    -0.11  -0.02   0.03
  14   6    -0.00  -0.02   0.06    -0.01  -0.05  -0.00     0.01  -0.06  -0.02
  15   6     0.08   0.05   0.06     0.16  -0.07  -0.14     0.09  -0.03  -0.05
  16   6     0.11   0.12  -0.02     0.01   0.00  -0.02    -0.01   0.04   0.02
  17   6     0.05   0.12  -0.11    -0.19   0.06   0.12    -0.12   0.06   0.05
  18   6     0.01   0.06  -0.14    -0.07   0.07   0.02    -0.01   0.08   0.07
  19   6     0.07   0.04  -0.03    -0.10   0.08  -0.02    -0.01   0.12   0.09
  20   6     0.02   0.01   0.07    -0.12   0.05  -0.05    -0.04   0.06   0.01
  21   6    -0.10  -0.01   0.03    -0.12   0.07  -0.04    -0.09  -0.03  -0.09
  22   6    -0.16   0.02  -0.07    -0.09   0.09   0.02    -0.06  -0.00  -0.04
  23   6    -0.10   0.07  -0.14    -0.08   0.10   0.04    -0.02   0.08   0.06
  24   7     0.01  -0.07   0.23    -0.02  -0.16   0.11    -0.01  -0.03  -0.34
  25   6     0.01  -0.09   0.25     0.01  -0.15   0.07     0.00  -0.02  -0.23
  26   6     0.01  -0.09   0.24     0.10  -0.05   0.01     0.07  -0.01  -0.01
  27   6     0.00  -0.03  -0.01     0.09   0.04  -0.06     0.07  -0.00   0.18
  28   6     0.03  -0.01  -0.05     0.14   0.10  -0.14     0.07  -0.02   0.27
  29   6     0.06   0.00  -0.05     0.16   0.07  -0.12    -0.03   0.08   0.20
  30   6     0.06  -0.01  -0.02     0.07  -0.07   0.01    -0.08   0.09  -0.01
  31   6     0.01  -0.05   0.04    -0.02  -0.17   0.09     0.00  -0.02  -0.12
  32   6    -0.02  -0.05   0.03     0.05  -0.03  -0.00     0.10  -0.15  -0.03
  33   6    -0.00  -0.01  -0.02     0.14   0.10  -0.13     0.15  -0.14   0.17
  34   6    -0.13  -0.02  -0.15     0.09   0.13   0.01     0.05   0.05  -0.01
  35   6    -0.12  -0.07   0.05     0.13   0.05  -0.01     0.07  -0.01   0.01
  36   1     0.00  -0.03   0.08     0.05  -0.04   0.00     0.02  -0.01   0.01
  37   1     0.05   0.03   0.02     0.01  -0.02   0.00     0.01   0.02  -0.01
  38   1     0.05   0.04  -0.07    -0.01   0.03   0.01     0.00   0.03  -0.01
  39   1    -0.00   0.00  -0.05    -0.03  -0.02   0.07    -0.03   0.02  -0.09
  40   1     0.00  -0.02   0.07    -0.00   0.00  -0.12    -0.01  -0.09   0.18
  41   1    -0.03  -0.02  -0.02    -0.09   0.00   0.06    -0.05  -0.01   0.01
  42   1    -0.01  -0.02   0.04     0.01  -0.03  -0.01     0.02  -0.03  -0.01
  43   1     0.03   0.01   0.04     0.11  -0.04  -0.09     0.06  -0.02  -0.03
  44   1     0.05   0.05  -0.00     0.02   0.00  -0.02     0.00   0.02   0.01
  45   1     0.01   0.05  -0.05    -0.08   0.03   0.05    -0.05   0.04   0.02
  46   1     0.05   0.01  -0.00    -0.04   0.02  -0.01     0.00   0.05   0.04
  47   1     0.02   0.00   0.05    -0.04   0.00  -0.03    -0.01   0.02   0.00
  48   1    -0.04  -0.01   0.02    -0.04   0.02  -0.02    -0.04  -0.03  -0.06
  49   1    -0.07   0.01  -0.03    -0.02   0.03   0.01    -0.02  -0.01  -0.02
  50   1    -0.04   0.04  -0.06    -0.02   0.03   0.01     0.00   0.03   0.03
  51   1     0.00  -0.03   0.10     0.06  -0.02  -0.01     0.04  -0.01   0.02
  52   1     0.02   0.00  -0.02     0.06   0.03  -0.05    -0.03   0.05   0.08
  53   1     0.02  -0.00  -0.01     0.01  -0.04   0.01    -0.05   0.06  -0.02
  54   1    -0.00  -0.02   0.02    -0.04  -0.09   0.06    -0.00  -0.00  -0.08
  55   1    -0.02  -0.02   0.02     0.00  -0.01   0.01     0.05  -0.07  -0.03
  56   1    -0.01  -0.00  -0.01     0.05   0.05  -0.05     0.08  -0.06   0.06
  57   1    -0.06  -0.02  -0.06     0.03   0.06   0.01     0.02   0.02  -0.00
  58   1    -0.06  -0.04   0.04     0.05   0.01  -0.01     0.03  -0.01   0.01
                     16                     17                     18
                        a                      a                      a 
 Frequencies --   196.6787               220.8235               229.4530
 Red. masses --    10.9396                10.8406                10.7200
 Frc consts  --     0.0000                 0.0000                 0.0000
 IR Inten    --     0.5142                 0.3410                 0.1565
 Raman Activ --     0.0000                 0.0000                 0.0000
 Depolar     --     0.0000                 0.0000                 0.0000
 Atom AN      X      Y      Z        X      Y      Z        X      Y      Z
   1   6    -0.21  -0.23   0.04     0.04  -0.13   0.09    -0.10   0.08  -0.12
   2   6    -0.27  -0.11  -0.01     0.01   0.05  -0.01    -0.12  -0.11   0.01
   3   6    -0.31   0.07  -0.04    -0.04   0.18  -0.11    -0.08  -0.19   0.17
   4   6    -0.22   0.10   0.01    -0.04   0.12  -0.11    -0.01  -0.09   0.20
   5   6    -0.12  -0.01   0.05     0.00  -0.01  -0.01    -0.03   0.01   0.03
   6   6    -0.11  -0.02   0.05     0.00  -0.03   0.10    -0.02   0.11  -0.26
   7   6    -0.05  -0.06  -0.02    -0.01   0.02   0.10    -0.03   0.12  -0.18
   8   7    -0.01  -0.01  -0.07    -0.00   0.06   0.07    -0.05   0.07  -0.02
   9   6     0.01  -0.02  -0.08    -0.02   0.12  -0.01    -0.05  -0.01   0.24
  10   6     0.08  -0.03  -0.06    -0.06   0.12  -0.02    -0.04   0.01   0.17
  11   7     0.10   0.03   0.01    -0.07   0.04   0.18    -0.05   0.00  -0.00
  12   6     0.08   0.05   0.00     0.10  -0.01   0.06     0.02  -0.02  -0.10
  13   6     0.08   0.10  -0.02     0.14   0.03  -0.01     0.05  -0.08  -0.11
  14   6     0.03   0.12  -0.01     0.02   0.07  -0.02     0.01  -0.07   0.01
  15   6     0.00   0.12   0.01    -0.10   0.03   0.03    -0.05  -0.01   0.10
  16   6     0.04   0.07   0.00    -0.01  -0.06  -0.01     0.02   0.01  -0.00
  17   6     0.09   0.05  -0.00     0.11  -0.08   0.00     0.06  -0.01  -0.12
  18   6     0.14   0.08   0.08    -0.18  -0.12   0.00    -0.08   0.01  -0.00
  19   6     0.17   0.04   0.10    -0.26  -0.09  -0.11    -0.09   0.05  -0.02
  20   6     0.09  -0.09   0.01    -0.14   0.10  -0.04    -0.07   0.10   0.00
  21   6     0.04  -0.15  -0.07     0.01   0.20   0.09    -0.07   0.08  -0.01
  22   6     0.08  -0.01   0.03    -0.03  -0.03  -0.02    -0.08   0.01  -0.04
  23   6     0.15   0.10   0.10    -0.16  -0.20  -0.07    -0.09   0.00  -0.01
  24   7     0.04  -0.07  -0.08    -0.05   0.15  -0.12    -0.00   0.05   0.18
  25   6     0.03  -0.08  -0.03    -0.01   0.06  -0.03     0.01   0.06   0.03
  26   6     0.04  -0.08   0.02     0.01   0.03   0.01     0.02   0.04   0.01
  27   6     0.03  -0.03   0.04     0.06  -0.05   0.05     0.04   0.00  -0.02
  28   6     0.11   0.06   0.01     0.10  -0.08   0.07     0.15   0.07  -0.08
  29   6     0.11   0.09  -0.02     0.13  -0.07   0.05     0.22   0.08  -0.10
  30   6     0.02  -0.00  -0.01     0.12  -0.07  -0.02     0.11  -0.07  -0.00
  31   6    -0.02  -0.13   0.03     0.14  -0.15  -0.06     0.03  -0.22   0.07
  32   6     0.07  -0.07  -0.02     0.14  -0.18  -0.03     0.13  -0.05  -0.05
  33   6     0.15   0.04  -0.03     0.16  -0.16   0.01     0.21   0.07  -0.14
  34   6    -0.25   0.13  -0.01    -0.08   0.15  -0.11     0.05  -0.11   0.18
  35   6    -0.20  -0.03   0.00    -0.03   0.00   0.01     0.01   0.01  -0.01
  36   1    -0.04  -0.12   0.03     0.03  -0.09   0.06    -0.05   0.07  -0.08
  37   1    -0.08  -0.05   0.00     0.01   0.01   0.00    -0.05  -0.04  -0.01
  38   1    -0.12   0.04  -0.01    -0.01   0.07  -0.04    -0.04  -0.07   0.07
  39   1    -0.04  -0.00   0.01     0.01  -0.01   0.03     0.01   0.03  -0.10
  40   1    -0.01  -0.01  -0.02    -0.00   0.05  -0.02    -0.01  -0.02   0.13
  41   1     0.03   0.04  -0.01     0.06   0.02  -0.01     0.02  -0.04  -0.04
  42   1     0.01   0.04  -0.00     0.00   0.04  -0.01    -0.00  -0.03   0.01
  43   1    -0.01   0.04   0.01    -0.07   0.02   0.02    -0.04   0.01   0.07
  44   1     0.01   0.01  -0.00    -0.01  -0.03  -0.01     0.01   0.02   0.01
  45   1     0.03   0.01  -0.00     0.05  -0.04  -0.00     0.02   0.00  -0.05
  46   1     0.07   0.02   0.04    -0.11  -0.04  -0.05    -0.04   0.02  -0.00
  47   1     0.02  -0.04  -0.01    -0.04   0.05  -0.02    -0.02   0.04   0.01
  48   1    -0.01  -0.08  -0.05     0.04   0.12   0.07    -0.01   0.03  -0.00
  49   1     0.01  -0.00   0.01     0.02  -0.01  -0.01    -0.02  -0.00  -0.02
  50   1     0.05   0.04   0.04    -0.05  -0.09  -0.03    -0.02   0.00  -0.00
  51   1     0.02  -0.02   0.00    -0.01   0.01  -0.00    -0.00   0.01   0.01
  52   1     0.04   0.04  -0.01     0.04  -0.02   0.02     0.08   0.04  -0.05
  53   1    -0.01   0.00  -0.00     0.03  -0.00  -0.02     0.02  -0.03   0.01
  54   1    -0.03  -0.07   0.02     0.04  -0.04  -0.03    -0.03  -0.12   0.06
  55   1     0.02  -0.03  -0.01     0.04  -0.06  -0.01     0.03  -0.01  -0.01
  56   1     0.07   0.02  -0.01     0.07  -0.05   0.01     0.08   0.03  -0.05
  57   1    -0.08   0.06  -0.01    -0.03   0.06  -0.04     0.03  -0.04   0.07
  58   1    -0.04  -0.01  -0.00    -0.01  -0.02   0.01     0.02   0.02  -0.02
                     19                     20                     21
                        a                      a                      a 
 Frequencies --   236.5954               248.5276               263.6048
 Red. masses --    10.4855                10.7660                11.1377
 Frc consts  --     0.0000                 0.0000                 0.0000
 IR Inten    --     2.1983                 0.3647                 1.2535
 Raman Activ --     0.0000                 0.0000                 0.0000
 Depolar     --     0.0000                 0.0000                 0.0000
 Atom AN      X      Y      Z        X      Y      Z        X      Y      Z
   1   6     0.10  -0.00   0.03     0.06  -0.12   0.02    -0.12   0.06   0.01
   2   6     0.08   0.05   0.01    -0.09   0.04  -0.01     0.04  -0.03   0.00
   3   6     0.07   0.08  -0.02    -0.14   0.18   0.05     0.07  -0.14  -0.10
   4   6     0.04   0.04  -0.03    -0.05   0.16   0.12     0.00  -0.11  -0.17
   5   6     0.03  -0.02   0.01    -0.00   0.03   0.04    -0.02   0.02  -0.05
   6   6    -0.01  -0.08   0.08    -0.01   0.07  -0.05     0.07   0.08   0.18
   7   6    -0.01  -0.10   0.03    -0.03   0.15  -0.04     0.03   0.19   0.18
   8   7     0.01  -0.06  -0.09    -0.08   0.12  -0.04    -0.06   0.18   0.06
   9   6    -0.00  -0.01  -0.10    -0.06   0.03   0.04    -0.04   0.15  -0.13
  10   6    -0.05  -0.02  -0.03    -0.01  -0.00   0.10    -0.02   0.10  -0.11
  11   7    -0.07  -0.01   0.05     0.01  -0.03  -0.10     0.00  -0.05  -0.10
  12   6     0.09  -0.08  -0.18    -0.07  -0.03  -0.07    -0.09  -0.07  -0.02
  13   6     0.18  -0.16  -0.23    -0.09  -0.09  -0.02    -0.13  -0.15   0.06
  14   6     0.05  -0.12  -0.01    -0.02  -0.11   0.01    -0.03  -0.19   0.00
  15   6    -0.15  -0.01   0.22     0.03  -0.08   0.01     0.02  -0.21  -0.04
  16   6     0.04  -0.02   0.01    -0.02  -0.01   0.01    -0.10  -0.11   0.03
  17   6     0.18  -0.08  -0.24    -0.08   0.00  -0.04    -0.15  -0.09   0.02
  18   6    -0.07   0.08   0.23     0.06   0.06  -0.02     0.03   0.04   0.05
  19   6    -0.09   0.23   0.22     0.10   0.06   0.05     0.06   0.10   0.11
  20   6    -0.11   0.17  -0.03     0.05  -0.01   0.02     0.02   0.02  -0.00
  21   6    -0.11  -0.01  -0.22    -0.03  -0.07  -0.05    -0.03  -0.08  -0.11
  22   6     0.02   0.03   0.01    -0.00   0.03   0.01     0.04   0.04   0.03
  23   6     0.01   0.11   0.27     0.06   0.11   0.03     0.06   0.10   0.12
  24   7    -0.07  -0.05  -0.03     0.04   0.03   0.21     0.07   0.22  -0.12
  25   6    -0.04  -0.09   0.02     0.01   0.12   0.05     0.05   0.22   0.04
  26   6    -0.01  -0.06   0.06    -0.00   0.13  -0.09    -0.01   0.12   0.07
  27   6    -0.02  -0.01   0.01     0.03   0.01  -0.09     0.02   0.01   0.03
  28   6    -0.04   0.00  -0.02    -0.07  -0.18  -0.08     0.08   0.02   0.04
  29   6    -0.03   0.00  -0.02    -0.01  -0.33   0.01     0.10   0.05   0.02
  30   6    -0.02   0.02  -0.00     0.15  -0.16  -0.03     0.05  -0.01   0.00
  31   6    -0.03   0.04   0.02     0.25   0.03  -0.11     0.04  -0.11   0.00
  32   6    -0.04   0.04   0.01    -0.00  -0.12  -0.00     0.09  -0.07  -0.03
  33   6    -0.05   0.03  -0.00    -0.14  -0.26  -0.00     0.14  -0.01  -0.01
  34   6     0.05   0.05  -0.04     0.03   0.23   0.05    -0.10  -0.19  -0.09
  35   6     0.07   0.02  -0.00     0.10   0.05   0.01    -0.16  -0.07  -0.00
  36   1     0.03  -0.01   0.02     0.04  -0.09   0.01    -0.05   0.06   0.01
  37   1     0.02   0.01   0.00    -0.05  -0.00  -0.02     0.04   0.00   0.02
  38   1     0.03   0.03  -0.01    -0.07   0.07   0.02     0.05  -0.05  -0.03
  39   1    -0.02  -0.02   0.03     0.02   0.02  -0.02     0.06   0.01   0.06
  40   1     0.01   0.01  -0.05    -0.02   0.00   0.01    -0.02   0.05  -0.07
  41   1     0.07  -0.06  -0.09    -0.04  -0.04  -0.01    -0.06  -0.05   0.02
  42   1     0.01  -0.05   0.01    -0.00  -0.04   0.01     0.00  -0.06  -0.01
  43   1    -0.11   0.02   0.14     0.03  -0.03   0.01     0.03  -0.07  -0.03
  44   1     0.01   0.01   0.02     0.00   0.01   0.01    -0.03  -0.02   0.02
  45   1     0.08  -0.02  -0.10    -0.03   0.01  -0.01    -0.05  -0.02   0.01
  46   1    -0.05   0.09   0.09     0.05   0.02   0.02     0.02   0.04   0.05
  47   1    -0.04   0.06  -0.03     0.02  -0.01   0.01     0.00   0.00  -0.01
  48   1    -0.05  -0.05  -0.14    -0.03  -0.05  -0.04    -0.03  -0.06  -0.07
  49   1     0.03  -0.01  -0.01    -0.01   0.01   0.00     0.02   0.01   0.01
  50   1     0.02   0.03   0.10     0.02   0.05   0.02     0.02   0.04   0.04
  51   1     0.01  -0.02   0.02    -0.03   0.05  -0.04    -0.04   0.04   0.02
  52   1    -0.01  -0.00  -0.01    -0.01  -0.14  -0.00     0.03   0.02   0.00
  53   1     0.00   0.00   0.00     0.06  -0.04  -0.01     0.00   0.00  -0.00
  54   1    -0.01   0.01   0.01     0.13   0.07  -0.06    -0.01  -0.05   0.00
  55   1    -0.01   0.01   0.01    -0.01  -0.02   0.02     0.03  -0.02  -0.01
  56   1    -0.02   0.01  -0.00    -0.07  -0.09   0.01     0.06  -0.00  -0.00
  57   1     0.02   0.02  -0.01     0.02   0.10   0.02    -0.05  -0.09  -0.03
  58   1     0.01   0.00   0.00     0.06   0.01  -0.00    -0.07  -0.02   0.01
                     22                     23                     24
                        a                      a                      a 
 Frequencies --   303.4293               311.7978               331.3882
 Red. masses --    11.0029                10.8862                10.9204
 Frc consts  --     0.0000                 0.0000                 0.0000
 IR Inten    --     1.2274                 4.1419                 0.4786
 Raman Activ --     0.0000                 0.0000                 0.0000
 Depolar     --     0.0000                 0.0000                 0.0000
 Atom AN      X      Y      Z        X      Y      Z        X      Y      Z
   1   6     0.10   0.04  -0.00    -0.05   0.08  -0.03     0.03  -0.17   0.09
   2   6     0.06   0.03   0.02     0.04  -0.03   0.00    -0.04   0.08  -0.04
   3   6     0.05   0.03   0.04     0.05  -0.09  -0.03    -0.05   0.12  -0.08
   4   6     0.01   0.01   0.02    -0.00  -0.01  -0.08     0.04  -0.10   0.03
   5   6    -0.02  -0.02   0.02    -0.02   0.10  -0.07     0.08  -0.21   0.14
   6   6    -0.04  -0.02   0.01    -0.05   0.04   0.06     0.16  -0.11   0.01
   7   6    -0.08   0.06  -0.03    -0.04  -0.02   0.11     0.15  -0.03  -0.07
   8   7    -0.11   0.06  -0.05    -0.09  -0.04   0.04     0.25   0.06  -0.13
   9   6    -0.10   0.01   0.07    -0.07  -0.02  -0.17     0.17   0.13   0.13
  10   6    -0.08   0.05  -0.10    -0.03  -0.09   0.08    -0.00   0.11   0.23
  11   7    -0.05  -0.02  -0.04    -0.04  -0.02   0.04    -0.00   0.03   0.04
  12   6    -0.10   0.04  -0.14    -0.10   0.04  -0.15    -0.12   0.01  -0.18
  13   6    -0.15   0.06  -0.09    -0.09   0.04  -0.16    -0.17  -0.12  -0.08
  14   6    -0.04   0.05  -0.01    -0.03   0.04  -0.01    -0.05  -0.16   0.03
  15   6     0.10   0.14  -0.02     0.06   0.17   0.04     0.04  -0.10   0.03
  16   6     0.04   0.21   0.00     0.09   0.21  -0.02    -0.02   0.05  -0.00
  17   6    -0.07   0.21  -0.05    -0.02   0.20  -0.11    -0.15   0.06  -0.13
  18   6    -0.06  -0.11   0.14    -0.05  -0.05   0.12    -0.00   0.00   0.02
  19   6    -0.05  -0.14   0.14    -0.08  -0.08   0.08    -0.01  -0.08  -0.02
  20   6     0.03  -0.09   0.02    -0.03  -0.04  -0.02     0.02  -0.03   0.03
  21   6     0.20  -0.12   0.02     0.11  -0.03   0.02     0.07  -0.01   0.05
  22   6     0.22  -0.15   0.04     0.12  -0.08   0.03     0.03  -0.07  -0.03
  23   6     0.11  -0.21   0.10     0.03  -0.15   0.06     0.03  -0.05  -0.01
  24   7    -0.08   0.10  -0.25     0.01  -0.13   0.31    -0.03   0.13   0.10
  25   6    -0.07   0.04   0.05     0.00  -0.00  -0.01     0.01   0.00  -0.06
  26   6    -0.07  -0.05   0.35     0.04   0.13  -0.37    -0.07  -0.06  -0.20
  27   6    -0.05  -0.05   0.08     0.05   0.10  -0.11    -0.06  -0.15   0.08
  28   6    -0.05  -0.05  -0.12     0.09   0.06   0.14    -0.02  -0.03   0.09
  29   6     0.07  -0.05  -0.13    -0.01   0.02   0.17    -0.01   0.14  -0.01
  30   6     0.11  -0.06  -0.03    -0.05   0.01   0.04    -0.06   0.10  -0.01
  31   6     0.03  -0.08   0.06     0.06   0.01  -0.09    -0.15  -0.01   0.07
  32   6    -0.01   0.02  -0.01     0.07  -0.10  -0.01     0.01   0.09  -0.00
  33   6    -0.03   0.02  -0.13     0.09  -0.09   0.13     0.05   0.11   0.03
  34   6     0.08   0.02   0.00    -0.01  -0.11  -0.02    -0.07   0.13  -0.08
  35   6     0.09   0.02  -0.01    -0.04  -0.05   0.01    -0.05   0.07  -0.03
  36   1     0.03   0.01  -0.00    -0.03   0.06  -0.01     0.03  -0.11   0.06
  37   1     0.01   0.00   0.00     0.02  -0.01   0.01    -0.01   0.05  -0.02
  38   1     0.02   0.01   0.01     0.03  -0.04  -0.01    -0.02   0.06  -0.04
  39   1    -0.00  -0.01   0.00    -0.03   0.01   0.02     0.06  -0.03  -0.01
  40   1    -0.03  -0.01   0.06    -0.03   0.01  -0.13     0.08   0.07   0.03
  41   1    -0.06   0.01  -0.02    -0.03  -0.00  -0.05    -0.09  -0.07  -0.02
  42   1    -0.01  -0.02   0.02    -0.01  -0.02   0.03    -0.02  -0.07   0.03
  43   1     0.06   0.03  -0.00     0.02   0.05   0.04     0.04  -0.03   0.02
  44   1     0.01   0.07   0.01     0.04   0.07  -0.00     0.01   0.05   0.02
  45   1    -0.04   0.10  -0.02    -0.02   0.10  -0.04    -0.06   0.05  -0.04
  46   1    -0.03  -0.04   0.04    -0.04  -0.02   0.02    -0.00  -0.03  -0.02
  47   1    -0.01   0.00  -0.02    -0.02  -0.00  -0.03     0.00  -0.00   0.01
  48   1     0.07  -0.02  -0.01     0.04   0.01  -0.00     0.03   0.01   0.03
  49   1     0.08  -0.05   0.01     0.05  -0.03   0.01    -0.00  -0.03  -0.02
  50   1     0.04  -0.11   0.04     0.01  -0.08   0.02     0.01  -0.03  -0.00
  51   1    -0.03  -0.02   0.15     0.02   0.05  -0.15    -0.04  -0.00  -0.10
  52   1     0.03  -0.03  -0.05    -0.01   0.02   0.06     0.01   0.08  -0.01
  53   1     0.05  -0.02  -0.00    -0.04   0.01   0.00    -0.01   0.04  -0.01
  54   1     0.00  -0.04   0.05     0.03   0.02  -0.06    -0.07  -0.04   0.03
  55   1    -0.01   0.03   0.01     0.03  -0.05  -0.01     0.02   0.03  -0.02
  56   1    -0.02   0.02  -0.05     0.05  -0.05   0.05     0.02   0.04  -0.00
  57   1     0.03   0.01   0.01    -0.01  -0.06  -0.00    -0.03   0.06  -0.04
  58   1     0.02   0.01  -0.00    -0.02  -0.02   0.01    -0.02   0.04  -0.02
                     25                     26                     27
                        a                      a                      a 
 Frequencies --   350.7700               370.0220               373.5867
 Red. masses --    11.1509                10.6209                 9.3775
 Frc consts  --     0.0000                 0.0000                 0.0000
 IR Inten    --     0.2485                 3.5715                 0.8997
 Raman Activ --     0.0000                 0.0000                 0.0000
 Depolar     --     0.0000                 0.0000                 0.0000
 Atom AN      X      Y      Z        X      Y      Z        X      Y      Z
   1   6     0.20   0.06   0.02    -0.03   0.05  -0.00     0.02  -0.01   0.00
   2   6     0.14   0.09   0.03     0.08  -0.14   0.07     0.05  -0.18   0.09
   3   6     0.13   0.05   0.02     0.00   0.09  -0.12    -0.08   0.22  -0.07
   4   6    -0.00  -0.04  -0.04    -0.00   0.02  -0.10     0.00  -0.00   0.05
   5   6    -0.09  -0.08   0.04    -0.01   0.06   0.01     0.00  -0.04  -0.01
   6   6    -0.17  -0.12  -0.00    -0.03  -0.03   0.31     0.01  -0.00  -0.15
   7   6    -0.22  -0.04   0.02    -0.04   0.03  -0.07     0.01  -0.03   0.02
   8   7    -0.20   0.04  -0.01    -0.06   0.09  -0.34     0.04  -0.05   0.17
   9   6    -0.21   0.10  -0.00    -0.03  -0.10   0.18     0.01   0.06  -0.08
  10   6    -0.15   0.07   0.10     0.01  -0.12   0.26    -0.02   0.07  -0.11
  11   7    -0.07   0.01   0.04    -0.03   0.02   0.25     0.01  -0.00  -0.11
  12   6     0.02   0.00   0.09    -0.10   0.02  -0.01     0.05  -0.01   0.00
  13   6     0.10   0.01   0.01     0.03  -0.04  -0.12    -0.04   0.03   0.08
  14   6     0.02   0.03   0.00    -0.03  -0.02   0.03     0.04  -0.00  -0.04
  15   6    -0.05   0.01   0.02    -0.03   0.01   0.07     0.01  -0.01  -0.03
  16   6     0.03  -0.05  -0.03     0.09   0.00  -0.07    -0.07   0.01   0.06
  17   6     0.05  -0.05   0.04    -0.06   0.03  -0.03     0.06  -0.03  -0.02
  18   6     0.09   0.06  -0.17     0.09   0.09  -0.05    -0.04  -0.04   0.01
  19   6     0.22   0.02  -0.01     0.05  -0.05  -0.16    -0.00   0.04   0.10
  20   6     0.12  -0.11   0.05     0.06   0.00   0.06    -0.03  -0.03  -0.05
  21   6     0.03  -0.13   0.01    -0.01   0.03   0.08     0.01  -0.02  -0.03
  22   6     0.03   0.07   0.02    -0.10  -0.04  -0.09     0.06   0.04   0.07
  23   6     0.11   0.12  -0.11     0.04   0.12  -0.04    -0.03  -0.07  -0.01
  24   7    -0.24   0.02   0.09     0.02  -0.02  -0.15    -0.03   0.01   0.09
  25   6    -0.21  -0.02  -0.05     0.01   0.01  -0.05    -0.02  -0.02   0.01
  26   6    -0.19   0.01  -0.17     0.05   0.01   0.10    -0.04  -0.02  -0.07
  27   6    -0.14  -0.10   0.07     0.03   0.07  -0.06    -0.03  -0.05   0.01
  28   6    -0.03  -0.05   0.12     0.04   0.05  -0.03    -0.02  -0.02   0.02
  29   6     0.10   0.08   0.02    -0.08  -0.12   0.09    -0.16  -0.19   0.15
  30   6     0.05   0.03  -0.01     0.06   0.06  -0.04     0.15   0.22  -0.15
  31   6    -0.01  -0.15   0.04     0.05   0.03  -0.04    -0.03  -0.01   0.02
  32   6     0.11  -0.01  -0.06    -0.08  -0.13   0.07    -0.15  -0.18   0.14
  33   6     0.12   0.01  -0.02     0.06   0.06  -0.05     0.17   0.24  -0.15
  34   6     0.10   0.01  -0.09     0.03  -0.19   0.02     0.09  -0.17   0.13
  35   6     0.12   0.00  -0.03    -0.08   0.09  -0.05    -0.03   0.20  -0.10
  36   1     0.06   0.02   0.01    -0.01   0.03   0.00     0.01  -0.01  -0.00
  37   1     0.03   0.03  -0.00     0.05  -0.09   0.05     0.03  -0.12   0.05
  38   1     0.07   0.01  -0.01     0.00   0.06  -0.05    -0.05   0.13  -0.05
  39   1    -0.05  -0.03  -0.01    -0.01  -0.03   0.18     0.01   0.01  -0.08
  40   1    -0.06   0.04  -0.02    -0.02  -0.04   0.06     0.01   0.03  -0.03
  41   1     0.05   0.01  -0.01     0.02  -0.03  -0.06    -0.03   0.02   0.05
  42   1     0.00   0.02  -0.01    -0.01  -0.02   0.02     0.02   0.00  -0.03
  43   1    -0.03   0.01   0.01    -0.02   0.01   0.05     0.01  -0.01  -0.02
  44   1     0.02  -0.03  -0.03     0.06   0.00  -0.04    -0.04   0.00   0.04
  45   1     0.02  -0.03   0.01    -0.03   0.03  -0.00     0.03  -0.02  -0.02
  46   1     0.12   0.01   0.01     0.02  -0.05  -0.08     0.00   0.03   0.05
  47   1     0.05  -0.05   0.03     0.03  -0.00   0.05    -0.02  -0.01  -0.03
  48   1    -0.01  -0.06   0.01    -0.00   0.02   0.05     0.00  -0.01  -0.02
  49   1    -0.02   0.05   0.03    -0.06  -0.03  -0.05     0.03   0.03   0.04
  50   1     0.03   0.06  -0.04     0.01   0.07  -0.00    -0.01  -0.05  -0.01
  51   1    -0.06   0.01  -0.09     0.02  -0.01   0.09    -0.02   0.00  -0.04
  52   1     0.05   0.05  -0.01    -0.05  -0.08   0.06    -0.09  -0.12   0.09
  53   1     0.01   0.03  -0.02     0.03   0.04  -0.03     0.10   0.14  -0.09
  54   1    -0.03  -0.08   0.03     0.03   0.02  -0.02    -0.02  -0.01   0.01
  55   1     0.05   0.01  -0.03    -0.05  -0.08   0.05    -0.09  -0.12   0.08
  56   1     0.07   0.01  -0.01     0.04   0.03  -0.03     0.11   0.14  -0.09
  57   1     0.04   0.02  -0.02     0.02  -0.12   0.03     0.05  -0.11   0.07
  58   1     0.01  -0.01   0.00    -0.04   0.06  -0.03    -0.03   0.13  -0.06
                     28                     29                     30
                        a                      a                      a 
 Frequencies --   375.5264               377.0532               382.5101
 Red. masses --     8.9627                 9.2482                 9.1531
 Frc consts  --     0.0000                 0.0000                 0.0000
 IR Inten    --     0.2497                 1.4246                 0.2536
 Raman Activ --     0.0000                 0.0000                 0.0000
 Depolar     --     0.0000                 0.0000                 0.0000
 Atom AN      X      Y      Z        X      Y      Z        X      Y      Z
   1   6     0.02  -0.01   0.01     0.01  -0.02   0.01     0.02   0.01  -0.00
   2   6     0.10  -0.25   0.13     0.00  -0.03   0.01     0.01  -0.01   0.01
   3   6    -0.10   0.31  -0.15    -0.03   0.06  -0.01     0.00   0.02   0.01
   4   6     0.00   0.01  -0.00     0.01  -0.01   0.03    -0.01   0.01   0.00
   5   6    -0.00  -0.01  -0.01     0.01  -0.03   0.00    -0.02  -0.00  -0.01
   6   6    -0.00   0.00  -0.03     0.02   0.01  -0.10    -0.03  -0.01  -0.04
   7   6    -0.00  -0.00  -0.00     0.02   0.00   0.02    -0.03  -0.02   0.02
   8   7    -0.00  -0.01   0.02     0.02  -0.02   0.12    -0.02  -0.02   0.05
   9   6    -0.00   0.01  -0.01     0.01   0.04  -0.08    -0.02   0.03  -0.07
  10   6    -0.01   0.01  -0.02    -0.01   0.04  -0.11    -0.02   0.03  -0.06
  11   7     0.00  -0.00  -0.02     0.01  -0.02  -0.12     0.00  -0.01  -0.07
  12   6     0.01  -0.00   0.00     0.05  -0.03   0.01     0.03   0.00   0.01
  13   6    -0.01   0.01   0.02     0.27  -0.08  -0.22    -0.12   0.06   0.15
  14   6     0.02   0.00  -0.02    -0.27   0.09   0.25     0.11  -0.01  -0.11
  15   6     0.00   0.00  -0.01     0.01  -0.01  -0.04     0.01   0.02  -0.03
  16   6    -0.02   0.00   0.02     0.23  -0.10  -0.23    -0.12   0.05   0.12
  17   6     0.02  -0.01  -0.01    -0.27   0.07   0.30     0.14  -0.03  -0.09
  18   6    -0.01  -0.01  -0.00    -0.04  -0.05   0.02    -0.01  -0.03   0.01
  19   6     0.01   0.01   0.02    -0.08  -0.08  -0.05    -0.14  -0.26  -0.25
  20   6    -0.01  -0.01  -0.01     0.04   0.12   0.11     0.14   0.22   0.26
  21   6     0.00  -0.00  -0.01    -0.01  -0.02  -0.05     0.02  -0.02  -0.02
  22   6     0.01   0.01   0.02    -0.02  -0.09  -0.08    -0.09  -0.24  -0.24
  23   6    -0.01  -0.02  -0.01     0.05   0.08   0.17     0.15   0.23   0.31
  24   7    -0.01   0.00   0.01    -0.00   0.01   0.04    -0.03  -0.01   0.05
  25   6    -0.00  -0.00   0.00    -0.00   0.01   0.01    -0.03  -0.01   0.01
  26   6    -0.01  -0.01   0.00    -0.02   0.00  -0.03    -0.02   0.00  -0.04
  27   6    -0.01  -0.01   0.01    -0.01  -0.03   0.02    -0.02  -0.01   0.00
  28   6    -0.00  -0.01   0.01    -0.02  -0.02   0.01    -0.01  -0.01   0.02
  29   6     0.14   0.18  -0.13    -0.01  -0.00   0.00     0.01   0.00   0.01
  30   6    -0.14  -0.19   0.13     0.01   0.02  -0.02     0.01   0.01  -0.00
  31   6     0.01   0.00  -0.01    -0.02  -0.01   0.01     0.00  -0.02   0.00
  32   6     0.14   0.17  -0.13    -0.01   0.00   0.00     0.01  -0.01  -0.01
  33   6    -0.16  -0.21   0.15     0.01   0.03  -0.02     0.01   0.00  -0.00
  34   6     0.10  -0.26   0.14     0.02  -0.02   0.03     0.02  -0.01   0.01
  35   6    -0.08   0.28  -0.14    -0.00   0.05  -0.02     0.02   0.01  -0.01
  36   1     0.01  -0.01   0.01     0.01  -0.01   0.00     0.01   0.00  -0.00
  37   1     0.06  -0.16   0.08     0.00  -0.02   0.01     0.00  -0.01   0.00
  38   1    -0.06   0.18  -0.09    -0.02   0.03  -0.01     0.00   0.01   0.00
  39   1     0.00   0.00  -0.01     0.01   0.01  -0.06    -0.01   0.00  -0.02
  40   1    -0.00   0.00  -0.00     0.01   0.01  -0.02    -0.00   0.01  -0.02
  41   1    -0.01   0.01   0.01     0.17  -0.04  -0.14    -0.07   0.04   0.08
  42   1     0.01  -0.00  -0.01    -0.17   0.06   0.16     0.07  -0.01  -0.07
  43   1     0.00   0.00  -0.00     0.01  -0.01  -0.02     0.01   0.00  -0.02
  44   1    -0.01   0.00   0.01     0.14  -0.06  -0.15    -0.08   0.02   0.07
  45   1     0.01  -0.01  -0.01    -0.17   0.05   0.18     0.08  -0.03  -0.06
  46   1     0.00   0.01   0.01    -0.05  -0.04  -0.04    -0.09  -0.15  -0.16
  47   1    -0.01  -0.01  -0.01     0.03   0.08   0.06     0.08   0.14   0.16
  48   1     0.00  -0.00  -0.00    -0.00  -0.01  -0.03     0.00  -0.01  -0.01
  49   1     0.01   0.01   0.01    -0.01  -0.05  -0.05    -0.06  -0.15  -0.15
  50   1    -0.00  -0.01  -0.01     0.03   0.05   0.09     0.09   0.14   0.17
  51   1    -0.00  -0.00  -0.00    -0.01   0.01  -0.03    -0.01   0.00  -0.02
  52   1     0.09   0.12  -0.08    -0.00  -0.00   0.00     0.00   0.00   0.00
  53   1    -0.09  -0.12   0.08     0.01   0.01  -0.01     0.00   0.01  -0.00
  54   1     0.01   0.00  -0.01    -0.01  -0.01   0.01    -0.00  -0.01   0.00
  55   1     0.09   0.11  -0.08    -0.00  -0.00   0.00     0.00  -0.00  -0.00
  56   1    -0.09  -0.12   0.09     0.01   0.02  -0.01     0.01   0.00  -0.00
  57   1     0.06  -0.17   0.08     0.01  -0.01   0.01     0.01  -0.00   0.01
  58   1    -0.06   0.17  -0.09    -0.00   0.03  -0.02     0.00   0.01  -0.00
                     31                     32                     33
                        a                      a                      a 
 Frequencies --   408.1023               423.0666               448.2697
 Red. masses --    11.3757                11.1625                10.9087
 Frc consts  --     0.0000                 0.0000                 0.0000
 IR Inten    --     0.7937                 7.3627                 7.2925
 Raman Activ --     0.0000                 0.0000                 0.0000
 Depolar     --     0.0000                 0.0000                 0.0000
 Atom AN      X      Y      Z        X      Y      Z        X      Y      Z
   1   6    -0.05   0.09  -0.09     0.01  -0.05   0.03    -0.01   0.04  -0.02
   2   6    -0.03  -0.09   0.03    -0.01   0.03  -0.01     0.01  -0.03   0.02
   3   6    -0.05  -0.03   0.11    -0.01   0.02  -0.03    -0.00  -0.00  -0.01
   4   6    -0.06   0.20   0.02     0.03  -0.08   0.03    -0.01   0.05  -0.03
   5   6    -0.02   0.13  -0.21     0.02  -0.06   0.09    -0.01   0.01   0.09
   6   6    -0.08  -0.01  -0.15     0.07   0.11  -0.18    -0.03   0.07  -0.24
   7   6     0.01  -0.22   0.10     0.03   0.14   0.13    -0.01  -0.13   0.46
   8   7     0.20  -0.08   0.16    -0.11  -0.01   0.23    -0.01   0.08  -0.30
   9   6     0.10   0.25  -0.09    -0.01  -0.15  -0.22    -0.00  -0.04   0.11
  10   6    -0.04   0.24  -0.05     0.06  -0.17  -0.19     0.03  -0.06   0.19
  11   7    -0.05   0.15   0.26    -0.04   0.06   0.38     0.03  -0.03  -0.03
  12   6    -0.10   0.07  -0.04    -0.23   0.06   0.10     0.07  -0.03  -0.05
  13   6    -0.03  -0.11  -0.05    -0.03  -0.03  -0.09    -0.00   0.02   0.01
  14   6     0.01  -0.14   0.04     0.07  -0.07  -0.06    -0.02   0.03   0.02
  15   6    -0.05  -0.15   0.07    -0.10   0.03   0.14     0.04   0.01  -0.04
  16   6    -0.01  -0.05  -0.06     0.09   0.00  -0.07    -0.02   0.01   0.03
  17   6    -0.11  -0.02  -0.10    -0.02   0.02  -0.09     0.01  -0.00   0.02
  18   6     0.05   0.12   0.00     0.12   0.16   0.08     0.01  -0.02  -0.00
  19   6     0.07  -0.05  -0.03     0.05  -0.01  -0.09    -0.00   0.01  -0.01
  20   6     0.05  -0.10   0.02    -0.00  -0.07  -0.03    -0.01   0.02  -0.01
  21   6     0.10  -0.04   0.09     0.03   0.07   0.11    -0.03   0.02  -0.02
  22   6     0.02  -0.03  -0.05    -0.06  -0.05  -0.06    -0.02   0.01   0.01
  23   6     0.08   0.03  -0.08     0.03   0.05  -0.06    -0.02   0.00   0.01
  24   7    -0.18   0.13  -0.10     0.14  -0.12  -0.06     0.01   0.06  -0.36
  25   6    -0.07  -0.17   0.01     0.06   0.15   0.03     0.02  -0.12   0.41
  26   6     0.04  -0.10   0.08    -0.03   0.10   0.02     0.02   0.04  -0.18
  27   6     0.02   0.09  -0.10    -0.01  -0.07   0.18     0.01  -0.01   0.13
  28   6     0.06   0.08  -0.03    -0.11  -0.13   0.01    -0.01  -0.00  -0.03
  29   6     0.01  -0.01   0.04    -0.01  -0.02  -0.08    -0.02  -0.02  -0.02
  30   6    -0.02  -0.04   0.03     0.06   0.03  -0.04     0.01  -0.01   0.00
  31   6     0.06   0.03  -0.05    -0.05  -0.06   0.07     0.01   0.01   0.00
  32   6    -0.01  -0.05   0.00     0.01   0.07  -0.02    -0.01  -0.00   0.01
  33   6    -0.01  -0.04   0.03    -0.03   0.03  -0.07    -0.02  -0.00  -0.03
  34   6     0.03   0.02   0.12    -0.00  -0.00  -0.01     0.01  -0.02   0.01
  35   6     0.06  -0.06   0.05    -0.02   0.04  -0.01     0.01  -0.02   0.02
  36   1    -0.03   0.06  -0.06     0.01  -0.03   0.02    -0.01   0.02  -0.01
  37   1    -0.01  -0.06   0.01    -0.01   0.02  -0.01     0.01  -0.02   0.01
  38   1    -0.03  -0.03   0.05    -0.01   0.02  -0.01     0.00  -0.01   0.00
  39   1    -0.07   0.01  -0.04     0.06   0.04  -0.15    -0.02   0.07  -0.26
  40   1     0.06   0.12  -0.07    -0.04  -0.08  -0.08    -0.00   0.02  -0.09
  41   1    -0.03  -0.07  -0.03     0.01  -0.03  -0.06    -0.01   0.01   0.02
  42   1     0.00  -0.04   0.01     0.06  -0.05  -0.04    -0.02   0.01   0.02
  43   1    -0.02  -0.04   0.04    -0.05   0.02   0.08     0.02   0.00  -0.02
  44   1     0.03   0.01  -0.02     0.07   0.00  -0.05    -0.02   0.00   0.02
  45   1    -0.03  -0.00  -0.03     0.02   0.01  -0.06    -0.01   0.00   0.02
  46   1     0.05  -0.03  -0.02     0.02  -0.03  -0.05    -0.01   0.01  -0.00
  47   1     0.01  -0.04  -0.00    -0.01  -0.06  -0.03     0.00   0.01   0.00
  48   1     0.03  -0.00   0.05     0.01   0.04   0.06    -0.01   0.00  -0.01
  49   1    -0.03  -0.01  -0.02    -0.05  -0.04  -0.05     0.00   0.00   0.00
  50   1     0.02   0.00  -0.03    -0.01   0.01  -0.04    -0.01   0.01   0.00
  51   1     0.06  -0.05   0.05    -0.05   0.05  -0.05     0.00   0.05  -0.23
  52   1    -0.01  -0.01   0.02     0.01   0.00  -0.04    -0.00  -0.01  -0.01
  53   1    -0.03  -0.03   0.02     0.05   0.02  -0.02     0.01  -0.00   0.00
  54   1     0.03   0.03  -0.03    -0.03  -0.03   0.04     0.01   0.01   0.00
  55   1    -0.01  -0.03   0.01     0.01   0.05  -0.01    -0.01   0.00   0.01
  56   1    -0.01  -0.03   0.02    -0.01   0.03  -0.04    -0.01   0.00  -0.01
  57   1     0.03  -0.01   0.05    -0.01   0.01  -0.01     0.00  -0.02   0.00
  58   1     0.05  -0.04   0.02    -0.01   0.03  -0.01     0.01  -0.02   0.01
                     34                     35                     36
                        a                      a                      a 
 Frequencies --   471.5816               484.1502               498.2492
 Red. masses --    10.0716                10.0123                10.7129
 Frc consts  --     0.0000                 0.0000                 0.0000
 IR Inten    --     8.5017                12.3970                 4.3408
 Raman Activ --     0.0000                 0.0000                 0.0000
 Depolar     --     0.0000                 0.0000                 0.0000
 Atom AN      X      Y      Z        X      Y      Z        X      Y      Z
   1   6    -0.01  -0.15   0.07    -0.12   0.13  -0.09     0.01  -0.05   0.03
   2   6    -0.04   0.08  -0.07    -0.00  -0.15   0.03    -0.01   0.04  -0.02
   3   6     0.01  -0.04  -0.04    -0.05   0.02  -0.00     0.01  -0.01   0.00
   4   6     0.12  -0.22   0.09    -0.05   0.31  -0.09     0.04  -0.08   0.04
   5   6     0.07  -0.02   0.09     0.07   0.06  -0.11     0.01   0.01  -0.01
   6   6     0.08   0.04  -0.07     0.10   0.01   0.07     0.01   0.02  -0.04
   7   6     0.07  -0.02   0.02     0.12  -0.01   0.02    -0.00   0.02   0.01
   8   7     0.01  -0.07  -0.02     0.12  -0.04  -0.05    -0.03  -0.04   0.11
   9   6    -0.03   0.01   0.02     0.10  -0.04   0.00    -0.02  -0.01  -0.11
  10   6    -0.13   0.04  -0.04    -0.02  -0.04   0.09     0.00  -0.03  -0.01
  11   7    -0.16  -0.03  -0.01    -0.07  -0.06   0.01    -0.03  -0.03   0.51
  12   6    -0.24   0.04   0.24    -0.15  -0.00   0.12     0.20  -0.12  -0.30
  13   6    -0.02   0.00   0.00    -0.04   0.01  -0.02    -0.04   0.04  -0.11
  14   6     0.08  -0.02  -0.14     0.03  -0.00  -0.09    -0.11   0.06   0.12
  15   6    -0.14   0.11   0.12    -0.06   0.10   0.07     0.20   0.01  -0.14
  16   6     0.11   0.01  -0.10     0.08   0.02  -0.05    -0.08   0.05   0.17
  17   6     0.03   0.03   0.03     0.02   0.03   0.02    -0.00  -0.02  -0.07
  18   6    -0.14  -0.15  -0.24    -0.12  -0.20  -0.23    -0.02  -0.19  -0.26
  19   6    -0.01  -0.03   0.01    -0.03  -0.01  -0.02     0.03   0.06  -0.12
  20   6     0.04   0.04   0.15     0.02   0.09   0.12     0.02   0.10   0.10
  21   6     0.00  -0.19  -0.11    -0.07  -0.14  -0.14    -0.14  -0.09  -0.12
  22   6     0.09   0.06   0.09     0.06   0.07   0.12    -0.01   0.07   0.15
  23   6     0.07   0.00  -0.03     0.02  -0.03  -0.01     0.03  -0.00  -0.05
  24   7    -0.06   0.11  -0.04     0.03   0.02   0.01     0.01  -0.03  -0.02
  25   6     0.01  -0.02   0.09     0.03   0.04  -0.06     0.00   0.03  -0.07
  26   6     0.05   0.01   0.03     0.02   0.05  -0.02     0.01   0.01   0.06
  27   6     0.05   0.05  -0.04     0.02  -0.01   0.04     0.01   0.01   0.02
  28   6     0.17   0.21  -0.13    -0.19  -0.26   0.15     0.02   0.02  -0.03
  29   6    -0.00   0.02   0.02    -0.02  -0.04  -0.03    -0.00   0.00  -0.01
  30   6    -0.08  -0.08   0.07     0.09   0.09  -0.09    -0.01  -0.01   0.01
  31   6     0.09   0.13  -0.09    -0.12  -0.14   0.11     0.01   0.02  -0.01
  32   6    -0.06  -0.09   0.07     0.07   0.12  -0.07    -0.01  -0.01   0.01
  33   6     0.03   0.01   0.01    -0.04  -0.02  -0.00    -0.00   0.00  -0.01
  34   6    -0.02  -0.02  -0.00    -0.02   0.06   0.07    -0.00  -0.01   0.01
  35   6    -0.07   0.09  -0.03     0.03  -0.10   0.09    -0.02   0.04  -0.02
  36   1     0.00  -0.06   0.03    -0.04   0.06  -0.04     0.00  -0.02   0.01
  37   1    -0.02   0.09  -0.04     0.03  -0.12   0.05    -0.01   0.04  -0.02
  38   1    -0.02   0.03  -0.03    -0.02  -0.05   0.04    -0.01   0.01  -0.01
  39   1     0.02   0.02  -0.06     0.03  -0.00   0.04     0.00   0.01  -0.01
  40   1     0.01   0.02   0.02     0.04   0.01  -0.03    -0.01  -0.01  -0.04
  41   1     0.06  -0.00  -0.05     0.03   0.00  -0.03    -0.10   0.02   0.04
  42   1     0.09  -0.03  -0.10     0.05  -0.03  -0.06    -0.12   0.02   0.13
  43   1    -0.05   0.04   0.06    -0.02   0.03   0.03     0.06   0.00  -0.05
  44   1     0.09  -0.03  -0.10     0.05  -0.01  -0.05    -0.11   0.05   0.14
  45   1     0.06  -0.01  -0.05     0.03   0.01  -0.03    -0.08   0.06   0.04
  46   1     0.04   0.03   0.05     0.02   0.04   0.05     0.05   0.07   0.03
  47   1     0.04   0.08   0.10     0.04   0.09   0.10     0.05   0.07   0.12
  48   1    -0.01  -0.07  -0.05    -0.02  -0.05  -0.06    -0.04  -0.03  -0.04
  49   1     0.04   0.08   0.09     0.05   0.08   0.10     0.03   0.09   0.12
  50   1     0.05   0.04   0.04     0.03   0.04   0.05     0.02   0.09   0.02
  51   1     0.03   0.01  -0.02     0.01   0.01   0.02     0.00  -0.00   0.04
  52   1    -0.03  -0.03   0.04     0.04   0.04  -0.05    -0.01  -0.01   0.00
  53   1    -0.06  -0.07   0.06     0.08   0.09  -0.07    -0.01  -0.01   0.01
  54   1     0.04   0.06  -0.04    -0.05  -0.06   0.05     0.00   0.01  -0.00
  55   1    -0.06  -0.09   0.06     0.07   0.11  -0.07    -0.01  -0.01   0.01
  56   1    -0.02  -0.04   0.03     0.02   0.05  -0.04    -0.01  -0.01   0.00
  57   1    -0.03   0.03  -0.03     0.01  -0.04   0.05    -0.01   0.01  -0.01
  58   1    -0.04   0.08  -0.04     0.06  -0.10   0.05    -0.01   0.04  -0.02
                     37                     38                     39
                        a                      a                      a 
 Frequencies --   510.3823               533.9965               556.2609
 Red. masses --    10.8294                10.9943                11.3893
 Frc consts  --     0.0000                 0.0000                 0.0000
 IR Inten    --     1.5506                 5.5325                 0.3983
 Raman Activ --     0.0000                 0.0000                 0.0000
 Depolar     --     0.0000                 0.0000                 0.0000
 Atom AN      X      Y      Z        X      Y      Z        X      Y      Z
   1   6    -0.10   0.13  -0.01     0.07   0.18  -0.09     0.20   0.12  -0.01
   2   6     0.04  -0.09   0.05     0.05  -0.08   0.10    -0.01   0.03   0.15
   3   6     0.02  -0.04  -0.18    -0.03   0.11   0.08    -0.05   0.07   0.11
   4   6     0.00   0.15  -0.21    -0.18   0.17  -0.07    -0.22  -0.04  -0.02
   5   6     0.03   0.04   0.49    -0.06  -0.27   0.00    -0.26   0.00   0.01
   6   6    -0.05   0.08   0.03    -0.01  -0.20  -0.06    -0.03   0.20   0.05
   7   6    -0.00  -0.04  -0.21    -0.08   0.10   0.01     0.08   0.06   0.00
   8   7     0.06  -0.08   0.04    -0.15   0.11   0.06     0.20   0.10   0.02
   9   6     0.03   0.04   0.01    -0.13   0.07  -0.01     0.25  -0.07  -0.01
  10   6    -0.03   0.08  -0.08     0.07   0.02  -0.00     0.15  -0.06  -0.04
  11   7    -0.02   0.05   0.01     0.06  -0.05   0.06     0.11   0.00   0.02
  12   6     0.03   0.02  -0.02    -0.07  -0.01   0.02    -0.06   0.03   0.01
  13   6     0.02  -0.01   0.01    -0.05   0.01  -0.03    -0.05   0.02  -0.01
  14   6    -0.00  -0.01   0.02     0.02  -0.01  -0.03     0.05  -0.01  -0.02
  15   6     0.01  -0.04  -0.01    -0.02   0.04   0.04    -0.04  -0.00   0.06
  16   6    -0.03  -0.00  -0.00     0.04   0.00  -0.01     0.04  -0.02  -0.03
  17   6    -0.01  -0.00  -0.02    -0.03   0.01   0.00    -0.07   0.01  -0.02
  18   6    -0.03   0.01  -0.02     0.03  -0.07  -0.01     0.01  -0.11  -0.02
  19   6    -0.01  -0.01   0.02     0.01   0.02  -0.04    -0.02  -0.02  -0.04
  20   6    -0.00  -0.01   0.02     0.01   0.04  -0.01     0.03   0.07   0.01
  21   6     0.03  -0.03   0.00    -0.07   0.02  -0.04    -0.08   0.01  -0.07
  22   6     0.02   0.01  -0.01    -0.02  -0.00   0.05    -0.00   0.02   0.07
  23   6     0.01   0.00  -0.02    -0.03  -0.03   0.02    -0.06  -0.07   0.02
  24   7    -0.07  -0.03   0.15     0.16   0.10   0.03     0.09  -0.13  -0.03
  25   6    -0.03  -0.05  -0.13     0.15   0.06  -0.03    -0.01   0.03   0.01
  26   6     0.07   0.06  -0.06     0.05  -0.14  -0.03    -0.26  -0.17  -0.04
  27   6     0.05   0.04   0.45     0.11  -0.30  -0.00    -0.32  -0.02   0.02
  28   6    -0.02   0.09  -0.16     0.27  -0.01  -0.11    -0.07   0.21   0.02
  29   6    -0.03  -0.03  -0.10    -0.03   0.03  -0.12     0.12   0.07   0.12
  30   6     0.02  -0.06   0.07    -0.16  -0.08  -0.05     0.03  -0.05   0.10
  31   6     0.11   0.03  -0.01    -0.11   0.26  -0.04     0.18  -0.09  -0.10
  32   6    -0.04  -0.04   0.03    -0.03  -0.01   0.16    -0.09  -0.09  -0.09
  33   6    -0.07  -0.04  -0.16     0.09   0.09   0.12    -0.02   0.02  -0.08
  34   6    -0.00  -0.03  -0.12    -0.01   0.06  -0.05     0.03  -0.02  -0.14
  35   6    -0.02  -0.09   0.10     0.08  -0.13  -0.01     0.07  -0.06  -0.08
  36   1    -0.03   0.05  -0.01     0.02   0.05  -0.03     0.06   0.03  -0.01
  37   1     0.07  -0.07   0.07     0.01  -0.12   0.05    -0.03  -0.03   0.02
  38   1     0.04  -0.06  -0.04     0.03  -0.02   0.04     0.04   0.02   0.01
  39   1    -0.06   0.05  -0.09     0.08  -0.07  -0.04    -0.00   0.05   0.02
  40   1     0.02   0.00   0.09    -0.06  -0.00   0.00     0.05  -0.04  -0.00
  41   1    -0.01  -0.01   0.01    -0.00  -0.00  -0.02    -0.01  -0.01  -0.02
  42   1    -0.01   0.01   0.01     0.02  -0.02  -0.02     0.04  -0.02  -0.02
  43   1     0.00  -0.01  -0.00    -0.00   0.01   0.01    -0.01  -0.00   0.01
  44   1    -0.01   0.01   0.01     0.03  -0.00  -0.02     0.04  -0.00  -0.03
  45   1    -0.01  -0.01   0.00    -0.00   0.01  -0.02    -0.00   0.00  -0.02
  46   1     0.01  -0.00   0.01    -0.01   0.02   0.00    -0.02   0.02   0.01
  47   1    -0.00   0.01   0.00     0.01   0.01   0.02     0.02   0.04   0.03
  48   1     0.01  -0.01   0.00    -0.02   0.01  -0.01    -0.02   0.00  -0.02
  49   1     0.00   0.01   0.00     0.02   0.01   0.02     0.04   0.02   0.04
  50   1     0.01  -0.00   0.00    -0.01   0.01   0.01    -0.01   0.00   0.02
  51   1     0.06   0.04  -0.14    -0.06  -0.02  -0.02    -0.11  -0.04  -0.02
  52   1    -0.01  -0.06  -0.04    -0.06   0.02   0.03     0.03  -0.03   0.03
  53   1    -0.00  -0.05   0.05    -0.04  -0.09   0.04    -0.07  -0.02   0.04
  54   1     0.04   0.02  -0.00    -0.03   0.08  -0.01     0.05  -0.03  -0.02
  55   1    -0.05  -0.01   0.05    -0.02  -0.10   0.05    -0.07  -0.03   0.02
  56   1    -0.05  -0.02  -0.03    -0.04   0.01   0.04     0.03  -0.05   0.01
  57   1    -0.02  -0.08  -0.03     0.04  -0.02   0.03     0.05   0.01  -0.01
  58   1    -0.00  -0.09   0.07     0.03  -0.12   0.04    -0.02  -0.04   0.01
                     40                     41                     42
                        a                      a                      a 
 Frequencies --   574.5105               579.6683               585.2797
 Red. masses --    11.6064                10.9142                11.2285
 Frc consts  --     0.0000                 0.0000                 0.0000
 IR Inten    --     1.7371                 1.5112                 0.4115
 Raman Activ --     0.0000                 0.0000                 0.0000
 Depolar     --     0.0000                 0.0000                 0.0000
 Atom AN      X      Y      Z        X      Y      Z        X      Y      Z
   1   6    -0.04   0.02  -0.03    -0.10   0.06  -0.09    -0.01  -0.06  -0.11
   2   6     0.04  -0.03  -0.03     0.07  -0.11  -0.04     0.23  -0.02  -0.20
   3   6     0.02   0.03  -0.01     0.01   0.09   0.00     0.16   0.15   0.17
   4   6     0.02   0.04  -0.00     0.03   0.12   0.01     0.01   0.05   0.11
   5   6     0.07  -0.10   0.02     0.11  -0.11  -0.03     0.04  -0.01  -0.09
   6   6    -0.01  -0.18   0.02     0.22  -0.03  -0.00     0.01  -0.08  -0.01
   7   6    -0.08   0.09  -0.05     0.16   0.07   0.01    -0.01   0.01   0.04
   8   7     0.02   0.27  -0.05     0.05  -0.08  -0.03     0.05   0.09   0.04
   9   6     0.14  -0.11   0.11     0.07  -0.15  -0.03     0.08  -0.01  -0.03
  10   6     0.08  -0.04  -0.28    -0.16  -0.09  -0.05     0.01  -0.06   0.10
  11   7    -0.03   0.26   0.07    -0.17  -0.08  -0.01     0.02  -0.02  -0.04
  12   6     0.07   0.20  -0.03     0.07  -0.13   0.03    -0.01  -0.01  -0.00
  13   6     0.11  -0.01   0.09     0.07  -0.11   0.01    -0.02   0.02  -0.01
  14   6     0.06  -0.02   0.11    -0.18  -0.05  -0.06     0.02   0.02  -0.00
  15   6    -0.03  -0.21  -0.01     0.04   0.09  -0.12     0.00   0.02   0.01
  16   6    -0.10   0.00  -0.07    -0.05   0.11   0.02     0.02  -0.02   0.02
  17   6    -0.06   0.01  -0.11     0.20   0.05   0.09    -0.01  -0.02   0.00
  18   6    -0.17   0.04  -0.05     0.02   0.13  -0.04    -0.01  -0.02   0.02
  19   6    -0.10  -0.13   0.07    -0.00   0.17  -0.04     0.02  -0.06   0.03
  20   6     0.02  -0.00   0.10    -0.21  -0.06   0.03     0.09  -0.00  -0.03
  21   6     0.10  -0.14  -0.06     0.05  -0.01   0.15     0.00   0.02  -0.03
  22   6     0.09   0.11  -0.04     0.01  -0.17   0.01    -0.02   0.07  -0.04
  23   6    -0.03  -0.01  -0.08     0.22   0.07  -0.06    -0.08   0.00   0.03
  24   7    -0.06  -0.30  -0.01    -0.09   0.01   0.00    -0.06  -0.10  -0.03
  25   6    -0.12   0.01   0.24    -0.11   0.12   0.06    -0.10   0.06  -0.09
  26   6    -0.04   0.20  -0.02    -0.20   0.07   0.02    -0.07   0.09   0.02
  27   6     0.05   0.00  -0.13    -0.13  -0.06  -0.03    -0.03  -0.02   0.11
  28   6     0.06  -0.02   0.04     0.03   0.11   0.02    -0.05   0.02  -0.12
  29   6     0.04  -0.00   0.03     0.13   0.07   0.06    -0.21   0.12  -0.14
  30   6    -0.02  -0.03  -0.05    -0.02  -0.10   0.02    -0.08   0.17   0.26
  31   6    -0.05   0.02  -0.02     0.08   0.03  -0.10     0.11   0.06   0.07
  32   6    -0.02   0.01   0.00    -0.11  -0.06  -0.02     0.22  -0.13   0.16
  33   6     0.03   0.04   0.09     0.03   0.10   0.02     0.07  -0.17  -0.24
  34   6    -0.03   0.03   0.02    -0.08   0.12   0.08    -0.22   0.03   0.19
  35   6    -0.01  -0.03   0.01    -0.01  -0.09   0.04    -0.16  -0.15  -0.18
  36   1    -0.01   0.00   0.00    -0.03   0.02  -0.01    -0.02   0.02   0.05
  37   1     0.02  -0.03   0.00     0.04  -0.08   0.02     0.04  -0.02  -0.07
  38   1    -0.00  -0.01   0.01    -0.02  -0.01   0.03    -0.00   0.04   0.07
  39   1     0.02  -0.05   0.00     0.10  -0.01  -0.01     0.00  -0.02   0.01
  40   1    -0.02  -0.13   0.13     0.04  -0.03   0.01     0.01  -0.00  -0.06
  41   1    -0.01  -0.04   0.02     0.03   0.02   0.04    -0.00   0.01  -0.01
  42   1    -0.00   0.05   0.02    -0.08  -0.00   0.01     0.01  -0.00  -0.00
  43   1    -0.01  -0.06   0.00     0.04   0.02   0.00    -0.00   0.01  -0.00
  44   1    -0.02   0.04   0.01    -0.07  -0.00   0.02     0.01  -0.01   0.00
  45   1    -0.02  -0.04   0.00     0.04   0.02   0.05    -0.00  -0.00  -0.00
  46   1     0.01  -0.02   0.04     0.04   0.01  -0.04    -0.01  -0.01   0.01
  47   1     0.00   0.07   0.04    -0.07  -0.06  -0.02     0.02   0.01  -0.01
  48   1     0.02  -0.04  -0.00     0.04   0.02   0.00    -0.02  -0.01   0.01
  49   1     0.02   0.07   0.03    -0.06  -0.06  -0.02     0.01   0.02  -0.01
  50   1     0.02  -0.02   0.03     0.04   0.01  -0.05    -0.02  -0.01   0.01
  51   1    -0.03   0.07  -0.05    -0.09   0.03  -0.00    -0.03   0.02   0.02
  52   1     0.00   0.02   0.02     0.01  -0.00   0.04    -0.05  -0.02  -0.06
  53   1    -0.01  -0.00  -0.02    -0.07  -0.05   0.02    -0.01   0.01   0.10
  54   1    -0.01   0.01   0.00     0.03   0.01  -0.01    -0.02  -0.02  -0.06
  55   1     0.01  -0.01  -0.02    -0.06  -0.06   0.02     0.02  -0.02   0.09
  56   1     0.02   0.01   0.02     0.02  -0.01   0.03    -0.02  -0.05  -0.06
  57   1    -0.01  -0.01   0.01    -0.01  -0.00   0.04    -0.04   0.03   0.07
  58   1     0.01  -0.03   0.01     0.05  -0.08   0.02     0.00  -0.04  -0.07
                     43                     44                     45
                        a                      a                      a 
 Frequencies --   588.9199               590.7488               592.9783
 Red. masses --    11.2229                11.2063                11.1755
 Frc consts  --     0.0000                 0.0000                 0.0000
 IR Inten    --     0.3408                 0.0305                 0.8243
 Raman Activ --     0.0000                 0.0000                 0.0000
 Depolar     --     0.0000                 0.0000                 0.0000
 Atom AN      X      Y      Z        X      Y      Z        X      Y      Z
   1   6     0.09   0.00   0.04    -0.05   0.00  -0.02    -0.07   0.07   0.10
   2   6    -0.06   0.05   0.07     0.03  -0.03  -0.03    -0.29  -0.03   0.20
   3   6    -0.04  -0.03   0.02     0.01   0.02  -0.01    -0.20  -0.15  -0.20
   4   6    -0.07  -0.06  -0.01     0.03   0.03   0.01     0.05   0.00  -0.10
   5   6    -0.10   0.03  -0.03     0.04  -0.01   0.01     0.08  -0.07  -0.12
   6   6    -0.07   0.06   0.01     0.07   0.02  -0.03     0.09  -0.11  -0.05
   7   6    -0.03  -0.00   0.02     0.05   0.00   0.03     0.03   0.04   0.05
   8   7    -0.01   0.02   0.01    -0.01  -0.08   0.02     0.04   0.06   0.03
   9   6    -0.00   0.01   0.00    -0.02  -0.03  -0.05     0.07  -0.06  -0.03
  10   6     0.07   0.00   0.03    -0.06  -0.05   0.12    -0.05  -0.07   0.05
  11   7     0.02   0.08   0.08    -0.05  -0.03   0.10    -0.05  -0.04  -0.02
  12   6     0.11   0.06   0.08     0.03  -0.06   0.03    -0.01  -0.05  -0.01
  13   6     0.14  -0.31   0.21     0.02  -0.10   0.03    -0.02   0.04  -0.05
  14   6    -0.25  -0.28  -0.14    -0.13  -0.08  -0.07     0.01   0.05   0.01
  15   6    -0.10  -0.07  -0.13     0.00   0.05  -0.07     0.04   0.05  -0.00
  16   6    -0.17   0.34  -0.26    -0.04   0.11  -0.03     0.03  -0.05   0.07
  17   6     0.21   0.26   0.09     0.12   0.07   0.06     0.01  -0.05   0.00
  18   6    -0.02   0.00  -0.02    -0.06  -0.05   0.08    -0.02   0.01   0.02
  19   6    -0.03   0.01  -0.03     0.09  -0.28   0.19     0.02  -0.05   0.05
  20   6    -0.04   0.02   0.04     0.40  -0.06  -0.13     0.07  -0.03  -0.03
  21   6    -0.01  -0.04  -0.02     0.08   0.06  -0.11     0.03   0.02  -0.00
  22   6     0.03  -0.01   0.04    -0.07   0.33  -0.25    -0.02   0.06  -0.07
  23   6     0.03  -0.03  -0.03    -0.34   0.08   0.09    -0.06   0.04   0.02
[...]
   2   6    -0.03   0.01   0.04     0.00  -0.00  -0.00     0.02  -0.01  -0.03
   3   6     0.05   0.08   0.13    -0.00  -0.00  -0.01    -0.03  -0.05  -0.08
   4   6     0.00   0.00  -0.00    -0.00  -0.00  -0.00    -0.00  -0.00  -0.00
   5   6    -0.00  -0.00   0.00     0.00   0.00  -0.00     0.00   0.00  -0.00
   6   6    -0.00  -0.02  -0.00     0.00   0.00   0.00     0.00   0.02   0.00
   7   6     0.00  -0.00  -0.00    -0.00   0.00   0.00    -0.00   0.00   0.00
   8   7    -0.00   0.00  -0.00     0.00  -0.00  -0.00     0.00  -0.00  -0.00
   9   6    -0.00   0.00   0.00     0.00  -0.00  -0.00    -0.00   0.00   0.00
  10   6     0.00   0.00   0.00    -0.00  -0.00  -0.00     0.00   0.00   0.00
  11   7    -0.00  -0.00  -0.00     0.00  -0.00   0.00    -0.00  -0.00  -0.00
  12   6     0.00   0.00   0.00     0.00   0.01   0.00    -0.00  -0.00  -0.00
  13   6    -0.00   0.00  -0.00    -0.08   0.09  -0.12     0.01  -0.01   0.01
  14   6    -0.00  -0.00  -0.00    -0.08  -0.04  -0.07     0.00   0.00   0.00
  15   6     0.00   0.00  -0.00     0.02   0.09  -0.01    -0.00  -0.01   0.00
  16   6    -0.00   0.00  -0.00    -0.05   0.06  -0.07     0.00  -0.00   0.01
  17   6     0.00  -0.00   0.00     0.02   0.01   0.02    -0.00  -0.00  -0.00
  18   6     0.00  -0.00   0.00    -0.00   0.00  -0.00     0.00  -0.00   0.00
  19   6    -0.00  -0.00   0.00     0.01   0.05  -0.04    -0.00  -0.00   0.00
  20   6     0.00   0.00  -0.00     0.01   0.00  -0.01    -0.00  -0.00   0.00
  21   6     0.00  -0.00   0.00    -0.05   0.04  -0.01     0.00  -0.00   0.00
  22   6     0.00   0.00  -0.00    -0.01  -0.03   0.03     0.00   0.00  -0.00
  23   6     0.00   0.00  -0.00    -0.05  -0.01   0.03     0.00   0.00  -0.00
  24   7    -0.00  -0.00  -0.00     0.00  -0.00  -0.00     0.00   0.00  -0.00
  25   6    -0.00   0.00   0.00    -0.00  -0.00  -0.00    -0.00  -0.00  -0.00
  26   6    -0.00  -0.00  -0.00    -0.00  -0.00  -0.00    -0.00  -0.02  -0.00
  27   6     0.00   0.00   0.00     0.00  -0.00  -0.00     0.00  -0.00  -0.00
  28   6    -0.00   0.00  -0.00    -0.00   0.00   0.00    -0.00   0.00   0.00
  29   6     0.03  -0.01   0.03     0.00  -0.00   0.00     0.06  -0.01   0.05
  30   6     0.00   0.04   0.06     0.00   0.00   0.01     0.00   0.07   0.10
  31   6    -0.05   0.04   0.01    -0.00   0.00   0.00    -0.07   0.06   0.01
  32   6     0.02  -0.00   0.02     0.00  -0.00   0.00     0.04  -0.01   0.03
  33   6     0.00   0.05   0.07     0.00   0.01   0.01     0.00   0.09   0.13
  34   6    -0.05   0.01   0.05     0.00  -0.00  -0.00     0.03  -0.01  -0.03
  35   6     0.04   0.06   0.10    -0.00  -0.00  -0.00    -0.02  -0.03  -0.05
  36   1    -0.32  -0.11  -0.01     0.01   0.00   0.00     0.15   0.05   0.00
  37   1     0.12  -0.03  -0.15    -0.01   0.00   0.01    -0.07   0.02   0.09
  38   1    -0.18  -0.27  -0.44     0.01   0.01   0.02     0.11   0.17   0.28
  39   1     0.01   0.05   0.01    -0.00  -0.00  -0.00    -0.01  -0.06  -0.01
  40   1     0.00  -0.00  -0.00    -0.00   0.00   0.00     0.00  -0.00  -0.00
  41   1     0.01  -0.01   0.01     0.27  -0.33   0.40    -0.02   0.02  -0.03
  42   1     0.01   0.00   0.00     0.27   0.15   0.23    -0.02  -0.01  -0.01
  43   1    -0.00  -0.01   0.00    -0.07  -0.30   0.03     0.01   0.03  -0.00
  44   1     0.00  -0.00   0.00     0.17  -0.20   0.24    -0.01   0.02  -0.02
  45   1    -0.00  -0.00  -0.00    -0.09  -0.05  -0.08     0.01   0.01   0.01
  46   1     0.00   0.00  -0.00    -0.03  -0.16   0.15     0.00   0.00  -0.00
  47   1    -0.00  -0.00   0.00    -0.05  -0.00   0.03     0.00   0.00  -0.00
  48   1    -0.00   0.00  -0.00     0.19  -0.16   0.05    -0.00   0.00  -0.00
  49   1    -0.00  -0.01   0.01     0.02   0.11  -0.11    -0.00  -0.00   0.00
  50   1    -0.00  -0.00   0.00     0.18   0.02  -0.11    -0.00  -0.00   0.00
  51   1     0.00   0.02   0.00     0.00   0.01   0.00     0.02   0.07   0.02
  52   1    -0.10   0.01  -0.09    -0.01   0.00  -0.01    -0.19   0.03  -0.17
  53   1    -0.01  -0.14  -0.21    -0.00  -0.01  -0.02    -0.01  -0.23  -0.34
  54   1     0.16  -0.15  -0.04     0.01  -0.01  -0.00     0.23  -0.21  -0.05
  55   1    -0.07   0.01  -0.07    -0.01   0.00  -0.01    -0.13   0.02  -0.12
  56   1    -0.01  -0.17  -0.25    -0.00  -0.02  -0.03    -0.01  -0.32  -0.46
  57   1     0.15  -0.04  -0.18    -0.01   0.00   0.01    -0.09   0.02   0.11
  58   1    -0.14  -0.22  -0.33     0.01   0.01   0.01     0.07   0.12   0.18
                    160                    161                    162
                        a                      a                      a 
 Frequencies --  3087.7682              3092.2150              3093.0420
 Red. masses --     1.8378                 1.8753                 1.9149
 Frc consts  --     0.0000                 0.0000                 0.0000
 IR Inten    --    25.6904                62.0672                96.9045
 Raman Activ --     0.0000                 0.0000                 0.0000
 Depolar     --     0.0000                 0.0000                 0.0000
 Atom AN      X      Y      Z        X      Y      Z        X      Y      Z
   1   6     0.00   0.00   0.00     0.00   0.00  -0.00    -0.15  -0.05  -0.00
   2   6    -0.00   0.00   0.00    -0.00   0.00   0.00    -0.09   0.03   0.11
   3   6     0.00   0.00   0.00     0.00   0.00   0.00     0.04   0.06   0.09
   4   6     0.00   0.00   0.00    -0.00   0.00   0.00     0.01   0.00   0.00
   5   6     0.00   0.00   0.00     0.00   0.00   0.00    -0.00  -0.00   0.00
   6   6     0.00   0.00   0.00     0.00   0.01   0.00    -0.01  -0.06  -0.01
   7   6    -0.00   0.00   0.00    -0.00   0.00   0.00     0.00  -0.00  -0.00
   8   7     0.00  -0.00  -0.00     0.00   0.00  -0.00     0.00   0.00   0.00
   9   6     0.00  -0.00  -0.00     0.00  -0.00  -0.00     0.00  -0.00  -0.00
  10   6     0.00   0.00   0.00    -0.00  -0.00   0.00     0.00   0.00   0.00
  11   7     0.00  -0.00   0.00    -0.00  -0.00  -0.00    -0.00  -0.00  -0.00
  12   6    -0.00  -0.00   0.00     0.00   0.00   0.00     0.00   0.00   0.00
  13   6     0.04  -0.05   0.06    -0.01   0.01  -0.01    -0.00   0.00  -0.00
  14   6     0.03   0.02   0.03    -0.00  -0.00  -0.00    -0.01  -0.00  -0.01
  15   6    -0.01  -0.04   0.00     0.00   0.01  -0.00    -0.00  -0.01   0.00
  16   6     0.02  -0.03   0.03    -0.00   0.01  -0.01     0.00  -0.00   0.00
  17   6    -0.01  -0.01  -0.01     0.01   0.00   0.00    -0.00  -0.00  -0.00
  18   6    -0.01   0.01  -0.00     0.00  -0.00   0.00     0.00  -0.00   0.00
  19   6     0.01   0.08  -0.08    -0.02  -0.13   0.12    -0.00  -0.00   0.00
  20   6    -0.02  -0.00   0.01    -0.12  -0.01   0.07    -0.00  -0.00   0.00
  21   6    -0.09   0.08  -0.02     0.04  -0.03   0.01    -0.00   0.00  -0.00
  22   6    -0.01  -0.08   0.08    -0.01  -0.10   0.09     0.00   0.00  -0.00
  23   6    -0.12  -0.01   0.07    -0.07  -0.00   0.04     0.00   0.00  -0.00
  24   7     0.00  -0.00   0.00     0.00  -0.00  -0.00    -0.00  -0.00  -0.00
  25   6    -0.00  -0.00  -0.00     0.00   0.00  -0.00    -0.00   0.00   0.00
  26   6    -0.00  -0.00  -0.00     0.00   0.01   0.00    -0.01  -0.02  -0.00
  27   6    -0.00  -0.00  -0.00    -0.00   0.00   0.00     0.00  -0.00  -0.00
  28   6     0.00  -0.00  -0.00     0.00  -0.00  -0.00     0.00  -0.00  -0.00
  29   6    -0.00   0.00  -0.00     0.00  -0.00   0.00     0.01  -0.00   0.01
  30   6    -0.00  -0.00  -0.00     0.00   0.00   0.00     0.00   0.02   0.03
  31   6     0.00  -0.00  -0.00    -0.00   0.00   0.00    -0.04   0.04   0.01
  32   6    -0.00   0.00  -0.00    -0.00   0.00  -0.00    -0.04   0.00  -0.03
  33   6    -0.00  -0.00  -0.00    -0.00  -0.00  -0.00    -0.00  -0.02  -0.03
  34   6    -0.00   0.00   0.00    -0.00   0.00   0.00     0.03  -0.01  -0.04
  35   6     0.00   0.00   0.00     0.00   0.00   0.00    -0.03  -0.05  -0.08
  36   1    -0.01  -0.00  -0.00    -0.00  -0.00   0.00     0.49   0.17   0.01
  37   1     0.00  -0.00  -0.00     0.00  -0.00  -0.00     0.29  -0.08  -0.36
  38   1    -0.01  -0.01  -0.01    -0.00  -0.00  -0.00    -0.13  -0.20  -0.32
  39   1    -0.00  -0.01  -0.00    -0.00  -0.02  -0.00     0.04   0.21   0.05
  40   1    -0.01   0.01   0.00    -0.00   0.00   0.00    -0.00   0.00   0.00
  41   1    -0.14   0.17  -0.21     0.03  -0.04   0.05     0.01  -0.01   0.01
  42   1    -0.11  -0.06  -0.10     0.00   0.00   0.00     0.02   0.01   0.02
  43   1     0.04   0.15  -0.01    -0.01  -0.05   0.00     0.01   0.04  -0.00
  44   1    -0.08   0.10  -0.11     0.02  -0.02   0.02    -0.01   0.01  -0.01
  45   1     0.05   0.03   0.04    -0.02  -0.01  -0.02     0.01   0.01   0.01
  46   1    -0.05  -0.28   0.27     0.07   0.45  -0.43     0.00   0.00  -0.00
  47   1     0.07   0.01  -0.04     0.39   0.04  -0.23     0.01   0.00  -0.00
  48   1     0.33  -0.28   0.09    -0.12   0.10  -0.03     0.01  -0.01   0.00
  49   1     0.05   0.29  -0.29     0.05   0.33  -0.32    -0.00  -0.00   0.00
  50   1     0.40   0.04  -0.24     0.23   0.02  -0.13    -0.00  -0.00   0.00
  51   1     0.00   0.01   0.00    -0.00  -0.02  -0.00     0.02   0.07   0.02
  52   1     0.00  -0.00   0.00    -0.00   0.00  -0.00    -0.03   0.00  -0.02
  53   1     0.00   0.00   0.00    -0.00  -0.00  -0.00    -0.00  -0.06  -0.09
  54   1    -0.00   0.00   0.00     0.01  -0.01  -0.00     0.14  -0.13  -0.03
  55   1     0.00  -0.00   0.00     0.01  -0.00   0.00     0.12  -0.02   0.11
  56   1     0.00   0.01   0.01     0.00   0.00   0.00     0.00   0.06   0.09
  57   1     0.00  -0.00  -0.01     0.00  -0.00  -0.00    -0.10   0.03   0.13
  58   1    -0.00  -0.01  -0.01    -0.00  -0.00  -0.00     0.10   0.16   0.24
                    163                    164                    165
                        a                      a                      a 
 Frequencies --  3093.2350              3093.4718              3094.2456
 Red. masses --     1.8498                 1.8988                 1.8272
 Frc consts  --     0.0000                 0.0000                 0.0000
 IR Inten    --    36.1179                18.0915                11.1238
 Raman Activ --     0.0000                 0.0000                 0.0000
 Depolar     --     0.0000                 0.0000                 0.0000
 Atom AN      X      Y      Z        X      Y      Z        X      Y      Z
   1   6    -0.01  -0.00  -0.00    -0.05  -0.02  -0.00     0.01   0.01   0.00
   2   6    -0.01   0.00   0.01    -0.04   0.01   0.05     0.01  -0.00  -0.01
   3   6     0.00   0.01   0.01     0.02   0.03   0.05    -0.00  -0.00  -0.00
   4   6    -0.00  -0.00   0.00     0.00   0.00   0.00    -0.00  -0.00  -0.00
   5   6     0.01   0.00   0.00     0.00   0.00   0.00     0.00   0.00   0.00
   6   6     0.04   0.22   0.05     0.02   0.12   0.03     0.01   0.03   0.01
   7   6    -0.00   0.01   0.00    -0.00   0.00   0.00     0.00   0.00   0.00
   8   7    -0.00  -0.00  -0.00    -0.00  -0.00  -0.00    -0.00  -0.00  -0.00
   9   6     0.00   0.00   0.00     0.00   0.00   0.00    -0.00   0.00   0.00
  10   6    -0.00  -0.00  -0.00    -0.00  -0.00  -0.00     0.00  -0.00  -0.00
  11   7     0.00  -0.00   0.00     0.00   0.00   0.00     0.00   0.00   0.00
  12   6     0.00   0.00  -0.00    -0.00  -0.00  -0.00    -0.00  -0.00  -0.00
  13   6    -0.00   0.00  -0.00     0.00  -0.00   0.00    -0.00   0.00  -0.00
  14   6    -0.00  -0.00  -0.00     0.00   0.00   0.00    -0.01  -0.00  -0.01
  15   6     0.00   0.00  -0.00     0.00   0.01  -0.00    -0.00  -0.01   0.00
  16   6    -0.00   0.00  -0.00    -0.00   0.00  -0.00     0.00  -0.00   0.00
  17   6     0.00   0.00   0.00     0.00   0.00   0.00    -0.01  -0.00  -0.01
  18   6    -0.00   0.00   0.00    -0.00   0.00   0.00     0.00  -0.00   0.00
  19   6     0.00   0.00  -0.00     0.00   0.00  -0.00    -0.00  -0.00   0.00
  20   6     0.00   0.00  -0.00     0.00   0.00  -0.00    -0.00  -0.00   0.00
  21   6    -0.00   0.00   0.00     0.00  -0.00   0.00     0.00  -0.00   0.00
  22   6     0.00   0.00  -0.00    -0.00  -0.00   0.00    -0.00  -0.00   0.00
  23   6     0.00   0.00  -0.00    -0.00  -0.00   0.00    -0.00   0.00   0.00
  24   7     0.00   0.00   0.00     0.00   0.00   0.00     0.00   0.00   0.00
  25   6     0.00  -0.00  -0.00    -0.00  -0.00  -0.00    -0.01  -0.01  -0.00
  26   6     0.01   0.04   0.01    -0.00  -0.01  -0.00    -0.06  -0.25  -0.06
  27   6    -0.00  -0.00  -0.00    -0.00  -0.00  -0.00     0.01  -0.01  -0.00
  28   6     0.00  -0.00  -0.00    -0.00   0.00   0.00    -0.00   0.00  -0.00
  29   6     0.02  -0.00   0.02    -0.03   0.00  -0.03    -0.02   0.00  -0.01
  30   6     0.00   0.03   0.04    -0.00  -0.04  -0.06    -0.00  -0.00  -0.00
  31   6    -0.06   0.05   0.01     0.09  -0.09  -0.02    -0.01   0.01   0.00
  32   6    -0.06   0.01  -0.05     0.09  -0.01   0.08    -0.01   0.00  -0.01
  33   6    -0.00  -0.04  -0.06     0.00   0.06   0.09    -0.00  -0.01  -0.02
  34   6    -0.01   0.00   0.02     0.01  -0.00  -0.01    -0.00   0.00   0.01
  35   6     0.00   0.00   0.00    -0.01  -0.02  -0.02     0.00   0.01   0.01
  36   1     0.03   0.01   0.00     0.18   0.06   0.01    -0.05  -0.02  -0.00
  37   1     0.03  -0.01  -0.03     0.12  -0.04  -0.16    -0.02   0.01   0.03
  38   1    -0.01  -0.02  -0.03    -0.07  -0.11  -0.18     0.00   0.01   0.01
  39   1    -0.16  -0.77  -0.17    -0.09  -0.42  -0.10    -0.02  -0.11  -0.03
  40   1     0.00  -0.00  -0.00     0.00  -0.00  -0.00     0.00  -0.00  -0.00
  41   1     0.00  -0.00   0.00    -0.00   0.01  -0.01     0.01  -0.01   0.01
  42   1     0.00   0.00   0.00    -0.01  -0.01  -0.01     0.02   0.01   0.02
  43   1    -0.00  -0.00   0.00    -0.01  -0.02   0.00     0.01   0.03  -0.00
  44   1     0.00  -0.00   0.00     0.00  -0.00   0.01    -0.00   0.01  -0.01
  45   1    -0.00  -0.00  -0.00    -0.01  -0.00  -0.01     0.02   0.01   0.02
  46   1    -0.00  -0.01   0.01    -0.00  -0.00   0.00     0.00   0.01  -0.01
  47   1    -0.01  -0.00   0.01    -0.00  -0.00   0.00     0.00   0.00  -0.00
  48   1     0.00  -0.00   0.00    -0.01   0.00  -0.00    -0.01   0.01  -0.00
  49   1    -0.00  -0.01   0.01     0.00   0.00  -0.00     0.00   0.01  -0.01
  50   1    -0.01  -0.00   0.01     0.00   0.00  -0.00     0.00   0.00  -0.00
  51   1    -0.03  -0.13  -0.03     0.01   0.03   0.01     0.21   0.89   0.20
  52   1    -0.07   0.01  -0.06     0.10  -0.01   0.09     0.05  -0.01   0.05
  53   1    -0.00  -0.09  -0.13     0.01   0.14   0.21     0.00   0.01   0.01
  54   1     0.20  -0.18  -0.04    -0.31   0.28   0.07     0.02  -0.02  -0.00
  55   1     0.20  -0.03   0.18    -0.31   0.04  -0.28     0.04  -0.01   0.03
  56   1     0.00   0.14   0.21    -0.01  -0.21  -0.31     0.00   0.04   0.07
  57   1     0.04  -0.01  -0.06    -0.02   0.00   0.02     0.02  -0.00  -0.02
  58   1    -0.00  -0.00  -0.00     0.03   0.05   0.08    -0.01  -0.02  -0.03
                    166                    167                    168
                        a                      a                      a 
 Frequencies --  3095.4098              3100.3213              3104.1920
 Red. masses --     1.8973                 1.9219                 1.8747
 Frc consts  --     0.0000                 0.0000                 0.0000
 IR Inten    --    71.3965                59.2948                18.8681
 Raman Activ --     0.0000                 0.0000                 0.0000
 Depolar     --     0.0000                 0.0000                 0.0000
 Atom AN      X      Y      Z        X      Y      Z        X      Y      Z
   1   6    -0.01  -0.00  -0.00     0.00   0.00   0.00     0.00   0.00   0.00
   2   6    -0.00   0.00   0.00     0.00  -0.00  -0.00     0.00  -0.00  -0.00
   3   6     0.00   0.00   0.00    -0.00  -0.00  -0.00     0.00   0.00   0.00
   4   6     0.00   0.00  -0.00    -0.00  -0.00   0.00     0.00   0.00   0.00
   5   6    -0.00   0.00   0.00     0.00   0.00   0.00    -0.00   0.00   0.00
   6   6    -0.00  -0.01  -0.00     0.00   0.00   0.00     0.00   0.00  -0.00
   7   6     0.00  -0.00   0.00    -0.00   0.00   0.00    -0.00   0.00   0.00
   8   7    -0.00   0.00  -0.00     0.00  -0.00  -0.00     0.00   0.00  -0.00
   9   6     0.00  -0.00  -0.00    -0.00  -0.00   0.00    -0.00  -0.00   0.00
  10   6    -0.00  -0.00   0.00     0.00   0.00   0.00     0.00  -0.00   0.00
  11   7     0.00   0.00  -0.00    -0.00   0.00  -0.00    -0.00  -0.00  -0.00
  12   6    -0.00  -0.00   0.00    -0.00  -0.00   0.00     0.00   0.01  -0.00
  13   6     0.04  -0.05   0.05    -0.00   0.00  -0.00    -0.01   0.01  -0.01
  14   6     0.10   0.06   0.09    -0.00  -0.00  -0.00    -0.02  -0.01  -0.01
  15   6     0.05   0.19  -0.02    -0.00  -0.00   0.00    -0.02  -0.06   0.00
  16   6    -0.04   0.04  -0.05     0.00  -0.00   0.00     0.05  -0.06   0.07
  17   6     0.06   0.03   0.05    -0.01  -0.00  -0.00     0.18   0.10   0.15
  18   6     0.00  -0.00   0.00     0.00  -0.00   0.00     0.00  -0.00   0.00
  19   6     0.00   0.00  -0.00    -0.01  -0.05   0.05    -0.00   0.00  -0.00
  20   6     0.00  -0.00  -0.00    -0.11  -0.01   0.07    -0.00  -0.00   0.00
  21   6    -0.01   0.01  -0.00    -0.15   0.13  -0.04    -0.00   0.00  -0.00
  22   6     0.00   0.01  -0.01     0.02   0.09  -0.09     0.00   0.00  -0.00
  23   6     0.00   0.00  -0.00     0.04   0.00  -0.03     0.00   0.00  -0.00
  24   7     0.00   0.00  -0.00    -0.00   0.00   0.00    -0.00   0.00  -0.00
  25   6    -0.00  -0.00  -0.00     0.00  -0.00  -0.00    -0.00  -0.00  -0.00
  26   6    -0.00  -0.02  -0.00    -0.00  -0.00  -0.00    -0.00  -0.00  -0.00
  27   6     0.00  -0.00  -0.00     0.00  -0.00  -0.00     0.00  -0.00  -0.00
  28   6     0.00  -0.00  -0.00    -0.00   0.00   0.00     0.00  -0.00   0.00
  29   6     0.00  -0.00   0.00    -0.00   0.00  -0.00    -0.00   0.00  -0.00
  30   6     0.00   0.00   0.00    -0.00  -0.00  -0.00    -0.00  -0.00  -0.00
  31   6    -0.01   0.01   0.00     0.00  -0.00  -0.00     0.00  -0.00  -0.00
  32   6    -0.01   0.00  -0.01     0.00  -0.00   0.00     0.00  -0.00   0.00
  33   6    -0.00  -0.00  -0.00     0.00   0.00   0.00    -0.00   0.00   0.00
  34   6     0.00  -0.00  -0.00    -0.00   0.00   0.00    -0.00   0.00   0.00
  35   6    -0.00  -0.00  -0.00     0.00   0.00   0.00     0.00   0.00   0.00
  36   1     0.02   0.01   0.00    -0.01  -0.00  -0.00    -0.00  -0.00  -0.00
  37   1     0.01  -0.00  -0.01    -0.00   0.00   0.00    -0.00   0.00   0.00
  38   1    -0.00  -0.01  -0.01     0.00   0.00   0.00    -0.00  -0.00  -0.00
  39   1     0.00   0.02   0.00    -0.00  -0.01  -0.00     0.00   0.00   0.00
  40   1    -0.00   0.00   0.00     0.00  -0.00  -0.00    -0.00   0.00   0.00
  41   1    -0.12   0.15  -0.18     0.00  -0.00   0.00     0.02  -0.03   0.03
  42   1    -0.34  -0.19  -0.29     0.01   0.01   0.01     0.05   0.03   0.05
  43   1    -0.16  -0.65   0.06     0.00   0.01  -0.00     0.04   0.18  -0.01
  44   1     0.12  -0.14   0.17    -0.00   0.00  -0.00    -0.15   0.18  -0.22
  45   1    -0.20  -0.12  -0.17     0.02   0.01   0.02    -0.62  -0.35  -0.52
  46   1    -0.00  -0.01   0.01     0.03   0.17  -0.17     0.00  -0.00   0.00
  47   1    -0.00  -0.00   0.00     0.37   0.04  -0.22     0.01   0.00  -0.00
  48   1     0.02  -0.02   0.01     0.52  -0.44   0.13     0.01  -0.01   0.00
  49   1    -0.00  -0.02   0.02    -0.05  -0.29   0.28    -0.00  -0.01   0.01
  50   1    -0.01  -0.00   0.01    -0.14  -0.01   0.08    -0.01  -0.00   0.00
  51   1     0.01   0.06   0.01     0.00   0.00   0.00     0.00   0.01   0.00
  52   1    -0.00   0.00  -0.00     0.00  -0.00   0.00     0.00  -0.00   0.00
  53   1    -0.00  -0.01  -0.02     0.00   0.00   0.00     0.00   0.00   0.00
  54   1     0.02  -0.02  -0.00    -0.00   0.00   0.00    -0.00   0.00   0.00
  55   1     0.02  -0.00   0.02    -0.00   0.00  -0.00    -0.00   0.00  -0.00
  56   1     0.00   0.01   0.01    -0.00  -0.00  -0.00    -0.00  -0.00  -0.00
  57   1    -0.00   0.00   0.01     0.00  -0.00  -0.00     0.00  -0.00  -0.00
  58   1     0.00   0.01   0.01    -0.00  -0.00  -0.00    -0.00  -0.00  -0.00
