$hessian                                                                        
        0.4570380463  -0.0251582028   0.0202132195  -0.1544235610  -0.0450481009
        0.0252971831  -0.0039278387  -0.0040382211   0.0044432156  -0.0128991887
       -0.0095016371  -0.0007477536  -0.0297927534   0.0015192778   0.0047230992
       -0.0006778458  -0.0009803689  -0.0000939791   0.0003008319   0.0001397934
       -0.0006361839   0.0000209359  -0.0003193269  -0.0003745705  -0.0002824862
        0.0000235492   0.0001026756   0.0000403054  -0.0000479807   0.0000005763
       -0.0000263371  -0.0000119000   0.0000004708   0.0000504368  -0.0000447065
       -0.0000433250  -0.0000351962   0.0000027860   0.0000378505   0.0000434426
       -0.0000085023  -0.0000053717  -0.0001208615   0.0000089771  -0.0000035876
       -0.0000116935  -0.0000282518  -0.0000022922   0.0000311048  -0.0000214090
        0.0000014502   0.0000453700   0.0000423547   0.0000056055   0.0000758541
       -0.0001456479   0.0000056881   0.0000769773   0.0001445861   0.0000021446
        0.0001384829   0.0000921344   0.0000560087  -0.0001972192   0.0000742222
       -0.0000683746  -0.0000146999  -0.0000924586   0.0000026393  -0.0000140794
        0.0000043064  -0.0000082631   0.0000334001   0.0000350214   0.0000144296
       -0.0000835168   0.0000033031   0.0000025043   0.0000277141   0.0000649625
       -0.0000020422   0.0000755979   0.0000275647   0.0000458627  -0.0000414424
       -0.0000410219  -0.0000011124   0.0000306508   0.0000306500   0.0000050380
       -0.0000102512   0.0000006263   0.0000011614   0.0000107074   0.0000045566
       -0.0000006607  -0.0000055119   0.0000002128  -0.0000001145   0.0000054977
        0.0000001771   0.0000007631  -0.0000014726  -0.0000028521   0.0000012641
        0.0000018859  -0.0000000058   0.0000003262  -0.0000004212   0.0000007630
        0.0000004670   0.0000029048  -0.0000030639   0.0000003330  -0.0000004805
       -0.0000022464   0.0000004223  -0.0000014984  -0.0000004689   0.0000001986
        0.0000009694  -0.0000000567  -0.0000004758  -0.0000003309   0.0000009258
        0.0000003073   0.0000015799  -0.0000008050  -0.0000002774  -0.0000036795
       -0.0000034391   0.0000027862   0.0000080061  -0.0000061261  -0.0000057378
       -0.0000322022  -0.0000105758  -0.0000108579   0.0000052826  -0.0000101442
       -0.0000003417   0.0000002335  -0.0000010190  -0.0000017865  -0.0000013317
        0.0000023685  -0.0000007282  -0.0000026877   0.0000020527  -0.0000008478
        0.0000020771  -0.0000038725   0.0000003623   0.0000020311  -0.0000001461
       -0.0000001193   0.0000002647  -0.0000011751  -0.0000014108  -0.0000008070
       -0.0000015295   0.0000007123   0.0000010129  -0.0000016222  -0.0000000842
        0.0000010687   0.0000024859   0.0000015185  -0.0002170239   0.0012726441
       -0.0010202756  -0.0004125758   0.0010062257   0.0016975531  -0.1537677387
        0.1191496470   0.0006882310  -0.0432335162   0.0053485178  -0.0104844559
       -0.0590430676  -0.0439258217  -0.0429529663   0.0006655101   0.0004561381
       -0.0006850239   0.0004846081  -0.0000885198   0.0002236278   0.0003924646
        0.0003473473  -0.0006981113   0.0007037305   0.0010269379   0.0005961828
       -0.0004832904  -0.0015463913  -0.0012926007   0.0002409748   0.0004445645
        0.0006148153  -0.0005727064  -0.0001777938   0.0000800355  -0.0000284406
       -0.0000352931   0.0000200598  -0.0000054088   0.0000077084   0.0000227315
       -0.0000062300   0.0000051800  -0.0000174271   0.0000013488  -0.0000113243
        0.0000017771   0.0000105091  -0.0000105712  -0.0000008728  -0.0000015658
       -0.0000079864   0.0000013424   0.0000035058   0.0000009951   0.0000058959
        0.0000052102  -0.0000046959  -0.0000044700  -0.0000027164   0.0000026082
       -0.0000010533   0.0000177436   0.0000128980   0.0000030476   0.0000063055
       -0.0000016623   0.0000017154   0.0000004779  -0.0000018047   0.0000010478
        0.0000028017  -0.0000017070   0.0000009909   0.0000008366  -0.0000017697
        0.0000008294  -0.0000007128  -0.0000012117   0.0000004736  -0.0000012751
       -0.0000003633   0.0000004657   0.0000000396   0.0000013475   0.0000022825
        0.0000026979  -0.0000023529   0.0000009249  -0.0000010508   0.0000011744
        0.0000008394   0.0000011093  -0.0000008856   0.0000003342   0.0000006249
       -0.0000007782  -0.0000003001   0.0000001315  -0.0000000205  -0.0000005758
        0.0000001567  -0.0000007210  -0.0000010117   0.0000004271  -0.0000010140
       -0.0000002661   0.0000029361  -0.0000008743  -0.0000007381   0.0000028052
       -0.0000012198  -0.0000006894   0.0000004809  -0.0000003249  -0.0000010041
        0.0000007190  -0.0000012855   0.0000000813  -0.0000013036   0.0000002594
       -0.0000013506   0.0000011662  -0.0000037891  -0.0000003861  -0.0000704842
        0.0001724414  -0.0000429439  -0.0001634928  -0.0001172262   0.0002812532
       -0.0251582028   0.5177502062   0.0107250969  -0.0374712430  -0.0792048248
        0.0083404582  -0.0126430558  -0.0065946707   0.0070348187  -0.0216493408
       -0.0135749018   0.0000800338   0.0168276838   0.0061111272  -0.0032228231
        0.0011594018  -0.0009993625  -0.0005899886  -0.0005176991   0.0002872162
        0.0003260668  -0.0000943306   0.0005548348   0.0003067191   0.0005156905
       -0.0003912588  -0.0000916798  -0.0000616126   0.0003568277   0.0000925672
        0.0000716239   0.0000184056  -0.0000014466  -0.0000180532   0.0000230441
        0.0000309764   0.0000253066   0.0000549085   0.0000065948   0.0000305978
       -0.0000088984  -0.0000094442  -0.0000118161  -0.0000098845  -0.0000021851
       -0.0000396326  -0.0000356754  -0.0000056873  -0.0000096213   0.0000306229
       -0.0000047693   0.0000312519   0.0000153715   0.0000046627  -0.0000329459
        0.0000465983   0.0000214319   0.0001674632   0.0001305844  -0.0000029327
       -0.0003605198  -0.0000704964   0.0000233711   0.0002368313   0.0000525321
       -0.0000711962  -0.0000237022  -0.0001058071   0.0000129941   0.0000429119
       -0.0000157033  -0.0000105264  -0.0000339250  -0.0000111951   0.0000085618
        0.0002604148  -0.0000458776  -0.0000203488  -0.0001456131  -0.0001820455
        0.0000002921  -0.0003417782  -0.0000159219  -0.0000968663   0.0000473109
       -0.0000160116   0.0000031524   0.0000357227   0.0000752957   0.0000320290
       -0.0000780917  -0.0000280739  -0.0000019755   0.0000272078   0.0000170616
        0.0000001636  -0.0000258713   0.0000005201  -0.0000020326   0.0000337697
        0.0000076499  -0.0000011360  -0.0000317950  -0.0000134605  -0.0000004949
        0.0000164313   0.0000115755   0.0000007127  -0.0000148951  -0.0000042630
        0.0000026200   0.0000057668  -0.0000071374  -0.0000006071  -0.0000021680
        0.0000043109   0.0000005486   0.0000208520   0.0000144416  -0.0000009625
       -0.0000136230  -0.0000156322   0.0000005282   0.0000009864   0.0000122321
        0.0000009219   0.0000038710  -0.0000119691  -0.0000024736  -0.0000146829
       -0.0000155509   0.0000012984   0.0000297255   0.0000007516  -0.0000024396
        0.0001241492  -0.0001222511  -0.0000158766  -0.0000567179   0.0000862951
        0.0000077873   0.0000046187  -0.0000210275  -0.0000044506   0.0000009459
        0.0000065735   0.0000052223  -0.0000045017   0.0000043075  -0.0000002626
       -0.0000020899   0.0000074874   0.0000018841  -0.0000004050  -0.0000052658
        0.0000007427   0.0000036640  -0.0000020183   0.0000013740   0.0000035545
       -0.0000036071  -0.0000026017  -0.0000033254   0.0000021796  -0.0000055904
        0.0000192418  -0.0000155095  -0.0000001095  -0.0001378259  -0.0008998342
        0.0008378700   0.0013039480  -0.0016124483  -0.0005350188   0.1197845684
       -0.1701828638  -0.0011022014   0.0052028275  -0.0868479540   0.0910658686
       -0.0438351817  -0.1612425145  -0.1124837987  -0.0007749609   0.0002406644
       -0.0001938694  -0.0006130265  -0.0011294234   0.0027075320   0.0002729756
        0.0005124648  -0.0008100482  -0.0012215283   0.0003676538   0.0004083416
       -0.0021743062  -0.0035684477  -0.0028547336   0.0000923107   0.0005464157
        0.0007640883   0.0009374168  -0.0002612520  -0.0005148178  -0.0000075228
        0.0000086386  -0.0000091021   0.0000062399  -0.0000132356  -0.0000404701
       -0.0000087104   0.0000089981  -0.0000022284   0.0000008546   0.0000080994
        0.0000002102   0.0000040219  -0.0000002348   0.0000007820   0.0000045977
        0.0000009778   0.0000015172  -0.0000056199  -0.0000039893  -0.0000021911
       -0.0000049394  -0.0000005509   0.0000036687   0.0000070807  -0.0000146449
       -0.0000113960  -0.0000140236  -0.0000015707  -0.0000036249  -0.0000042614
       -0.0000035348  -0.0000019400   0.0000060299   0.0000029714   0.0000041887
       -0.0000006899  -0.0000015001   0.0000010641   0.0000020502   0.0000026726
       -0.0000001092   0.0000014449   0.0000000087   0.0000001901   0.0000035132
        0.0000001210  -0.0000024574  -0.0000014945   0.0000001404   0.0000015289
       -0.0000012854   0.0000028427   0.0000056223  -0.0000006417  -0.0000028646
       -0.0000032104  -0.0000024209  -0.0000001482  -0.0000012313  -0.0000014210
        0.0000008077   0.0000008804   0.0000053198  -0.0000034094  -0.0000002239
        0.0000031180  -0.0000040722  -0.0000000359  -0.0000014238   0.0000011428
        0.0000008965  -0.0000009041   0.0000017556  -0.0000003863  -0.0000010260
        0.0000013484  -0.0000006310   0.0000032894  -0.0000044607   0.0000019195
       -0.0000014956   0.0000006696  -0.0000019950   0.0000045909  -0.0000017523
        0.0000031747  -0.0000005614   0.0000008265  -0.0000017017   0.0001136862
       -0.0001443832   0.0000503921   0.0001696503   0.0001012092  -0.0001850365
        0.0202132195   0.0107250969   0.5194199254   0.0235242199   0.0098319080
       -0.0673252622   0.0236269455   0.0136863089  -0.0122338123  -0.0161060735
       -0.0096616824   0.0014178017   0.0017147424  -0.0002568802   0.0009148737
       -0.0001750744  -0.0005165261   0.0000140950   0.0000282537   0.0001589650
        0.0000410965   0.0001218817  -0.0000293364   0.0000882450  -0.0000035386
        0.0000102576  -0.0000041250  -0.0000409962   0.0000535551   0.0000018352
        0.0000303446   0.0000069298   0.0000009223   0.0000288031   0.0000321499
        0.0000239496  -0.0000006007   0.0000308137   0.0000124548  -0.0000113023
       -0.0000111544  -0.0000136418   0.0000279836  -0.0000016081  -0.0000118378
       -0.0000094570  -0.0000040938  -0.0000054888  -0.0000136841   0.0000204339
       -0.0000069755  -0.0000089118  -0.0000092247  -0.0000014297  -0.0000240115
        0.0001005808   0.0000558709   0.0000597780   0.0000361546  -0.0000369792
       -0.0003132839  -0.0000930396   0.0000383861   0.0002304616   0.0000429437
       -0.0001942543   0.0000135862  -0.0000591906   0.0000416235   0.0000263761
       -0.0000267024  -0.0000232899  -0.0000079636  -0.0000170001  -0.0000131181
        0.0000307018  -0.0000213689  -0.0000118497  -0.0000210720  -0.0000078928
        0.0000033868  -0.0000438432   0.0000193403   0.0000112683  -0.0000128155
       -0.0000143330  -0.0000038914  -0.0000072832   0.0000314756   0.0000034548
        0.0000049736   0.0000025348   0.0000017054  -0.0000024868   0.0000000758
       -0.0000013854  -0.0000053043   0.0000009007   0.0000022232   0.0000003333
        0.0000012446   0.0000000553   0.0000035169   0.0000003711  -0.0000010283
       -0.0000017670   0.0000009428  -0.0000001158  -0.0000007951   0.0000012248
       -0.0000001554   0.0000005069   0.0000009944  -0.0000002461  -0.0000015158
        0.0000010859   0.0000000942   0.0000004858  -0.0000010058  -0.0000002713
       -0.0000029098   0.0000003416   0.0000006973   0.0000028616  -0.0000010828
       -0.0000005117  -0.0000001420  -0.0000006172   0.0000000293   0.0000033114
       -0.0000009070  -0.0000027238  -0.0000031158  -0.0000011958   0.0000000796
        0.0000126934  -0.0000264277  -0.0000056825   0.0000062623  -0.0000060194
        0.0000036204  -0.0000008150   0.0000004218  -0.0000010345   0.0000019645
       -0.0000013565   0.0000007601   0.0000006982  -0.0000012263   0.0000000080
       -0.0000006495   0.0000004633   0.0000012185  -0.0000001967   0.0000006183
        0.0000010441   0.0000000030   0.0000000302   0.0000007093  -0.0000002219
        0.0000013653  -0.0000000603   0.0000008419   0.0000010872   0.0000004112
        0.0000018383   0.0000018374   0.0000011337   0.0000203665  -0.0000678089
       -0.0001012769  -0.0000984246   0.0004286773  -0.0003831938   0.0004360823
       -0.0010333655  -0.0442868884  -0.0099040284   0.0912264635  -0.2402588618
       -0.0431924711  -0.1131525668  -0.1521527643   0.0006123200  -0.0005368261
        0.0006306398   0.0010781743   0.0031370414  -0.0052796110   0.0009052914
        0.0003332780   0.0009316547  -0.0005904174   0.0002218846   0.0003122837
       -0.0019219801  -0.0034985963  -0.0021445015  -0.0008558429  -0.0006863050
        0.0007262687   0.0006644177  -0.0002898900  -0.0002906225  -0.0000079616
       -0.0000026216  -0.0000116760  -0.0000489624  -0.0000007752  -0.0000076100
        0.0000314011   0.0000252636   0.0000228625  -0.0000015471   0.0000117524
        0.0000049312  -0.0000007920   0.0000080469   0.0000030963   0.0000051236
        0.0000053592   0.0000077988  -0.0000043432  -0.0000055634  -0.0000007635
       -0.0000038913  -0.0000059728   0.0000004625   0.0000023897  -0.0000046171
        0.0000022018   0.0000011874  -0.0000020634  -0.0000009723   0.0000008046
       -0.0000018697  -0.0000013004   0.0000011268  -0.0000004742  -0.0000008333
       -0.0000002636   0.0000002392  -0.0000005880  -0.0000002880   0.0000000271
       -0.0000003058  -0.0000003199   0.0000002898  -0.0000000325   0.0000001571
        0.0000001091   0.0000003081   0.0000005138  -0.0000007693  -0.0000008224
       -0.0000010082   0.0000001455  -0.0000006871  -0.0000002378  -0.0000004513
       -0.0000000204  -0.0000003076  -0.0000004658  -0.0000003492   0.0000001152
        0.0000005052  -0.0000006002  -0.0000003673   0.0000002310   0.0000005016
       -0.0000005892   0.0000006810   0.0000004600   0.0000000139   0.0000002094
       -0.0000005178  -0.0000001122   0.0000000245   0.0000003707  -0.0000001068
        0.0000002613   0.0000002887  -0.0000000063   0.0000000383   0.0000001693
       -0.0000003439  -0.0000004283  -0.0000004076  -0.0000012246  -0.0000000860
       -0.0000003314  -0.0000011946  -0.0000012765  -0.0000009792  -0.0000487780
       -0.0000104322   0.0000134743   0.0000285672  -0.0001298847   0.0000649370
       -0.1544235610  -0.0374712430   0.0235242199   0.4615244352  -0.0044233009
        0.0025869427  -0.0597105087   0.0000955612  -0.0009811328  -0.0694686340
       -0.0191074717  -0.0185459540  -0.1135799507   0.0587208285  -0.0037010470
        0.0009296416   0.0053441964   0.0053639881   0.0033663089  -0.0005948607
       -0.0024953269  -0.0009103241   0.0005833189  -0.0008516829  -0.0002474625
       -0.0007652507   0.0005963271  -0.0000348755   0.0002076323   0.0001296577
        0.0001342047   0.0000414499   0.0000044665  -0.0000044374  -0.0000485007
       -0.0000118689   0.0000692695   0.0000507513  -0.0000095270  -0.0000661416
       -0.0000125761  -0.0000029676   0.0000703897   0.0000053914   0.0000090380
       -0.0000088326  -0.0000173860   0.0000014070   0.0000041268   0.0000066003
       -0.0000017366  -0.0000313816  -0.0000010013   0.0000016616  -0.0000286078
        0.0000348848   0.0000040557  -0.0000234932  -0.0000260590   0.0000013094
       -0.0001935514  -0.0000068911  -0.0000059627   0.0001737838   0.0000049804
        0.0000117661   0.0000306933   0.0000336488   0.0000118810   0.0000510777
       -0.0000402172  -0.0000192296  -0.0000152615  -0.0000060712   0.0000143009
        0.0001389415  -0.0000817747  -0.0000360726  -0.0001188728  -0.0000831741
       -0.0000253319  -0.0002181062   0.0001014731   0.0000074285  -0.0000110544
       -0.0000339845   0.0000141360  -0.0000003696   0.0000901004   0.0000171825
       -0.0000088907   0.0000009120   0.0000004571   0.0000122907   0.0000103784
        0.0000109696  -0.0000112614  -0.0000000900   0.0000036174   0.0000110646
        0.0000008690   0.0000003409  -0.0000061928  -0.0000053816   0.0000022641
        0.0000004752   0.0000048659   0.0000014670  -0.0000013815  -0.0000003334
        0.0000003399   0.0000074333  -0.0000045297   0.0000014428   0.0000000038
       -0.0000041133  -0.0000001401   0.0000121013   0.0000046685   0.0000009413
       -0.0000075376  -0.0000070041  -0.0000025767  -0.0000027769   0.0000016096
        0.0000024807   0.0000031704  -0.0000047925  -0.0000017902  -0.0000011846
       -0.0000040334   0.0000031256   0.0000102315  -0.0000129295  -0.0000066409
        0.0000672440  -0.0001099928  -0.0000174439  -0.0000186106   0.0000205766
        0.0000005370   0.0000036114  -0.0000166506  -0.0000040728  -0.0000040733
        0.0000083221   0.0000004188  -0.0000037386   0.0000021365  -0.0000020294
        0.0000045642  -0.0000027256  -0.0000008252   0.0000023854  -0.0000021622
       -0.0000003166   0.0000046693  -0.0000022504  -0.0000030308   0.0000022148
       -0.0000047013  -0.0000009281   0.0000044001  -0.0000032142   0.0000000270
        0.0000115606  -0.0000027242   0.0000072073  -0.0000241814   0.0007236442
       -0.0048123860  -0.0186577380   0.0165837121  -0.0042439569  -0.0254663453
       -0.0054504492   0.0054558062  -0.0018144834  -0.0018485227   0.0030193753
       -0.0096608676  -0.0062352851  -0.0002613590  -0.0022089438   0.0103754805
       -0.0174875608  -0.0013209092  -0.0122975712   0.0240396114  -0.0008520354
        0.0025632437  -0.0078002804   0.0026396103   0.0160164554   0.0133926663
       -0.0085216678  -0.0206740816  -0.0169870366  -0.0004787382  -0.0008481984
       -0.0015208163  -0.0008787136  -0.0012793372   0.0002633593   0.0002013205
       -0.0003717065  -0.0001993674  -0.0000021866   0.0000295902   0.0000266778
       -0.0000245018  -0.0000040945   0.0000249028  -0.0000036136   0.0000140832
       -0.0000000876   0.0000004682   0.0000086409   0.0000022137   0.0000057737
        0.0000041506   0.0000020969  -0.0000007748   0.0000064178  -0.0000015153
       -0.0000067147  -0.0000013222  -0.0000062165   0.0000068998  -0.0000192506
       -0.0000177568  -0.0000014704   0.0000212724  -0.0000111615   0.0000114227
       -0.0000015543  -0.0000051853  -0.0000007868  -0.0000041476   0.0000000581
        0.0000039388  -0.0000055182   0.0000013682   0.0000013155  -0.0000034155
        0.0000019631   0.0000013086  -0.0000024194   0.0000005275  -0.0000010954
       -0.0000004714  -0.0000007265  -0.0000011783   0.0000032227   0.0000022542
        0.0000038855   0.0000025944   0.0000031065  -0.0000021923   0.0000002816
       -0.0000014802  -0.0000000797  -0.0000012612  -0.0000014588  -0.0000007045
       -0.0000002509   0.0000002603   0.0000019627  -0.0000013746  -0.0000023230
        0.0000009934  -0.0000032717  -0.0000033179  -0.0000012406  -0.0000000188
       -0.0000002918   0.0000029466  -0.0000014332  -0.0000024661   0.0000026618
       -0.0000026180  -0.0000012362   0.0000018722  -0.0000026151  -0.0000019710
        0.0000006148  -0.0000013905  -0.0000014971  -0.0000000412  -0.0000005378
       -0.0000025955   0.0000022226  -0.0000043660  -0.0000029613  -0.0005265546
        0.0006829393   0.0000344388   0.0000793228  -0.0004370102   0.0014985551
       -0.0450481009  -0.0792048248   0.0098319080  -0.0044233009   0.4875757007
        0.0156297445   0.0024553358  -0.0831876155   0.0418840375  -0.0177394038
       -0.1250971087  -0.0577301810   0.0616638373  -0.1268797024  -0.0027416901
        0.0143632751  -0.0243243804  -0.0051853746   0.0000814325  -0.0003625991
       -0.0047549067   0.0008032186  -0.0009135532  -0.0002444085  -0.0009114820
        0.0003004823   0.0005337371   0.0000262236  -0.0005158473  -0.0000717938
        0.0000237420   0.0000122481   0.0000026958  -0.0000291260   0.0000509841
       -0.0000508830  -0.0000396091  -0.0000171920  -0.0000554840   0.0000175386
        0.0000064085   0.0000171329  -0.0000195296  -0.0000032957   0.0000040385
        0.0000375056   0.0000138963  -0.0000035005  -0.0000277633  -0.0000115479
       -0.0000026076  -0.0000065414  -0.0000138233  -0.0000037562  -0.0000130597
       -0.0000025998  -0.0000046629   0.0000790589   0.0000183015   0.0000011571
       -0.0001960843   0.0000383240  -0.0000070928   0.0001412590   0.0000438018
        0.0000047335   0.0000050989  -0.0000550782  -0.0000074810  -0.0000024883
        0.0000304779   0.0000158151  -0.0000283782  -0.0000456187  -0.0000249093
       -0.0001875933   0.0000734596  -0.0000035294   0.0000973090   0.0001205171
       -0.0000087217   0.0002804547   0.0000669329   0.0001231396  -0.0000002391
        0.0000729937  -0.0000016536  -0.0001164699  -0.0001729415  -0.0000735587
        0.0001214473   0.0000405930   0.0000042004  -0.0000581633  -0.0000419316
       -0.0000051716   0.0000453228   0.0000002358   0.0000060509  -0.0000582840
       -0.0000121044  -0.0000007397   0.0000494726   0.0000263774  -0.0000016197
       -0.0000338457  -0.0000222781  -0.0000015657   0.0000236953   0.0000092632
       -0.0000040015  -0.0000111253   0.0000148959  -0.0000005117   0.0000019457
       -0.0000037565  -0.0000012993  -0.0000315992  -0.0000181538   0.0000008694
        0.0000211648   0.0000250752   0.0000012595  -0.0000001571  -0.0000153878
       -0.0000021371  -0.0000109768   0.0000163550   0.0000049152   0.0000252221
        0.0000289319  -0.0000058983  -0.0000617439   0.0000122473   0.0000170087
       -0.0001098395   0.0002261980   0.0000519837   0.0000658603  -0.0000940464
       -0.0000119668  -0.0000111409   0.0000300001   0.0000076721   0.0000071092
       -0.0000167172  -0.0000009306   0.0000100658  -0.0000076780   0.0000020308
       -0.0000024556  -0.0000000945  -0.0000023440  -0.0000038645   0.0000071255
       -0.0000001044  -0.0000057670   0.0000042000   0.0000015151  -0.0000030758
        0.0000086568   0.0000032675  -0.0000027903   0.0000014525   0.0000048782
       -0.0000274267   0.0000145384  -0.0000021405   0.0010001231   0.0025585794
       -0.0026191395   0.0069015556  -0.0007542670   0.0038009865   0.0185107183
        0.0063246057  -0.0048584619  -0.0119901633  -0.0058798032   0.0051831005
       -0.0193789512  -0.0105482841   0.0027377677   0.0037375802  -0.0134883967
        0.0217304705  -0.0019821770  -0.0064823207   0.0115409160  -0.0008676724
        0.0071149628  -0.0171951421  -0.0011028322  -0.0209805989  -0.0156608818
       -0.0062359514  -0.0117017380  -0.0084517696   0.0017284373   0.0072926932
        0.0053632810  -0.0002216203  -0.0000203708   0.0014707802   0.0005746492
       -0.0006769176  -0.0000159953   0.0000407527  -0.0000261510   0.0000276581
       -0.0000353342  -0.0000176149   0.0000216571  -0.0000037288  -0.0000034613
       -0.0000001454   0.0000024446   0.0000080696   0.0000001539   0.0000073138
        0.0000017927  -0.0000010493   0.0000029114   0.0000072438   0.0000097583
       -0.0000080154   0.0000244511   0.0000265176  -0.0000005667   0.0000196057
        0.0000028871   0.0000038609  -0.0000285961   0.0000048467  -0.0000006861
        0.0000060974  -0.0000010391  -0.0000096374  -0.0000027178  -0.0000103323
       -0.0000000643   0.0000033181  -0.0000037651  -0.0000051159  -0.0000035120
       -0.0000019937  -0.0000053023   0.0000019064  -0.0000008393  -0.0000038230
        0.0000011488   0.0000035650   0.0000021653  -0.0000017328  -0.0000057072
       -0.0000019015  -0.0000020599  -0.0000090735   0.0000031900   0.0000027951
        0.0000027774   0.0000015526   0.0000003963   0.0000013691   0.0000014746
       -0.0000008472   0.0000000910  -0.0000072612   0.0000047454   0.0000024183
       -0.0000042257   0.0000078819   0.0000029872   0.0000022881  -0.0000012190
        0.0000004193  -0.0000045211  -0.0000013525   0.0000027109  -0.0000038180
        0.0000002265   0.0000028259  -0.0000052673   0.0000076914   0.0000001952
        0.0000006185  -0.0000002205   0.0000022966  -0.0000051439   0.0000022172
       -0.0000019573  -0.0000006498   0.0000019650   0.0000007519  -0.0002964286
        0.0001430154  -0.0001734157  -0.0015659471  -0.0007640247  -0.0000696461
        0.0252971831   0.0083404582  -0.0673252622   0.0025869427   0.0156297445
        0.4721660403  -0.0059671938   0.0470429283  -0.1591895651  -0.0175375130
       -0.0587619447  -0.1181403720  -0.0011103937  -0.0056268586  -0.0605329435
        0.0116173704  -0.0123563597  -0.0001942387  -0.0023422124  -0.0050470017
        0.0006507998  -0.0006004443  -0.0003821751  -0.0002232291   0.0004036799
        0.0006782805  -0.0007152023  -0.0000188031  -0.0001185908  -0.0001508016
       -0.0000922430  -0.0000218874   0.0000030904   0.0000311907   0.0000006223
        0.0000307012  -0.0000030293  -0.0000052037   0.0000229104   0.0000330991
        0.0000004220  -0.0000090331  -0.0000249084  -0.0000097898  -0.0000072242
       -0.0000023159   0.0000026855  -0.0000010260  -0.0000067503   0.0000009117
       -0.0000006756   0.0000133873  -0.0000034099  -0.0000036252  -0.0000063187
       -0.0000171925   0.0000077804   0.0000141039  -0.0000054403  -0.0000200113
        0.0000509292   0.0000287839   0.0000381705  -0.0000501858  -0.0000001705
       -0.0000359428  -0.0000118583  -0.0000192647   0.0000057669  -0.0000198984
        0.0000091293   0.0000032412   0.0000334410   0.0000281343   0.0000156476
       -0.0001692578   0.0000649246   0.0000396321   0.0001271591   0.0001069720
        0.0000211861   0.0002336978  -0.0001166478  -0.0000176017  -0.0000476398
       -0.0000123063  -0.0000057802   0.0000141919  -0.0000261798   0.0000004515
        0.0000261049   0.0000101899   0.0000019268  -0.0000116473  -0.0000038522
       -0.0000027272   0.0000061965   0.0000029150   0.0000028313  -0.0000111587
       -0.0000023000   0.0000008360   0.0000147663   0.0000040122  -0.0000003126
       -0.0000063106  -0.0000046023  -0.0000024670   0.0000052475   0.0000031634
       -0.0000022044  -0.0000011800   0.0000028829  -0.0000008546  -0.0000000092
       -0.0000016803   0.0000015680  -0.0000099179  -0.0000068332  -0.0000020795
        0.0000046840   0.0000064992   0.0000028810   0.0000009767  -0.0000049040
       -0.0000039544  -0.0000014108   0.0000044546   0.0000026161   0.0000066528
        0.0000050741  -0.0000024039  -0.0000100621   0.0000018213  -0.0000005126
       -0.0000715090   0.0000629252   0.0000019244   0.0000355644  -0.0000444661
        0.0000033847  -0.0000007950   0.0000125780   0.0000002900   0.0000051392
       -0.0000039776   0.0000006678   0.0000012629  -0.0000021351  -0.0000002820
       -0.0000012633  -0.0000020017   0.0000013105   0.0000002048   0.0000025524
        0.0000011595  -0.0000011061   0.0000000511   0.0000005602  -0.0000019490
        0.0000027650   0.0000011049   0.0000020227  -0.0000019660   0.0000019563
       -0.0000071072   0.0000078250   0.0000008236  -0.0051192647  -0.0020801353
        0.0013870287  -0.0113635413   0.0117326414   0.0007235955   0.0019097626
       -0.0000707535  -0.0001637271   0.0242805621   0.0115487897  -0.0097962095
       -0.0170974722  -0.0081401409   0.0030329734  -0.0023635706   0.0036074508
       -0.0037130259   0.0026204544   0.0058042278  -0.0097445640  -0.0019797856
        0.0059134505  -0.0235303655   0.0012239904  -0.0026558532  -0.0010053420
       -0.0004353641   0.0025930118   0.0029567685  -0.0059011202  -0.0186356621
       -0.0240487087   0.0010928925   0.0005497046  -0.0010672187   0.0004816459
       -0.0009153516  -0.0000938605  -0.0000361225  -0.0000144025  -0.0000187463
        0.0000265048  -0.0000014485  -0.0000162853   0.0000029782  -0.0000002413
        0.0000027347   0.0000010033  -0.0000035960   0.0000013529  -0.0000030241
       -0.0000009922   0.0000027285   0.0000006186  -0.0000048255  -0.0000008998
        0.0000016033  -0.0000061553  -0.0000063405  -0.0000104920   0.0000142969
        0.0000288572   0.0000256195   0.0000174553   0.0000021171   0.0000071475
        0.0000005123   0.0000017293  -0.0000031403  -0.0000041202  -0.0000024035
        0.0000009837   0.0000007348   0.0000009335  -0.0000008705  -0.0000022050
        0.0000007269  -0.0000017199  -0.0000006605   0.0000006232  -0.0000008234
       -0.0000009642   0.0000017968   0.0000005061  -0.0000030502  -0.0000006846
       -0.0000017631  -0.0000014901  -0.0000016490  -0.0000009634   0.0000010248
        0.0000018544   0.0000008756  -0.0000008611   0.0000005172   0.0000011474
       -0.0000000796  -0.0000013884  -0.0000026307   0.0000019501   0.0000006115
       -0.0000019238   0.0000019511   0.0000003820   0.0000005495  -0.0000008655
       -0.0000014105   0.0000012049  -0.0000006296   0.0000004683   0.0000013004
       -0.0000001673   0.0000003434  -0.0000015586   0.0000022786  -0.0000008386
        0.0000001156  -0.0000010042   0.0000005695  -0.0000039973   0.0000008301
       -0.0000020581  -0.0000012063  -0.0000036782  -0.0000007957  -0.0005502497
        0.0006232081  -0.0001951273   0.0007803316   0.0006812503  -0.0011779897
       -0.0039278387  -0.0126430558   0.0236269455  -0.0597105087   0.0024553358
       -0.0059671938   0.5233500582   0.0019228758  -0.0010755184  -0.0001105351
        0.0015772411  -0.0076802526  -0.0043691725   0.0120393101  -0.0167288107
       -0.0000125563   0.0005726975  -0.0007925034  -0.0003193134  -0.0004552169
        0.0002472423  -0.0000153253  -0.0004158966  -0.0001342384  -0.0001143511
        0.0003760206  -0.0001062149   0.0000042530  -0.0002565168  -0.0000924709
       -0.0000290334  -0.0000085801   0.0000056404   0.0000002363  -0.0000047969
       -0.0000215442  -0.0000390148  -0.0000064115   0.0000164524   0.0000290944
        0.0000052011   0.0000041836  -0.0000430755  -0.0000018315  -0.0000010600