$hessian                                                                        
        0.0789058521   0.0185611992   0.0033265174  -0.0738345145  -0.0047213570
        0.0021374936   0.0014060207   0.0177290020  -0.0342849720  -0.0051324110
        0.0000449111  -0.0024997736  -0.0000784897  -0.0012296703  -0.0016742270
       -0.0002814731  -0.0000261806  -0.0009212274   0.0012882511   0.0001257862
        0.0006254442  -0.0002942564  -0.0000506075  -0.0004072318  -0.0005418892
        0.0001957667   0.0000466621   0.0001111688  -0.0001264649  -0.0001970504
       -0.0002801513  -0.0000534066  -0.0000291660   0.0005012765  -0.0003005584
       -0.0001502287  -0.0004953082   0.0003314767   0.0001492434  -0.0000291145
       -0.0002708768  -0.0001004652   0.0000158601   0.0000659440  -0.0000117246
       -0.0000054857  -0.0000503032   0.0000093344  -0.0000039490   0.0000062838
        0.0000043646   0.0000063134  -0.0000371238  -0.0000173235  -0.0000177836
        0.0000571941   0.0000092880   0.0002000923   0.0001022916   0.0000584864
       -0.0000188708  -0.0000537391   0.0000209422   0.0000335903   0.0000199471
       -0.0000142554  -0.0000103433   0.0000067395  -0.0000040220   0.0000280926
       -0.0000024812   0.0000037874  -0.0000408949  -0.0000162069   0.0000092231
       -0.0001051222   0.0002518237   0.0000899356   0.0002394824   0.0000132877
        0.0001267825   0.0014425535  -0.0010657453   0.0003778131  -0.0002255748
        0.0007165225  -0.0015939112   0.0001849641  -0.0245951399   0.0316743163
       -0.0000869264  -0.0009478333   0.0018125812   0.0014757301  -0.0007237412
       -0.0002460437   0.0016807011   0.0003397623  -0.0003786526  -0.0013573548
       -0.0008654039   0.0005648073   0.0005793972  -0.0003128504   0.0001227026
       -0.0001474637   0.0000217409   0.0000280025   0.0000727097  -0.0000036870
        0.0000064267  -0.0000203991  -0.0000056571   0.0000000563   0.0000661450
       -0.0000695564  -0.0000418122  -0.0000855704   0.0001423487   0.0000694018
       -0.0000794129   0.0007123646  -0.0002530526   0.0000731784  -0.0001913835
       -0.0000661790  -0.0000108367   0.0001368048   0.0000231864  -0.0000160490
       -0.0000227914   0.0000314263   0.0000216438   0.0000597294  -0.0000400211
       -0.0000456176  -0.0001618313   0.0000375770  -0.0007889809  -0.0017376523
        0.0006664582  -0.0051300793  -0.0019276532   0.0006021307  -0.0000210761
        0.0002729047  -0.0001594355  -0.0003491478  -0.0000263113  -0.0003661825
        0.0000226468  -0.0000914409  -0.0000078251  -0.0000058606   0.0000096002
        0.0000301747   0.0000033448  -0.0000081496   0.0000146024   0.0000094158
        0.0000172563  -0.0000119587  -0.0000007635   0.0000254199   0.0000054495
       -0.0000072556   0.0000128779   0.0000156643  -0.0000013123  -0.0000027229
       -0.0000011283  -0.0000074555   0.0000106941  -0.0000145799  -0.0000014425
       -0.0000092447   0.0000055771  -0.0000220402  -0.0000078937   0.0000014219
       -0.0000231198   0.0000070429  -0.0000087116  -0.0000003217   0.0000136627
       -0.0000024551  -0.0000442773   0.0000020333  -0.0000151969   0.0000091305
       -0.0000211598   0.0000021574   0.0001068000   0.0001426572   0.0000786961
        0.0008911328   0.0002892036  -0.0003538800   0.0006526196  -0.0002243974
        0.0005965504   0.0001267899   0.0001318853   0.0000512509   0.0000072901
       -0.0000161200  -0.0000042163  -0.0000424406  -0.0000092974  -0.0000195803
       -0.0000436119   0.0000167529   0.0000018397  -0.0000071741   0.0000317397
        0.0000129796   0.0000187561  -0.0000313880  -0.0000692703  -0.0000213467
        0.0000474579   0.0000637716   0.0000128946  -0.0000437769  -0.0000258219
       -0.0000042698  -0.0000534425   0.0000136149  -0.0000197645  -0.0000325727
        0.0000351057  -0.0000140242   0.0000144376  -0.0000001064  -0.0003735979
       -0.0004066586   0.0002220148  -0.0000192185  -0.0001320734   0.0002064267
        0.0185611992   0.2314707570  -0.3334132113  -0.0032321785  -0.2154095851
        0.2633411119   0.0102464793   0.0060322243   0.0267066165   0.0027451928
        0.0015254668  -0.0000657297   0.0003006331  -0.0006508553   0.0015425996
       -0.0005678712   0.0000881547  -0.0005698892   0.0000355204   0.0000215611
       -0.0000134471   0.0000506201   0.0001343901  -0.0000405019  -0.0000573555
       -0.0000232683   0.0000383813  -0.0000375832   0.0000030767  -0.0000313251
        0.0000005721   0.0000115242  -0.0000185576  -0.0000156697  -0.0000134619
       -0.0000127771   0.0000453947   0.0000945483  -0.0000082863  -0.0000007787
       -0.0001038314  -0.0000012491   0.0000137623   0.0000186646   0.0000004266
       -0.0000062211  -0.0000132555   0.0000127027   0.0000057854   0.0000025821
       -0.0000025724  -0.0000035563  -0.0000151511   0.0000008477  -0.0000173693
        0.0000193223   0.0000136373  -0.0000527252  -0.0000363267   0.0000261528
        0.0000259731  -0.0000017681   0.0000043549   0.0000029993  -0.0000151771
        0.0000068073   0.0000025468   0.0000073042  -0.0000035424  -0.0000044673
       -0.0000097165   0.0000027615   0.0000187040  -0.0000028347  -0.0000007967
        0.0000002499   0.0000279119   0.0000016155   0.0000071678  -0.0000012809
       -0.0000007647   0.0003330673  -0.0006427640   0.0003802520  -0.0028094484
       -0.0004445129   0.0006013526  -0.0252430174  -0.0205996135   0.0412323755
        0.0068876817  -0.0006177437   0.0026515311  -0.0010585531  -0.0034378751
        0.0001485104   0.0047694589   0.0022710215  -0.0012673108  -0.0037954751
       -0.0017587692   0.0013184590   0.0014870771  -0.0007589197   0.0004579906
       -0.0002996334   0.0001259683   0.0000131300   0.0001959024  -0.0000179512
        0.0000014876  -0.0000670470   0.0000360401   0.0000047022   0.0001455720
       -0.0001362811  -0.0001473907  -0.0003409389   0.0002467881   0.0000270718
       -0.0001332946   0.0011568594  -0.0006946034  -0.0000269529  -0.0004052591
       -0.0000340199  -0.0000077187   0.0002425805   0.0000379812  -0.0000407477
       -0.0000439206   0.0000567065   0.0000721407   0.0000938992  -0.0001246064
        0.0000233410  -0.0002180127   0.0000176653  -0.0041360534  -0.0020226401
       -0.0005189623  -0.0029951079   0.0032791798  -0.0011258520   0.0000210655
       -0.0001548685  -0.0002614961   0.0002794436  -0.0001128198   0.0001689426
        0.0000151342  -0.0000087877   0.0000223061  -0.0000060358   0.0000032782
        0.0000135693   0.0000012615  -0.0000083778  -0.0000037020   0.0000061517
        0.0000120893  -0.0000120293  -0.0000003805   0.0000116544   0.0000004255
        0.0000012000   0.0000005765   0.0000008831   0.0000086743   0.0000030944
       -0.0000065949  -0.0000082317  -0.0000002289   0.0000013960   0.0000062378
        0.0000102670  -0.0000048537  -0.0000004138  -0.0000005578  -0.0000000066
       -0.0000046632   0.0000047361  -0.0000001926  -0.0000041136   0.0000095547
       -0.0000051625   0.0000020255  -0.0000025502   0.0000052350   0.0000083741
       -0.0000003990   0.0000164354   0.0000811528   0.0000452670  -0.0000556479
        0.0000806399  -0.0001066108  -0.0007934993  -0.0008780708   0.0007004090
       -0.0000012377  -0.0000565364  -0.0000191437  -0.0000448989   0.0000155397
       -0.0000140820   0.0000581068  -0.0000841569  -0.0000119443  -0.0000148604
       -0.0000924564   0.0000484176   0.0000191868  -0.0000577570   0.0001060550
        0.0000656796   0.0000280225  -0.0000659128  -0.0000365464   0.0000097292
        0.0000274834   0.0001067940   0.0000383399  -0.0000717104  -0.0000465212
        0.0000004696  -0.0000976015   0.0000178937  -0.0000393034  -0.0000507370
        0.0000694983  -0.0000291239   0.0000255149  -0.0000301877  -0.0002605166
       -0.0002720603   0.0000124783  -0.0001089781   0.0004809456   0.0001867715
        0.0033265174  -0.3334132113   0.5677042867   0.0021458052   0.2642920460
       -0.4826533789  -0.0298530277   0.0286796837  -0.0524931752  -0.0053529137
       -0.0005473766   0.0011517023  -0.0019071296  -0.0024164642  -0.0019885401
        0.0005326067   0.0000139108   0.0001023036   0.0017292641   0.0001241711
        0.0007595878  -0.0004072327   0.0000405132  -0.0002204943  -0.0007926354
        0.0003328150   0.0000345397   0.0001412231  -0.0003066012  -0.0003081342
       -0.0004151407  -0.0001030160   0.0000194545   0.0007325383  -0.0004315523
       -0.0002384008  -0.0007280737   0.0003661078   0.0002570405  -0.0000455440
       -0.0002049000  -0.0001559498   0.0000155204   0.0000704215  -0.0000197693
        0.0000087171  -0.0000475090  -0.0000015913  -0.0000093698   0.0000051097
        0.0000166677   0.0000221346  -0.0000147776  -0.0000221521   0.0000102263
        0.0000498314   0.0000084672   0.0002823212   0.0001546826   0.0000374431
       -0.0000773024  -0.0000428624   0.0000263016   0.0000245057   0.0000451936
       -0.0000236456  -0.0000107935  -0.0000022114   0.0000046072   0.0000392108
        0.0000073332   0.0000045421  -0.0000740951  -0.0000150661   0.0000125669
       -0.0001474397   0.0003288696   0.0001293726   0.0003629947   0.0000261611
        0.0002243972  -0.0007964568  -0.0012913039  -0.0009723379   0.0060738845
        0.0010998620  -0.0032037390   0.0268985512   0.0403893682  -0.0289482033
       -0.0082344796   0.0004241927  -0.0028971034   0.0015067759   0.0028340827
       -0.0012029110  -0.0045740650  -0.0024607283   0.0011495565   0.0034228302
        0.0018253478  -0.0008451511  -0.0012675543   0.0005873745  -0.0004564294
        0.0001985874  -0.0001578621   0.0000146546  -0.0001544128  -0.0000168918
       -0.0000174785   0.0000657565  -0.0000180944   0.0000114806  -0.0001428301
        0.0001136071   0.0001358523   0.0002919968  -0.0001821655  -0.0000321221
        0.0001285979  -0.0012018326   0.0006690190   0.0000921841   0.0003519039
       -0.0000818013   0.0000233793  -0.0001700051  -0.0000761848   0.0000062222
        0.0000472360   0.0000068552  -0.0000581235  -0.0001443912   0.0001189710
       -0.0000293452   0.0002403923  -0.0000124266   0.0035435267   0.0014921064
       -0.0011096177   0.0037462705  -0.0008431350   0.0041240019  -0.0001401638
        0.0010105570   0.0004507135  -0.0003898482   0.0000995983  -0.0002666980
        0.0000259768  -0.0000924450  -0.0000859679  -0.0000274562   0.0000493660
        0.0000244228  -0.0000053226   0.0000024002   0.0000262275  -0.0000024550
        0.0000024471   0.0000011647  -0.0000055840   0.0000151092   0.0000050856
       -0.0000174423   0.0000166160   0.0000184468  -0.0000245757  -0.0000116115
        0.0000046558   0.0000099024   0.0000029662  -0.0000284448  -0.0000099558
       -0.0000269864   0.0000091401  -0.0000180646  -0.0000075474  -0.0000004002
       -0.0000146614  -0.0000006269  -0.0000100671   0.0000081947  -0.0000015750
        0.0000044547  -0.0000524490   0.0000246297  -0.0000199659   0.0000168956
       -0.0000103266  -0.0000054110  -0.0002072363   0.0000223538   0.0000818085
       -0.0010873891   0.0005174870   0.0009731789   0.0008010445  -0.0011652794
        0.0004050142   0.0001366716   0.0000524968   0.0001164048  -0.0000022484
        0.0000396858  -0.0000620045   0.0000873906   0.0000205235   0.0000073519
        0.0000910455  -0.0000442431  -0.0000172589   0.0000470421  -0.0000871041
       -0.0000542962   0.0000038032   0.0000551004   0.0000339537  -0.0000322079
       -0.0000384717  -0.0000882825  -0.0000550602   0.0000908131   0.0000441380
       -0.0000081120   0.0000887856  -0.0000065729   0.0000251162   0.0000433241
       -0.0000600132   0.0000053422  -0.0000191347   0.0000532890   0.0005153457
        0.0000895350  -0.0003574291   0.0000322783  -0.0006488086   0.0000604280
       -0.0738345145  -0.0032321785   0.0021458052   0.4425726996   0.0702014850
        0.0342430083  -0.1443321865  -0.0075527395  -0.0495615766   0.0050753479
        0.0036795597  -0.0113278954   0.0031151937   0.0010424820   0.0027546680
        0.0008654464   0.0000027136   0.0013440600  -0.0052973942   0.0007484091
       -0.0025520548   0.0012882471  -0.0000355603   0.0017292549   0.0021778280
       -0.0010125130  -0.0001628575  -0.0003831963   0.0006980054   0.0009133424
        0.0012032485   0.0002092894   0.0000313191  -0.0020993349   0.0012364995
        0.0006363781   0.0019944022  -0.0013042581  -0.0006449629   0.0001190100
        0.0009878693   0.0004199963  -0.0000610778  -0.0002680108   0.0000436253
        0.0000233004   0.0001865813  -0.0000501750   0.0000134843  -0.0000022083
       -0.0000171179  -0.0000428561   0.0001229746   0.0000788342   0.0000555850
       -0.0002212619  -0.0000517795  -0.0007763289  -0.0003901230  -0.0002248756
        0.0001230061   0.0001865721  -0.0000784922  -0.0001144114  -0.0000914932
        0.0000627729   0.0000180649  -0.0000253019   0.0000111469  -0.0001169732
        0.0000181730  -0.0000224735   0.0001722490   0.0000625883  -0.0000298221
        0.0003870146  -0.0010053026  -0.0003772556  -0.0010223945  -0.0000652546
       -0.0005629645  -0.0035314939   0.0007068864   0.0036889794  -0.0377822528
       -0.0011762645  -0.0095710055  -0.1503299858  -0.0495138896   0.0185257707
       -0.0432887449  -0.0113663944   0.0015554394  -0.0019586456   0.0070928085
       -0.0040008159  -0.0099115921  -0.0045942368   0.0024985339   0.0081957114
        0.0051068698  -0.0026043684  -0.0030680951   0.0015342078  -0.0008401622
        0.0006726629  -0.0001960264  -0.0000907409  -0.0004118552   0.0000555262
       -0.0000130022   0.0001388687  -0.0000335919  -0.0000084811  -0.0003593955
        0.0002792891   0.0002268579   0.0006639848  -0.0005950570  -0.0001704262
        0.0005040477  -0.0032381051   0.0017645679  -0.0002128086   0.0009169123
        0.0000235355  -0.0000132676  -0.0005647752  -0.0001218342   0.0000307543
        0.0001435184  -0.0000707781  -0.0001186573  -0.0003858530   0.0001759707
        0.0001188134   0.0007027608  -0.0001659498   0.0084320730   0.0015632608
       -0.0021793620   0.0014199177  -0.0106222148   0.0126348982   0.0000554701
       -0.0009188547   0.0019783983   0.0004541083  -0.0002557433   0.0008129889
       -0.0000794941   0.0002399794   0.0000555498   0.0000290147  -0.0000646583
       -0.0001188565  -0.0000028444   0.0000259144  -0.0000585798  -0.0000326949
       -0.0000601821   0.0000436227   0.0000041454  -0.0000900008  -0.0000200807
        0.0000308744  -0.0000423860  -0.0000583343   0.0000122630   0.0000140893
        0.0000084229   0.0000238456  -0.0000331446   0.0000587414   0.0000096282
        0.0000435937  -0.0000217746   0.0000731777   0.0000301843  -0.0000052860
        0.0000750413  -0.0000238367   0.0000316208  -0.0000046846  -0.0000393327
        0.0000016510   0.0001522727  -0.0000217459   0.0000615200  -0.0000473120
        0.0000824004   0.0000003035  -0.0006069948  -0.0000673151  -0.0006517154
       -0.0003533529   0.0001027065  -0.0007495079  -0.0002146986  -0.0006898733
        0.0004878196  -0.0007869917  -0.0005119475   0.0002737666  -0.0000408257
        0.0000806815  -0.0000389883   0.0001775311   0.0000305807   0.0000729981
        0.0001700605  -0.0000797173  -0.0000212850   0.0000643096  -0.0001785629
       -0.0001026684  -0.0000611572   0.0000467584   0.0001539469   0.0000018266
       -0.0001222743  -0.0001443192  -0.0000692468   0.0001928927   0.0001150297
        0.0000146649   0.0002052714  -0.0000374995   0.0000783388   0.0001250513
       -0.0001419532   0.0000874217  -0.0000608360   0.0000305751   0.0005235157
        0.0005230690  -0.0007663946  -0.0000507118   0.0015246105  -0.0012572472
       -0.0047213570  -0.2154095851   0.2642920460   0.0702014850   0.3698206844
       -0.2802344425  -0.0030725944  -0.0652701855  -0.0093360283  -0.0009666027
       -0.0003688856   0.0013667361  -0.0006796583   0.0080971453  -0.0015023675
        0.0008912606  -0.0005700570   0.0012037989  -0.0007483516  -0.0018899443
       -0.0004550327  -0.0001258075   0.0000215720  -0.0001241927   0.0006850959
        0.0000524139  -0.0000917695   0.0000138088   0.0001430795   0.0002194996
        0.0001472623   0.0000122849   0.0000470353  -0.0003274446   0.0002456428
        0.0001385212   0.0002922011  -0.0003216048  -0.0001017295   0.0000221301
        0.0002777280   0.0000679792  -0.0000247577  -0.0000614029   0.0000062428
        0.0000086386   0.0000453812  -0.0000187686  -0.0000029189  -0.0000066512
       -0.0000006486  -0.0000005840   0.0000404721   0.0000110799   0.0000281231
       -0.0000586564  -0.0000207102  -0.0000775948  -0.0000270703  -0.0000672856
       -0.0000108511   0.0000336495  -0.0000167013  -0.0000258560   0.0000003808
        0.0000023707   0.0000002487  -0.0000119333   0.0000050490  -0.0000175282
        0.0000122333  -0.0000061960   0.0000071105   0.0000142602  -0.0000055330
        0.0000832879  -0.0002151572  -0.0000476393  -0.0001608921  -0.0000354525
       -0.0001552856  -0.0006853275   0.0083063518   0.0000137205   0.0009379753
        0.0017084638  -0.0005255741  -0.0431805313  -0.0865155368   0.0121560978
       -0.0098527927   0.0044131558  -0.0073175341   0.0045568260   0.0073897758
        0.0014526507  -0.0069568847  -0.0048194033   0.0028690514   0.0063591000
        0.0030671869  -0.0026957255  -0.0023509777   0.0012089701  -0.0008074135
        0.0004760458  -0.0002037336  -0.0000427825  -0.0003433794   0.0000522902
        0.0000115406   0.0000920651  -0.0000643893  -0.0000225613  -0.0002280712
        0.0002013344   0.0002136429   0.0005404617  -0.0003552652  -0.0000244484
        0.0002374341  -0.0020860918   0.0011985054  -0.0000336430   0.0006952159
        0.0000085537  -0.0000111777  -0.0003872068  -0.0000657851   0.0000446789
        0.0001082270  -0.0000742632  -0.0000954834  -0.0002067975   0.0001692009
        0.0000096770   0.0004269683  -0.0000801571   0.0063903012  -0.0002644864
        0.0049612304  -0.0178110812  -0.0214464448   0.0144726404  -0.0002289828
       -0.0023142231   0.0004979833  -0.0001808555   0.0000140091  -0.0000874482
       -0.0000328359   0.0000589235  -0.0000198140   0.0000159803  -0.0000148883
       -0.0000363821  -0.0000029595   0.0000142909  -0.0000045642  -0.0000127516
       -0.0000231675   0.0000209654   0.0000004000  -0.0000277374  -0.0000027721
        0.0000024606  -0.0000085691  -0.0000101532  -0.0000084537  -0.0000017132
        0.0000077644   0.0000145464  -0.0000070225   0.0000082960  -0.0000047754
       -0.0000040313   0.0000002296   0.0000133445   0.0000060827  -0.0000020293
        0.0000179366  -0.0000088544   0.0000043520   0.0000038492  -0.0000168119
        0.0000056623   0.0000284050  -0.0000080525   0.0000039937  -0.0000189116
        0.0000135865  -0.0000300738  -0.0001326727  -0.0002151881   0.0000119519
       -0.0008916917  -0.0024657494   0.0006296304   0.0019991359  -0.0010027826
       -0.0005720751   0.0007181699   0.0004681284   0.0001220125  -0.0000278174
        0.0000446476  -0.0000672854   0.0001340135   0.0000190909   0.0000326784
        0.0001342894  -0.0000712794  -0.0000286875   0.0000737008  -0.0001604448
       -0.0000950927  -0.0000525416   0.0000518413   0.0000711537  -0.0000352783
       -0.0000567620  -0.0000905638  -0.0000598079   0.0001227625   0.0000816052
        0.0000009161   0.0001456837  -0.0000240578   0.0000567760   0.0000826654
       -0.0001056299   0.0000639494  -0.0000489167   0.0000387812  -0.0006772061
       -0.0003169251   0.0002389420  -0.0004234008  -0.0000675200  -0.0016459905
        0.0021374936   0.2633411119  -0.4826533789   0.0342430083  -0.2802344425
        0.6572515122  -0.0442257786  -0.0014626506  -0.0874598577  -0.0188069096
        0.0027772210  -0.0267763550   0.0027363001   0.0003762222  -0.0035839151
        0.0001641609  -0.0000822882  -0.0013598605  -0.0025520451   0.0004550470
       -0.0013258984   0.0006254392   0.0000134280   0.0007595906   0.0010590005
       -0.0005806279  -0.0000164232  -0.0001985184   0.0003899420   0.0004816136
        0.0006321156   0.0001482302  -0.0000184702  -0.0010633463   0.0006269359
        0.0003358666   0.0010382184  -0.0005533512  -0.0003621762   0.0000638812
        0.0003612840   0.0002263249  -0.0000208655  -0.0001158225   0.0000250114
       -0.0000043465   0.0000736753  -0.0000066913   0.0000116994  -0.0000047241
       -0.0000187508  -0.0000304691   0.0000326730   0.0000366253  -0.0000034892
       -0.0000857547  -0.0000154837  -0.0004195154  -0.0002271644  -0.0000719079
        0.0001045709   0.0000733659  -0.0000380048  -0.0000355267  -0.0000632130
        0.0000381168   0.0000136587  -0.0000028279  -0.0000008249  -0.0000581055
       -0.0000046467  -0.0000077203   0.0001086193   0.0000252193  -0.0000153886
        0.0002007611  -0.0004939933  -0.0001952859  -0.0005352535  -0.0000380101
       -0.0003137295   0.0053298674  -0.0001538842   0.0018421516  -0.0047805224
       -0.0026960677   0.0111575270   0.0159184108   0.0050808676  -0.0661070002
        0.0039746694  -0.0052906794   0.0066605612  -0.0057178739  -0.0000217109
        0.0058326111   0.0047755111   0.0035106498  -0.0013559746  -0.0036384383
       -0.0028132330   0.0000992387   0.0012230573  -0.0004641320   0.0002893936
       -0.0000968655   0.0001907045   0.0000091702   0.0001247011   0.0000453322
        0.0000626876  -0.0001275355  -0.0000168100  -0.0000410176   0.0002211907
       -0.0001381458  -0.0001071102  -0.0003591063   0.0001473105   0.0001325090
       -0.0003366233   0.0013371095  -0.0009336252  -0.0000344506  -0.0003191704
        0.0002099457   0.0000123364   0.0001055843   0.0001132494   0.0000387428
       -0.0000988297  -0.0000683978   0.0000500091   0.0002419127  -0.0000634387
        0.0000115879  -0.0003088430   0.0000580209  -0.0045354097   0.0049912163
        0.0036319301   0.0123598934   0.0130683095  -0.0124625483  -0.0006479828
       -0.0004435078   0.0004328536  -0.0007605770  -0.0001742787  -0.0005137113
       -0.0000463920   0.0001249731   0.0000823636   0.0000237092  -0.0000587551
       -0.0000422678   0.0000070480   0.0000006502  -0.0000358327  -0.0000010735
       -0.0000119854   0.0000040725   0.0000060572  -0.0000268353  -0.0000081686
        0.0000232275  -0.0000222487  -0.0000273443   0.0000282901   0.0000155834
       -0.0000029826  -0.0000113537  -0.0000072818   0.0000372577   0.0000115760
        0.0000369334  -0.0000129191   0.0000294223   0.0000123507   0.0000005695
        0.0000252425  -0.0000029451   0.0000166461  -0.0000092155  -0.0000036758
       -0.0000047662   0.0000767034  -0.0000260690   0.0000352216  -0.0000166693
        0.0000344863   0.0000193797   0.0012033438   0.0002011355   0.0002782914
        0.0029604781   0.0005149519  -0.0005757744  -0.0021465709  -0.0006813144
       -0.0022572673  -0.0008687966  -0.0002725587   0.0000511853  -0.0000014996
       -0.0000544828   0.0000555044  -0.0000957655  -0.0000181613  -0.0000034032
       -0.0000935960   0.0000483711   0.0000106812  -0.0000414671   0.0000857349
        0.0000650628  -0.0000113343  -0.0000245366  -0.0000517615   0.0000566083
        0.0000637299   0.0000118792   0.0000646185  -0.0001022306  -0.0000454984
        0.0000033306  -0.0000872978  -0.0000050261  -0.0000197683  -0.0000483129
        0.0000604291  -0.0000163907   0.0000256208  -0.0000599709   0.0001693709
        0.0006316415   0.0002432913   0.0005015167  -0.0008720140  -0.0016324166
        0.0014060207   0.0102464793  -0.0298530277  -0.1443321865  -0.0030725944
       -0.0442257786   0.5980768144   0.0102936328  -0.0251274931  -0.0910406809
       -0.0026395045  -0.0065835456   0.0309709278  -0.0018156584  -0.0202127085
       -0.0154717186   0.0005777076   0.0317478554   0.0008654356  -0.0008912078
        0.0001641560  -0.0002814611   0.0005678547   0.0005326420  -0.0006157948
        0.0005075280   0.0000317275   0.0000095617  -0.0002076244  -0.0004605117
       -0.0005156634  -0.0001775938  -0.0000224175   0.0009015609  -0.0005554336
       -0.0002313855  -0.0008789037   0.0005602073   0.0002780077  -0.0000602635
       -0.0004311430  -0.0001867651   0.0000189681   0.0001057218  -0.0000118576
        0.0000026474  -0.0000891552   0.0000085234  -0.0000093830   0.0000250691
        0.0000192753   0.0000124842  -0.0000535252  -0.0000232025  -0.0000047229
        0.0000895654   0.0000054175   0.0003658315   0.0001904985   0.0000644686
       -0.0000610306  -0.0000672938   0.0000339583   0.0000574388   0.0000463772
       -0.0000265352  -0.0000264524   0.0000009243  -0.0000014292   0.0000504045
        0.0000075515   0.0000049931  -0.0000694589  -0.0000353404   0.0000222042
       -0.0001545561   0.0004628043   0.0001815029   0.0005263574   0.0000841592
        0.0002479764  -0.0676456981  -0.0011115960  -0.0396209120  -0.2630391980
       -0.0025752746   0.1182814794  -0.0292881132  -0.0084735052  -0.0099911266
       -0.0011595244  -0.0031799993   0.0004561419  -0.0013418842  -0.0002383228
        0.0007007724   0.0019019848   0.0010581903  -0.0005191813  -0.0014676834
       -0.0011130297   0.0003934893   0.0005957939  -0.0002842410   0.0000922751
       -0.0001213322   0.0000287374   0.0000295176   0.0000751416   0.0000052444
        0.0000205487  -0.0000219018  -0.0000216030  -0.0000122162   0.0000916489
       -0.0000792118  -0.0000404819  -0.0001354240   0.0001249065   0.0000731586
       -0.0001175786   0.0007342325  -0.0003699291   0.0000796081  -0.0001845306
       -0.0000112578   0.0000050594   0.0001197057   0.0000285861  -0.0000006753
       -0.0000159542   0.0000080236   0.0000297570   0.0000959224  -0.0000364851
       -0.0000462038  -0.0001659897   0.0000499337  -0.0014180322   0.0005292520
        0.0008210709  -0.0012213967   0.0015196320  -0.0016815914  -0.0042803639
        0.0016292541   0.0264054538  -0.0035478357  -0.0000243863  -0.0033864468
       -0.0001830728  -0.0001284737  -0.0001676137  -0.0000448083   0.0000581812
        0.0000376227   0.0000014308  -0.0000131940   0.0000280812   0.0000091747
        0.0000283816  -0.0000143733  -0.0000040263   0.0000368474   0.0000099512
       -0.0000146481   0.0000261163   0.0000261589  -0.0000145243  -0.0000077789
        0.0000001284   0.0000059582   0.0000123329  -0.0000399203  -0.0000077356
       -0.0000235729   0.0000091933  -0.0000309783  -0.0000119843   0.0000008575
       -0.0000336543   0.0000041253  -0.0000131611   0.0000025504   0.0000150230
       -0.0000004895  -0.0000674679   0.0000096924  -0.0000148637   0.0000275458
       -0.0000133222   0.0000194337  -0.0039019602   0.0001299436  -0.0030973593
       -0.0036217986  -0.0007577989   0.0051436402   0.0004363219  -0.0002003270
       -0.0001599604  -0.0002589459  -0.0000066451   0.0001682719   0.0000071724
       -0.0000084353  -0.0000011576  -0.0000336485  -0.0000085515  -0.0000189036
       -0.0000358486   0.0000178675  -0.0000014073  -0.0000103333   0.0000322848
        0.0000174506   0.0000024398  -0.0000191019  -0.0000427431  -0.0000231389
        0.0000258889   0.0000355651   0.0000120550  -0.0000369357  -0.0000231651
       -0.0000052372  -0.0000445078   0.0000071213  -0.0000180294  -0.0000242509
        0.0000299839  -0.0000137395   0.0000139937  -0.0000072206   0.0000368884
       -0.0000147982   0.0000698413   0.0001137339  -0.0011984399  -0.0000678360
        0.0177290020   0.0060322243   0.0286796837  -0.0075527395  -0.0652701855
       -0.0014626506   0.0102936328   0.1341107122  -0.0236143727  -0.0022226474
       -0.0476080021  -0.0052493770   0.0009857464   0.0025288726  -0.0012731550
       -0.0005775181  -0.0065632364   0.0013907379  -0.0000027457  -0.0005700215
        0.0000822814   0.0000261940   0.0000881350  -0.0000139147   0.0000128911
        0.0000804234  -0.0000175755  -0.0000218678   0.0000726899  -0.0000237817
       -0.0000275526  -0.0000172677  -0.0000094491   0.0000338778  -0.0000215289
        0.0000012625  -0.0000397123   0.0000232986   0.0000118594  -0.0000039718
       -0.0000209287  -0.0000105080   0.0000007597   0.0000028829   0.0000002594
        0.0000011067  -0.0000052755  -0.0000003993  -0.0000003760   0.0000012577
        0.0000013670   0.0000008866  -0.0000025866  -0.0000008915   0.0000019167
        0.0000038951  -0.0000010098   0.0000207443   0.0000129380  -0.0000018599
       -0.0000078195   0.0000014311  -0.0000008254   0.0000039898   0.0000023779
       -0.0000002503  -0.0000020507  -0.0000016763   0.0000013682   0.0000027786
        0.0000025475  -0.0000001745  -0.0000031868  -0.0000024973   0.0000024372
       -0.0000058629   0.0000227803   0.0000210065   0.0000282183  -0.0000048220
       -0.0000006161  -0.0000206091   0.0022350251  -0.0027407962   0.0002294948
       -0.0498879906   0.0061478076  -0.0122086078   0.0095343380  -0.0028765298
       -0.0038452163  -0.0013096859   0.0021077389  -0.0004981215   0.0007390648
       -0.0011013687  -0.0002389052  -0.0001099174   0.0000852635   0.0001315242
        0.0001326231   0.0000557701   0.0000833241  -0.0000521856   0.0000010464
       -0.0000151860  -0.0000105265   0.0000202759   0.0000110085  -0.0000290644
       -0.0000196290  -0.0000073039   0.0000164933   0.0000098781   0.0000094227
        0.0000060460   0.0000042397   0.0000318667   0.0000016981  -0.0000162041
        0.0000017508   0.0000690084   0.0000184558   0.0000143588  -0.0000039284
       -0.0000160495   0.0000117844   0.0000290749  -0.0000250275  -0.0000062544
       -0.0000240506   0.0000148354  -0.0000157731   0.0000023843   0.0000182498
       -0.0000077500  -0.0000008104  -0.0000089034   0.0004769291  -0.0000501121
       -0.0006566303  -0.0006806995  -0.0007060105   0.0002143965  -0.0002953197
        0.0003862521  -0.0007239597  -0.0002704936   0.0080512184  -0.0004759771
       -0.0000757549   0.0000294570  -0.0000485499  -0.0000039279   0.0000053615
       -0.0000025024   0.0000004616  -0.0000000380   0.0000002870   0.0000002167
        0.0000008688  -0.0000011407  -0.0000005617   0.0000017173  -0.0000000376