$hessian                                                                        
        0.5030123070  -0.0111757353   0.0278609981  -0.1057092289  -0.0191988664
        0.0565393603   0.0005881746  -0.0026341182   0.0000730147  -0.0000282774
        0.0002365292  -0.0000183816  -0.0001318822   0.0003879926  -0.0001352028
        0.0001415204   0.0000235552   0.0001227048   0.0000416391   0.0000400428
       -0.0000151038   0.0000909609   0.0000674103   0.0000011361   0.0000244195
       -0.0000090732  -0.0000150125   0.0000124047   0.0000143106  -0.0000125594
        0.0000083814  -0.0000030324   0.0000124374   0.0000134124   0.0000000122
        0.0000017528   0.0000118253   0.0000020283   0.0000020049   0.0000174437
       -0.0000068148  -0.0000391783   0.0000177040   0.0000396152   0.0000222200
        0.0000129403   0.0000158457  -0.0000240331  -0.0000066354  -0.0000123738
        0.0000007905  -0.0000030217  -0.0000051410   0.0000005042  -0.0000009974
        0.0000035178   0.0000027294  -0.0000070716  -0.0000153535  -0.0000029072
        0.0000024037  -0.0000001660   0.0000085430   0.0000005713  -0.0000063730
       -0.0000114579  -0.0000122308   0.0000106167   0.0000618084   0.0000116856
       -0.0000034472  -0.0000669446   0.0000199865   0.0000118358  -0.0000181712
       -0.0000078075   0.0000150927   0.0000357296  -0.0454519851   0.0181916830
       -0.0031969734  -0.0754040294  -0.0368932594  -0.0720670133  -0.2629911911
        0.0564544920  -0.0281423615  -0.0207114763  -0.0079209644   0.0257173167
        0.0046900440   0.0015943499  -0.0053386661   0.0011304162   0.0007521186
       -0.0009350045   0.0006971020   0.0008101749  -0.0004956786   0.0001433201
       -0.0003432634   0.0000608681   0.0001237497   0.0000852915  -0.0000185526
       -0.0001891030  -0.0002772399   0.0001105371   0.0000327538  -0.0000918796
        0.0000366049  -0.0000546681  -0.0000548091  -0.0000147511   0.0000198536
        0.0000804889  -0.0001073737  -0.0000374586  -0.0000274723   0.0000656264
        0.0000397621  -0.0000344911  -0.0000442850  -0.0000373530  -0.0000083760
       -0.0000122594  -0.0000079513  -0.0000057360   0.0000102007  -0.0000015146
       -0.0000052485  -0.0000057429  -0.0000084326  -0.0000008998   0.0000031763
       -0.0000185429  -0.0000040727   0.0000017441  -0.0000103013  -0.0000045524
       -0.0000065617  -0.0000036637  -0.0000032102  -0.0000006095  -0.0000055727
       -0.0000030158   0.0000024998  -0.0000080844   0.0000045390  -0.0000016504
       -0.0000075684  -0.0000044146  -0.0000037676  -0.0000072766  -0.0000023080
        0.0000028524   0.0000032198  -0.0000157619  -0.0000215847  -0.0000039167
       -0.0000057801   0.0000078990  -0.0000075187  -0.0000144597   0.0000063591
       -0.0000093606  -0.0000167984   0.0000035435  -0.0000058522  -0.0000124328
       -0.0000039233  -0.0000047515  -0.0000138340  -0.0000055102  -0.0000132762
       -0.0000067683   0.0000062600
       -0.0111757353   0.5149457345   0.0170056597  -0.0200848802  -0.0752397306
        0.0295182975  -0.0139864009  -0.0130179123   0.0243530708   0.0002992525
        0.0005105437  -0.0002627464   0.0003195672  -0.0000583096   0.0000053443
       -0.0000808323   0.0000516036  -0.0001665897  -0.0000774060  -0.0000468921
        0.0000283770   0.0000185122  -0.0000256880   0.0000062575   0.0000197589
        0.0000079187  -0.0000030620   0.0000038860  -0.0000024653  -0.0000129782
        0.0000065322  -0.0000018983   0.0000023536  -0.0000057445  -0.0000077198
        0.0000002542   0.0000018325   0.0000009066  -0.0000015075  -0.0000013510
        0.0000315817  -0.0000387707  -0.0000166761  -0.0000086670  -0.0000040753
        0.0000100816   0.0000126835  -0.0000119944   0.0000009591  -0.0000010860
       -0.0000068599   0.0000067703   0.0000096662   0.0000010828   0.0000022240
       -0.0000014330  -0.0000058505  -0.0000044294   0.0000071766   0.0000061691
        0.0000009168   0.0000084627   0.0000030779   0.0000026229   0.0000133204
       -0.0000174184   0.0000081780  -0.0000011554   0.0000257217  -0.0000024667
       -0.0000001464  -0.0000150961   0.0000062842  -0.0000041681  -0.0000002344
       -0.0000041931   0.0000276381   0.0000300375   0.0180747489  -0.2785948365
        0.0214382316  -0.0368716705  -0.0893985143  -0.0869327797   0.0565091472
       -0.0590563775   0.0059700278   0.0020580971   0.0018392840  -0.0034379192
        0.0067822700   0.0037200295  -0.0110848009  -0.0010335127   0.0008642864
       -0.0000366749   0.0000810528  -0.0058689368   0.0025880542  -0.0004346949
       -0.0007551311   0.0006444309  -0.0001562990   0.0000980220   0.0002693212
       -0.0001820689  -0.0000472654   0.0000017589  -0.0000664686   0.0000094444
        0.0000386408   0.0000160876   0.0000798615   0.0000382080   0.0000459942
       -0.0001007285   0.0000391335  -0.0000277978   0.0000003950  -0.0000182446
       -0.0000162789   0.0000014866   0.0000125325  -0.0000030439  -0.0000035321
        0.0000061875  -0.0000139151   0.0000176715  -0.0000067232  -0.0000011552
        0.0000006396   0.0000031179   0.0000052501   0.0000013680   0.0000009272
        0.0000001220   0.0000034787  -0.0000008785  -0.0000007043   0.0000019851
        0.0000021568   0.0000009624   0.0000041072   0.0000000123  -0.0000006781
        0.0000021999  -0.0000032592  -0.0000023441   0.0000025959   0.0000003247
        0.0000006521   0.0000012387   0.0000014656  -0.0000007742   0.0000026566
       -0.0000011345   0.0000009447  -0.0000068948   0.0000077911   0.0000006920
        0.0000010409   0.0000036308  -0.0000017027   0.0000021975   0.0000056824
       -0.0000021050  -0.0000025788   0.0000059867  -0.0000029726  -0.0000054350
        0.0000035674  -0.0000099633  -0.0000059456   0.0000058541  -0.0000151345
       -0.0000177770  -0.0000031490
        0.0278609981   0.0170056597   0.4852631027   0.0562841939   0.0279301253
       -0.1542689591   0.0038703820   0.0081134429  -0.0073447855  -0.0000460835
        0.0001582223   0.0000022147   0.0000433335   0.0000153366  -0.0003487303
       -0.0000150713  -0.0000468630  -0.0002613352  -0.0000414673  -0.0000108159
        0.0000354278  -0.0000274073  -0.0000319049  -0.0000799329  -0.0000021104
        0.0000043952  -0.0000173446  -0.0000053759  -0.0000036176  -0.0000321554
       -0.0000093403   0.0000014896  -0.0000071413   0.0000031849   0.0000037376
       -0.0000073705  -0.0000042571  -0.0000023992  -0.0000038098   0.0000114972
        0.0000278679  -0.0000102740  -0.0000316192  -0.0000686994  -0.0000165683
       -0.0000031696  -0.0000098536   0.0000114215   0.0000037910   0.0000020272
       -0.0000051301   0.0000070975   0.0000109215  -0.0000016911  -0.0000066474
       -0.0000173263   0.0000083804   0.0000170768   0.0000230488  -0.0000034511
       -0.0000021424  -0.0000136971  -0.0000049944  -0.0000000744   0.0000050520
       -0.0000055267   0.0000025937   0.0000086467  -0.0000605731  -0.0000114423
       -0.0000080037   0.0000704424   0.0000296085   0.0000247592  -0.0000165784
        0.0000030427  -0.0000106462   0.0000005497  -0.0032070836   0.0216354333
       -0.0444115906  -0.0723419902  -0.0870123119  -0.2063474211  -0.0282987182
        0.0060458791  -0.0471506363   0.0017808016   0.0001017928   0.0006768279
        0.0140974904   0.0058663560  -0.0276210230   0.0002355261  -0.0006114523
        0.0003982484  -0.0000660667   0.0014048250   0.0005864789   0.0001168796
       -0.0003858450   0.0003169641  -0.0000393876  -0.0001145267   0.0000067654
       -0.0002217014  -0.0000614498   0.0002772798  -0.0000251590  -0.0000768382
        0.0000698879   0.0000046588  -0.0000326293   0.0000612275   0.0000075184
        0.0000594438   0.0000347745  -0.0000138617   0.0000068706   0.0000449312
        0.0000197780   0.0000297783   0.0000118932   0.0000076405  -0.0000048798
        0.0000268142   0.0000073610  -0.0000057068   0.0000172288   0.0000048548
        0.0000053148   0.0000103625  -0.0000009511  -0.0000047015   0.0000108242
       -0.0000001920  -0.0000017404   0.0000043747   0.0000063582   0.0000037128
        0.0000094266   0.0000041796   0.0000029664   0.0000064296  -0.0000050944
       -0.0000043339   0.0000025005   0.0000037283  -0.0000009323   0.0000039990
        0.0000023385   0.0000008088   0.0000041799   0.0000011687   0.0000014055
        0.0000054278   0.0000064970   0.0000290005   0.0000093888   0.0000006005
        0.0000013274   0.0000009114   0.0000084903   0.0000145229  -0.0000024638
        0.0000045327   0.0000124022   0.0000050336  -0.0000027728  -0.0000005147
        0.0000099437  -0.0000087156  -0.0000027270   0.0000136679  -0.0000192999
       -0.0000121559   0.0000121555
       -0.1057092289  -0.0200848802   0.0562841939   0.5244774457  -0.0038026133
        0.0240818779  -0.0700172710   0.0159026521  -0.0038027611   0.0014555110
       -0.0086476817   0.0019717396   0.0002751741   0.0003366240   0.0002549771
        0.0000140356   0.0002727859  -0.0000034104  -0.0000119927  -0.0000349693
       -0.0000122664   0.0002414157   0.0001359036   0.0000869854   0.0001201349
        0.0000362360  -0.0000005994   0.0000481424   0.0000233555  -0.0000097321
        0.0000357528  -0.0000031694   0.0000229856   0.0000245470   0.0000003816
        0.0000083186   0.0000333645   0.0000056084   0.0000076033  -0.0000067379
       -0.0000092701  -0.0000377710   0.0000337616   0.0000411829  -0.0000200628
        0.0000240255   0.0000361477  -0.0000244818   0.0000049235   0.0000164610
        0.0000061829   0.0000143859   0.0000159717  -0.0000150036  -0.0000011177
        0.0000006428  -0.0000052535  -0.0000008601  -0.0000116456   0.0000051851
        0.0000088033   0.0000204710   0.0000182254   0.0000048110   0.0000084516
        0.0000092429   0.0000037236   0.0000174795   0.0000675278   0.0000094750
       -0.0000029199  -0.0001155428  -0.0000074048   0.0000268999   0.0000314840
       -0.0000327972   0.0000113721   0.0000294726   0.0005758644  -0.0006625543
        0.0000456950   0.0054254065   0.0032606190  -0.0062838865  -0.0213171981
       -0.0079860389   0.0251477022  -0.2586355387   0.0460559136  -0.0337347898
       -0.0703874894  -0.0372892129  -0.0598061514  -0.0075585690   0.0301251929
       -0.0075895190   0.0017435517  -0.0144973327   0.0051683458   0.0000651444
        0.0003071987   0.0002821506   0.0001323483  -0.0019419877  -0.0014428893
       -0.0003641801  -0.0010615304  -0.0007840383   0.0000114817  -0.0000351940
        0.0000343669   0.0000158347   0.0000942733   0.0000348932  -0.0002041976
       -0.0004149618   0.0001942676  -0.0001331297  -0.0000886723  -0.0001750823
       -0.0001582468  -0.0000422438   0.0000815493  -0.0000238841   0.0000003339
       -0.0000139894  -0.0000376024   0.0000150729  -0.0000124646  -0.0000309734
        0.0000044803   0.0000116098  -0.0000165699  -0.0000111857   0.0000028416
       -0.0000169244  -0.0000074025   0.0000006781  -0.0000141225  -0.0000108296
       -0.0000086968  -0.0000159683   0.0000038055   0.0000063374  -0.0000143140
        0.0000019811  -0.0000137775  -0.0000095979   0.0000056971  -0.0000023037
       -0.0000091256  -0.0000042210  -0.0000050805  -0.0000079608  -0.0000017858
        0.0000023128  -0.0000301707  -0.0000395734   0.0000524960  -0.0000035008
       -0.0000080587   0.0000112080  -0.0000070263  -0.0000140942   0.0000057343
       -0.0000080288  -0.0000182478   0.0000011425  -0.0000044568  -0.0000120668
       -0.0000030892  -0.0000000807  -0.0000065420  -0.0000021102  -0.0000027977
       -0.0000323097  -0.0000445800
       -0.0191988664  -0.0752397306   0.0279301253  -0.0038026133   0.4648222031
        0.0178608124   0.0171603576  -0.1822696993   0.0272899442  -0.0008101886
       -0.0233109798  -0.0020455328   0.0001364117   0.0004467123  -0.0001079496
        0.0003602639  -0.0001129890   0.0001776452   0.0001639365   0.0000189332
        0.0000216603  -0.0000067296  -0.0000791209  -0.0000112715  -0.0000177502
       -0.0000095048   0.0000055635  -0.0000083540  -0.0000180817   0.0000013583
        0.0000031816  -0.0000098475   0.0000040942  -0.0000132814  -0.0000168702
        0.0000013352  -0.0000045859  -0.0000022331   0.0000002070  -0.0000168422
       -0.0000074321   0.0000107852   0.0000124660  -0.0000247331  -0.0000153464
        0.0000017290   0.0000071283   0.0000057479   0.0000020390   0.0000004139
        0.0000037084  -0.0000020932  -0.0000057719  -0.0000088485  -0.0000039564
        0.0000071774   0.0000071399  -0.0000033778   0.0000084865  -0.0000144663
       -0.0000032039   0.0000022624   0.0000081216  -0.0000030851   0.0000016823
       -0.0000002589   0.0000016788   0.0000011520   0.0000192794   0.0000032968
        0.0000055325  -0.0000418108   0.0000156613  -0.0000070173   0.0000210670
       -0.0000012506  -0.0000127693  -0.0000142639  -0.0162626642  -0.0123184488
        0.0255495688   0.0066485676   0.0041541185  -0.0101843779   0.0027061729
        0.0020705951  -0.0047559712   0.0462467382  -0.0522202908   0.0053296594
       -0.0374972679  -0.1008880033  -0.0929479453   0.0053553588  -0.0117715628
        0.0029719842   0.0001414726  -0.0118348677   0.0049137905   0.0000110693
        0.0005716239   0.0005350709  -0.0010606992  -0.0018922458  -0.0025941009
       -0.0002774850  -0.0002726032   0.0000108485   0.0002609847  -0.0000163564
        0.0001503422  -0.0000393452   0.0000023025  -0.0000408118  -0.0002314370
        0.0000920545  -0.0000623786   0.0000362255   0.0000279784   0.0000396901
        0.0000222553   0.0000249549  -0.0000172682   0.0000012891   0.0000060006
        0.0000025738  -0.0000110846   0.0000142940  -0.0000143494  -0.0000000191
        0.0000065967   0.0000037373   0.0000010420   0.0000053469  -0.0000072994
       -0.0000001294   0.0000057343  -0.0000018643   0.0000007081   0.0000066808
        0.0000025103   0.0000014312   0.0000053601   0.0000012988   0.0000031237
        0.0000038828  -0.0000009095  -0.0000035622   0.0000006462   0.0000007495
        0.0000017230   0.0000026596   0.0000029559  -0.0000002267   0.0000014740
       -0.0000011396  -0.0000055377   0.0000144244   0.0000046425  -0.0000033095
       -0.0000006680   0.0000038904  -0.0000013477   0.0000015625   0.0000022925
       -0.0000004807   0.0000021234   0.0000033250  -0.0000014238  -0.0000038508
       -0.0000039018  -0.0000052045  -0.0000023976  -0.0000030221  -0.0000017811
        0.0000059778  -0.0000024371
        0.0565393603   0.0295182975  -0.1542689591   0.0240818779   0.0178608124
        0.4957831322  -0.0042750639   0.0228688302  -0.0713136038   0.0022657574
       -0.0189648296   0.0047298576   0.0000341823   0.0002779767   0.0000391161
       -0.0000539879  -0.0000432226  -0.0003726890  -0.0000291210   0.0000298685
        0.0000188027   0.0000422027   0.0000111895  -0.0000766990  -0.0000117628
        0.0000037875  -0.0000201815  -0.0000061412  -0.0000008935  -0.0000226536
       -0.0000079087   0.0000037449  -0.0000093940   0.0000077239   0.0000079745
       -0.0000051260   0.0000010717  -0.0000015420  -0.0000045895  -0.0000149563
       -0.0000016073   0.0000149722  -0.0000297093  -0.0000462707  -0.0000279082
       -0.0000116461  -0.0000141272   0.0000242695   0.0000023005   0.0000031224
        0.0000017824   0.0000033908   0.0000050187  -0.0000072672  -0.0000076529
       -0.0000162535   0.0000145611   0.0000221928   0.0000308437  -0.0000138947
       -0.0000065960  -0.0000145911  -0.0000034229   0.0000029218   0.0000033940
       -0.0000087669   0.0000067720   0.0000122458  -0.0000585213  -0.0000078817
       -0.0000044615   0.0000918201   0.0000176610   0.0000305301  -0.0000007244
        0.0000105588  -0.0000389814  -0.0000224497   0.0033729995   0.0039527391
       -0.0055629405   0.0133322982   0.0058281557  -0.0264617752   0.0024733505
       -0.0005297917   0.0010464436  -0.0332229148   0.0054385053  -0.0484626533
       -0.0599271646  -0.0931545127  -0.1841132227  -0.0016308258   0.0058784203
       -0.0006549107  -0.0019299568   0.0257902214  -0.0085464791   0.0002415375
       -0.0000978614   0.0004291192  -0.0010986474  -0.0039309086  -0.0026470938
       -0.0004145463  -0.0006144232  -0.0000108035   0.0000892695  -0.0002236502
        0.0001604766   0.0000174030  -0.0000325060   0.0000260450   0.0001156984
        0.0001523358   0.0001397667   0.0000004925  -0.0000203374   0.0000078344
       -0.0000229233   0.0000126859   0.0000408814   0.0000074079  -0.0000029065
        0.0000256524   0.0000011927  -0.0000065787   0.0000170696  -0.0000002126
        0.0000031145   0.0000109140  -0.0000014459  -0.0000011710   0.0000083207
        0.0000020562  -0.0000020581   0.0000009763   0.0000036336   0.0000000975
        0.0000074735  -0.0000002033   0.0000015973   0.0000060630  -0.0000070517
       -0.0000051684  -0.0000036795   0.0000015850  -0.0000009073   0.0000018413
        0.0000004979  -0.0000012106   0.0000013573   0.0000007481   0.0000012110
        0.0000018140   0.0000117064   0.0000318187   0.0000247415   0.0000048484
        0.0000055825  -0.0000036160   0.0000101352   0.0000158466  -0.0000031978
        0.0000061964   0.0000122402   0.0000041424   0.0000003762  -0.0000000947
        0.0000080549  -0.0000062622  -0.0000052324   0.0000132047  -0.0000068243
       -0.0000161087   0.0000067165
        0.0005881746  -0.0139864009   0.0038703820  -0.0700172710   0.0171603576
       -0.0042750639   0.5211276078  -0.0065846724  -0.0248423419  -0.0773913991
       -0.0243333563  -0.0265992946  -0.0122311067  -0.0166593780  -0.0202981490
        0.0005385070   0.0002312283   0.0001269985   0.0000927747  -0.0001733863
       -0.0002508490   0.0001075370   0.0000245792   0.0000374508   0.0000656718
        0.0000143920   0.0000209505   0.0000208126   0.0000068646   0.0000061121
        0.0000180575  -0.0000000302   0.0000155483   0.0000065247  -0.0000028484
        0.0000026699   0.0000119750   0.0000036154   0.0000047602   0.0000301304
       -0.0000119168  -0.0000238706   0.0000558794  -0.0000060591  -0.0000196558
        0.0000093827   0.0000126124  -0.0000033148   0.0000033245   0.0000196401
        0.0000299732   0.0000076450   0.0000027516  -0.0000208705  -0.0000098785
        0.0000110941   0.0000131729   0.0000176557  -0.0000097822  -0.0000548951
        0.0000119686   0.0000173798   0.0000084128   0.0000104207   0.0000001303
       -0.0000044273  -0.0000017066   0.0000036070   0.0000698195  -0.0000005583
       -0.0000026895   0.0000115892  -0.0000899879   0.0000218271  -0.0000702778
       -0.0001502907   0.0000243740   0.0000043066  -0.0012181062  -0.0018877954
        0.0030518086   0.0003002545   0.0001130296  -0.0002949096   0.0007470697
       -0.0012886726   0.0002904013  -0.0063052533   0.0297824944  -0.0059542707
        0.0015042582  -0.0099861224   0.0006035121  -0.2572522647   0.0399878315
       -0.0300851172  -0.0998678957  -0.0217515492   0.0951295174   0.0041485324
        0.0094230071   0.0110079722   0.0012229721   0.0007498944   0.0012348861
        0.0010045345  -0.0003160324   0.0002457142  -0.0052898576   0.0000697262
       -0.0024428358  -0.0001326424  -0.0001074862  -0.0000427873  -0.0014004401
       -0.0004727050  -0.0005092554  -0.0000744824  -0.0000179383  -0.0000158319
       -0.0000446833   0.0000116552  -0.0000105547  -0.0000012946  -0.0000014506
       -0.0000112295  -0.0000056561   0.0000038339  -0.0000050249  -0.0000126696
        0.0000096655  -0.0000010304  -0.0000115505  -0.0000095295  -0.0000076524
       -0.0000144924  -0.0000024610   0.0000019954  -0.0000029713  -0.0000031655
       -0.0000044711  -0.0000037912   0.0000026929   0.0000016623   0.0000000127
       -0.0000006734  -0.0000000977  -0.0000033022   0.0000037204  -0.0000013469
       -0.0000026474  -0.0000002904  -0.0000025385  -0.0000055658  -0.0000008534
        0.0000018542  -0.0000343141  -0.0000058850   0.0000104706  -0.0000132732
       -0.0000099124   0.0000160023  -0.0000085286  -0.0000101233   0.0000037827
       -0.0000068330  -0.0000068780  -0.0000006341  -0.0000097958  -0.0000136744
       -0.0000061574  -0.0000040455  -0.0000081124  -0.0000069233  -0.0000331283
       -0.0000401741   0.0000439530
       -0.0026341182  -0.0130179123   0.0081134429   0.0159026521  -0.1822696993
        0.0228688302  -0.0065846724   0.4584211615  -0.0084352007  -0.0205213912
       -0.1114284779  -0.0523696461  -0.0038391456   0.0020984034   0.0002966420
        0.0002011667   0.0000567203   0.0000788138   0.0002261183  -0.0000124999
        0.0000331904  -0.0000738035  -0.0000931516  -0.0000197544  -0.0000126268
       -0.0000055591  -0.0000003223  -0.0000086167  -0.0000210655  -0.0000113456
        0.0000004025  -0.0000125187   0.0000006916  -0.0000174251  -0.0000212491
       -0.0000026927  -0.0000083598  -0.0000029749  -0.0000031913  -0.0000145643
        0.0000123754   0.0000039876  -0.0000053066  -0.0000457564  -0.0000121636
       -0.0000038481  -0.0000038631   0.0000066002   0.0000037497   0.0000007500
       -0.0000039863   0.0000060407   0.0000094706  -0.0000148197  -0.0000082054
       -0.0000115856   0.0000014840  -0.0000018020   0.0000174894  -0.0000195458
        0.0000006460   0.0000069902   0.0000052498  -0.0000048167   0.0000085987
       -0.0000007172   0.0000038867   0.0000136380   0.0000231747  -0.0000071826
        0.0000030809  -0.0000351544   0.0000198790  -0.0000054497  -0.0000040644
       -0.0000051466  -0.0000261866  -0.0000319886  -0.0008456977   0.0001711896
        0.0015513977   0.0001153030   0.0003769654  -0.0004497599   0.0005693369
        0.0007773704  -0.0007050050   0.0050125567  -0.0107365833   0.0030652361
        0.0016179462  -0.0234531142   0.0009490221   0.0397036464  -0.0489789164
        0.0073034746  -0.0219385667  -0.0502654697   0.0394807086   0.0006619039
        0.0019528092  -0.0006016525  -0.0083182930  -0.0246103892  -0.0220372692
        0.0001906410   0.0001510328   0.0004200414   0.0009652114   0.0006559414
        0.0006726473  -0.0000484563  -0.0000372836  -0.0000737584  -0.0003398226
        0.0001584018  -0.0001440892   0.0000246040   0.0000306634   0.0000328075
        0.0000248316   0.0000425253  -0.0000073403   0.0000141999   0.0000086905
        0.0000145673  -0.0000092741   0.0000165736  -0.0000124167   0.0000027093
        0.0000073254   0.0000115973   0.0000027626   0.0000077655  -0.0000051429
       -0.0000002748   0.0000068509   0.0000006770   0.0000051917   0.0000109479
        0.0000046813   0.0000047105   0.0000076312   0.0000028204   0.0000045324
        0.0000041747   0.0000027500  -0.0000018919   0.0000016688   0.0000012134
        0.0000048669   0.0000045138   0.0000047223   0.0000004506   0.0000022416
       -0.0000006533  -0.0000016606   0.0000267562   0.0000076018  -0.0000048412
        0.0000043727   0.0000167481  -0.0000052352   0.0000022893   0.0000118424
       -0.0000034020   0.0000011732   0.0000051346  -0.0000063975  -0.0000067073
        0.0000005125  -0.0000083528  -0.0000054203  -0.0000020460  -0.0000067488
       -0.0000067195   0.0000114154
        0.0000730147   0.0243530708  -0.0073447855  -0.0038027611   0.0272899442
       -0.0713136038  -0.0248423419  -0.0084352007   0.4946458257  -0.0247011050
       -0.0559062085  -0.1331945192  -0.0079816605  -0.0045100497  -0.0067194124
       -0.0003243177   0.0000301967  -0.0000862962   0.0000910691   0.0000643117
       -0.0001322099   0.0000538392   0.0000204253  -0.0000264263  -0.0000073355
       -0.0000041447  -0.0000513196   0.0000051395  -0.0000057856  -0.0000174544
       -0.0000056211  -0.0000037043  -0.0000143317   0.0000056926   0.0000004025
       -0.0000029463   0.0000003421  -0.0000011329  -0.0000047523   0.0000298969
       -0.0000237010   0.0000949014  -0.0000415179   0.0000165489  -0.0000565085
       -0.0000231818  -0.0000243990   0.0000046716   0.0000010064  -0.0000141073
       -0.0000085167  -0.0000066071   0.0000028300  -0.0000199331   0.0000055418
        0.0000070902   0.0000279896   0.0000113183   0.0000203352  -0.0000379145
       -0.0000072056  -0.0000176138   0.0000047044   0.0000126732   0.0000132071
       -0.0000278690  -0.0000189967  -0.0000136319  -0.0000629881  -0.0000055975
        0.0000039642   0.0000846989   0.0000376154   0.0000499743  -0.0000274163
       -0.0000149271  -0.0000901345  -0.0000775674   0.0024941617   0.0022974089
       -0.0039186988  -0.0004294707   0.0001953081   0.0004742953  -0.0007162068
       -0.0000686652   0.0007860471  -0.0018085330   0.0057642258  -0.0006024015
        0.0020646691  -0.0230401998   0.0024979826  -0.0302202907   0.0069940784
       -0.0486451076   0.0948663937   0.0397275920  -0.2067264443  -0.0056122837
       -0.0176430359  -0.0247421132   0.0012661129   0.0029882012   0.0040827365
        0.0003005774  -0.0001387605   0.0001996376  -0.0014563521   0.0001571020
        0.0004155241   0.0000135370   0.0001343828   0.0000514418   0.0007399818
       -0.0001855132   0.0003624258  -0.0001039029   0.0000035859  -0.0000240418
        0.0000142764  -0.0000059700   0.0000382564   0.0000088337   0.0000030063
        0.0000282268  -0.0000047609   0.0000010776   0.0000129915   0.0000038530
       -0.0000029491   0.0000129504   0.0000071516   0.0000110636   0.0000050476
        0.0000018801   0.0000008908   0.0000012508   0.0000029949   0.0000055325
        0.0000066162   0.0000020917   0.0000029709   0.0000069740  -0.0000045900
       -0.0000010849  -0.0000020086  -0.0000006597   0.0000039680   0.0000015271
        0.0000014160   0.0000008526   0.0000022840   0.0000014589   0.0000017685
        0.0000029657   0.0000530872   0.0000007965   0.0000019660   0.0000077298
        0.0000047377  -0.0000013809   0.0000071455   0.0000083074   0.0000036643
        0.0000020614   0.0000091208   0.0000077836  -0.0000043831   0.0000016534
        0.0000072823  -0.0000100753  -0.0000097894   0.0000054378  -0.0000318775
       -0.0000441509   0.0000108613
       -0.0000282774   0.0002992525  -0.0000460835   0.0014555110  -0.0008101886
        0.0022657574  -0.0773913991  -0.0205213912  -0.0247011050   0.4687859855
        0.0002047365  -0.0225234658  -0.1761525071   0.0143041677  -0.0341083269
       -0.0260392892   0.0000367349   0.0019754161  -0.0008921426  -0.0004194962
        0.0024840376   0.0001970458   0.0001030152  -0.0000664956   0.0000279075
        0.0000182105  -0.0000673447   0.0000330860  -0.0000043455  -0.0000201399
        0.0000187967  -0.0000153011   0.0000083866   0.0000210425  -0.0000124782
       -0.0000049609   0.0000232588   0.0000039698   0.0000002699  -0.0007855202
       -0.0000594293   0.0000227751  -0.0000191551  -0.0000653942   0.0000271688
        0.0000644366   0.0000104564   0.0000024011  -0.0000029391  -0.0000137750
       -0.0000225230   0.0000405960  -0.0000314594   0.0000117802  -0.0000470084
       -0.0000840788   0.0000810267  -0.0000046690   0.0001483034   0.0000505312
       -0.0000351291  -0.0000585356  -0.0000361009  -0.0000267688  -0.0000480846
        0.0000313900  -0.0000515842   0.0000729439   0.0000654456   0.0000263984
        0.0000007016  -0.0000737913   0.0001702355   0.0001079320  -0.0000822485
        0.0001568670  -0.0001070115   0.0000026223   0.0000236017   0.0000712379
        0.0000489419   0.0002305629  -0.0005130766   0.0000686684  -0.0000707723
       -0.0000400474  -0.0001043910   0.0000400065   0.0002776824   0.0002804922
        0.0004891874   0.0010019579   0.0000325688  -0.0140485674  -0.0176246407
       -0.0240031182   0.0050452505   0.0076548732   0.0108496706  -0.1134291198
       -0.0173445462   0.1058245151  -0.0470831331   0.0287976762  -0.0079176145
       -0.0091295207   0.0045652218  -0.0034714877  -0.0123046414  -0.0003206958
       -0.0057491854   0.0008039390   0.0004585736  -0.0008087082   0.0005281404
        0.0001121083  -0.0005779315  -0.0001628408  -0.0000315293   0.0000100276
       -0.0001226270  -0.0000223998  -0.0000015072   0.0000211835   0.0000369794
        0.0000756957  -0.0000331108  -0.0000195596   0.0000201649  -0.0000223196
       -0.0000051947   0.0000086819   0.0000004652   0.0000237787  -0.0000069949
       -0.0000204971   0.0000008838   0.0000016308  -0.0000030491   0.0000091403
        0.0000083421  -0.0000062384   0.0000071776   0.0000061284  -0.0000113636
       -0.0000026978   0.0000027065  -0.0000113847   0.0000101471  -0.0000013659
       -0.0000033686  -0.0000000580   0.0000002757  -0.0000106090   0.0000005010
        0.0000048226  -0.0000508997   0.0000030958   0.0000256687  -0.0000108978
       -0.0000054465   0.0000240234  -0.0000158165   0.0000021401   0.0000160197
       -0.0000092818  -0.0000126021   0.0000251205  -0.0000022834  -0.0000109860
       -0.0000075845  -0.0000136006  -0.0000212618   0.0000135690  -0.0001511719
       -0.0001178877   0.0000257317
        0.0002365292   0.0005105437   0.0001582223  -0.0086476817  -0.0233109798
       -0.0189648296  -0.0243333563  -0.1114284779  -0.0559062085   0.0002047365
        0.4978568886  -0.0298002966   0.0165599410  -0.0690916808   0.0048631106
       -0.0039686819   0.0003356907  -0.0006510195  -0.0010072705  -0.0004111757
        0.0006943193   0.0002338740  -0.0000997671  -0.0000925697   0.0000722574
        0.0000453821  -0.0000221499   0.0000186279   0.0000002915  -0.0000267503
        0.0000044357   0.0000065008  -0.0000032578  -0.0000159012  -0.0000054938
       -0.0000019300  -0.0000060630   0.0000024434  -0.0000035327  -0.0002113617
        0.0001548458  -0.0002245148  -0.0000547332  -0.0000344417   0.0000675808
        0.0000377511  -0.0000053788  -0.0000171482  -0.0000043704  -0.0000197665
       -0.0000074824   0.0000439693   0.0000000014   0.0000049629  -0.0000256481
       -0.0000974108   0.0000215164  -0.0000096223  -0.0000381418   0.0000234753
        0.0000154533   0.0000271533   0.0000403617   0.0000297251   0.0000087882
       -0.0000336138   0.0000058795  -0.0000055545   0.0000524806  -0.0000127118