$hessian                                                                        
        0.5138617774  -0.0200699086  -0.0272387341  -0.0789667760  -0.0217719229
       -0.0346755511   0.0011222668   0.0001410838  -0.0012785585  -0.0221421272
       -0.0183805854  -0.0177747941  -0.0009595595  -0.0005804333  -0.0008884415
        0.0005527804  -0.0004289455   0.0007106246  -0.0001876529  -0.0001056799
        0.0000715107   0.0000361586  -0.0005973130   0.0013855695  -0.0040226046
        0.0029909799  -0.0003523274   0.0020322953  -0.0014125781  -0.0004072202
        0.0000924032   0.0001483759   0.0000125155  -0.0000285416  -0.0000421272
       -0.0000456080   0.0000131088   0.0000583706  -0.0000236302  -0.0000216269
       -0.0000538500   0.0000349338  -0.0000028659   0.0000720647  -0.0000203503
        0.0000231547  -0.0000491596   0.0000278112  -0.0000008800  -0.0000086627
       -0.0000076466  -0.0000036064   0.0000004164  -0.0000008890   0.0000001488
       -0.0000002660   0.0000005692  -0.0000020058   0.0000027530  -0.0000010793
        0.0000124782   0.0000085295   0.0000083383  -0.0000085939  -0.0000106867
       -0.0000069824  -0.0000027751   0.0000001498  -0.0000000464   0.0000011071
       -0.0000001416   0.0000034673   0.0000004835  -0.0000011136   0.0000016540
        0.0000014133  -0.0000022264  -0.0000020677  -0.0000280375  -0.0000104589
        0.0000010470   0.0000188952  -0.0000029925  -0.0000012085  -0.0000071026
       -0.0000030451   0.0000009509   0.0000017210   0.0000006936   0.0000005019
       -0.0000012081  -0.0000002214   0.0000006602   0.0000019195  -0.0000018017
        0.0000001228  -0.0000055723   0.0000042870   0.0000011131   0.0000012733
       -0.0000005051  -0.0000001677  -0.0000024770  -0.0000000126  -0.0000000542
       -0.0000025623  -0.0000004181   0.0000006059  -0.0000012889  -0.0000070289
       -0.0000002882   0.0000075758  -0.0000003803  -0.0000006090  -0.0000136765
       -0.0000017862   0.0000002154   0.0000235692  -0.0000049600  -0.0000069376
       -0.0000076283   0.0000034823  -0.0000000925   0.0000109773   0.0000176158
        0.0000007730  -0.0000027649  -0.0000005125   0.0000020403  -0.0000000871
       -0.0000030738  -0.0000011129  -0.0000020781  -0.0000107634   0.0000001591
        0.0000004705   0.0000215675   0.0000074116   0.0000256893   0.0000007145
        0.0000072931  -0.0000177287  -0.0000589350  -0.0000231482  -0.0024022782
        0.0012480860   0.0005352327   0.0002668565   0.0000288963  -0.0006400288
       -0.0001368091   0.0001889795   0.0001428916   0.0005044013  -0.0003537952
       -0.0003314462  -0.0013886875   0.0008740954   0.0004513334   0.0066166504
        0.0053327152   0.0071356140  -0.0470362443  -0.0119804547   0.0227491622
       -0.0945167905   0.0997086530   0.0082788160  -0.2722023644  -0.0355915544
        0.0409964053   0.0000195280  -0.0002081929  -0.0000585455   0.0005120596
       -0.0001411355   0.0004230691   0.0004465513   0.0003148373   0.0007600213
       -0.0012157269  -0.0004053650  -0.0008688370   0.0000222114  -0.0000002974
        0.0000313543  -0.0000624867  -0.0000518467  -0.0002084788  -0.0002775722
       -0.0000658059   0.0000088860   0.0000046313   0.0000187272   0.0000337412
        0.0000014173  -0.0000032077   0.0000017937   0.0000003337  -0.0000028728
       -0.0000004396  -0.0000009521  -0.0000027326   0.0000001288  -0.0000007419
       -0.0000004699  -0.0000007204  -0.0000010490   0.0000003743  -0.0000003108
        0.0000004626   0.0000003074   0.0000001990  -0.0000014906  -0.0000011746
        0.0000006374  -0.0000024585  -0.0000000654   0.0000006336  -0.0000011450
        0.0000011270   0.0000004353   0.0000003288   0.0000004865  -0.0000013480
       -0.0000029191   0.0000006319   0.0000010300   0.0000008457  -0.0000003058
       -0.0000003519   0.0000006578  -0.0000005281  -0.0000000300   0.0000001895
       -0.0000000141   0.0000010260  -0.0000031706   0.0000005697  -0.0000003566
       -0.0000052029   0.0000031632   0.0000004042   0.0000038296  -0.0000056857
       -0.0000006213   0.0000008807   0.0000015935   0.0000045633   0.0000024082
        0.0000049641   0.0000008240   0.0000015128   0.0000002304  -0.0000014741
        0.0000006971   0.0000016870  -0.0000007216   0.0000010431   0.0000034659
       -0.0000033981  -0.0000076564  -0.0000070404   0.0000073483  -0.0000059247
       -0.0000081572   0.0000207289  -0.0000560564   0.0001364728   0.0000319811
        0.0000324437   0.0000380078   0.0000838678  -0.0000451902   0.0000040295
       -0.0000702338  -0.0004668626   0.0010700124   0.0009628714
       -0.0200699086   0.5003181080  -0.0340827795  -0.0228879445  -0.0911052342
       -0.0489079078   0.0034409300   0.0054220710   0.0077691753  -0.0109128259
       -0.0034135036  -0.0036769856   0.0011919452  -0.0009691634  -0.0007169232
       -0.0004255915  -0.0000401227   0.0004038244   0.0001657959   0.0000223171
        0.0001214321  -0.0002887888  -0.0001118287   0.0003426532  -0.0002272695
        0.0001961918  -0.0005209005  -0.0010896031   0.0003434302   0.0002101012
        0.0001023579   0.0001796918   0.0000591664  -0.0000159246  -0.0000179348
        0.0000201899  -0.0000022465   0.0000303201  -0.0000205216  -0.0000159253
       -0.0000366728   0.0000254752   0.0000395237   0.0000460366  -0.0000117383
       -0.0000072907  -0.0000247824   0.0000197766  -0.0000113492  -0.0000062692
       -0.0000030963  -0.0000041329  -0.0000008005  -0.0000017923  -0.0000034899
        0.0000028629  -0.0000001362  -0.0000006948  -0.0000016772  -0.0000021680
        0.0000136735  -0.0000040519   0.0000033172  -0.0000064170  -0.0000005618
        0.0000007320  -0.0000059713   0.0000044219   0.0000004829   0.0000036605
       -0.0000021869   0.0000037327  -0.0000000080   0.0000009365  -0.0000003077
        0.0000006803  -0.0000043282  -0.0000027255  -0.0000037152   0.0000000169
        0.0000020130  -0.0000020357   0.0000009744   0.0000008399   0.0000000927
       -0.0000010453   0.0000008226  -0.0000022568   0.0000013407   0.0000009661
        0.0000001577  -0.0000006011   0.0000006959   0.0000004646  -0.0000007817
        0.0000002837  -0.0000017217   0.0000014269   0.0000007239   0.0000021133
       -0.0000013081  -0.0000013459  -0.0000002815   0.0000002210  -0.0000016984
       -0.0000000680  -0.0000008121   0.0000010866  -0.0000015574   0.0000022463
        0.0000000482  -0.0000030447  -0.0000028024   0.0000000115  -0.0000001915
        0.0000035167   0.0000005778   0.0000056536   0.0000021621   0.0000003529
       -0.0000036874  -0.0000057704   0.0000001760  -0.0000001312   0.0000049496
       -0.0000010695  -0.0000018103   0.0000000605   0.0000006754   0.0000000298
       -0.0000049322  -0.0000035978  -0.0000086896   0.0000006092   0.0000000455
        0.0000025334   0.0000020916   0.0000020039   0.0000228033   0.0000023655
        0.0000013545  -0.0000141376  -0.0000117928  -0.0000311897   0.0033149653
       -0.0017614383  -0.0016851704  -0.0000787518  -0.0006732549   0.0012351714
        0.0001594470  -0.0000595835   0.0000828219  -0.0001301646  -0.0003661817
        0.0008417959  -0.0010380809  -0.0004653556  -0.0008688743  -0.0043618842
       -0.0253338034  -0.0198571482  -0.0119460604  -0.1017422378   0.1023811900
        0.0995130454  -0.2319625194  -0.0135046168  -0.0355671531  -0.0481906018
        0.0074838279   0.0003043880   0.0007370349   0.0006765765   0.0000128483
       -0.0005081709   0.0029941280   0.0002792799   0.0003539112   0.0002161026
        0.0007813460  -0.0000677723   0.0001667088   0.0000080461  -0.0000366458
       -0.0000686561   0.0000009441   0.0000111892  -0.0000523307  -0.0000479100
       -0.0000153397  -0.0000591726   0.0000149771  -0.0000031061   0.0000146506
       -0.0000022277  -0.0000100592  -0.0000016371   0.0000017302   0.0000011969
        0.0000003676  -0.0000005808  -0.0000020960   0.0000005143  -0.0000010582
       -0.0000003006   0.0000002882  -0.0000011928   0.0000002278   0.0000007697
        0.0000000900  -0.0000002700   0.0000002472  -0.0000005638  -0.0000006659
        0.0000007027  -0.0000012615  -0.0000001127   0.0000005619  -0.0000008462
        0.0000003540   0.0000001458  -0.0000001924  -0.0000004895   0.0000005703
       -0.0000008763   0.0000004481   0.0000001580  -0.0000004964   0.0000005690
       -0.0000006284  -0.0000007164  -0.0000001723  -0.0000004529  -0.0000005577
       -0.0000004212  -0.0000002018  -0.0000011199   0.0000000261  -0.0000003109
       -0.0000006471   0.0000006446  -0.0000008282   0.0000008533  -0.0000023198
       -0.0000014114   0.0000044158  -0.0000003504  -0.0000026604   0.0000013871
        0.0000001297  -0.0000009142  -0.0000008176   0.0000012562   0.0000006409
        0.0000009871  -0.0000001793   0.0000002862   0.0000051196  -0.0000004862
       -0.0000018848  -0.0000066378  -0.0000142290   0.0000027150   0.0000077436
       -0.0000159440  -0.0000137336   0.0000775440  -0.0002263251  -0.0001561772
       -0.0000539758   0.0000004537  -0.0002041572  -0.0000233358   0.0000101913
        0.0000071718  -0.0001957534  -0.0004766044  -0.0006329988
       -0.0272387341  -0.0340827795   0.4699709465  -0.0313640836  -0.0425354793
       -0.1204932081  -0.0109567584  -0.0114635026  -0.0289753199  -0.0043724328
        0.0000061049   0.0028993388   0.0009501547  -0.0002549813   0.0001503078
       -0.0002343141  -0.0000532822   0.0000136461   0.0000321703  -0.0001135377
        0.0000400311  -0.0003454038   0.0001159005  -0.0000961217   0.0013482363
        0.0000923909  -0.0006669566  -0.0003856425   0.0003222686  -0.0001424624
       -0.0000493080  -0.0001709600   0.0001416478   0.0000529275   0.0000814522
       -0.0000224233  -0.0000138532  -0.0000682505   0.0000221650   0.0000405668
        0.0000674992  -0.0000264730  -0.0000132069  -0.0001102156   0.0000427163
       -0.0000242261   0.0000567011  -0.0000401841  -0.0000022763   0.0000057021
        0.0000063254   0.0000019807  -0.0000054330   0.0000009361  -0.0000014475
        0.0000014510   0.0000020162   0.0000097214  -0.0000016193   0.0000026984
       -0.0000235693  -0.0000034270  -0.0000107037   0.0000086149   0.0000068312
        0.0000076116   0.0000029782  -0.0000041865  -0.0000003125  -0.0000048767
        0.0000020967  -0.0000019718  -0.0000002380  -0.0000029597   0.0000009280
       -0.0000045371   0.0000050648  -0.0000025561   0.0000135957   0.0000044433
        0.0000006863  -0.0000078402  -0.0000001761  -0.0000003474   0.0000009810
        0.0000015658   0.0000004671  -0.0000004230  -0.0000008568   0.0000003201
       -0.0000005689  -0.0000003249   0.0000004294  -0.0000027279   0.0000002537
        0.0000006370   0.0000018375  -0.0000017695  -0.0000002613   0.0000009639
        0.0000002263  -0.0000007724   0.0000000247  -0.0000009258  -0.0000009752
        0.0000008386  -0.0000012946   0.0000004031  -0.0000017454   0.0000063319
        0.0000002473  -0.0000056831  -0.0000030454  -0.0000000959   0.0000014794
        0.0000012594   0.0000005917  -0.0000023386  -0.0000003622   0.0000022629
       -0.0000000715  -0.0000038566   0.0000003732  -0.0000095170  -0.0000135072
        0.0000006213   0.0000017816   0.0000009288   0.0000007820   0.0000017002
        0.0000030069   0.0000031887   0.0000022001  -0.0000021414  -0.0000001984
       -0.0000003077   0.0000027684  -0.0000009173  -0.0000439630  -0.0000458748
        0.0000083906   0.0000211155   0.0000645216   0.0000002276   0.0003810591
        0.0007688181  -0.0007280135   0.0001986575  -0.0002895636   0.0001321669
       -0.0000767698  -0.0001300129   0.0000330627  -0.0000837434  -0.0001505827
        0.0001587245  -0.0004022525   0.0002390590   0.0001977274   0.0008629460
       -0.0090517121  -0.0031583609   0.0225282135   0.1019226607  -0.2210990759
        0.0080927451  -0.0127922840  -0.0439228688   0.0417318087   0.0077786827
       -0.0500423035   0.0000335708  -0.0009416521   0.0009092468  -0.0000533533
        0.0020756575  -0.0058464279  -0.0006077498  -0.0007766235   0.0008802554
       -0.0000487825  -0.0001276791   0.0000094606  -0.0000131399  -0.0000197017
       -0.0000473582   0.0000237707   0.0000025842   0.0000242654   0.0000687446
        0.0000567589   0.0000331349   0.0000020028  -0.0000024911  -0.0000016886
       -0.0000037199   0.0000003278   0.0000025543  -0.0000000592  -0.0000012791
       -0.0000014139  -0.0000007927  -0.0000004260   0.0000010941  -0.0000004684
       -0.0000008431  -0.0000002851  -0.0000007971  -0.0000008900   0.0000000398
       -0.0000005056  -0.0000011430   0.0000003291  -0.0000007798  -0.0000004323
        0.0000006211  -0.0000006858  -0.0000001314   0.0000004324  -0.0000008313
       -0.0000002649   0.0000001152  -0.0000016155   0.0000004283   0.0000000064
        0.0000001862  -0.0000002542   0.0000001331  -0.0000012329   0.0000008022
       -0.0000000348  -0.0000013076   0.0000003525  -0.0000006470  -0.0000010758
       -0.0000001199  -0.0000009895  -0.0000007398  -0.0000003907   0.0000000491
       -0.0000004138  -0.0000001492  -0.0000004638  -0.0000000009   0.0000010409
       -0.0000010849   0.0000055741  -0.0000013849  -0.0000052796   0.0000002482
       -0.0000009490  -0.0000010382  -0.0000010568  -0.0000008686   0.0000011707
       -0.0000007217  -0.0000004921   0.0000017516  -0.0000012324   0.0000012436
        0.0000035224   0.0000021038  -0.0000027811  -0.0000006941  -0.0000143879
        0.0000212791  -0.0000154604   0.0000294386   0.0000015978   0.0000461804
       -0.0000227860   0.0000048244  -0.0000273157  -0.0000157635  -0.0000006473
       -0.0000198675   0.0000119214  -0.0004843881  -0.0003540551
       -0.0789667760  -0.0228879445  -0.0313640836   0.4893583753  -0.0168365982
       -0.0138032303  -0.0619599476  -0.0021097063   0.0074861152  -0.1805119752
       -0.0168116770   0.0259481548  -0.0262837363   0.0068013933   0.0049479629
        0.0004512194   0.0029328328   0.0009441778  -0.0007608432   0.0000072217
        0.0001801162   0.0011937548  -0.0015090835   0.0009841043  -0.0145893701
       -0.0115357528   0.0039644483  -0.0021000467   0.0026851525  -0.0002130001
       -0.0001179794   0.0000272711   0.0000202585  -0.0000175402   0.0000677435
        0.0000586839  -0.0000097177   0.0000002062  -0.0000154920  -0.0000095433
        0.0000150869  -0.0000172118  -0.0000175425  -0.0000229793  -0.0000029284
       -0.0000009008   0.0000074633  -0.0000005370   0.0000086769   0.0000032073
        0.0000017883  -0.0000094630  -0.0000111669  -0.0000013696   0.0000055030
        0.0000018465   0.0000029393  -0.0000058558  -0.0000065679  -0.0000030935
       -0.0000008356  -0.0000147348  -0.0000037731   0.0000029390   0.0000105535
        0.0000073738  -0.0000069435   0.0000069131  -0.0000015562   0.0000011906
       -0.0000008965   0.0000019938   0.0000013499  -0.0000011268   0.0000001343
       -0.0000046711  -0.0000056368  -0.0000062720   0.0000301521   0.0000187333
        0.0000019382  -0.0000287972   0.0000018447   0.0000040347   0.0000037529
        0.0000007421   0.0000004381  -0.0000056889  -0.0000012644   0.0000012941
        0.0000001911  -0.0000007094   0.0000012736  -0.0000053071  -0.0000013301
        0.0000008561   0.0000024246  -0.0000037183  -0.0000003947   0.0000042833
       -0.0000018560  -0.0000004388   0.0000015799  -0.0000019846  -0.0000019874
        0.0000009796  -0.0000026431   0.0000011966  -0.0000020273   0.0000177622
        0.0000002844  -0.0000110798  -0.0000136393  -0.0000005476   0.0000046361
        0.0000067509   0.0000001868  -0.0000024365   0.0000030465   0.0000021040
        0.0000020328  -0.0000115772  -0.0000020814  -0.0000189888  -0.0000242312
       -0.0000002468  -0.0000007217   0.0000048851   0.0000040614   0.0000040826
       -0.0000060237  -0.0000006816  -0.0000045785   0.0000121420  -0.0000026834
        0.0000019101   0.0000006819   0.0000005909   0.0000305871   0.0000460536
       -0.0000153698   0.0000254335   0.0000871931  -0.0000021133   0.0100236002
       -0.0057773202  -0.0016344921  -0.0013352974  -0.0023958918   0.0015228805
        0.0003991092   0.0001810766  -0.0000737915  -0.0044650154  -0.0016988933
        0.0021675539  -0.0210555559   0.0255444469   0.0035189505  -0.0940858707
        0.0543148319   0.0058702525   0.0006351541   0.0011760749   0.0001387783
        0.0047086019   0.0064772455   0.0091972099  -0.0157726953  -0.0165933659
       -0.0210790449   0.0006225069   0.0072579070  -0.0120504703   0.0007583191
        0.0049900310  -0.0102995795  -0.0055151893  -0.0137224496   0.0253490555
        0.0002948536  -0.0013906199  -0.0005489484  -0.0005917376  -0.0001595046
        0.0002171544   0.0001540640  -0.0000320849  -0.0003104169  -0.0003287792
        0.0001416490  -0.0000569712  -0.0000193396  -0.0000485316  -0.0000139463
        0.0000127147  -0.0000055788  -0.0000036770   0.0000002832   0.0000020334
        0.0000005592  -0.0000010708  -0.0000010178   0.0000010680  -0.0000026793
       -0.0000013591   0.0000008483  -0.0000033916  -0.0000020166   0.0000014042
       -0.0000022007  -0.0000007114   0.0000006996  -0.0000002570  -0.0000005017
        0.0000014117  -0.0000009956  -0.0000013471   0.0000009542  -0.0000012818
       -0.0000015396   0.0000003336  -0.0000035466   0.0000013125  -0.0000014731
       -0.0000004169  -0.0000006528  -0.0000004100  -0.0000046432   0.0000006104
       -0.0000003166  -0.0000051148   0.0000004076  -0.0000005397  -0.0000038958
       -0.0000004097  -0.0000015286  -0.0000009761  -0.0000012099  -0.0000002527
       -0.0000001314  -0.0000013706  -0.0000013273   0.0000005541  -0.0000021236
       -0.0000001273   0.0000063832  -0.0000019373  -0.0000033339  -0.0000014540
       -0.0000007279  -0.0000004596  -0.0000025298  -0.0000017734  -0.0000003908
       -0.0000012708   0.0000008332  -0.0000004911   0.0000018776   0.0000021763
        0.0000037574   0.0000038098   0.0000092943  -0.0000077368   0.0000116312
       -0.0000008020  -0.0000331249   0.0001888424  -0.0007980855  -0.0002250854
       -0.0000081695  -0.0000425622  -0.0003044609  -0.0008502523   0.0010964564
        0.0002329302   0.0005597122   0.0005441236  -0.0006808233
       -0.0217719229  -0.0911052342  -0.0425354793  -0.0168365982   0.4665971722
        0.0025060932  -0.0032165511  -0.0832057357   0.0433101088  -0.0142842695
       -0.0664934523   0.0033916642   0.0212915832   0.0034075285  -0.0048896311
        0.0022997982  -0.0039968871   0.0000170493  -0.0007338339   0.0005250053
        0.0001159163  -0.0003427444  -0.0047575962   0.0006000370  -0.0252439427
       -0.0030654367   0.0056399045   0.0027416713   0.0021554878  -0.0008645928
        0.0000445942  -0.0000920655   0.0000014261   0.0000696563   0.0001381787
        0.0000329402   0.0000283489   0.0000577173  -0.0000222319   0.0000131415
        0.0000231408   0.0000188891  -0.0001054709  -0.0000147998  -0.0000199114
        0.0000464779  -0.0000231656   0.0000194756   0.0000539859   0.0000096263
        0.0000022701  -0.0000226604  -0.0000278831  -0.0000015102   0.0000102260
       -0.0000069272   0.0000086659  -0.0000095701   0.0000003049   0.0000001457
       -0.0000101631   0.0000076974   0.0000040653   0.0000010972  -0.0000043296
        0.0000001230   0.0000016737  -0.0000042023   0.0000004199  -0.0000038170
       -0.0000009988   0.0000014840  -0.0000025396  -0.0000046614  -0.0000021833
       -0.0000044463   0.0000021136  -0.0000019210   0.0000162193   0.0000027306
       -0.0000001121  -0.0000211044   0.0000020339   0.0000024465   0.0000024424
        0.0000009040   0.0000014685  -0.0000055350   0.0000001502   0.0000022169
       -0.0000001661   0.0000002292   0.0000016595  -0.0000042486  -0.0000006404
        0.0000013859   0.0000013766  -0.0000021503   0.0000000841   0.0000009018
       -0.0000010637  -0.0000010761  -0.0000000983  -0.0000002853  -0.0000017070
       -0.0000005266  -0.0000016124   0.0000001219  -0.0000022627   0.0000122418
       -0.0000002624  -0.0000074367  -0.0000038771  -0.0000011614  -0.0000020688
       -0.0000023948  -0.0000004127   0.0000003776   0.0000066109  -0.0000000436
       -0.0000009738  -0.0000087250  -0.0000029438  -0.0000064571  -0.0000080097
        0.0000006076   0.0000009308  -0.0000009789   0.0000045348   0.0000003230
       -0.0000009561   0.0000008859   0.0000084154  -0.0000070496   0.0000003241
       -0.0000113656   0.0000315683  -0.0000022098   0.0000229108   0.0000376232
       -0.0000114375   0.0001111862   0.0000985223  -0.0000936894   0.0078222239
       -0.0295170898  -0.0007803013  -0.0034692379  -0.0021557093   0.0010923861
        0.0009075542  -0.0006278402  -0.0001918851  -0.0009459953   0.0011119030
        0.0005266371   0.0109960460  -0.0019753555  -0.0019232138   0.0516873523
       -0.1569976654  -0.0064525236   0.0047499611   0.0066845982   0.0083190765
       -0.0087723093  -0.0187215909  -0.0203534077  -0.0046452684  -0.0038372182
       -0.0038512821  -0.0003037858  -0.0164650531   0.0232297551   0.0013112445
        0.0068177692  -0.0121546358  -0.0026436602  -0.0033797163   0.0055316212
        0.0003203661   0.0000446734  -0.0001965327   0.0012876417  -0.0001841174
       -0.0002948267   0.0000680630  -0.0000010418  -0.0000619918  -0.0012166452
       -0.0002644625   0.0003816200  -0.0000351696  -0.0000208450   0.0000181443
        0.0000154614   0.0000117721   0.0000023911  -0.0000013990   0.0000018333
        0.0000006267  -0.0000013078  -0.0000015983   0.0000018068  -0.0000033044
       -0.0000013501   0.0000018216  -0.0000028834  -0.0000021220   0.0000020322
       -0.0000018679  -0.0000007876   0.0000018281  -0.0000009507   0.0000000038
        0.0000026025  -0.0000008178  -0.0000005037   0.0000018809  -0.0000014357
       -0.0000012010   0.0000004697  -0.0000020947   0.0000009593  -0.0000006036
        0.0000003772  -0.0000001262  -0.0000006822  -0.0000023045   0.0000004256
       -0.0000012385  -0.0000030849  -0.0000008004  -0.0000014973  -0.0000032204
       -0.0000010504  -0.0000012276  -0.0000005797  -0.0000013022  -0.0000005924
       -0.0000009830  -0.0000018899  -0.0000023575  -0.0000054705   0.0000025243
       -0.0000031902   0.0000059721  -0.0000132079  -0.0000045048   0.0000013540
        0.0000014308  -0.0000005637  -0.0000017450  -0.0000010801  -0.0000001928
       -0.0000018399   0.0000014026   0.0000015970   0.0000023522   0.0000062731
        0.0000004619  -0.0000122168   0.0000129426  -0.0000012522  -0.0000252333
       -0.0000370306  -0.0000067690   0.0005377307  -0.0008449185  -0.0001641546
       -0.0001518269   0.0001896013  -0.0000626881  -0.0003769006   0.0001278768
        0.0000326533  -0.0011967263  -0.0002347841   0.0001288060
       -0.0346755511  -0.0489079078  -0.1204932081  -0.0138032303   0.0025060932
        0.4286066468   0.0105689493   0.0497673052  -0.1454139083   0.0249017730
        0.0031570210  -0.0594843833   0.0042788064  -0.0014862851  -0.0012579505
        0.0015980028   0.0000422357   0.0063877567   0.0003096799  -0.0003428268
       -0.0000955157   0.0011817357   0.0010010709   0.0062302931   0.0049686027
        0.0040287361   0.0004431676  -0.0000012530  -0.0009712027  -0.0034782721
        0.0000659126   0.0000086039   0.0001852346   0.0000615389  -0.0001430379
        0.0000236702   0.0000044534   0.0000109220  -0.0000677247   0.0000274694
       -0.0000103937   0.0000407683   0.0000171229   0.0000034147   0.0000234569
       -0.0000137643   0.0000158951  -0.0000256024  -0.0000156304  -0.0000049692
       -0.0000050652   0.0000033006   0.0000046692  -0.0000002366  -0.0000054374
        0.0000005467  -0.0000022330  -0.0000042706  -0.0000065116   0.0000006685
        0.0000085811  -0.0000004010   0.0000088271  -0.0000028529  -0.0000030788
       -0.0000095549   0.0000000749   0.0000000664  -0.0000002708   0.0000005799
        0.0000021523  -0.0000001923   0.0000016172   0.0000024681   0.0000002763
        0.0000021663  -0.0000010702   0.0000063906   0.0000087401   0.0000079896
       -0.0000067459  -0.0000034808  -0.0000003036   0.0000033740   0.0000011054
        0.0000017878  -0.0000014000   0.0000017150  -0.0000008505  -0.0000008761
       -0.0000002899   0.0000005953  -0.0000008147  -0.0000016879   0.0000015223
       -0.0000007194   0.0000023765  -0.0000027114  -0.0000018566  -0.0000020371
        0.0000015312   0.0000046931   0.0000009073  -0.0000000170   0.0000008940
       -0.0000001964   0.0000020358  -0.0000007163   0.0000002826   0.0000010473
       -0.0000005517  -0.0000002273   0.0000036731  -0.0000011999   0.0000019621
       -0.0000005657  -0.0000065646  -0.0000108612   0.0000012636  -0.0000060062
        0.0000012654   0.0000050979  -0.0000044183  -0.0000058217  -0.0000126371
        0.0000036869  -0.0000011381   0.0000030240   0.0000005748   0.0000021242
       -0.0000009776   0.0000038617   0.0000004329   0.0000062581  -0.0000091411
        0.0000037922   0.0000001569   0.0000063402  -0.0000226042  -0.0000355220
       -0.0000605639   0.0001341629   0.0000045279   0.0000126731  -0.0026640738
        0.0009393704   0.0021986959   0.0015722294   0.0005816904   0.0061717001
        0.0002146828   0.0000803058  -0.0000958836   0.0023984805   0.0000764310
        0.0062135022   0.0036753522  -0.0050789792  -0.0011083339   0.0059412164
       -0.0057737127  -0.0553243090  -0.0107471511  -0.0131998592  -0.0242660014
       -0.0009747674  -0.0047358151  -0.0035370874  -0.0006436101   0.0006874041
        0.0020593463  -0.0007356571   0.0033779983  -0.0016727658   0.0004690266
        0.0092845603  -0.0245176414   0.0039210028   0.0051584678  -0.0086737163
       -0.0007102163   0.0001471712  -0.0026923038   0.0001145471   0.0000476549
        0.0001062086  -0.0004299685  -0.0001159926  -0.0014495698   0.0000054865
       -0.0000558079  -0.0004218631  -0.0000618391  -0.0000002111  -0.0000593195
       -0.0000144301  -0.0000051052  -0.0000065988  -0.0000003241  -0.0000009429
        0.0000016444  -0.0000003661  -0.0000004249   0.0000009619  -0.0000009353
       -0.0000018670  -0.0000013970  -0.0000019671   0.0000005174  -0.0000019905
        0.0000001868   0.0000001274   0.0000007035   0.0000003651   0.0000006773
        0.0000003112   0.0000012155   0.0000004642   0.0000003490   0.0000007061
       -0.0000001064   0.0000004838   0.0000004953   0.0000016682  -0.0000018908
        0.0000014058  -0.0000003236  -0.0000002742   0.0000008557  -0.0000009830
        0.0000007434   0.0000006050   0.0000009675   0.0000007993   0.0000003933
       -0.0000012011  -0.0000026708   0.0000015642   0.0000000010   0.0000005009
        0.0000013150  -0.0000015746   0.0000017013  -0.0000000020   0.0000021217
        0.0000045756   0.0000074897  -0.0000010121   0.0000075034  -0.0000002738
       -0.0000034046   0.0000027051   0.0000010223  -0.0000014617  -0.0000011913
       -0.0000007776   0.0000009846  -0.0000010951   0.0000007843  -0.0000019965
        0.0000027159  -0.0000045905   0.0000066204  -0.0000041246  -0.0000405827
        0.0000473675  -0.0000577137  -0.0001370156   0.0002087517  -0.0003686975
       -0.0003090009   0.0000430454  -0.0014738314   0.0002263641  -0.0002374137
        0.0000959074  -0.0006681422  -0.0001366156  -0.0026883505
        0.0011222668   0.0034409300  -0.0109567584  -0.0619599476  -0.0032165511
        0.0105689493   0.5268813789  -0.0051482149   0.0042174227  -0.0099369012
       -0.0148840580   0.0243663714  -0.0007517384  -0.0002248811   0.0011541118
        0.0001579583  -0.0005354510  -0.0007620530  -0.0002346942   0.0000713819
        0.0000297337  -0.0003953014  -0.0007757761  -0.0011573249  -0.0041221583
        0.0020481042   0.0015813925   0.0020973265  -0.0010051818  -0.0004409763
        0.0000188028   0.0000350585  -0.0000450006   0.0000217337   0.0000061651
        0.0000108844   0.0000078574   0.0000031596   0.0000105607   0.0000037031
        0.0000100893  -0.0000039811  -0.0000067026   0.0000152817   0.0000029812
        0.0000072388  -0.0000119878  -0.0000007211   0.0000003124  -0.0000064775
       -0.0000015155  -0.0000000200  -0.0000004717   0.0000001892  -0.0000005982
       -0.0000028509   0.0000006289  -0.0000005169   0.0000045861   0.0000024905
        0.0000035290   0.0000166759   0.0000108540  -0.0000061587  -0.0000140276
       -0.0000111640   0.0000035926  -0.0000056214  -0.0000003908  -0.0000019975
        0.0000014695   0.0000012200   0.0000001544  -0.0000033916  -0.0000002534
       -0.0000008226   0.0000042031   0.0000033597  -0.0000284852  -0.0000186350
       -0.0000036723   0.0000166965  -0.0000029976  -0.0000013292  -0.0000059009
       -0.0000022160   0.0000000239   0.0000017520  -0.0000006627  -0.0000001067
       -0.0000020279   0.0000001019   0.0000001313   0.0000025336  -0.0000004898
       -0.0000002962  -0.0000045692   0.0000038653   0.0000001032  -0.0000006187
       -0.0000004283   0.0000015783  -0.0000023350  -0.0000000704   0.0000001574
       -0.0000031395   0.0000006741  -0.0000006174  -0.0000020131  -0.0000109083
       -0.0000005444   0.0000117036   0.0000038639  -0.0000014596  -0.0000109315
       -0.0000039055  -0.0000038546   0.0000188587  -0.0000040265  -0.0000103119
       -0.0000057342   0.0000088356  -0.0000018973   0.0000167586   0.0000209699
        0.0000041349   0.0000003566  -0.0000018219   0.0000029756   0.0000002582
        0.0000012119   0.0000018501   0.0000031335  -0.0000128383  -0.0000041000
        0.0000007306   0.0000241326   0.0000076992  -0.0000122673  -0.0000161727
        0.0000009210  -0.0000036173  -0.0000021974  -0.0000438109  -0.0026923684
        0.0006840251   0.0002411682   0.0004090661   0.0001416780   0.0005409018
       -0.0000793623   0.0002498763  -0.0000876989   0.0005971099  -0.0003108477
        0.0001483952  -0.0011459975   0.0008680074  -0.0000723927   0.0022152247
        0.0083263137  -0.0104236421  -0.0004723678  -0.0011149340  -0.0024084431
        0.0001666860   0.0001810405   0.0003643124   0.0004151374   0.0005298287