91
 energy: -144.974666650038 gnorm: 0.000151063374 xtb: 6.7.1 (edcfbbe)
N          -10.17861694978687        2.62564740612586        1.02911658465123
C           -9.25356627301343        2.04679589763141        0.66909337219060
C           -8.08631383172788        1.36179467643131        0.29013003612775
C           -7.06020224091072        1.99378572979421       -0.44578293475195
C           -7.20997334423437        3.32945619416506       -1.03177722204584
C           -6.10194097093380        4.17457378890765       -1.06860261911827
C           -6.20812001965836        5.43848122596226       -1.61446119508542
C           -7.41544722826280        5.86705542954860       -2.14290073182882
C           -8.51386264651283        5.02352462848084       -2.13024604636338
C           -8.41627119066772        3.75991635775143       -1.57788372751812
N           -5.89218141588117        1.39961522351860       -0.62670469787249
C           -5.70721410913601        0.18413208455639       -0.11930607724914
C           -4.39815452572096       -0.43320170512160       -0.29654571759300
C           -3.38832959943709        0.24252379117823       -0.98275455117637
C           -2.15219068241731       -0.34000945245219       -1.15475591892476
C           -1.89811488869879       -1.61220091236169       -0.63997607294592
N           -0.64707382056839       -2.20384073386601       -0.81905995570377
C           -0.41523301003845       -3.48853889207805       -1.27756479488606
C           -1.31777035345928       -4.45712247512023       -1.69186685379900
C           -0.81077534569083       -5.66176476119892       -2.14161872112090
C            0.56015017444164       -5.90157301671541       -2.19157616531183
C            1.46397268727248       -4.93071002359291       -1.80828643881516
C            0.97812531718664       -3.71293507131732       -1.35249417329437
C            1.61291826958699       -2.50127054253097       -0.91171854956841
C            2.93858277426070       -2.12889749648418       -0.75442660970482
C            3.23417052005472       -0.86301109950267       -0.26522274124202
C            4.63121993251200       -0.43475618627455       -0.09744539853531
C            5.57559570846420       -0.73108785745427       -1.08988692812909
C            6.89424130983449       -0.33865512607490       -0.98886073518788
C            7.27754299025931        0.37225256902896        0.13951335564119
C            6.34822140250635        0.65312501433372        1.16701315498268
C            5.02604584230010        0.25621488583578        1.04051124906496
C            7.07565634507867        1.34156860656997        2.19662550967910
C            6.71429096338262        1.87857069779366        3.42497806053956
C            7.68040126924387        2.51357049825560        4.17930936720283
C            8.98886310561027        2.63029991479267        3.71548701151347
C            9.37257546871062        2.10415920861672        2.49682020575376
C            8.41186051169045        1.44281408220632        1.74532493337801
N            8.51953423922277        0.85363612711540        0.50090966259022
C            9.68625320062725        0.77302582422439       -0.27172239154382
C           10.86422670594623        0.28520290129346        0.28660684581279
C           12.01356670329721        0.21561995340241       -0.47861954278100
C           11.99693379386575        0.61897694894527       -1.80347912264665
C           10.82394199134968        1.09862913481627       -2.36232730905968
C            9.67231872943497        1.18217591280591       -1.60221701445481
C            2.18981890555099        0.00622730958522        0.07691260144224
C            0.86339112472984       -0.34148488899827       -0.07864204948166
C            0.57540822375500       -1.59628628754663       -0.59548232670650
C           -2.90527614155354       -2.28849054034187        0.04975304590739
C           -4.14217428707757       -1.70528097860148        0.21649299116793
N           -6.63939919290787       -0.51159617222602        0.52580932341700
C           -7.82080708242295        0.04708286372681        0.73168393772357
C           -8.81012509047449       -0.76335214756393        1.44892617100384
C          -10.16537179608278       -0.71532126695683        1.13321648828969
C          -11.06592250274452       -1.50090166951106        1.82833043504218
C          -10.62673916356892       -2.33750906495682        2.84097098425530
C           -9.27709188475612       -2.40105576796799        3.14914296019274
C           -8.37152132965610       -1.62505312400755        2.45306190524507
H           -5.16871308034566        3.82636415449127       -0.65302273476635
H           -5.34837950960244        6.09199899047106       -1.62967689190108
H           -7.49866354641521        6.85548458302141       -2.56988565746540
H           -9.45192280669583        5.34971356893358       -2.55368753629119
H           -9.27241433563878        3.10224183122851       -1.59300876953506
H           -3.59972805376036        1.21994864115922       -1.38702684887741
H           -1.37921033174690        0.17154077256110       -1.70834510605666
H           -2.38183131340958       -4.27619961528359       -1.67906351713778
H           -1.49416473329096       -6.43276118006624       -2.46560118272193
H            0.91642753178760       -6.85727217869130       -2.54609214071684
H            2.52738069404763       -5.10785203736614       -1.86446584229907
H            3.73042026941975       -2.82553386573796       -0.98481226838484
H            5.25311657392755       -1.26803096869260       -1.96986384725681
H            7.60483240819919       -0.58644837695970       -1.76310734214397
H            4.31901746912074        0.45964901314841        1.83068828892231
H            5.69644468452708        1.80138828708749        3.77666558555328
H            7.42130441973710        2.93551680736453        5.13900699683429
H            9.71948082871168        3.14675782265994        4.32056787126028
H           10.38488923946329        2.21596684849150        2.13853485685631
H           10.86765638519060       -0.04935553606162        1.31327629176017
H           12.92489664286909       -0.16343443824158       -0.04018204555752
H           12.89551101699736        0.55966809203134       -2.39881056334587
H           10.80732019177708        1.41814173226433       -3.39388412195923
H            8.76156889565155        1.57662712407709       -2.02763956783754
H            2.43416104089001        0.98658815432263        0.45853911791690
H            0.07834791085935        0.34337792944769        0.20438680029267
H           -2.69968154408484       -3.26252768882137        0.46760961586300
H           -4.92771493099478       -2.21834675034516        0.74861463330455
H          -10.51528378030224       -0.08298972206906        0.33103193313323
H          -12.11505751605766       -1.45980221197114        1.57675666945391
H          -11.33511750165731       -2.94405734725891        3.38551569088725
H           -8.93154501466997       -3.05796823444693        3.93370454260002
H           -7.31739449666773       -1.66294182731322        2.68174923121850
