      -----------------------------------------------------------      
     |                   =====================                   |     
     |                           x T B                           |     
     |                   =====================                   |     
     |                         S. Grimme                         |     
     |          Mulliken Center for Theoretical Chemistry        |     
     |                    University of Bonn                     |     
      -----------------------------------------------------------      

   * xtb version 6.7.1 (edcfbbe) compiled by 'albert@albert-system' on 2024-07-22

   xtb is free software: you can redistribute it and/or modify it under
   the terms of the GNU Lesser General Public License as published by
   the Free Software Foundation, either version 3 of the License, or
   (at your option) any later version.
   
   xtb is distributed in the hope that it will be useful,
   but WITHOUT ANY WARRANTY; without even the implied warranty of
   MERCHANTABILITY or FITNESS FOR A PARTICULAR PURPOSE.  See the
   GNU Lesser General Public License for more details.
   
   Cite this work as:
   * C. Bannwarth, E. Caldeweyher, S. Ehlert, A. Hansen, P. Pracht,
     J. Seibert, S. Spicher, S. Grimme, WIREs Comput. Mol. Sci., 2020, 11,
     e01493. DOI: 10.1002/wcms.1493
   
   for GFN2-xTB:
   * C. Bannwarth, S. Ehlert and S. Grimme., J. Chem. Theory Comput., 2019,
     15, 1652-1671. DOI: 10.1021/acs.jctc.8b01176
   for GFN1-xTB:
   * S. Grimme, C. Bannwarth, P. Shushkov, J. Chem. Theory Comput., 2017,
     13, 1989-2009. DOI: 10.1021/acs.jctc.7b00118
   for GFN0-xTB:
   * P. Pracht, E. Caldeweyher, S. Ehlert, S. Grimme, ChemRxiv, 2019, preprint.
     DOI: 10.26434/chemrxiv.8326202.v1
   for GFN-FF:
   * S. Spicher and S. Grimme, Angew. Chem. Int. Ed., 2020, 59, 15665-15673.
     DOI: 10.1002/anie.202004239
   
   for ALPB and GBSA implicit solvation:
   * S. Ehlert, M. Stahn, S. Spicher, S. Grimme, J. Chem. Theory Comput.,
     2021, 17, 4250-4261. DOI: 10.1021/acs.jctc.1c00471
   
   for ddCOSMO and CPCM-X implicit solvation:
   * M. Stahn, S. Ehlert, S. Grimme, J. Phys. Chem. A,
     2023, XX, XXXX-XXXX. DOI: 10.1021/acs.jpca.3c04382
   
   for DFT-D4:
   * E. Caldeweyher, C. Bannwarth and S. Grimme, J. Chem. Phys., 2017,
     147, 034112. DOI: 10.1063/1.4993215
   * E. Caldeweyher, S. Ehlert, A. Hansen, H. Neugebauer, S. Spicher,
     C. Bannwarth and S. Grimme, J. Chem. Phys., 2019, 150, 154122.
     DOI: 10.1063/1.5090222
   * E. Caldeweyher, J.-M. Mewes, S. Ehlert and S. Grimme, Phys. Chem. Chem. Phys.
     2020, 22, 8499-8512. DOI: 10.1039/D0CP00502A
   
   for sTDA-xTB:
   * S. Grimme and C. Bannwarth, J. Chem. Phys., 2016, 145, 054103.
     DOI: 10.1063/1.4959605
   
   in the mass-spec context:
   * V. Asgeirsson, C. Bauer and S. Grimme, Chem. Sci., 2017, 8, 4879.
     DOI: 10.1039/c7sc00601b
   * J. Koopman and S. Grimme, ACS Omega 2019, 4, 12, 15120-15133.
     DOI: 10.1021/acsomega.9b02011
   
   for metadynamics refer to:
   * S. Grimme, J. Chem. Theory Comput., 2019, 155, 2847-2862
     DOI: 10.1021/acs.jctc.9b00143
   
   for SPH calculations refer to:
   * S. Spicher and S. Grimme, J. Chem. Theory Comput., 2021, 17, 1701-1714
     DOI: 10.1021/acs.jctc.0c01306
   
   for ONIOM refer to:
   * C. Plett, A. Katbashev, S. Ehlert, S. Grimme, M. Bursch,
     Phys. Chem. Chem. Phys., 2023, 25, 17860-17868. DOI: 10.1039/D3CP02178E
   
   for DIPRO refer to:
   * J. Kohn, N. Gildemeister, S. Grimme, D. Fazzi, A. Hansen,
     J. Chem. Phys., 2023, just accepted.
   
   for PTB refer to:
   * S. Grimme, M. Mueller, A. Hansen, J. Chem. Phys., 2023, 158, 124111.
     DOI: 10.1063/5.0137838
   
   with help from (in alphabetical order)
   P. Atkinson, C. Bannwarth, F. Bohle, G. Brandenburg, E. Caldeweyher
   M. Checinski, S. Dohm, S. Ehlert, S. Ehrlich, I. Gerasimov, C. Hölzer
   A. Katbashev, J. Kohn, J. Koopman, C. Lavigne, S. Lehtola, F. März, M. Müller,
   F. Musil, H. Neugebauer, J. Pisarek, C. Plett, P. Pracht, F. Pultar,
   J. Seibert, P. Shushkov, S. Spicher, M. Stahn, M. Steiner, T. Strunk,
   J. Stückrath, T. Rose, and J. Unsleber
   
 * started run on 2025/08/25 at 01:07:21.442     
   ID    Z sym.   atoms
    1    6 C      1-5, 7-13, 15-18, 20-33, 35-41, 43-49, 51, 52, 54-65, 67, 68
    2    7 N      6, 14, 19, 34, 42, 50, 53, 66
    3    1 H      69-106

           -------------------------------------------------
          |                Calculation Setup                |
           -------------------------------------------------

          program call               : xtb data2507/gas/p2Cz2Trz/p2Cz2Trz_gas_S0_crest.xyz --gfn 2 --ohess vtight --parallel 40 --molden --ceasefiles --namespace data2507/gas/p2Cz2Trz/p2Cz2Trz_gas_S0_finalOpt
          calculation namespace      : data2507/gas/p2Cz2Trz/p2Cz2Trz_gas_S0_finalOpt
          coordinate file            : data2507/gas/p2Cz2Trz/p2Cz2Trz_gas_S0_crest.xyz
          omp threads                :                    40


           -------------------------------------------------
          |                 G F N 2 - x T B                 |
           -------------------------------------------------

        Reference                      10.1021/acs.jctc.8b01176
      * Hamiltonian:
        H0-scaling (s, p, d)           1.850000    2.230000    2.230000
        zeta-weighting                 0.500000
      * Dispersion:
        s8                             2.700000
        a1                             0.520000
        a2                             5.000000
        s9                             5.000000
      * Repulsion:
        kExp                           1.500000    1.000000
        rExp                           1.000000
      * Coulomb:
        alpha                          2.000000
        third order                    shell-resolved
        anisotropic                    true
        a3                             3.000000
        a5                             4.000000
        cn-shift                       1.200000
        cn-exp                         4.000000
        max-rad                        5.000000


          ...................................................
          :                      SETUP                      :
          :.................................................:
          :  # basis functions                 310          :
          :  # atomic orbitals                 310          :
          :  # shells                          174          :
          :  # electrons                       318          :
          :  max. iterations                   250          :
          :  Hamiltonian                  GFN2-xTB          :
          :  restarted?                      false          :
          :  GBSA solvation                  false          :
          :  PC potential                    false          :
          :  electronic temp.          300.0000000     K    :
          :  accuracy                    1.0000000          :
          :  -> integral cutoff          0.2500000E+02      :
          :  -> integral neglect         0.1000000E-07      :
          :  -> SCF convergence          0.1000000E-05 Eh   :
          :  -> wf. convergence          0.1000000E-03 e    :
          :  Broyden damping             0.4000000          :
          :  net charge                          0          :
          :  unpaired electrons                  0          :
          ...................................................

 iter      E             dE          RMSdq      gap      omega  full diag
   1   -174.3042709 -0.174304E+03  0.413E+00    1.84       0.0  T
   2   -174.4555033 -0.151232E+00  0.258E+00    1.99       1.0  T
   3   -174.4311425  0.243608E-01  0.119E+00    1.56       1.0  T
   4   -174.4912246 -0.600822E-01  0.264E-01    1.59       1.0  T
   5   -174.4963453 -0.512071E-02  0.106E-01    1.64       1.0  T
   6   -174.4973379 -0.992565E-03  0.350E-02    1.64       1.0  T
   7   -174.4974146 -0.767183E-04  0.161E-02    1.65       1.0  T
   8   -174.4974141  0.503298E-06  0.747E-03    1.65       1.3  T
   9   -174.4974189 -0.477446E-05  0.141E-03    1.65       6.9  T
  10   -174.4974190 -0.105731E-06  0.645E-04    1.65      15.1  T
  11   -174.4974190 -0.213003E-07  0.263E-04    1.65      36.9  T

   *** convergence criteria satisfied after 11 iterations ***

         #    Occupation            Energy/Eh            Energy/eV
      -------------------------------------------------------------
         1        2.0000           -0.6869981             -18.6942
       ...           ...                  ...                  ...
       153        2.0000           -0.3772329             -10.2650
       154        2.0000           -0.3744657             -10.1897
       155        2.0000           -0.3742015             -10.1825
       156        2.0000           -0.3732546             -10.1568
       157        2.0000           -0.3724047             -10.1336
       158        2.0000           -0.3635036              -9.8914
       159        2.0000           -0.3584506              -9.7539 (HOMO)
       160                         -0.2979383              -8.1073 (LUMO)
       161                         -0.2869937              -7.8095
       162                         -0.2867393              -7.8026
       163                         -0.2747652              -7.4767
       164                         -0.2502758              -6.8104
       ...                                ...                  ...
       310                          0.7497171              20.4008
      -------------------------------------------------------------
                  HL-Gap            0.0605123 Eh            1.6466 eV
             Fermi-level           -0.3281944 Eh           -8.9306 eV

 SCC (total)                   0 d,  0 h,  0 min,  0.221 sec
 SCC setup                      ...        0 min,  0.001 sec (  0.371%)
 Dispersion                     ...        0 min,  0.006 sec (  2.596%)
 classical contributions        ...        0 min,  0.000 sec (  0.072%)
 integral evaluation            ...        0 min,  0.014 sec (  6.158%)
 iterations                     ...        0 min,  0.179 sec ( 81.170%)
 molecular gradient             ...        0 min,  0.019 sec (  8.786%)
 printout                       ...        0 min,  0.002 sec (  0.804%)

         :::::::::::::::::::::::::::::::::::::::::::::::::::::
         ::                     SUMMARY                     ::
         :::::::::::::::::::::::::::::::::::::::::::::::::::::
         :: total energy            -171.362248177719 Eh    ::
         :: gradient norm              0.000309963205 Eh/a0 ::
         :: HOMO-LUMO gap              1.646622899312 eV    ::
         ::.................................................::
         :: SCC energy              -174.493692259310 Eh    ::
         :: -> isotropic ES            0.075496168204 Eh    ::
         :: -> anisotropic ES          0.006410558519 Eh    ::
         :: -> anisotropic XC          0.119350511570 Eh    ::
         :: -> dispersion             -0.175704333242 Eh    ::
         :: repulsion energy           3.131444081591 Eh    ::
         :: add. restraining           0.000000000000 Eh    ::
         :: total charge              -0.000000000000 e     ::
         :::::::::::::::::::::::::::::::::::::::::::::::::::::

      ----------------------------------------------------------- 
     |                   =====================                   |
     |                        A N C O P T                        |
     |                   =====================                   |
     |               Approximate Normal Coordinate               |
     |                Rational Function Optimizer                |
      ----------------------------------------------------------- 

Optimization log is written to '/dev/null'
      ----------------------------------------------------------- 
     |                   =====================                   |
     |                        A N C O P T                        |
     |                   =====================                   |
     |               Approximate Normal Coordinate               |
     |                Rational Function Optimizer                |
      ----------------------------------------------------------- 

          ...................................................
          :                      SETUP                      :
          :.................................................:
          :   optimization level         verytight          :
          :   max. optcycles                  2120          :
          :   ANC micro-cycles                  20          :
          :   degrees of freedom               312          :
          :.................................................:
          :   RF solver                   davidson          :
          :   write xtbopt.log                true          :
          :   linear?                        false          :
          :   energy convergence         0.1000000E-06 Eh   :
          :   grad. convergence          0.2000000E-03 Eh/α :
          :   maxmium RF displ.          1.0000000          :
          :   Hlow (freq-cutoff)         0.1000000E-01      :
          :   Hmax (freq-cutoff)         5.0000000          :
          :   S6 in model hess.         20.0000000          :
          ...................................................

generating ANC from exact Hessian ...
Using Lindh-Hessian (1995)
 Shifting diagonal of input Hessian by   9.968424989561041E-003
 Lowest  eigenvalues of input Hessian
    0.000000    0.000000    0.000000    0.000000    0.000000    0.000000
    0.010000    0.010059    0.010083    0.010186    0.010247    0.010385
    0.010442    0.010663    0.010776    0.010896    0.010956    0.010966
 Highest eigenvalues
    2.196201    2.212967    2.223003    2.232997    2.234157    2.267405
 

........................................................................
.............................. CYCLE    1 ..............................
........................................................................

 iter      E             dE          RMSdq      gap      omega  full diag
   1   -174.4974190 -0.174497E+03  0.742E-05    1.65       0.0  T
   2   -174.4974190 -0.140773E-09  0.423E-05    1.65     229.8  T
   3   -174.4974190 -0.775344E-10  0.263E-05    1.65     369.3  T
     SCC iter.                  ...        0 min,  0.052 sec
     gradient                   ...        0 min,  0.018 sec
 * total energy  :  -171.3622482 Eh     change       -0.3572438E-08 Eh
   gradient norm :     0.0003094 Eh/α   predicted     0.0000000E+00 (-100.00%)
   displ. norm   :     0.0087352 α      lambda       -0.1310142E-06
   maximum displ.:     0.0038002 α      in ANC's #6, #8, #21, ...

........................................................................
.............................. CYCLE    2 ..............................
........................................................................

 iter      E             dE          RMSdq      gap      omega  full diag
   1   -174.4975285 -0.174498E+03  0.304E-03    1.65       0.0  T
   2   -174.4975285 -0.292886E-08  0.180E-03    1.65       5.4  T
   3   -174.4975285  0.738314E-08  0.235E-04    1.65      41.3  T
   4   -174.4975285 -0.857543E-08  0.558E-05    1.65     174.0  T
     SCC iter.                  ...        0 min,  0.064 sec
     gradient                   ...        0 min,  0.018 sec
 * total energy  :  -171.3622488 Eh     change       -0.6379064E-06 Eh
   gradient norm :     0.0001942 Eh/α   predicted    -0.4762954E-06 ( -25.33%)
   displ. norm   :     0.0095714 α      lambda       -0.4462468E-06
   maximum displ.:     0.0049133 α      in ANC's #6, #8, #21, ...

........................................................................
.............................. CYCLE    3 ..............................
........................................................................

 iter      E             dE          RMSdq      gap      omega  full diag
   1   -174.4975541 -0.174498E+03  0.190E-03    1.65       0.0  T
   2   -174.4975541 -0.131297E-08  0.112E-03    1.65       8.7  T
   3   -174.4975541  0.231296E-08  0.137E-04    1.65      70.7  T
   4   -174.4975541 -0.285235E-08  0.352E-05    1.65     275.8  T
     SCC iter.                  ...        0 min,  0.063 sec
     gradient                   ...        0 min,  0.018 sec
 * total energy  :  -171.3622494 Eh     change       -0.5762468E-06 Eh
   gradient norm :     0.0001357 Eh/α   predicted    -0.2239547E-06 ( -61.14%)
   displ. norm   :     0.0342902 α      lambda       -0.1153333E-05
   maximum displ.:     0.0170754 α      in ANC's #6, #8, #13, ...

........................................................................
.............................. CYCLE    4 ..............................
........................................................................

 iter      E             dE          RMSdq      gap      omega  full diag
   1   -174.4975136 -0.174498E+03  0.627E-03    1.65       0.0  T
   2   -174.4975136 -0.129523E-07  0.366E-03    1.65       2.7  T
   3   -174.4975136  0.158707E-07  0.396E-04    1.65      24.5  T
   4   -174.4975136 -0.211762E-07  0.985E-05    1.65      98.6  T
     SCC iter.                  ...        0 min,  0.062 sec
     gradient                   ...        0 min,  0.018 sec
 * total energy  :  -171.3622506 Eh     change       -0.1160739E-05 Eh
   gradient norm :     0.0001685 Eh/α   predicted    -0.5770931E-06 ( -50.28%)
   displ. norm   :     0.0265821 α      lambda       -0.4652899E-06
   maximum displ.:     0.0142060 α      in ANC's #6, #8, #13, ...

........................................................................
.............................. CYCLE    5 ..............................
........................................................................

 iter      E             dE          RMSdq      gap      omega  full diag
   1   -174.4975122 -0.174498E+03  0.425E-03    1.65       0.0  T
   2   -174.4975122 -0.505949E-08  0.249E-03    1.65       3.9  T
   3   -174.4975122  0.102826E-07  0.285E-04    1.65      34.1  T
   4   -174.4975122 -0.127182E-07  0.583E-05    1.65     166.6  T
     SCC iter.                  ...        0 min,  0.066 sec
     gradient                   ...        0 min,  0.018 sec
 * total energy  :  -171.3622511 Eh     change       -0.5834770E-06 Eh
   gradient norm :     0.0001708 Eh/α   predicted    -0.2521748E-06 ( -56.78%)
   displ. norm   :     0.0272937 α      lambda       -0.5121951E-06
   maximum displ.:     0.0150544 α      in ANC's #6, #8, #1, ...

........................................................................
.............................. CYCLE    6 ..............................
........................................................................

 iter      E             dE          RMSdq      gap      omega  full diag
   1   -174.4975110 -0.174498E+03  0.394E-03    1.65       0.0  T
   2   -174.4975110 -0.360558E-08  0.231E-03    1.65       4.2  T
   3   -174.4975110  0.937899E-08  0.261E-04    1.65      37.2  T
   4   -174.4975110 -0.112454E-07  0.466E-05    1.65     208.6  T
     SCC iter.                  ...        0 min,  0.063 sec
     gradient                   ...        0 min,  0.018 sec
 * total energy  :  -171.3622518 Eh     change       -0.6488073E-06 Eh
   gradient norm :     0.0001051 Eh/α   predicted    -0.2583456E-06 ( -60.18%)
   displ. norm   :     0.0384302 α      lambda       -0.7312159E-06
   maximum displ.:     0.0213868 α      in ANC's #6, #8, #1, ...

........................................................................
.............................. CYCLE    7 ..............................
........................................................................

 iter      E             dE          RMSdq      gap      omega  full diag
   1   -174.4974944 -0.174497E+03  0.545E-03    1.65       0.0  T
   2   -174.4974944 -0.628032E-08  0.320E-03    1.65       3.0  T
   3   -174.4974944  0.179342E-07  0.355E-04    1.65      27.4  T
   4   -174.4974944 -0.212480E-07  0.652E-05    1.65     148.9  T
     SCC iter.                  ...        0 min,  0.062 sec
     gradient                   ...        0 min,  0.018 sec
 * total energy  :  -171.3622526 Eh     change       -0.8592941E-06 Eh
   gradient norm :     0.0001087 Eh/α   predicted    -0.3665764E-06 ( -57.34%)
   displ. norm   :     0.0446110 α      lambda       -0.6550302E-06
   maximum displ.:     0.0250330 α      in ANC's #6, #8, #1, ...

........................................................................
.............................. CYCLE    8 ..............................
........................................................................

 iter      E             dE          RMSdq      gap      omega  full diag
   1   -174.4974935 -0.174497E+03  0.635E-03    1.65       0.0  T
   2   -174.4974936 -0.766252E-08  0.372E-03    1.65       2.6  T
   3   -174.4974935  0.235715E-07  0.399E-04    1.65      24.3  T
   4   -174.4974936 -0.279224E-07  0.759E-05    1.65     128.0  T
     SCC iter.                  ...        0 min,  0.065 sec
     gradient                   ...        0 min,  0.018 sec
 * total energy  :  -171.3622534 Eh     change       -0.7412992E-06 Eh
   gradient norm :     0.0001566 Eh/α   predicted    -0.3299272E-06 ( -55.49%)
   displ. norm   :     0.0373454 α      lambda       -0.4342402E-06
   maximum displ.:     0.0211401 α      in ANC's #6, #8, #1, ...

........................................................................
.............................. CYCLE    9 ..............................
........................................................................

 iter      E             dE          RMSdq      gap      omega  full diag
   1   -174.4974930 -0.174497E+03  0.532E-03    1.65       0.0  T
   2   -174.4974930 -0.511594E-08  0.312E-03    1.65       3.1  T
   3   -174.4974929  0.173940E-07  0.336E-04    1.65      28.9  T
   4   -174.4974930 -0.205528E-07  0.647E-05    1.65     150.1  T
     SCC iter.                  ...        0 min,  0.065 sec
     gradient                   ...        0 min,  0.018 sec
 * total energy  :  -171.3622539 Eh     change       -0.5113749E-06 Eh
   gradient norm :     0.0001319 Eh/α   predicted    -0.2189223E-06 ( -57.19%)
   displ. norm   :     0.0341035 α      lambda       -0.3803232E-06
   maximum displ.:     0.0193810 α      in ANC's #6, #8, #1, ...

........................................................................
.............................. CYCLE   10 ..............................
........................................................................

 iter      E             dE          RMSdq      gap      omega  full diag
   1   -174.4975007 -0.174498E+03  0.488E-03    1.65       0.0  T
   2   -174.4975007 -0.435838E-08  0.286E-03    1.65       3.4  T
   3   -174.4975007  0.129008E-07  0.294E-04    1.65      33.0  T
   4   -174.4975007 -0.154996E-07  0.601E-05    1.65     161.7  T
     SCC iter.                  ...        0 min,  0.063 sec
     gradient                   ...        0 min,  0.018 sec
 * total energy  :  -171.3622543 Eh     change       -0.4466226E-06 Eh
   gradient norm :     0.0000731 Eh/α   predicted    -0.1920974E-06 ( -56.99%)
   displ. norm   :     0.0325216 α      lambda       -0.3428689E-06
   maximum displ.:     0.0182598 α      in ANC's #6, #1, #8, ...

........................................................................
.............................. CYCLE   11 ..............................
........................................................................

 iter      E             dE          RMSdq      gap      omega  full diag
   1   -174.4975040 -0.174498E+03  0.473E-03    1.65       0.0  T
   2   -174.4975040 -0.461966E-08  0.277E-03    1.65       3.5  T
   3   -174.4975040  0.102741E-07  0.276E-04    1.65      35.1  T
   4   -174.4975040 -0.127127E-07  0.620E-05    1.65     156.6  T
     SCC iter.                  ...        0 min,  0.064 sec
     gradient                   ...        0 min,  0.018 sec
 * total energy  :  -171.3622547 Eh     change       -0.3917831E-06 Eh
   gradient norm :     0.0000877 Eh/α   predicted    -0.1738595E-06 ( -55.62%)
   displ. norm   :     0.0304760 α      lambda       -0.2822621E-06
   maximum displ.:     0.0167018 α      in ANC's #6, #1, #3, ...

........................................................................
.............................. CYCLE   12 ..............................
........................................................................

 iter      E             dE          RMSdq      gap      omega  full diag
   1   -174.4974952 -0.174497E+03  0.451E-03    1.65       0.0  T
   2   -174.4974952 -0.450476E-08  0.264E-03    1.65       3.7  T
   3   -174.4974952  0.782424E-08  0.254E-04    1.65      38.3  T
   4   -174.4974952 -0.999259E-08  0.594E-05    1.65     163.6  T
     SCC iter.                  ...        0 min,  0.061 sec
     gradient                   ...        0 min,  0.018 sec
 * total energy  :  -171.3622551 Eh     change       -0.3153896E-06 Eh
   gradient norm :     0.0001072 Eh/α   predicted    -0.1439541E-06 ( -54.36%)
   displ. norm   :     0.0227068 α      lambda       -0.1913239E-06
   maximum displ.:     0.0119219 α      in ANC's #6, #1, #3, ...

........................................................................
.............................. CYCLE   13 ..............................
........................................................................

 iter      E             dE          RMSdq      gap      omega  full diag
   1   -174.4974940 -0.174497E+03  0.341E-03    1.65       0.0  T
   2   -174.4974940 -0.277959E-08  0.200E-03    1.65       4.9  T
   3   -174.4974940  0.465491E-08  0.200E-04    1.65      48.6  T
   4   -174.4974940 -0.595958E-08  0.454E-05    1.65     213.8  T
     SCC iter.                  ...        0 min,  0.061 sec
     gradient                   ...        0 min,  0.018 sec
 * total energy  :  -171.3622553 Eh     change       -0.2071368E-06 Eh
   gradient norm :     0.0000862 Eh/α   predicted    -0.9891044E-07 ( -52.25%)
   displ. norm   :     0.0166474 α      lambda       -0.1229965E-06
   maximum displ.:     0.0083977 α      in ANC's #6, #1, #3, ...

........................................................................
.............................. CYCLE   14 ..............................
........................................................................

 iter      E             dE          RMSdq      gap      omega  full diag
   1   -174.4974866 -0.174497E+03  0.240E-03    1.65       0.0  T
   2   -174.4974866 -0.130638E-08  0.141E-03    1.65       6.9  T
   3   -174.4974866  0.187632E-08  0.130E-04    1.65      74.8  T
   4   -174.4974866 -0.245737E-08  0.303E-05    1.65     320.5  T
     SCC iter.                  ...        0 min,  0.063 sec
     gradient                   ...        0 min,  0.018 sec
 * total energy  :  -171.3622554 Eh     change       -0.1375102E-06 Eh
   gradient norm :     0.0000480 Eh/α   predicted    -0.6488668E-07 ( -52.81%)
   displ. norm   :     0.0166474 α      lambda        0.0000000E+00
   maximum displ.:     0.0083977 α      in ANC's #6, #1, #3, ...

........................................................................
.............................. CYCLE   15 ..............................
........................................................................

 iter      E             dE          RMSdq      gap      omega  full diag
   1   -174.4974771 -0.174497E+03  0.240E-03    1.65       0.0  T
   2   -174.4974771 -0.134477E-08  0.141E-03    1.65       6.9  T
   3   -174.4974771  0.171633E-08  0.129E-04    1.65      75.4  T
   4   -174.4974771 -0.230449E-08  0.297E-05    1.65     326.7  T
     SCC iter.                  ...        0 min,  0.062 sec
     gradient                   ...        0 min,  0.017 sec
 * total energy  :  -171.3622554 Eh     change       -0.2098895E-07 Eh
   gradient norm :     0.0000921 Eh/α   predicted    -0.4899650E-08 ( -76.66%)
   displ. norm   :     0.0046731 α      lambda       -0.7845541E-07
   maximum displ.:     0.0019467 α      in ANC's #8, #21, #19, ...

   *** GEOMETRY OPTIMIZATION CONVERGED AFTER 15 ITERATIONS ***

------------------------------------------------------------------------
 total energy gain   :        -0.0000072 Eh       -0.0045 kcal/mol
 total RMSD          :         0.0329482 a0        0.0174 Å
 total power (kW/mol):        -0.0012676 (step)   -0.0130 (real)
------------------------------------------------------------------------

 ANCopt (total)                0 d,  0 h,  0 min,  1.465 sec
 optimizer setup                ...        0 min,  0.001 sec (  0.064%)
 model hessian                  ...        0 min,  0.071 sec (  4.824%)
 ANC generation                 ...        0 min,  0.011 sec (  0.773%)
 coordinate transformation      ...        0 min,  0.001 sec (  0.084%)
 single point calculation       ...        0 min,  1.369 sec ( 93.477%)
 optimization log               ...        0 min,  0.004 sec (  0.283%)
 hessian update                 ...        0 min,  0.002 sec (  0.162%)
 rational function              ...        0 min,  0.003 sec (  0.187%)

================
 final structure:
================
106
 xtb: 6.7.1 (edcfbbe)
C            5.37686906568748       -6.13204279111295        2.15420770575945
C            6.34646170067818       -5.32184016932652        1.58331276136044
C            5.99742091139278       -4.10056514814620        1.04089306330376
C            4.66861175368644       -3.68076087622689        1.06745358385876
C            4.29602749130085       -2.39046737144282        0.49160059846203
N            5.26336654473429       -1.61123271552585        0.01660775871048
C            4.86892492941584       -0.50073706347788       -0.59538039658822
C            5.87667219239734        0.41529957799568       -1.12152346252305
C            5.50202981036167        1.43546660228523       -1.99296298178634
C            6.44404119461880        2.34120590412684       -2.43871446451184
C            7.76022661748098        2.23892192748863       -2.01629009862006
C            8.13760429316196        1.22139581828969       -1.15342122271504
C            7.20200431162098        0.30848207848121       -0.70755106061218
N            3.59566819452951       -0.13421490387848       -0.71647804647880
C            2.71629652240527       -0.89384333025311       -0.07894212709150
C            1.32893009680937       -0.41819111891501       -0.00173836258830
C            0.29995590746324       -1.34950111047666        0.03564146197319
C           -1.03165233961800       -0.95623564308504        0.03554391584035
N           -2.03656837254224       -1.92701728641428        0.08590685892204
C           -3.12899003404543       -1.91412338813234        0.93113751187822
C           -3.38003713454494       -1.11104383182558        2.03463822911453
C           -4.57582293740865       -1.28926012116693        2.70231658183636
C           -5.49482646516183       -2.25689923658269        2.30124086662314
C           -5.22847233633602       -3.09041968212305        1.23406501858109
C           -4.03463592583104       -2.92631965805086        0.54484264864973
C           -3.45050556899520       -3.58235547890146       -0.59136013969109
C           -3.86735878297643       -4.62397769428873       -1.40874678674490
C           -3.06514963817668       -4.99313396770022       -2.47039102850793
C           -1.86771050989169       -4.32963490717164       -2.72722256086147
C           -1.43142954793283       -3.29066261125840       -1.92641216344476
C           -2.22374286272515       -2.92893726159232       -0.84745169983714
C           -1.33481023814263        0.41559228139476        0.00031821729861
C           -2.72129146787500        0.89375134880334       -0.07483412686286
N           -3.60530258617993        0.13331850522638       -0.70499969208860
C           -4.87691865101252        0.50518755411167       -0.58292897527972
C           -5.88927567118251       -0.41109009637169       -1.09977403448039
C           -5.52124109322832       -1.43595296297524       -1.96847583358711
C           -6.46725741776291       -2.34213327698903       -2.40472039049761
C           -7.78087576798928       -2.23559488772829       -1.97544788002904
C           -8.15176499687949       -1.21320622172430       -1.11553158427131
C           -7.21216787956012       -0.29975588398435       -0.67929004247540
N           -5.26577344836680        1.62176945090030        0.02144965354030
C           -4.29424282016159        2.40068690046757        0.48853185855562
C           -4.66039921221340        3.69744680230494        1.05399626634394
C           -5.98770244593607        4.12198869640467        1.02719877183143
C           -6.33060517277628        5.34982584202357        1.55861582256539
C           -5.35633322769029        6.16195878403518        2.11868202538759
C           -4.03479533484543        5.74395468155888        2.14737482148010
C           -3.68441593517060        4.51711908949733        1.61831421952723
N           -3.00749830255050        2.05551709479884        0.49783108195529
C           -0.30544876348406        1.34663196724145        0.04634918673407
C            1.02588462404029        0.95334727809885        0.04459881591949
N            2.03271532599093        1.92175251004746        0.10503753427764
C            2.22755672505720        2.92836815203850       -0.82178358528889
C            1.43708480591655        3.30450416829510       -1.89710391331524
C            1.88144822215819        4.34520475659944       -2.69124413390063
C            3.08498781133767        4.99637401438797       -2.43145807351451
C            3.88507885442974        4.61313498587311       -1.37322141858611
C            3.45998424023000        3.56973874686944       -0.56241276552101
C            4.03971620016676        2.90120925261773        0.56872047167839
C            5.23597137118318        3.04982073429570        1.25728376294555
C            5.49656573754433        2.20622722627180        2.31798025844319
C            4.56960518151140        1.24395632294424        2.71363769744133
C            3.37116608815919        1.08128628432114        2.04671560017291
C            3.12581872686693        1.89434569542460        0.94923475316437
N            3.00771406308247       -2.05081985670329        0.50028625681798
C            3.69731491428947       -4.49849627036586        1.64258462511968
C            4.05384675996984       -5.71873351325025        2.18267686676379
H            5.65276236255189       -7.08699677673122        2.57719756007121
H            7.37632696720352       -5.64687483297089        1.56212586682995
H            6.73614153297388       -3.45681971687592        0.58975806993206
H            4.47297289268362        1.50424736044752       -2.30840899891026
H            6.14977152300775        3.13261503561484       -3.11208512374420
H            8.49456908610257        2.95301285247827       -2.36013544405327
H            9.16435672471669        1.14468785930010       -0.82658506611519
H            7.47336860582937       -0.48423986434691       -0.02798022645311
H            0.55339242955045       -2.39838174291523        0.05956064114990
H           -2.67314255742900       -0.35816904281315        2.35351458983608
H           -4.80415385842138       -0.66223223647917        3.55184188889171
H           -6.42439227629184       -2.35609035803398        2.84163368360477
H           -5.93452946515027       -3.84908324193349        0.93198734649425
H           -4.80329980577779       -5.12653293703556       -1.21645266856898
H           -3.36930235945696       -5.80188320480735       -3.11841973138020
H           -1.26752751133729       -4.63154396691451       -3.57302536858592
H           -0.50939577462143       -2.77309251908403       -2.14450255255658
H           -4.49417811091671       -1.50772369713568       -2.28967485618970
H           -6.17808977477266       -3.13722172046062       -3.07596671807407
H           -8.51830694503616       -2.95016975508554       -2.31159374409230
H           -9.17660833846493       -1.13307803543663       -0.78356471294143
H           -7.47846652402468        0.49677197921684       -0.00214980736615
H           -6.73011030567415        3.47679603991859        0.58424871376250
H           -7.35931041449023        5.67849639744620        1.53712110619112
H           -5.62740665231497        7.12199701081619        2.53319379694061
H           -3.27774866954834        6.37850161745029        2.58437877975910
H           -2.66180329962282        4.17396736957907        1.63447524984923
H           -0.55914357092140        2.39520435069580        0.07858018511020
H            0.51021440410666        2.79665754389143       -2.11749611008556
H            1.28280205908276        4.65829835346176       -3.53407013875511
H            3.39558013011179        5.80671187010830       -3.07443926406727
H            4.82570706225015        5.10599534947678       -1.17873093215359
H            5.94829596373689        3.80431874659590        0.95950542043126
H            6.42783387959373        2.29318432111805        2.85754815325756
H            4.79370128079689        0.60864283166136        3.55812098650112
H            2.65805209938031        0.33257399319436        2.36144498958024
H            2.67351785176837       -4.15885452617547        1.65839006716279
H            3.30046828033637       -6.35183952128821        2.62803023278781
 
 Bond Distances (Angstroems)
 ---------------------------
C1-C2=1.3865         C1-C68=1.3864        C1-H69=1.0803        C2-C1=1.3865         C2-C3=1.3811         C2-H70=1.0801        
C3-C2=1.3811         C3-C4=1.3938         C3-H71=1.0787        C4-C3=1.3938         C4-C5=1.4613         C4-C67=1.3939        
C5-C4=1.4613         C5-N6=1.3299         C5-N66=1.3324        N6-C5=1.3299         N6-C7=1.3279         C7-N6=1.3279         
C7-C8=1.4600         C7-N14=1.3305        C8-C7=1.4600         C8-C9=1.3930         C8-C13=1.3926        C9-C8=1.3930         
C9-C10=1.3807        C9-H72=1.0785        C10-C9=1.3807        C10-C11=1.3861       C10-H73=1.0800       C11-C10=1.3861       
C11-C12=1.3865       C11-H74=1.0805       C12-C11=1.3865       C12-C13=1.3811       C12-H75=1.0802       C13-C8=1.3926        
C13-C12=1.3811       C13-H76=1.0788       N14-C7=1.3305        N14-C15=1.3254       C15-N14=1.3254       C15-C16=1.4687       
C15-N66=1.3263       C16-C15=1.4687       C16-C17=1.3884       C16-C52=1.4054       C17-C16=1.3884       C17-C18=1.3885       
C17-H77=1.0793       C18-C17=1.3885       C18-N19=1.3981       C18-C32=1.4054       N19-C18=1.3981       N19-C20=1.3813       
N19-C31=1.3820       C20-N19=1.3813       C20-C21=1.3877       C20-C25=1.4121       C21-C20=1.3877       C21-C22=1.3811       
C21-H78=1.0808       C22-C21=1.3811       C22-C23=1.3935       C22-H79=1.0803       C23-C22=1.3935       C23-C24=1.3801       
C23-H80=1.0798       C24-C23=1.3801       C24-C25=1.3882       C24-H81=1.0795       C25-C20=1.4121       C25-C24=1.3882       
C25-C26=1.4362       C26-C25=1.4362       C26-C27=1.3881       C26-C31=1.4133       C27-C26=1.3881       C27-C28=1.3809       
C27-H82=1.0796       C28-C27=1.3809       C28-C29=1.3929       C28-H83=1.0801       C29-C28=1.3929       C29-C30=1.3824       
C29-H84=1.0802       C30-C29=1.3824       C30-C31=1.3866       C30-H85=1.0796       C31-N19=1.3820       C31-C26=1.4133       
C31-C30=1.3866       C32-C18=1.4054       C32-C33=1.4685       C32-C51=1.3887       C33-C32=1.4685       C33-N34=1.3255       
C33-N50=1.3265       N34-C33=1.3255       N34-C35=1.3305       C35-N34=1.3305       C35-C36=1.4600       C35-N42=1.3279       
C36-C35=1.4600       C36-C37=1.3930       C36-C41=1.3926       C37-C36=1.3930       C37-C38=1.3807       C37-H86=1.0785       
C38-C37=1.3807       C38-C39=1.3861       C38-H87=1.0800       C39-C38=1.3861       C39-C40=1.3865       C39-H88=1.0805       
C40-C39=1.3865       C40-C41=1.3811       C40-H89=1.0802       C41-C36=1.3926       C41-C40=1.3811       C41-H90=1.0788       
N42-C35=1.3279       N42-C43=1.3299       C43-N42=1.3299       C43-C44=1.4613       C43-N50=1.3323       C44-C43=1.4613       
C44-C45=1.3938       C44-C49=1.3939       C45-C44=1.3938       C45-C46=1.3811       C45-H91=1.0787       C46-C45=1.3811       
C46-C47=1.3865       C46-H92=1.0801       C47-C46=1.3865       C47-C48=1.3864       C47-H93=1.0803       C48-C47=1.3864       
C48-C49=1.3812       C48-H94=1.0802       C49-C44=1.3939       C49-C48=1.3812       C49-H95=1.0788       N50-C33=1.3265       
N50-C43=1.3323       C51-C32=1.3887       C51-C52=1.3882       C51-H96=1.0793       C52-C16=1.4054       C52-C51=1.3882       
C52-N53=1.3983       N53-C52=1.3983       N53-C54=1.3821       N53-C65=1.3814       C54-N53=1.3821       C54-C55=1.3866       
C54-C59=1.4133       C55-C54=1.3866       C55-C56=1.3825       C55-H97=1.0796       C56-C55=1.3825       C56-C57=1.3928       
C56-H98=1.0802       C57-C56=1.3928       C57-C58=1.3809       C57-H99=1.0801       C58-C57=1.3809       C58-C59=1.3881       
C58-H100=1.0796      C59-C54=1.4133       C59-C58=1.3881       C59-C60=1.4361       C60-C59=1.4361       C60-C61=1.3882       
C60-C65=1.4120       C61-C60=1.3882       C61-C62=1.3801       C61-H101=1.0795      C62-C61=1.3801       C62-C63=1.3935       
C62-H102=1.0798      C63-C62=1.3935       C63-C64=1.3811       C63-H103=1.0803      C64-C63=1.3811       C64-C65=1.3877       
C64-H104=1.0808      C65-N53=1.3814       C65-C60=1.4120       C65-C64=1.3877       N66-C5=1.3324        N66-C15=1.3263       
C67-C4=1.3939        C67-C68=1.3812       C67-H105=1.0788      C68-C1=1.3864        C68-C67=1.3812       C68-H106=1.0802      
H69-C1=1.0803        H70-C2=1.0801        H71-C3=1.0787        H72-C9=1.0785        H73-C10=1.0800       H74-C11=1.0805       
H75-C12=1.0802       H76-C13=1.0788       H77-C17=1.0793       H78-C21=1.0808       H79-C22=1.0803       H80-C23=1.0798       
H81-C24=1.0795       H82-C27=1.0796       H83-C28=1.0801       H84-C29=1.0802       H85-C30=1.0796       H86-C37=1.0785       
H87-C38=1.0800       H88-C39=1.0805       H89-C40=1.0802       H90-C41=1.0788       H91-C45=1.0787       H92-C46=1.0801       
H93-C47=1.0803       H94-C48=1.0802       H95-C49=1.0788       H96-C51=1.0793       H97-C55=1.0796       H98-C56=1.0802       
H99-C57=1.0801       H100-C58=1.0796      H101-C61=1.0795      H102-C62=1.0798      H103-C63=1.0803      H104-C64=1.0808      
H105-C67=1.0788      H106-C68=1.0802      
 C  H  Rav=1.0798 sigma=0.0006  Rmin=1.0785  Rmax=1.0808    38
 C  C  Rav=1.3980 sigma=0.0243  Rmin=1.3801  Rmax=1.4687    62
 N  C  Rav=1.3482 sigma=0.0280  Rmin=1.3254  Rmax=1.3983    18
 
 selected bond angles (degree)
 --------------------
C68-C1-C2=120.11               H69-C1-C2=119.95               H69-C1-C68=119.95              C3-C2-C1=120.11                
H70-C2-C1=119.93               H70-C2-C3=119.96               C4-C3-C2=119.99                H71-C3-C2=121.26               
H71-C3-C4=118.76               C5-C4-C3=120.10                C67-C4-C3=119.70               C67-C4-C5=120.20               
N6-C5-C4=118.21                N66-C5-C4=117.97               N66-C5-N6=123.80               C7-N6-C5=116.01                
C8-C7-N6=119.06                N14-C7-N6=123.82               N14-C7-C8=117.06               C9-C8-C7=119.95                
C13-C8-C7=120.11               C13-C8-C9=119.87               C10-C9-C8=119.93               H72-C9-C8=119.10               
H72-C9-C10=120.98              C11-C10-C9=120.07              H73-C10-C9=119.74              H73-C10-C11=120.19             
 
 selected dihedral angles (degree)
 ---------------------------------
C3-C2-C1-C68=  0.00           C3-C2-C1-H69=179.97           H70-C2-C1-C68=180.04          H70-C2-C1-H69=  0.00          
C4-C3-C2-C1=  0.03            C4-C3-C2-H70=179.98           H71-C3-C2-C1=180.17           H71-C3-C2-H70=  0.12          
C5-C4-C3-C2=180.14            C5-C4-C3-H71=  0.00           C67-C4-C3-C2=  0.00           C67-C4-C3-H71=179.84          
N6-C5-C4-C3=356.37            N6-C5-C4-C67=176.52           N66-C5-C4-C3=177.82           N66-C5-C4-C67=357.98          
C7-N6-C5-C4=174.63            C7-N6-C5-N66=353.09           C8-C7-N6-C5=178.93            N14-C7-N6-C5=  1.76           
C9-C8-C7-N6=167.06            C9-C8-C7-N14=344.41           C13-C8-C7-N6=344.19           C13-C8-C7-N14=161.54          
C10-C9-C8-C7=176.84           C10-C9-C8-C13=359.70          H72-C9-C8-C7=356.91           H72-C9-C8-C13=179.77          
C11-C10-C9-C8=359.77          C11-C10-C9-H72=179.70         H73-C10-C9-C8=180.17          H73-C10-C9-H72=  0.10         
           -------------------------------------------------
          |                Final Singlepoint                |
           -------------------------------------------------

          ...................................................
          :                      SETUP                      :
          :.................................................:
          :  # basis functions                 310          :
          :  # atomic orbitals                 310          :
          :  # shells                          174          :
          :  # electrons                       318          :
          :  max. iterations                   250          :
          :  Hamiltonian                  GFN2-xTB          :
          :  restarted?                      false          :
          :  GBSA solvation                  false          :
          :  PC potential                    false          :
          :  electronic temp.          300.0000000     K    :
          :  accuracy                    1.0000000          :
          :  -> integral cutoff          0.2500000E+02      :
          :  -> integral neglect         0.1000000E-07      :
          :  -> SCF convergence          0.1000000E-05 Eh   :
          :  -> wf. convergence          0.1000000E-03 e    :
          :  Broyden damping             0.4000000          :
          :  net charge                          0          :
          :  unpaired electrons                  0          :
          ...................................................

 iter      E             dE          RMSdq      gap      omega  full diag
   1   -174.4974771 -0.174497E+03  0.162E-05    1.65       0.0  T
   2   -174.4974771 -0.292744E-11  0.107E-05    1.65     911.7  T
   3   -174.4974771 -0.804334E-11  0.631E-06    1.65    1540.0  T

   *** convergence criteria satisfied after 3 iterations ***

         #    Occupation            Energy/Eh            Energy/eV
      -------------------------------------------------------------
         1        2.0000           -0.6869877             -18.6939
       ...           ...                  ...                  ...
       153        2.0000           -0.3772982             -10.2668
       154        2.0000           -0.3744540             -10.1894
       155        2.0000           -0.3741881             -10.1822
       156        2.0000           -0.3732611             -10.1570
       157        2.0000           -0.3723985             -10.1335
       158        2.0000           -0.3635423              -9.8925
       159        2.0000           -0.3584383              -9.7536 (HOMO)
       160                         -0.2978997              -8.1063 (LUMO)
       161                         -0.2869695              -7.8088
       162                         -0.2867141              -7.8019
       163                         -0.2747338              -7.4759
       164                         -0.2502694              -6.8102
       ...                                ...                  ...
       310                          0.7496896              20.4001
      -------------------------------------------------------------
                  HL-Gap            0.0605387 Eh            1.6473 eV
             Fermi-level           -0.3281690 Eh           -8.9299 eV

 SCC (total)                   0 d,  0 h,  0 min,  0.075 sec
 SCC setup                      ...        0 min,  0.000 sec (  0.348%)
 Dispersion                     ...        0 min,  0.002 sec (  2.455%)
 classical contributions        ...        0 min,  0.000 sec (  0.063%)
 integral evaluation            ...        0 min,  0.007 sec ( 10.033%)
 iterations                     ...        0 min,  0.047 sec ( 62.588%)
 molecular gradient             ...        0 min,  0.017 sec ( 23.099%)
 printout                       ...        0 min,  0.001 sec (  1.284%)

         :::::::::::::::::::::::::::::::::::::::::::::::::::::
         ::                     SUMMARY                     ::
         :::::::::::::::::::::::::::::::::::::::::::::::::::::
         :: total energy            -171.362255419906 Eh    ::
         :: gradient norm              0.000092104640 Eh/a0 ::
         :: HOMO-LUMO gap              1.647340757182 eV    ::
         ::.................................................::
         :: SCC energy              -174.493752049768 Eh    ::
         :: -> isotropic ES            0.075493395550 Eh    ::
         :: -> anisotropic ES          0.006403762837 Eh    ::
         :: -> anisotropic XC          0.119345401828 Eh    ::
         :: -> dispersion             -0.175886151380 Eh    ::
         :: repulsion energy           3.131496629862 Eh    ::
         :: add. restraining           0.000000000000 Eh    ::
         :: total charge               0.000000000000 e     ::
         :::::::::::::::::::::::::::::::::::::::::::::::::::::

           ------------------------------------------------- 
          |                Numerical Hessian                |
           ------------------------------------------------- 
step length          :   0.00500
SCC accuracy         :   0.30000
Hessian scale factor :   1.00000
frozen atoms in %    :   0.00000    0
RMS gradient         :   0.00009
estimated CPU  time     25.92 min
estimated wall time      0.65 min

writing file <hessian>.

 projected vibrational frequencies (cm⁻¹)
eigval :       -0.00    -0.00    -0.00     0.00     0.00     0.00
eigval :        6.29     9.04    11.59    18.17    18.38    23.95
eigval :       24.94    27.04    27.55    29.45    29.95    47.81
eigval :       50.97    51.51    56.81    64.34    66.61    69.35
eigval :       74.71    84.98    95.22   103.11   104.17   105.33
eigval :      120.89   126.27   130.23   144.21   148.32   152.37
eigval :      162.36   168.28   190.32   192.71   198.32   200.30
eigval :      203.97   205.33   230.05   237.71   257.49   260.51
eigval :      261.45   265.60   276.47   277.42   307.52   310.12
eigval :      351.57   365.17   365.20   367.90   368.48   369.95
eigval :      370.41   378.94   395.43   397.76   404.06   410.84
eigval :      411.85   420.08   423.22   424.54   433.52   435.53
eigval :      438.50   449.12   458.07   481.45   498.12   511.91
eigval :      518.55   520.35   535.05   537.12   541.61   541.69
eigval :      552.28   581.06   586.03   586.74   587.07   587.22
eigval :      588.10   596.16   610.02   613.09   613.18   615.92
eigval :      622.87   626.72   626.94   638.65   641.18   645.96
eigval :      659.89   666.22   671.30   674.09   675.90   675.96
eigval :      680.21   693.54   699.57   708.64   708.84   715.23
eigval :      744.57   753.83   755.15   756.77   760.12   769.48
eigval :      769.69   775.15   775.33   780.38   780.60   794.37
eigval :      794.69   829.35   847.40   847.57   867.66   869.01
eigval :      872.90   873.02   875.71   878.10   878.13   878.69
eigval :      878.78   884.90   894.00   897.88   901.46   901.82
eigval :      902.08   904.99   905.90   912.33   912.38   912.49
eigval :      912.53   921.96   922.08   922.37   922.66   930.88
eigval :      930.90   931.46   931.48   934.32   934.33   935.51
eigval :      935.61   942.87   970.32   978.92   990.62   990.67
eigval :     1012.10  1012.72  1032.70  1045.42  1058.62  1070.18
eigval :     1070.31  1073.58  1073.95  1074.14  1075.49  1075.58
eigval :     1077.41  1083.19  1108.93  1109.04  1109.84  1110.79
eigval :     1113.27  1113.39  1151.51  1152.36  1154.73  1158.98
eigval :     1167.83  1169.12  1172.17  1179.58  1180.23  1180.26
eigval :     1180.95  1181.00  1181.51  1181.56  1184.26  1188.51
eigval :     1190.54  1203.02  1203.10  1209.55  1209.61  1212.20
eigval :     1215.59  1235.93  1237.03  1237.34  1252.70  1269.14
eigval :     1269.66  1270.20  1271.38  1295.26  1298.01  1301.52
eigval :     1303.78  1307.99  1324.04  1328.14  1328.83  1330.04
eigval :     1330.17  1344.45  1358.87  1359.81  1361.53  1362.88
eigval :     1368.81  1373.39  1373.85  1378.69  1379.02  1398.60
eigval :     1414.90  1428.61  1428.84  1432.12  1432.35  1434.20
eigval :     1434.25  1440.85  1441.72  1468.87  1468.99  1469.99
eigval :     1475.30  1475.98  1478.01  1483.12  1488.85  1488.91
eigval :     1508.68  1510.97  1518.06  1524.73  1536.39  1575.07
eigval :     1575.26  1581.34  1583.81  1584.23  1586.03  1586.22
eigval :     1590.45  1591.00  1594.76  1594.81  1596.40  1596.45
eigval :     1599.07  1599.30  1614.94  1615.97  3070.72  3071.02
eigval :     3073.70  3073.72  3075.16  3075.21  3075.30  3075.30
eigval :     3078.90  3078.98  3080.91  3080.96  3081.68  3081.69
eigval :     3081.98  3082.02  3085.78  3085.86  3088.82  3088.88
eigval :     3089.93  3089.97  3090.69  3090.79  3094.36  3094.39
eigval :     3096.07  3096.25  3102.77  3103.11  3104.66  3104.81
eigval :     3106.47  3106.52  3107.45  3107.49  3109.60  3109.66
           -------------------------------------------------
          |                Property Printout                |
           -------------------------------------------------

    * Orbital Energies and Occupations

         #    Occupation            Energy/Eh            Energy/eV
      -------------------------------------------------------------
         1        2.0000           -0.6869877             -18.6939
       ...           ...                  ...                  ...
       147        2.0000           -0.4082323             -11.1086
       148        2.0000           -0.4068718             -11.0715
       149        2.0000           -0.4067336             -11.0678
       150        2.0000           -0.4006451             -10.9021
       151        2.0000           -0.4005383             -10.8992
       152        2.0000           -0.3773972             -10.2695
       153        2.0000           -0.3772982             -10.2668
       154        2.0000           -0.3744540             -10.1894
       155        2.0000           -0.3741881             -10.1822
       156        2.0000           -0.3732611             -10.1570
       157        2.0000           -0.3723984             -10.1335
       158        2.0000           -0.3635423              -9.8925
       159        2.0000           -0.3584383              -9.7536 (HOMO)
       160                         -0.2978996              -8.1063 (LUMO)
       161                         -0.2869695              -7.8088
       162                         -0.2867141              -7.8019
       163                         -0.2747338              -7.4759
       164                         -0.2502694              -6.8102
       165                         -0.2473625              -6.7311
       166                         -0.2424581              -6.5976
       167                         -0.2394874              -6.5168
       168                         -0.2293365              -6.2406
       169                         -0.2292381              -6.2379
       170                         -0.2273112              -6.1855
       ...                                ...                  ...
       310                          0.7496896              20.4001
      -------------------------------------------------------------
                  HL-Gap            0.0605387 Eh            1.6473 eV
             Fermi-level           -0.3281690 Eh           -8.9299 eV

     #   Z          covCN         q      C6AA      α(0)
     1   6 C        2.920    -0.023    28.573     8.766
     2   6 C        2.918    -0.027    28.675     8.781
     3   6 C        2.924    -0.023    28.582     8.767
     4   6 C        2.984     0.000    28.012     8.682
     5   6 C        2.989     0.203    23.684     7.983
     6   7 N        1.844    -0.291    28.392     7.897
     7   6 C        2.991     0.205    23.646     7.977
     8   6 C        2.986     0.001    28.000     8.680
     9   6 C        2.924    -0.020    28.499     8.755
    10   6 C        2.919    -0.025    28.639     8.776
    11   6 C        2.921    -0.023    28.576     8.766
    12   6 C        2.919    -0.027    28.681     8.782
    13   6 C        2.924    -0.022    28.564     8.765
    14   7 N        1.847    -0.296    28.531     7.916
    15   6 C        2.993     0.211    23.539     7.959
    16   6 C        2.983    -0.007    28.193     8.710
    17   6 C        2.928    -0.039    28.970     8.827
    18   6 C        2.911     0.069    26.448     8.433
    19   7 N        2.802    -0.032    21.851     6.943
    20   6 C        3.079     0.053    26.725     8.475
    21   6 C        2.910    -0.048    29.189     8.859
    22   6 C        2.924    -0.033    28.819     8.804
    23   6 C        2.920    -0.041    29.012     8.833
    24   6 C        2.913    -0.033    28.813     8.802
    25   6 C        3.068    -0.014    28.287     8.721
    26   6 C        3.070    -0.013    28.262     8.717
    27   6 C        2.913    -0.032    28.797     8.800
    28   6 C        2.920    -0.041    29.014     8.833
    29   6 C        2.924    -0.033    28.820     8.804
    30   6 C        2.910    -0.049    29.214     8.863
    31   6 C        3.077     0.052    26.763     8.482
    32   6 C        2.983    -0.007    28.197     8.710
    33   6 C        2.992     0.211    23.544     7.959
    34   7 N        1.846    -0.296    28.527     7.916
    35   6 C        2.991     0.205    23.647     7.977
    36   6 C        2.986     0.001    28.000     8.680
    37   6 C        2.924    -0.020    28.500     8.755
    38   6 C        2.919    -0.025    28.639     8.776
    39   6 C        2.921    -0.023    28.576     8.766
    40   6 C        2.919    -0.027    28.681     8.782
    41   6 C        2.924    -0.022    28.565     8.765
    42   7 N        1.844    -0.291    28.393     7.897
    43   6 C        2.989     0.203    23.685     7.983
    44   6 C        2.984     0.000    28.012     8.682
    45   6 C        2.924    -0.023    28.583     8.767
    46   6 C        2.918    -0.027    28.675     8.781
    47   6 C        2.920    -0.023    28.573     8.766
    48   6 C        2.918    -0.027    28.675     8.781
    49   6 C        2.924    -0.023    28.580     8.767
    50   7 N        1.845    -0.295    28.505     7.913
    51   6 C        2.928    -0.039    28.971     8.827
    52   6 C        2.912     0.069    26.447     8.433
    53   7 N        2.802    -0.032    21.861     6.944
    54   6 C        3.077     0.052    26.760     8.481
    55   6 C        2.910    -0.049    29.214     8.863
    56   6 C        2.924    -0.033    28.820     8.804
    57   6 C        2.920    -0.041    29.014     8.833
    58   6 C        2.913    -0.032    28.796     8.799
    59   6 C        3.070    -0.013    28.263     8.717
    60   6 C        3.068    -0.014    28.290     8.721
    61   6 C        2.913    -0.033    28.814     8.802
    62   6 C        2.920    -0.041    29.012     8.833
    63   6 C        2.924    -0.033    28.818     8.804
    64   6 C        2.910    -0.048    29.194     8.860
    65   6 C        3.079     0.053    26.728     8.476
    66   7 N        1.844    -0.295    28.503     7.912
    67   6 C        2.924    -0.023    28.580     8.767
    68   6 C        2.918    -0.027    28.675     8.781
    69   1 H        0.926     0.038     2.478     2.462
    70   1 H        0.926     0.038     2.476     2.461
    71   1 H        0.926     0.057     2.239     2.340
    72   1 H        0.926     0.053     2.278     2.360
    73   1 H        0.926     0.039     2.464     2.455
    74   1 H        0.926     0.038     2.478     2.462
    75   1 H        0.926     0.038     2.475     2.460
    76   1 H        0.926     0.054     2.275     2.359
    77   1 H        0.926     0.070     2.089     2.260
    78   1 H        0.926     0.020     2.732     2.585
    79   1 H        0.926     0.029     2.600     2.522
    80   1 H        0.926     0.029     2.603     2.523
    81   1 H        0.926     0.030     2.584     2.514
    82   1 H        0.926     0.030     2.581     2.512
    83   1 H        0.926     0.028     2.613     2.528
    84   1 H        0.926     0.030     2.586     2.515
    85   1 H        0.926     0.027     2.624     2.533
    86   1 H        0.926     0.053     2.278     2.360
    87   1 H        0.926     0.039     2.464     2.455
    88   1 H        0.926     0.038     2.479     2.462
    89   1 H        0.926     0.038     2.475     2.460
    90   1 H        0.926     0.054     2.276     2.359
    91   1 H        0.926     0.057     2.239     2.340
    92   1 H        0.926     0.038     2.477     2.461
    93   1 H        0.926     0.038     2.479     2.462
    94   1 H        0.926     0.038     2.474     2.460
    95   1 H        0.926     0.056     2.248     2.345
    96   1 H        0.926     0.070     2.086     2.258
    97   1 H        0.926     0.027     2.623     2.533
    98   1 H        0.926     0.030     2.586     2.515
    99   1 H        0.926     0.028     2.614     2.528
   100   1 H        0.926     0.030     2.581     2.512
   101   1 H        0.926     0.030     2.584     2.514
   102   1 H        0.926     0.029     2.603     2.523
   103   1 H        0.926     0.029     2.601     2.522
   104   1 H        0.926     0.020     2.730     2.584
   105   1 H        0.926     0.056     2.247     2.344
   106   1 H        0.926     0.038     2.474     2.460

 Mol. C6AA /au·bohr⁶  :     174589.405722
 Mol. C8AA /au·bohr⁸  :    4434039.599953
 Mol. α(0) /au        :        674.541095


MOs/occ written to file <molden.input>


molecular dipole:
                 x           y           z       tot (Debye)
 q only:        0.003       0.000       0.024
   full:        0.003       0.000       0.034       0.086
molecular quadrupole (traceless):
                xx          xy          yy          xz          yz          zz
 q only:       16.793      -4.430       3.675      -0.031      -0.119     -20.468
  q+dip:       23.128      -1.043       2.983      -0.082      -0.175     -26.110
   full:       13.387      -4.991       1.395      -0.059      -0.122     -14.781

           -------------------------------------------------
          |                Geometry Summary                 |
           -------------------------------------------------

      molecular mass/u    :      870.9995282
   center of mass at/Å    :        0.0001316      -0.0003252      -0.0001486
  moments of inertia/u·Å² :        0.1007984E+05   0.2041402E+05   0.2653676E+05
rotational constants/cm⁻¹ :        0.1672411E-02   0.8257872E-03   0.6352559E-03

 * 112 selected distances

     #   Z          #   Z                                           value/Å
     1   6 C        2   6 C                                       1.3865279
     2   6 C        3   6 C                                       1.3811450
     3   6 C        4   6 C                                       1.3937988
     5   6 C        6   7 N                                       1.3298759
     6   7 N        7   6 C                                       1.3278986
     8   6 C        9   6 C                                       1.3930201
     9   6 C       10   6 C                                       1.3807403
    10   6 C       11   6 C                                       1.3860912
    11   6 C       12   6 C                                       1.3864762
     8   6 C       13   6 C                                       1.3925835
    12   6 C       13   6 C                                       1.3811442
     7   6 C       14   7 N                                       1.3304834
    14   7 N       15   6 C                                       1.3254366
    16   6 C       17   6 C                                       1.3883529
    17   6 C       18   6 C                                       1.3884663
    18   6 C       19   7 N                                       1.3981452
    19   7 N       20   6 C                                       1.3812916
    20   6 C       21   6 C                                       1.3876871
    21   6 C       22   6 C                                       1.3811081
    22   6 C       23   6 C                                       1.3934687
    23   6 C       24   6 C                                       1.3800600
    20   6 C       25   6 C                                       1.4120764
    24   6 C       25   6 C                                       1.3882370
    25   6 C       26   6 C                                       1.4361575 (max)
    26   6 C       27   6 C                                       1.3881155
    27   6 C       28   6 C                                       1.3809072
    28   6 C       29   6 C                                       1.3928583
    29   6 C       30   6 C                                       1.3824262
    19   7 N       31   6 C                                       1.3820407
    26   6 C       31   6 C                                       1.4133242
    30   6 C       31   6 C                                       1.3866368
    18   6 C       32   6 C                                       1.4053675
    33   6 C       34   7 N                                       1.3254594
    34   7 N       35   6 C                                       1.3304870
    36   6 C       37   6 C                                       1.3929955
    37   6 C       38   6 C                                       1.3807314
    38   6 C       39   6 C                                       1.3860804
    39   6 C       40   6 C                                       1.3864681
    36   6 C       41   6 C                                       1.3925682
    40   6 C       41   6 C                                       1.3811377
    35   6 C       42   7 N                                       1.3278694
    42   7 N       43   6 C                                       1.3299437
    44   6 C       45   6 C                                       1.3938035
    45   6 C       46   6 C                                       1.3811484
    46   6 C       47   6 C                                       1.3865209
    47   6 C       48   6 C                                       1.3863670
    44   6 C       49   6 C                                       1.3938655
    48   6 C       49   6 C                                       1.3812302
    33   6 C       50   7 N                                       1.3264840
    43   6 C       50   7 N                                       1.3322689
    32   6 C       51   6 C                                       1.3887185
    16   6 C       52   6 C                                       1.4053831
    51   6 C       52   6 C                                       1.3882092
    52   6 C       53   7 N                                       1.3982739
    53   7 N       54   6 C                                       1.3821129
    54   6 C       55   6 C                                       1.3865923
    55   6 C       56   6 C                                       1.3824527
    56   6 C       57   6 C                                       1.3928453
    57   6 C       58   6 C                                       1.3808993
    54   6 C       59   6 C                                       1.4133320
    58   6 C       59   6 C                                       1.3880894
    59   6 C       60   6 C                                       1.4361350
    60   6 C       61   6 C                                       1.3882477
    61   6 C       62   6 C                                       1.3800858
    62   6 C       63   6 C                                       1.3934728
    63   6 C       64   6 C                                       1.3811239
    53   7 N       65   6 C                                       1.3814107
    60   6 C       65   6 C                                       1.4120107
    64   6 C       65   6 C                                       1.3877051
     5   6 C       66   7 N                                       1.3323617
    15   6 C       66   7 N                                       1.3262823
     4   6 C       67   6 C                                       1.3938740
     1   6 C       68   6 C                                       1.3863706
    67   6 C       68   6 C                                       1.3812291
     1   6 C       69   1 H                                       1.0802661
     2   6 C       70   1 H                                       1.0801477
     3   6 C       71   1 H                                       1.0787212
     9   6 C       72   1 H                                       1.0785153
    10   6 C       73   1 H                                       1.0799775
    11   6 C       74   1 H                                       1.0804696
    12   6 C       75   1 H                                       1.0802438
    13   6 C       76   1 H                                       1.0788250
    17   6 C       77   1 H                                       1.0793299
    21   6 C       78   1 H                                       1.0808343
    22   6 C       79   1 H                                       1.0802742
    23   6 C       80   1 H                                       1.0797945
    24   6 C       81   1 H                                       1.0795083
    27   6 C       82   1 H                                       1.0795947
    28   6 C       83   1 H                                       1.0800582
    29   6 C       84   1 H                                       1.0801626
    30   6 C       85   1 H                                       1.0796243
    37   6 C       86   1 H                                       1.0785075 (min)
    38   6 C       87   1 H                                       1.0799794
    39   6 C       88   1 H                                       1.0804704
    40   6 C       89   1 H                                       1.0802438
    41   6 C       90   1 H                                       1.0788377
    45   6 C       91   1 H                                       1.0787252
    46   6 C       92   1 H                                       1.0801486
    47   6 C       93   1 H                                       1.0802659
    48   6 C       94   1 H                                       1.0801584
    49   6 C       95   1 H                                       1.0787730
    51   6 C       96   1 H                                       1.0793073
    55   6 C       97   1 H                                       1.0796156
    56   6 C       98   1 H                                       1.0801670
    57   6 C       99   1 H                                       1.0800648
    58   6 C      100   1 H                                       1.0795923
    61   6 C      101   1 H                                       1.0795118
    62   6 C      102   1 H                                       1.0797942
    63   6 C      103   1 H                                       1.0802752
    64   6 C      104   1 H                                       1.0808129
    67   6 C      105   1 H                                       1.0787803
    68   6 C      106   1 H                                       1.0801584

 * 3 distinct bonds (by element types)

   Z      Z             #   av. dist./Å        max./Å        min./Å
   1 H    6 C          38     1.0797510     1.0808343     1.0785075
   6 C    6 C          56     1.3910084     1.4361575     1.3800600
   6 C    7 N          18     1.3482292     1.3982739     1.3254366

           -------------------------------------------------
          |               Frequency Printout                |
           -------------------------------------------------
 projected vibrational frequencies (cm⁻¹)
eigval :       -0.00    -0.00    -0.00     0.00     0.00     0.00
eigval :        6.29     9.04    11.59    18.17    18.38    23.95
eigval :       24.94    27.04    27.55    29.45    29.95    47.81
eigval :       50.97    51.51    56.81    64.34    66.61    69.35
eigval :       74.71    84.98    95.22   103.11   104.17   105.33
eigval :      120.89   126.27   130.23   144.21   148.32   152.37
eigval :      162.36   168.28   190.32   192.71   198.32   200.30
eigval :      203.97   205.33   230.05   237.71   257.49   260.51
eigval :      261.45   265.60   276.47   277.42   307.52   310.12
eigval :      351.57   365.17   365.20   367.90   368.48   369.95
eigval :      370.41   378.94   395.43   397.76   404.06   410.84
eigval :      411.85   420.08   423.22   424.54   433.52   435.53
eigval :      438.50   449.12   458.07   481.45   498.12   511.91
eigval :      518.55   520.35   535.05   537.12   541.61   541.69
eigval :      552.28   581.06   586.03   586.74   587.07   587.22
eigval :      588.10   596.16   610.02   613.09   613.18   615.92
eigval :      622.87   626.72   626.94   638.65   641.18   645.96
eigval :      659.89   666.22   671.30   674.09   675.90   675.96
eigval :      680.21   693.54   699.57   708.64   708.84   715.23
eigval :      744.57   753.83   755.15   756.77   760.12   769.48
eigval :      769.69   775.15   775.33   780.38   780.60   794.37
eigval :      794.69   829.35   847.40   847.57   867.66   869.01
eigval :      872.90   873.02   875.71   878.10   878.13   878.69
eigval :      878.78   884.90   894.00   897.88   901.46   901.82
eigval :      902.08   904.99   905.90   912.33   912.38   912.49
eigval :      912.53   921.96   922.08   922.37   922.66   930.88
eigval :      930.90   931.46   931.48   934.32   934.33   935.51
eigval :      935.61   942.87   970.32   978.92   990.62   990.67
eigval :     1012.10  1012.72  1032.70  1045.42  1058.62  1070.18
eigval :     1070.31  1073.58  1073.95  1074.14  1075.49  1075.58
eigval :     1077.41  1083.19  1108.93  1109.04  1109.84  1110.79
eigval :     1113.27  1113.39  1151.51  1152.36  1154.73  1158.98
eigval :     1167.83  1169.12  1172.17  1179.58  1180.23  1180.26
eigval :     1180.95  1181.00  1181.51  1181.56  1184.26  1188.51
eigval :     1190.54  1203.02  1203.10  1209.55  1209.61  1212.20
eigval :     1215.59  1235.93  1237.03  1237.34  1252.70  1269.14
eigval :     1269.66  1270.20  1271.38  1295.26  1298.01  1301.52
eigval :     1303.78  1307.99  1324.04  1328.14  1328.83  1330.04
eigval :     1330.17  1344.45  1358.87  1359.81  1361.53  1362.88
eigval :     1368.81  1373.39  1373.85  1378.69  1379.02  1398.60
eigval :     1414.90  1428.61  1428.84  1432.12  1432.35  1434.20
eigval :     1434.25  1440.85  1441.72  1468.87  1468.99  1469.99
eigval :     1475.30  1475.98  1478.01  1483.12  1488.85  1488.91
eigval :     1508.68  1510.97  1518.06  1524.73  1536.39  1575.07
eigval :     1575.26  1581.34  1583.81  1584.23  1586.03  1586.22
eigval :     1590.45  1591.00  1594.76  1594.81  1596.40  1596.45
eigval :     1599.07  1599.30  1614.94  1615.97  3070.72  3071.02
eigval :     3073.70  3073.72  3075.16  3075.21  3075.30  3075.30
eigval :     3078.90  3078.98  3080.91  3080.96  3081.68  3081.69
eigval :     3081.98  3082.02  3085.78  3085.86  3088.82  3088.88
eigval :     3089.93  3089.97  3090.69  3090.79  3094.36  3094.39
eigval :     3096.07  3096.25  3102.77  3103.11  3104.66  3104.81
eigval :     3106.47  3106.52  3107.45  3107.49  3109.60  3109.66
 reduced masses (amu)
   1: 11.43   2: 11.63   3: 11.65   4: 11.47   5: 11.75   6: 11.52   7: 11.13   8: 11.17
   9: 11.21  10: 10.96  11: 10.95  12: 10.85  13: 10.78  14:  9.85  15:  9.88  16: 10.69
  17: 10.85  18: 10.87  19: 11.39  20: 11.10  21: 10.89  22: 10.78  23: 11.10  24: 10.49
  25: 11.09  26: 11.56  27: 10.61  28: 11.78  29: 11.78  30: 10.34  31: 11.15  32: 11.40
  33: 11.52  34: 11.21  35: 10.63  36: 10.22  37: 11.06  38: 11.28  39: 11.63  40: 11.96
  41: 11.84  42: 12.21  43: 11.11  44: 11.46  45: 10.89  46: 11.52  47: 11.10  48: 10.94
  49: 10.92  50: 11.02  51: 10.35  52: 10.41  53: 11.65  54: 11.54  55: 12.02  56:  8.85
  57:  8.84  58: 11.10  59: 12.07  60:  8.95  61:  9.31  62: 11.34  63:  9.56  64:  9.43
  65: 10.62  66: 10.54  67: 11.39  68: 10.82  69: 10.24  70: 10.06  71: 10.59  72: 10.58
  73: 11.40  74: 10.27  75: 10.78  76: 10.87  77: 11.87  78: 11.38  79: 10.94  80: 11.27
  81: 11.37  82: 11.27  83: 10.07  84: 10.06  85: 12.06  86: 11.56  87: 11.30  88: 11.21
  89: 11.25  90: 11.25  91: 11.21  92: 11.47  93: 11.58  94: 11.73  95: 11.78  96: 11.81
  97: 11.69  98: 11.04  99: 11.05 100: 11.48 101: 11.51 102: 11.47 103:  9.95 104:  9.46
 105: 11.46 106: 11.56 107:  7.73 108:  7.73 109: 11.51 110: 11.02 111: 10.20 112: 11.43
 113: 11.38 114: 10.79 115: 11.14 116:  7.41 117:  7.39 118: 10.73 119: 10.98 120:  3.43
 121:  3.50 122:  6.28 123:  6.32 124:  4.02 125:  3.97 126: 10.86 127: 10.95 128: 12.04
 129: 11.93 130: 11.86 131:  4.09 132:  3.44 133:  3.48 134:  3.48 135: 11.30 136:  3.32
 137:  3.33 138:  3.32 139:  3.30 140:  5.81 141:  9.49 142:  5.63 143:  5.58 144:  4.03
 145:  6.30 146:  6.16 147:  3.59 148:  3.73 149:  3.73 150:  3.74 151:  3.75 152:  3.04
 153:  3.04 154:  3.03 155:  3.00 156:  3.94 157:  3.94 158:  4.18 159:  4.18 160:  3.07
 161:  3.07 162:  3.23 163:  3.23 164: 11.23 165: 11.38 166: 10.91 167: 10.93 168: 10.92
 169: 10.92 170: 10.90 171: 11.46 172: 12.49 173: 13.11 174:  5.86 175:  5.80 176:  6.47
 177:  6.38 178:  8.98 179:  6.54 180:  6.68 181:  6.93 182:  8.57 183:  5.54 184:  8.94
 185:  3.78 186:  5.56 187:  3.83 188:  3.95 189:  4.33 190:  3.84 191:  6.80 192:  7.16
 193:  5.18 194:  4.97 195:  4.17 196:  2.03 197:  1.64 198:  1.65 199:  1.55 200:  1.50
 201:  1.74 202:  1.71 203:  2.76 204:  2.28 205:  2.98 206:  7.47 207:  8.02 208: 10.93
 209: 11.80 210:  7.35 211:  4.81 212:  6.25 213:  5.66 214:  5.65 215:  7.35 216:  3.80
 217:  3.84 218:  3.79 219:  3.87 220:  7.96 221:  9.26 222:  8.00 223:  8.77 224: 10.46
 225: 10.68 226: 11.92 227: 11.96 228: 11.96 229: 11.98 230: 11.43 231: 11.54 232: 10.87
 233: 11.32 234: 11.31 235: 10.23 236: 11.39 237: 11.02 238: 11.14 239: 10.95 240: 11.06
 241: 10.15 242:  9.13 243:  9.12 244:  9.41 245:  9.72 246:  9.06 247:  9.04 248: 11.62
 249: 11.15 250:  9.60 251:  9.60 252: 10.68 253: 10.34 254: 10.31 255: 10.01 256: 10.62
 257: 10.40 258: 10.40 259: 12.39 260: 12.46 261: 12.59 262: 12.58 263: 12.12 264: 11.60
 265: 11.59 266: 11.69 267: 11.57 268: 11.59 269: 11.58 270: 11.58 271: 11.58 272: 11.58
 273: 11.51 274: 11.52 275: 11.53 276: 11.53 277: 11.69 278: 11.70 279: 11.71 280: 11.71
 281:  1.78 282:  1.78 283:  1.76 284:  1.76 285:  1.75 286:  1.75 287:  1.76 288:  1.76
 289:  1.78 290:  1.78 291:  1.80 292:  1.80 293:  1.81 294:  1.81 295:  1.81 296:  1.81
 297:  1.85 298:  1.85 299:  1.86 300:  1.86 301:  1.88 302:  1.88 303:  1.88 304:  1.88
 305:  1.91 306:  1.91 307:  1.91 308:  1.91 309:  1.83 310:  1.83 311:  1.86 312:  1.86
 313:  1.86 314:  1.86 315:  1.86 316:  1.86 317:  1.86 318:  1.86
 IR intensities (km·mol⁻¹)
   1:  0.00   2:  0.00   3:  0.01   4:  0.00   5:  0.02   6:  0.00   7:  0.00   8:  0.01
   9:  0.09  10:  0.00  11:  0.01  12:  0.16  13:  0.03  14:  0.00  15:  0.00  16:  0.02
  17:  0.13  18:  0.01  19:  0.14  20:  0.18  21:  0.50  22:  0.17  23:  0.19  24:  0.24
  25:  0.35  26:  0.71  27:  0.03  28:  0.04  29:  0.62  30:  0.24  31:  0.01  32:  0.07
  33:  0.02  34:  0.03  35:  0.00  36:  1.80  37:  0.81  38:  0.02  39:  0.97  40:  0.00
  41:  2.05  42:  0.01  43:  0.02  44:  0.60  45:  0.04  46:  0.17  47:  2.07  48:  3.74
  49:  0.01  50:  0.03  51:  0.04  52:  1.80  53:  0.01  54:  2.82  55:  0.57  56:  0.02
  57:  0.02  58:  0.35  59:  1.12  60:  0.00  61:  0.24  62:  0.03  63:  1.04  64:  0.35
  65:  1.32  66:  0.52  67:  1.05  68:  0.31  69:  1.60  70:  0.01  71:  7.29  72:  0.09
  73:  3.72  74:  0.74  75:  0.73  76:  0.60  77: 30.49  78:  0.10  79:  0.60  80:  2.25
  81:  0.05  82:  3.99  83:  1.10  84:  0.13  85:  5.39  86:  3.03  87:  0.29  88:  0.10
  89:  0.07  90:  0.72  91:  0.49  92:  1.78  93:  7.21  94: 10.09  95: 15.71  96:  0.04
  97:  1.23  98:  0.05  99:  0.02 100:  5.67 101:  1.56 102: 12.96 103:  6.96 104:  7.41
 105:  0.29 106:  1.33 107:  2.30 108:  2.86 109:  2.96 110:  0.49 111: 22.04 112:  6.91
 113:  3.43 114:  6.10 115:  3.12 116: 41.73 117: 95.74 118:  2.26 119:  3.89 120: 55.24
 121: 23.15 122:  3.79 123:  0.72 124:  2.53 125:  0.08 126:  8.44 127:  8.33 128: 43.03
 129: 16.31 130:  6.60 131:  0.30 132:  0.68 133:  1.63 134:  1.89 135:  0.00 136:  0.86
 137:  0.24 138:  1.53 139:  3.34 140:  0.18 141:  6.83 142:  1.91 143:  3.74 144:  0.34
 145:  1.73 146:  4.77 147:  0.89 148:  0.47 149:  0.20 150:  0.21 151:  0.16 152:  0.04
 153:  0.03 154:  0.01 155:  0.53 156:  0.91 157:  0.52 158:  0.13 159:  0.09 160:  0.03
 161:  0.02 162:  0.10 163:  0.12 164:  0.48 165:  0.07 166:  0.54 167:  3.17 168:  0.42
 169:  1.30 170:  2.05 171:  0.02 172:  3.66 173:  0.32 174:  0.12 175:  0.04 176:  0.68
 177:  0.03 178:  0.45 179:  0.43 180:  1.54 181:  0.02 182:  1.48 183:  1.43 184:  0.22
 185:  0.04 186:  0.44 187:  4.19 188:  0.01 189: 21.64 190:  5.72 191:  0.68 192: 41.60
 193: 41.07 194: 14.22 195: 18.09 196:  0.39 197:  0.33 198:  0.47 199:  1.49 200:  0.09
 201:  1.16 202:  2.69 203: 13.68 204:  0.44 205:  5.03 206:  0.18 207:  0.55 208:  0.10
 209:  0.13 210:  0.02 211:  1.84 212:  7.30 213: 13.87 214: 27.94 215:  0.25 216:  1.49
 217:  0.23 218:  1.96 219:  0.07 220:  8.47 221: 56.72 222:  1.62 223: 86.54 224:  6.49
 225: 52.54 226:  1.16 227:  0.09 228:  4.09 229:  0.07 230: 16.74 231:  0.02 232: 73.05
 233:  1.80 234:  5.69 235:  0.79 236: 61.07 237:355.86 238:304.22 239:  7.51 240:  0.56
 241:100.19 242:  9.49 243:  5.33 244: 34.57 245:  0.37 246: 20.26 247:  4.34 248:852.94
 249: 18.07 250: 51.49 251:251.65 252:150.22 253: 59.36 254:122.00 255:  0.29 256: 96.51
 257:  0.21 258:  3.35 259: 86.22 260:****** 261:150.17 262:****** 263: 48.45 264:  0.49
 265:  2.29 266:  2.84 267: 15.68 268:  7.04 269: 29.16 270:  1.62 271: 34.54 272:  0.04
 273:  3.65 274:  0.07 275:  2.08 276:  0.90 277: 20.03 278: 34.38 279: 58.78 280:  0.01
 281: 15.43 282:  8.36 283:  2.13 284:  2.11 285:  0.40 286:  0.33 287:  0.20 288:  0.19
 289: 13.29 290:  5.11 291: 41.19 292: 35.35 293: 12.65 294: 27.81 295: 74.04 296:  9.66
 297: 18.81 298: 31.21 299: 63.33 300: 27.93 301:151.10 302: 42.61 303:130.07 304: 14.94
 305: 67.86 306:118.44 307:103.36 308:  0.10 309:  0.87 310:  2.20 311: 11.15 312: 11.00
 313:  9.73 314: 20.37 315:  8.00 316: 14.38 317:  6.38 318:  8.27
 Raman intensities (Ä⁴*amu⁻¹)
   1:  0.00   2:  0.00   3:  0.00   4:  0.00   5:  0.00   6:  0.00   7:  0.00   8:  0.00
   9:  0.00  10:  0.00  11:  0.00  12:  0.00  13:  0.00  14:  0.00  15:  0.00  16:  0.00
  17:  0.00  18:  0.00  19:  0.00  20:  0.00  21:  0.00  22:  0.00  23:  0.00  24:  0.00
  25:  0.00  26:  0.00  27:  0.00  28:  0.00  29:  0.00  30:  0.00  31:  0.00  32:  0.00
  33:  0.00  34:  0.00  35:  0.00  36:  0.00  37:  0.00  38:  0.00  39:  0.00  40:  0.00
  41:  0.00  42:  0.00  43:  0.00  44:  0.00  45:  0.00  46:  0.00  47:  0.00  48:  0.00
  49:  0.00  50:  0.00  51:  0.00  52:  0.00  53:  0.00  54:  0.00  55:  0.00  56:  0.00
  57:  0.00  58:  0.00  59:  0.00  60:  0.00  61:  0.00  62:  0.00  63:  0.00  64:  0.00
  65:  0.00  66:  0.00  67:  0.00  68:  0.00  69:  0.00  70:  0.00  71:  0.00  72:  0.00
  73:  0.00  74:  0.00  75:  0.00  76:  0.00  77:  0.00  78:  0.00  79:  0.00  80:  0.00
  81:  0.00  82:  0.00  83:  0.00  84:  0.00  85:  0.00  86:  0.00  87:  0.00  88:  0.00
  89:  0.00  90:  0.00  91:  0.00  92:  0.00  93:  0.00  94:  0.00  95:  0.00  96:  0.00
  97:  0.00  98:  0.00  99:  0.00 100:  0.00 101:  0.00 102:  0.00 103:  0.00 104:  0.00
 105:  0.00 106:  0.00 107:  0.00 108:  0.00 109:  0.00 110:  0.00 111:  0.00 112:  0.00
 113:  0.00 114:  0.00 115:  0.00 116:  0.00 117:  0.00 118:  0.00 119:  0.00 120:  0.00
 121:  0.00 122:  0.00 123:  0.00 124:  0.00 125:  0.00 126:  0.00 127:  0.00 128:  0.00
 129:  0.00 130:  0.00 131:  0.00 132:  0.00 133:  0.00 134:  0.00 135:  0.00 136:  0.00
 137:  0.00 138:  0.00 139:  0.00 140:  0.00 141:  0.00 142:  0.00 143:  0.00 144:  0.00
 145:  0.00 146:  0.00 147:  0.00 148:  0.00 149:  0.00 150:  0.00 151:  0.00 152:  0.00
 153:  0.00 154:  0.00 155:  0.00 156:  0.00 157:  0.00 158:  0.00 159:  0.00 160:  0.00
 161:  0.00 162:  0.00 163:  0.00 164:  0.00 165:  0.00 166:  0.00 167:  0.00 168:  0.00
 169:  0.00 170:  0.00 171:  0.00 172:  0.00 173:  0.00 174:  0.00 175:  0.00 176:  0.00
 177:  0.00 178:  0.00 179:  0.00 180:  0.00 181:  0.00 182:  0.00 183:  0.00 184:  0.00
 185:  0.00 186:  0.00 187:  0.00 188:  0.00 189:  0.00 190:  0.00 191:  0.00 192:  0.00
 193:  0.00 194:  0.00 195:  0.00 196:  0.00 197:  0.00 198:  0.00 199:  0.00 200:  0.00
 201:  0.00 202:  0.00 203:  0.00 204:  0.00 205:  0.00 206:  0.00 207:  0.00 208:  0.00
 209:  0.00 210:  0.00 211:  0.00 212:  0.00 213:  0.00 214:  0.00 215:  0.00 216:  0.00
 217:  0.00 218:  0.00 219:  0.00 220:  0.00 221:  0.00 222:  0.00 223:  0.00 224:  0.00
 225:  0.00 226:  0.00 227:  0.00 228:  0.00 229:  0.00 230:  0.00 231:  0.00 232:  0.00
 233:  0.00 234:  0.00 235:  0.00 236:  0.00 237:  0.00 238:  0.00 239:  0.00 240:  0.00
 241:  0.00 242:  0.00 243:  0.00 244:  0.00 245:  0.00 246:  0.00 247:  0.00 248:  0.00
 249:  0.00 250:  0.00 251:  0.00 252:  0.00 253:  0.00 254:  0.00 255:  0.00 256:  0.00
 257:  0.00 258:  0.00 259:  0.00 260:  0.00 261:  0.00 262:  0.00 263:  0.00 264:  0.00
 265:  0.00 266:  0.00 267:  0.00 268:  0.00 269:  0.00 270:  0.00 271:  0.00 272:  0.00
 273:  0.00 274:  0.00 275:  0.00 276:  0.00 277:  0.00 278:  0.00 279:  0.00 280:  0.00
 281:  0.00 282:  0.00 283:  0.00 284:  0.00 285:  0.00 286:  0.00 287:  0.00 288:  0.00
 289:  0.00 290:  0.00 291:  0.00 292:  0.00 293:  0.00 294:  0.00 295:  0.00 296:  0.00
 297:  0.00 298:  0.00 299:  0.00 300:  0.00 301:  0.00 302:  0.00 303:  0.00 304:  0.00
 305:  0.00 306:  0.00 307:  0.00 308:  0.00 309:  0.00 310:  0.00 311:  0.00 312:  0.00
 313:  0.00 314:  0.00 315:  0.00 316:  0.00 317:  0.00 318:  0.00
 output can be read by thermo (or use thermo option).
 writing <g98.out> molden fake output.
 recommended (thermochemical) frequency scaling factor: 1.0
           -------------------------------------------------
          |             Thermodynamic Functions             |
           -------------------------------------------------

Molecule has no symmetry elements
It seems to be the C1 point group
c1  symmetry found (for desy threshold:  0.10E+00) used in thermo

          ...................................................
          :                      SETUP                      :
          :.................................................:
          :  # frequencies                         312      :
          :  # imaginary freq.                       0      :
          :  linear?                             false      :
          :  only rotor calc.                    false      :
          :  symmetry                               c1      :
          :  rotational number                       1      :
          :  scaling factor                  1.0000000      :
          :  rotor cutoff                   50.0000000 cm⁻¹ :
          :  imag. cutoff                  -20.0000000 cm⁻¹ :
          :.................................................:

    mode    ω/cm⁻¹     T·S(HO)/kcal·mol⁻¹    T·S(FR)/kcal·mol⁻¹   T·S(vib)
   ------------------------------------------------------------------------
       1      6.29    -2.66293 (  0.03%)    -1.67053 ( 99.97%)    -1.67078
       2      9.04    -2.44804 (  0.11%)    -1.56308 ( 99.89%)    -1.56403
       3     11.59    -2.30108 (  0.29%)    -1.48960 ( 99.71%)    -1.49193
       4     18.17    -2.03492 (  1.71%)    -1.35647 ( 98.29%)    -1.36809
       5     18.38    -2.02803 (  1.79%)    -1.35302 ( 98.21%)    -1.36512
       6     23.95    -1.87139 (  5.00%)    -1.27464 ( 95.00%)    -1.30446
       7     24.94    -1.84740 (  5.83%)    -1.26263 ( 94.17%)    -1.29670
       8     27.04    -1.79945 (  7.88%)    -1.23862 ( 92.12%)    -1.28282
       9     27.55    -1.78846 (  8.44%)    -1.23312 ( 91.56%)    -1.27998
      10     29.45    -1.74894 ( 10.75%)    -1.21333 ( 89.25%)    -1.27088
      11     29.95    -1.73908 ( 11.40%)    -1.20839 ( 88.60%)    -1.26890
      12     47.81    -1.46267 ( 45.54%)    -1.06979 ( 54.46%)    -1.24871
      13     50.97    -1.42494 ( 51.93%)    -1.05084 ( 48.07%)    -1.24509
      14     51.51    -1.41880 ( 52.96%)    -1.04775 ( 47.04%)    -1.24428
      15     56.81    -1.36110 ( 62.49%)    -1.01874 ( 37.51%)    -1.23269
      16     64.34    -1.28787 ( 73.27%)    -0.98186 ( 26.73%)    -1.20608
      17     66.61    -1.26744 ( 75.91%)    -0.97156 ( 24.09%)    -1.19615
      18     69.35    -1.24380 ( 78.73%)    -0.95963 ( 21.27%)    -1.18335
      19     74.71    -1.20011 ( 83.29%)    -0.93757 ( 16.71%)    -1.15625
      20     84.98    -1.12477 ( 89.30%)    -0.89943 ( 10.70%)    -1.10065
      21     95.22    -1.05838 ( 92.93%)    -0.86571 (  7.07%)    -1.04477
      22    103.11    -1.01212 ( 94.76%)    -0.84214 (  5.24%)    -1.00321
      23    104.17    -1.00621 ( 94.96%)    -0.83912 (  5.04%)    -0.99778
      24    105.33    -0.99973 ( 95.17%)    -0.83581 (  4.83%)    -0.99181
      25    120.89    -0.92014 ( 97.16%)    -0.79502 (  2.84%)    -0.91658
      26    126.27    -0.89505 ( 97.60%)    -0.78210 (  2.40%)    -0.89234
      27    130.23    -0.87736 ( 97.87%)    -0.77297 (  2.13%)    -0.87514
      28    144.21    -0.81908 ( 98.58%)    -0.74275 (  1.42%)    -0.81799
      29    148.32    -0.80313 ( 98.72%)    -0.73444 (  1.28%)    -0.80225
      30    152.37    -0.78785 ( 98.85%)    -0.72646 (  1.15%)    -0.78715
      31    162.36    -0.75196 ( 99.11%)    -0.70763 (  0.89%)    -0.75156
      32    168.28    -0.73184 ( 99.23%)    -0.69703 (  0.77%)    -0.73157
      33    190.32    -0.66328 ( 99.53%)    -0.66056 (  0.47%)    -0.66327
      34    192.71    -0.65640 ( 99.55%)    -0.65686 (  0.45%)    -0.65640
      35    198.32    -0.64061 ( 99.60%)    -0.64837 (  0.40%)    -0.64065
      36    200.30    -0.63517 ( 99.61%)    -0.64543 (  0.39%)    -0.63520
      37    203.97    -0.62523 ( 99.64%)    -0.64005 (  0.36%)    -0.62528
      38    205.33    -0.62159 ( 99.65%)    -0.63808 (  0.35%)    -0.62165
      39    230.05    -0.56009 ( 99.78%)    -0.60440 (  0.22%)    -0.56019
      40    237.71    -0.54262 ( 99.80%)    -0.59470 (  0.20%)    -0.54272
      41    257.49    -0.50052 ( 99.86%)    -0.57102 (  0.14%)    -0.50062
      42    260.51    -0.49444 ( 99.86%)    -0.56757 (  0.14%)    -0.49454
      43    261.45    -0.49256 ( 99.87%)    -0.56650 (  0.13%)    -0.49266
      44    265.60    -0.48439 ( 99.87%)    -0.56183 (  0.13%)    -0.48449
      45    276.47    -0.46374 ( 99.89%)    -0.54995 (  0.11%)    -0.46383
      46    277.42    -0.46198 ( 99.89%)    -0.54893 (  0.11%)    -0.46207
   ------------------------------------------------------------------------

   temp. (K)  partition function   enthalpy   heat capacity  entropy
                                   cal/mol     cal/K/mol   cal/K/mol   J/K/mol
 298.15  VIB  0.487E+27            31807.114    194.846    201.523
         ROT  0.179E+09              888.752      2.981     40.739
         INT  0.870E+35            32695.867    197.827    242.262
         TR   0.249E+29             1481.254      4.968     46.149
         TOT                       34177.1206   202.7947   288.4106  1206.7101

       T/K    H(0)-H(T)+PV         H(T)/Eh          T*S/Eh         G(T)/Eh
   ------------------------------------------------------------------------
    298.15    0.544647E-01    0.854059E+00    0.137033E+00    0.717026E+00
   ------------------------------------------------------------------------

         :::::::::::::::::::::::::::::::::::::::::::::::::::::
         ::                  THERMODYNAMIC                  ::
         :::::::::::::::::::::::::::::::::::::::::::::::::::::
         :: total free energy        -170.645229407780 Eh   ::
         ::.................................................::
         :: total energy             -171.362255419904 Eh   ::
         :: zero point energy           0.799594505604 Eh   ::
         :: G(RRHO) w/o ZPVE           -0.082568493480 Eh   ::
         :: G(RRHO) contrib.            0.717026012124 Eh   ::
         :::::::::::::::::::::::::::::::::::::::::::::::::::::

optimized geometry written to: xtbopt.xyz


           -------------------------------------------------
          | TOTAL ENERGY             -171.362255419904 Eh   |
          | TOTAL ENTHALPY           -170.508196205742 Eh   |
          | TOTAL FREE ENERGY        -170.645229407780 Eh   |
          | GRADIENT NORM               0.000092101470 Eh/α |
          | HOMO-LUMO GAP               1.647340919783 eV   |
           -------------------------------------------------

------------------------------------------------------------------------
 * finished run on 2025/08/25 at 01:07:33.465     
------------------------------------------------------------------------
 total:
 * wall-time:     0 d,  0 h,  0 min, 12.021 sec
 *  cpu-time:     0 d,  0 h,  6 min, 11.828 sec
 * ratio c/w:    30.931 speedup
 SCF:
 * wall-time:     0 d,  0 h,  0 min,  0.222 sec
 *  cpu-time:     0 d,  0 h,  0 min,  8.852 sec
 * ratio c/w:    39.826 speedup
 ANC optimizer:
 * wall-time:     0 d,  0 h,  0 min,  1.541 sec
 *  cpu-time:     0 d,  0 h,  1 min,  1.653 sec
 * ratio c/w:    39.996 speedup
 analytical hessian:
 * wall-time:     0 d,  0 h,  0 min,  8.299 sec
 *  cpu-time:     0 d,  0 h,  4 min, 50.358 sec
 * ratio c/w:    34.989 speedup

