$hessian                                                                        
        0.5192896337  -0.0046917824  -0.0121710608  -0.0574360290  -0.0051482207
       -0.0057359189  -0.0083960858  -0.0124791412  -0.0248528680  -0.0013004865
        0.0065436808   0.0175384045   0.0000608665   0.0004749634   0.0009259277
       -0.0004204912   0.0000890919  -0.0003820594  -0.0000010013  -0.0000683449
        0.0000076113  -0.0008651248   0.0001676500  -0.0001918510  -0.0012075211
       -0.0016883360   0.0018152494   0.0000815233   0.0002939628  -0.0002369295
        0.0000679722  -0.0001179463  -0.0000674122  -0.0000631014   0.0001108068
        0.0000554825   0.0000419329  -0.0000435405  -0.0000399607   0.0000134520
        0.0000223960   0.0000282118   0.0000700692   0.0000481753   0.0000350067
       -0.0000599186  -0.0000774992  -0.0000603039   0.0000558493  -0.0000087512
       -0.0000130440   0.0000355277  -0.0000838252  -0.0000304489   0.0000337234
        0.0000491396   0.0000574562  -0.0000165553  -0.0000166466  -0.0000327927
        0.0000296140  -0.0000009057   0.0000120759  -0.0000121259  -0.0000018708
       -0.0000213554   0.0000226463  -0.0000076069   0.0000169082  -0.0000225709
        0.0000149825  -0.0000254862   0.0000252436  -0.0000228612   0.0000308764
       -0.0000262201   0.0000244506  -0.0000276985  -0.0000102527  -0.0000117579
       -0.0000115955   0.0000129803  -0.0000020512  -0.0000122037  -0.0000004720
       -0.0000006927   0.0000061604  -0.0000007455  -0.0000421437   0.0000154641
        0.0000048510   0.0000396303  -0.0000145057  -0.0000025893  -0.0000354764
        0.0000076451   0.0000077832   0.0000275444   0.0000009944  -0.0000060773
       -0.0000218626  -0.0000018217  -0.0000048019   0.0000265630   0.0000247990
       -0.0000140528   0.0000527763  -0.0000074484  -0.0000364267   0.0000496831
        0.0000173088   0.0000486801  -0.0000481860  -0.0000391725   0.0000840788
        0.0000004047   0.0000111135  -0.0002332541   0.0008921808  -0.0004047945
       -0.0002865639  -0.0001687848   0.0000522025   0.0000555484   0.0000045931
       -0.0000631972  -0.0001095430   0.0000731660  -0.0002273000  -0.0000962241
       -0.0000302207   0.0009321517   0.0012601998   0.0045028264   0.0032093428
       -0.1437546530  -0.0546268572   0.1067119893  -0.0518722113   0.0443499877
       -0.0073336264  -0.2518998655   0.0233639005  -0.0758976056   0.0010832696
       -0.0003355417  -0.0006865282   0.0009105512  -0.0006807344  -0.0000628310
       -0.0051793054  -0.0002172167  -0.0034192645   0.0001201715   0.0001615196
        0.0002616468   0.0000075369  -0.0000051013   0.0000058554   0.0000651304
        0.0000239581   0.0001046390  -0.0000845637  -0.0000995723   0.0001813395
        0.0000201980   0.0000034783   0.0000161558  -0.0000011209   0.0000281388
        0.0000190826  -0.0000029334  -0.0000156538  -0.0000096955  -0.0000058064
        0.0000197568   0.0000151774  -0.0000208360   0.0000049655  -0.0000004687
        0.0000009797   0.0000007209   0.0000065659  -0.0000015987   0.0000127767
       -0.0000045264  -0.0000085153   0.0000048419  -0.0000063530  -0.0000132314
       -0.0000036837  -0.0000069899  -0.0000048360  -0.0000090220   0.0000051485
        0.0000007810   0.0000038153   0.0000058132  -0.0000113558   0.0000046266
       -0.0000016990  -0.0000065234   0.0000022327  -0.0000067353  -0.0000019030
        0.0000031359   0.0000058827  -0.0000016629  -0.0000092950   0.0000013060
       -0.0000103789  -0.0000103742  -0.0000036139  -0.0000024190  -0.0000111157
        0.0000030833   0.0000064944  -0.0000060023   0.0000092856   0.0000031223
        0.0000045519   0.0000003364  -0.0000163145  -0.0000036329   0.0000047815
       -0.0000272407   0.0000139597   0.0000483928  -0.0000283637   0.0000531280
        0.0000287105   0.0000519124   0.0000030924   0.0000089226   0.0000090029
       -0.0000031653  -0.0000138373   0.0000025477  -0.0007158314  -0.0001195033
       -0.0046917824   0.5033351199  -0.0419403589  -0.0095924321  -0.0884218818
       -0.0477911427  -0.0013011852   0.0004516890  -0.0018033959   0.0024509409
        0.0061288956   0.0030990077  -0.0002675716  -0.0015317177   0.0006579356
        0.0002930578   0.0002875651  -0.0005184523  -0.0001440894   0.0004531118
        0.0000816417  -0.0005563571  -0.0004511153   0.0002154552  -0.0006289844
       -0.0005656578   0.0006878727   0.0007334741   0.0006443718  -0.0009433155
       -0.0002880012   0.0000906277   0.0000686935  -0.0000198232  -0.0000416954
       -0.0000949785  -0.0000920281  -0.0000133130  -0.0000181932   0.0000900476
       -0.0000794965  -0.0000784096  -0.0000593477   0.0000997512   0.0000801163
        0.0000156425  -0.0000234844  -0.0000195256  -0.0000352449  -0.0000312078
       -0.0000219832   0.0000540361   0.0000057937   0.0000667805   0.0001592582
        0.0000203135  -0.0000161243  -0.0000364710  -0.0000197057  -0.0000171273
       -0.0000727693   0.0000095099  -0.0001203528   0.0000059039  -0.0001015055
        0.0000500857  -0.0001103973  -0.0000299940  -0.0000812369   0.0000716057
        0.0000021798   0.0000522775  -0.0000101069   0.0000623132  -0.0000244803
        0.0001158723   0.0000639016   0.0000737788  -0.0000215090  -0.0000164742
       -0.0000130920   0.0000007866  -0.0000008053  -0.0000041160   0.0000007040
        0.0000008232   0.0000042906   0.0001046991   0.0000996885   0.0000636442
        0.0000294798  -0.0000510591   0.0000378317   0.0000369212   0.0000780966
        0.0000140497  -0.0000825199  -0.0001073656  -0.0000331075  -0.0000500342
        0.0000695724  -0.0000696723  -0.0000767656  -0.0001369549   0.0000308346
       -0.0001046303   0.0000624007  -0.0000241894   0.0000136748   0.0000079021
        0.0000373299   0.0000350689   0.0000651939   0.0000634299   0.0001723320
        0.0001190451  -0.0000218083  -0.0026662032  -0.0029911258   0.0019287061
        0.0011816856  -0.0003857781   0.0006899856  -0.0000563845   0.0001467304
        0.0000518569   0.0011301365   0.0002133177   0.0001005968  -0.0000801495
       -0.0005625171  -0.0009620943   0.0013407317  -0.0269764524  -0.0220247506
       -0.0546557869  -0.0718239868   0.0592606070   0.0439428910  -0.2710868561
        0.0381932421   0.0234567407  -0.0465364674   0.0096083375   0.0002302523
        0.0000712987  -0.0000869774   0.0002935371   0.0005977505   0.0007351552
        0.0003185730   0.0005422958   0.0001903437  -0.0003709383  -0.0001913960
        0.0013859601  -0.0000225668   0.0000042270   0.0000083063  -0.0000210209
        0.0000440169   0.0000857787  -0.0000872593  -0.0000479149   0.0000684626
        0.0000413616   0.0000134786   0.0000368001   0.0000098146   0.0000092634
        0.0000038924  -0.0000024016  -0.0000252402  -0.0000123450   0.0000046982
        0.0000084165  -0.0000134569   0.0000079529   0.0000019832   0.0000045272
       -0.0000010726   0.0000044075   0.0000041370   0.0000001241   0.0000039191
        0.0000011039  -0.0000008254   0.0000011105  -0.0000025623  -0.0000012107
        0.0000041932   0.0000030143   0.0000001326   0.0000012020   0.0000012201
       -0.0000006177   0.0000013903   0.0000009964  -0.0000012849   0.0000002040
       -0.0000016353   0.0000003352  -0.0000009041  -0.0000010140   0.0000039645
        0.0000011343  -0.0000019895  -0.0000002443   0.0000017555  -0.0000007184
        0.0000002001   0.0000013616   0.0000010089   0.0000006773  -0.0000011905
        0.0000001288   0.0000024024  -0.0000003253  -0.0000036312   0.0000030723
       -0.0000005401  -0.0000020976   0.0000075144  -0.0000034764   0.0000088452
        0.0000161164  -0.0000192686  -0.0000042609   0.0001032758  -0.0002279102
        0.0000561099  -0.0000761472  -0.0001017532  -0.0001638889  -0.0000199266
        0.0000003305  -0.0000611097  -0.0001736044  -0.0012251171  -0.0008165842
       -0.0121710608  -0.0419403589   0.4562496045  -0.0125245461  -0.0451985944
       -0.1394461308  -0.0072109430  -0.0078892873  -0.0151184130   0.0076389502
       -0.0069606786  -0.0274920863  -0.0001372581  -0.0008830084  -0.0001796390
        0.0010430482  -0.0004344715   0.0001059620  -0.0001504427   0.0004131026
        0.0001223902   0.0010713567  -0.0001227556   0.0003263513  -0.0006830443
        0.0027323722  -0.0020489428  -0.0000416726  -0.0008001310   0.0001096211
       -0.0000285619   0.0000335210   0.0000815543  -0.0000578652  -0.0000105600
        0.0000280257  -0.0000401726  -0.0000185834   0.0000081589  -0.0000407947
        0.0000038756  -0.0000028879   0.0002427003   0.0001482382   0.0001371274
       -0.0002311567  -0.0001495208  -0.0001422981   0.0000833118  -0.0000880940
       -0.0000705165   0.0001548398  -0.0001310048   0.0000762429   0.0003095122
        0.0001279058   0.0000809283  -0.0000750816  -0.0000749444  -0.0000552778
       -0.0001589811   0.0000263185  -0.0002833915  -0.0000052712  -0.0002434379
        0.0000987415  -0.0002386966  -0.0000845595  -0.0001701740   0.0001523363
        0.0000242290   0.0000947745   0.0000020281   0.0001241313  -0.0000343153
        0.0002642400   0.0001968760   0.0001489877  -0.0000695443  -0.0000525891
       -0.0000449505   0.0000133742  -0.0000014122  -0.0000201185  -0.0000062344
        0.0000027109   0.0000193805   0.0002564985   0.0001861387   0.0001735628
        0.0000789697  -0.0000721318   0.0000766574   0.0000864538   0.0001451817
        0.0000480483  -0.0001910875  -0.0002214482  -0.0000900611  -0.0001215582
        0.0001395407  -0.0001841203  -0.0001731201  -0.0002538959   0.0000820137
       -0.0001981344   0.0001990203  -0.0000252892   0.0000013299   0.0000650810
        0.0000632260  -0.0001034160   0.0000812452   0.0000952492   0.0001919879
       -0.0000845230  -0.0000152305  -0.0010220766   0.0005949992  -0.0001065256
        0.0000522139   0.0003934839  -0.0002416026  -0.0003830193   0.0000399070
        0.0004370204   0.0004054325  -0.0006885548   0.0000711071   0.0006800800
        0.0013261238  -0.0010188758   0.0012476190  -0.0080240893   0.0022601641
        0.1061753405   0.0592719026  -0.1547545641  -0.0075140154   0.0385034950
       -0.0473506084  -0.0756907534   0.0095065074  -0.0706049168   0.0008581581
        0.0001940266   0.0006825791   0.0007903101  -0.0004000129   0.0003223486
       -0.0025936521  -0.0001271957  -0.0010373203   0.0001168998  -0.0002773713
       -0.0011289541  -0.0000395500  -0.0000427461  -0.0000286422  -0.0000803683
       -0.0000537661  -0.0001188820   0.0000744979   0.0000769277  -0.0001575056
        0.0000604729   0.0000190978   0.0000205322   0.0000112388   0.0000258609
       -0.0000034027  -0.0000002840  -0.0000433904  -0.0000325196   0.0000037123
        0.0000383570  -0.0000109601  -0.0000105354   0.0000083819  -0.0000041175
       -0.0000040581   0.0000005338   0.0000106600  -0.0000026021   0.0000135551
       -0.0000024904  -0.0000065829   0.0000019288  -0.0000057239  -0.0000116261
       -0.0000024185  -0.0000043651  -0.0000056999  -0.0000066398   0.0000045398
        0.0000013457   0.0000042136   0.0000064744  -0.0000101687   0.0000027780
       -0.0000019483  -0.0000020348  -0.0000000224  -0.0000079125   0.0000062927
        0.0000008757   0.0000018543   0.0000010142  -0.0000106756  -0.0000040833
       -0.0000054277  -0.0000101342   0.0000007902   0.0000026523  -0.0000110145
        0.0000045543   0.0000064098  -0.0000079373   0.0000108952   0.0000030637
        0.0000067758  -0.0000093155  -0.0000038534  -0.0000214087   0.0000034028
       -0.0000217338  -0.0000128740  -0.0000119473  -0.0000749632   0.0000385688
       -0.0000204035  -0.0000434086   0.0000423188   0.0000104256  -0.0000315697
        0.0000044130  -0.0000449310   0.0001289361   0.0006917212   0.0000624050
       -0.0574360290  -0.0095924321  -0.0125245461   0.4406131061   0.0036789754
       -0.0232350527  -0.1525742314   0.0098255447  -0.0339428300  -0.1070690512
       -0.0277628518   0.0561382135   0.0003309302  -0.0078722120   0.0017769153
        0.0055586613   0.0006322459   0.0003080946  -0.0025952312   0.0024803271
        0.0013137631   0.0000934165   0.0020601784   0.0043560325  -0.0170197686
       -0.0003259085   0.0175547092   0.0014284968  -0.0031945307  -0.0028489576
       -0.0004304062  -0.0002883866  -0.0004101900  -0.0003712420   0.0003140918
        0.0000987369   0.0007767250  -0.0004540780  -0.0003593216  -0.0008615648
       -0.0002322497  -0.0002430123   0.0006506038   0.0002865566   0.0002616394
        0.0000344030  -0.0005492142  -0.0005138253  -0.0007064651  -0.0006496553
       -0.0005295937   0.0011619987   0.0000220516   0.0007337626   0.0011649536
        0.0003920536   0.0001645085  -0.0002558428  -0.0002233191  -0.0001882562
       -0.0008273605   0.0001086419  -0.0012615414   0.0000237815  -0.0011673322
        0.0005442245  -0.0011930252  -0.0003776822  -0.0008536821   0.0007987399
        0.0000559309   0.0005427771  -0.0000705885   0.0006907203  -0.0002777058
        0.0013504436   0.0008417206   0.0008160109  -0.0002705808  -0.0002019364
       -0.0001629821   0.0000700341   0.0000208488  -0.0000300612  -0.0000096858
        0.0000222199   0.0000660454   0.0012318090   0.0010574977   0.0007729417
        0.0003626505  -0.0005057666   0.0004178245   0.0004370652   0.0008315159
        0.0002055280  -0.0009035566  -0.0011363917  -0.0004096316  -0.0005382889
        0.0007665960  -0.0008663392  -0.0008278244  -0.0012950114   0.0003040210
       -0.0002357123   0.0011295128   0.0002196398  -0.0013037898  -0.0000852422
        0.0000516449   0.0010359636   0.0000277954   0.0002039858   0.0000130465
        0.0002688808   0.0002052704  -0.0072465541   0.0213461183   0.0006479378
       -0.0005187929   0.0040697258   0.0037609742  -0.0026088137   0.0011825526
        0.0013738139   0.0026969787  -0.0015270345   0.0042779462   0.0040411630
       -0.0139148975   0.0016540709  -0.0608121790   0.0185101779   0.0001880187
        0.0006225564   0.0082859619   0.0163221626   0.0003662198   0.0028058996
        0.0037203568  -0.0044050974  -0.0134131486  -0.0234925567  -0.0239732879
        0.0006446474  -0.0049192747  -0.0097164592   0.0041740878  -0.0036653279
       -0.0059595971  -0.0008103790  -0.0045665556  -0.0013023791   0.0003084899
       -0.0014563378   0.0002236461   0.0003796846  -0.0001635000  -0.0005073593
       -0.0000929867  -0.0007073780  -0.0004646033  -0.0002485089   0.0005943426
       -0.0000310827   0.0000110825   0.0000103970   0.0000260221  -0.0000557764
       -0.0000434099   0.0000189418  -0.0000915763  -0.0000436921   0.0000140334
        0.0001191724  -0.0000807440  -0.0000383528   0.0000097660  -0.0000391220
       -0.0000178943  -0.0000135285   0.0000212163  -0.0000242389   0.0000243865
       -0.0000042568   0.0000049074  -0.0000100747   0.0000097940  -0.0000268462
       -0.0000135883  -0.0000184575  -0.0000270828  -0.0000271347   0.0000091774
       -0.0000053927   0.0000219429   0.0000270400  -0.0000380315   0.0000088969
        0.0000129168  -0.0000206003   0.0000027039  -0.0000299311  -0.0000058106
       -0.0000036544   0.0000069169   0.0000062140  -0.0000274179  -0.0000147656
       -0.0000133344  -0.0000259049  -0.0000267322   0.0000062984   0.0000039422
       -0.0000225440   0.0000191848  -0.0000215864   0.0000082739   0.0000199376
       -0.0000239113  -0.0000432130  -0.0000455041  -0.0000633056   0.0000574172
       -0.0000569888   0.0000424182   0.0000333786  -0.0002038058   0.0009611974
       -0.0003311592  -0.0005726564  -0.0004043659  -0.0006684663   0.0000419715
       -0.0009114690   0.0004305215  -0.0011019138  -0.0008123110  -0.0012280095
       -0.0051482207  -0.0884218818  -0.0451985944   0.0036789754   0.4806201342
       -0.0279109264   0.0054603318  -0.0602670112   0.0046262322  -0.0315095028
       -0.0804499611   0.0365173422  -0.0176636939  -0.0157121571   0.0210030706
        0.0015618252  -0.0033428527   0.0021250176   0.0009863665  -0.0015918766
       -0.0004849908   0.0039792575  -0.0002050018  -0.0016605746   0.0076908063
        0.0062585874  -0.0079196620  -0.0031041181  -0.0002104722   0.0017423648
        0.0001916640   0.0001220029   0.0002481894   0.0003343245  -0.0004455204
       -0.0002620639  -0.0006110951   0.0003440217   0.0002580388   0.0005329463
        0.0000238807   0.0000402768  -0.0005685286  -0.0002329491  -0.0002046028
        0.0000173038   0.0004849687   0.0004374906   0.0004160490   0.0004363399
        0.0003585050  -0.0008289907   0.0001238265  -0.0004320326  -0.0007362059
       -0.0003749121  -0.0002430537   0.0001953137   0.0001770165   0.0001360215
        0.0006015734  -0.0000862660   0.0009438013  -0.0000103322   0.0008444481
       -0.0003912590   0.0008605334   0.0002748469   0.0006169907  -0.0005750538
       -0.0000430374  -0.0003886884   0.0000518690  -0.0005020042   0.0001990102
       -0.0009823873  -0.0006184002  -0.0005888439   0.0002015205   0.0001482929
        0.0001205426  -0.0000467713  -0.0000156762   0.0000209328   0.0000117452
       -0.0000169427  -0.0000497731  -0.0008955940  -0.0007585346  -0.0005643120
       -0.0002632067   0.0003577146  -0.0002984305  -0.0003161932  -0.0005972640
       -0.0001535115   0.0006598074   0.0008242134   0.0003006587   0.0003937509
       -0.0005582953   0.0006292517   0.0006018381   0.0009334839  -0.0002248002
        0.0000927966  -0.0008193470  -0.0001416215   0.0010123009  -0.0000056294
       -0.0000404940  -0.0008383816   0.0000800939  -0.0000399446  -0.0001833523
       -0.0002228615  -0.0001476669   0.0132010942  -0.0187756368  -0.0033063663
        0.0022489982   0.0000414324   0.0000958509   0.0023691590  -0.0016776607
       -0.0013442164  -0.0029051437   0.0031357782   0.0032202656  -0.0040428387
       -0.0227251538   0.0115193243   0.0229604358  -0.1772250938   0.0250116965
        0.0014638797   0.0041581074   0.0066592992  -0.0020148789  -0.0192951326
       -0.0246672284  -0.0010907495   0.0004529138   0.0000785182  -0.0099234166
        0.0005718358  -0.0034260990   0.0263260964  -0.0054853059   0.0106936534
       -0.0130831536   0.0009114620  -0.0056763822  -0.0008989793   0.0003864437
       -0.0003406986  -0.0007310963  -0.0007350757   0.0010017032  -0.0002288236
       -0.0000892096  -0.0003048308   0.0004923149   0.0002350344  -0.0007637919
        0.0000592888  -0.0000184172  -0.0000619048   0.0000012051   0.0000151132
        0.0000467848  -0.0000125203   0.0000705986   0.0000320819  -0.0000115059
       -0.0000767135   0.0000542537   0.0000268703  -0.0000077299   0.0000365183
        0.0000162588   0.0000132069  -0.0000143024   0.0000174373  -0.0000143476
        0.0000020184  -0.0000038504   0.0000086352  -0.0000085501   0.0000164747
        0.0000120467   0.0000138453   0.0000186849   0.0000186583  -0.0000049897
        0.0000026484  -0.0000142204  -0.0000174852   0.0000251734  -0.0000053043
       -0.0000096897   0.0000137044  -0.0000022445   0.0000217119   0.0000028172
        0.0000047423  -0.0000047290  -0.0000067529   0.0000205795   0.0000128204
        0.0000068521   0.0000189408   0.0000188816  -0.0000065390  -0.0000042572
        0.0000170464  -0.0000163134   0.0000157141  -0.0000068984  -0.0000163323
        0.0000184754   0.0000329612   0.0000253900   0.0000467208  -0.0000312289
        0.0000060086   0.0000266706  -0.0000389509  -0.0000503370  -0.0004179417
        0.0001509864  -0.0001988824   0.0001384742  -0.0003223809   0.0002185536
       -0.0003766013   0.0000822698   0.0004714967   0.0000694443  -0.0014296587
       -0.0057359189  -0.0477911427  -0.1394461308  -0.0232350527  -0.0279109264
        0.4475725954  -0.0410961987   0.0069415081  -0.0722406135   0.0563054338
        0.0334360034  -0.1126879506   0.0055240432   0.0120376901  -0.0094119445
        0.0007581681   0.0030062460   0.0053861187   0.0015217289  -0.0011718327
       -0.0014154095   0.0039374498  -0.0002153194   0.0023968361   0.0163209249
       -0.0018987770  -0.0106954105  -0.0030092012   0.0016156782  -0.0014025047
        0.0000629224   0.0001275908  -0.0000360939   0.0004925316  -0.0003505993
       -0.0005157716  -0.0005354962   0.0003197661   0.0002168119   0.0003564543
       -0.0000950533  -0.0000870799  -0.0005515310  -0.0002175020  -0.0001948317
        0.0000674577   0.0004782337   0.0004220753   0.0002239183   0.0003062365
        0.0002602877  -0.0006361984   0.0002451782  -0.0002388749  -0.0004736599
       -0.0003803894  -0.0003096259   0.0001730104   0.0001423368   0.0001264131
        0.0004774895  -0.0000628709   0.0007679289  -0.0000022520   0.0006905615
       -0.0003145522   0.0007005268   0.0002270258   0.0005050222  -0.0004675989
       -0.0000273419  -0.0003190631   0.0000442163  -0.0004168250   0.0001618847
       -0.0008017472  -0.0004999213  -0.0004815635   0.0001594118   0.0001184769
        0.0000941428  -0.0000372393  -0.0000127492   0.0000151295   0.0000107824
       -0.0000138352  -0.0000425327  -0.0007279859  -0.0006215821  -0.0004591939
       -0.0002145809   0.0002942584  -0.0002425177  -0.0002637363  -0.0004953895
       -0.0001289872   0.0005339159   0.0006778884   0.0002433555   0.0003151974
       -0.0004643783   0.0005063973   0.0004965126   0.0007549620  -0.0001843691
        0.0000056746  -0.0006290819  -0.0000915744   0.0008577295  -0.0001015034
       -0.0000392540  -0.0007266817   0.0001410659   0.0000677677  -0.0002342258
        0.0000467219  -0.0001819459   0.0022818827  -0.0089429457   0.0044470020
        0.0042350817  -0.0013508753   0.0028362415   0.0013751584  -0.0002391428
       -0.0013818975   0.0043645673   0.0029704311   0.0017833130  -0.0025291633
        0.0202043268  -0.0061120916  -0.0004356434   0.0271532575  -0.0622233934
        0.0007756734  -0.0103464257  -0.0225289988   0.0009306709  -0.0013383493
        0.0011895155  -0.0040828102  -0.0065563278  -0.0125361518   0.0164751195
       -0.0008949220   0.0056007159  -0.0065918668   0.0018665443  -0.0026067814
       -0.0240123600   0.0010139994  -0.0114554164  -0.0011119453  -0.0014246903
       -0.0014291471   0.0001998853   0.0000038045  -0.0000844985  -0.0008250160
       -0.0003767721  -0.0006482009   0.0001522977   0.0004006789  -0.0003164588
        0.0000134756  -0.0000370262  -0.0000485368   0.0000069373  -0.0000349668
        0.0000730478  -0.0000125429   0.0000653146   0.0000267050  -0.0000099525
       -0.0000550155   0.0000387039   0.0000219723  -0.0000085380   0.0000363858
        0.0000149743   0.0000086657  -0.0000107951   0.0000139967  -0.0000128998
        0.0000031247  -0.0000031655   0.0000072940  -0.0000062326   0.0000141810
        0.0000087154   0.0000115835   0.0000142127   0.0000158380  -0.0000046790
        0.0000016203  -0.0000121934  -0.0000121277   0.0000206069  -0.0000047648
       -0.0000066758   0.0000113870  -0.0000014299   0.0000185865   0.0000017139
        0.0000032360  -0.0000026329  -0.0000050391   0.0000166957   0.0000099439
        0.0000076099   0.0000150836   0.0000173051  -0.0000032835  -0.0000037831
        0.0000150244  -0.0000104537   0.0000134877   0.0000012625  -0.0000107650
        0.0000155802   0.0000294878   0.0000218810   0.0000225622  -0.0000133228
       -0.0000055950   0.0000045268  -0.0000540110   0.0003383492  -0.0005953635
        0.0000954919  -0.0006053411  -0.0003346203  -0.0007670945   0.0000144714
        0.0010098880  -0.0002731365  -0.0016489782  -0.0004792860  -0.0012861312
       -0.0083960858  -0.0013011852  -0.0072109430  -0.1525742314   0.0054603318
       -0.0410961987   0.4443596471   0.0069454080  -0.0341211220  -0.0303016708
       -0.0031096701   0.0032509724  -0.0006071249   0.0011671270  -0.0008763186
       -0.0001743055   0.0006509686   0.0009649202   0.0003127972  -0.0003222901
       -0.0000436290   0.0001605128   0.0005406315   0.0008491503  -0.0004691931
       -0.0035279316   0.0000441947  -0.0004748549   0.0007044154  -0.0000604418
        0.0003472278  -0.0000808975   0.0000399663  -0.0000070155   0.0000726981
        0.0000158221   0.0000679253   0.0000281913  -0.0000060978   0.0000233287
        0.0000305331   0.0000277359  -0.0001692622  -0.0001395079  -0.0001220490
        0.0001605430   0.0001239825   0.0001197446   0.0000031912   0.0001282263
        0.0001044337  -0.0002105022   0.0000696025  -0.0001117397  -0.0002938671
       -0.0001120683  -0.0000685590   0.0000774046   0.0000728671   0.0000522907
        0.0001206139  -0.0000240426   0.0002335359   0.0000062352   0.0001967768
       -0.0000786296   0.0001898338   0.0000641873   0.0001377952  -0.0001139209
       -0.0000242676  -0.0000686066   0.0000031645  -0.0000985964   0.0000264378
       -0.0002114369  -0.0001653914  -0.0001148609   0.0000700653   0.0000472910
        0.0000366493  -0.0000050799   0.0000023731   0.0000164252   0.0000133131
       -0.0000004538  -0.0000160580  -0.0002097722  -0.0001437436  -0.0001433306
       -0.0000609705   0.0000586239  -0.0000555133  -0.0000664691  -0.0001054374
       -0.0000398331   0.0001502627   0.0001785678   0.0000695250   0.0001003195
       -0.0001142372   0.0001477202   0.0001423458   0.0002054210  -0.0000776348
        0.0001562633  -0.0002411506  -0.0000264670   0.0000660078  -0.0000216257
       -0.0000374830   0.0000975639  -0.0000985567  -0.0001269024  -0.0002300128
       -0.0000064477  -0.0000056798   0.0005103806   0.0003690957  -0.0016889214
       -0.0000794639  -0.0001276624   0.0006082894   0.0005355718   0.0000491783
       -0.0003165428  -0.0002625010   0.0008088372   0.0003971491  -0.0011505811
       -0.0012153748   0.0008655376  -0.0107751475   0.0126718237  -0.0057764608
        0.0006633983   0.0002406741   0.0007781580   0.0004011830   0.0003932892
        0.0005718643   0.0001679342  -0.0005088559  -0.0009993813  -0.1463062557
       -0.0587456156   0.1058980090  -0.0511393245   0.0481874892  -0.0083716965
       -0.0436429289  -0.0087840705  -0.0135626633  -0.0006880966   0.0000351565
       -0.0001918553  -0.0000378411   0.0000094084  -0.0000702571  -0.0001152265
       -0.0000353733  -0.0001070349  -0.0000984980  -0.0000390193   0.0001104286
       -0.0000165243   0.0000048766  -0.0000012320  -0.0000087913   0.0000003977
        0.0000258067  -0.0000037994   0.0000479841   0.0000284098  -0.0000057916
       -0.0000289387   0.0000155026   0.0000075154  -0.0000035993   0.0000031169
        0.0000075793  -0.0000005577  -0.0000103005   0.0000031270  -0.0000086309
       -0.0000009151   0.0000041380  -0.0000003451   0.0000019663   0.0000058433
       -0.0000011521   0.0000002985   0.0000032603   0.0000023009  -0.0000028680
       -0.0000024251  -0.0000006543   0.0000011775   0.0000052757  -0.0000012703
        0.0000020811  -0.0000003710   0.0000005828   0.0000053846  -0.0000094672
       -0.0000026278   0.0000026137   0.0000004341   0.0000064628   0.0000052377
        0.0000030969   0.0000053816  -0.0000017533  -0.0000015129   0.0000065432
       -0.0000015489  -0.0000022733   0.0000073148  -0.0000030879   0.0000021019
       -0.0000036155   0.0000092996  -0.0000007987   0.0000339931   0.0000110538
        0.0000414194   0.0000360795   0.0000366836  -0.0000082238   0.0000227642
       -0.0000466352  -0.0000023541  -0.0000542970  -0.0000555478  -0.0000233099
       -0.0000349972  -0.0000205758  -0.0000335430  -0.0004536984   0.0002219877
       -0.0124791412   0.0004516890  -0.0078892873   0.0098255447  -0.0602670112
        0.0069415081   0.0069454080   0.5251802338  -0.0010836700  -0.0090446783
        0.0023834969  -0.0023320965  -0.0001992171  -0.0010443036   0.0006057892
        0.0002995063   0.0003999176  -0.0001856424  -0.0001621101   0.0003282930
       -0.0000038024  -0.0001076529  -0.0002471894   0.0006976073  -0.0003285467
       -0.0013075959   0.0001973872   0.0002245797   0.0010130773  -0.0005414141
       -0.0000750894  -0.0000352440  -0.0000497264  -0.0000698927   0.0001585787
        0.0000558931   0.0000815148  -0.0000318224  -0.0000282038  -0.0000908994
        0.0000387821   0.0000408532   0.0000870324  -0.0000202827  -0.0000299245
        0.0000198335  -0.0000513966  -0.0000380140  -0.0000379729  -0.0000187207
       -0.0000211614   0.0000537716  -0.0000207129   0.0000107471   0.0000030836
        0.0000550919   0.0000562097   0.0000078387   0.0000077541   0.0000025453
       -0.0000708608   0.0000255208  -0.0000950700   0.0000117857  -0.0000627573
        0.0000375372  -0.0000671850  -0.0000085566  -0.0000550275   0.0000399333
        0.0000015312   0.0000276316  -0.0000162858   0.0000396214  -0.0000264826
        0.0000778811   0.0000395514   0.0000531976  -0.0000220687  -0.0000160365
       -0.0000137037  -0.0000017027   0.0000010267   0.0000013358   0.0000019637
        0.0000000946  -0.0000006380   0.0000672271   0.0000681951   0.0000391799
        0.0000107613  -0.0000427232   0.0000214519   0.0000237907   0.0000433782
        0.0000091776  -0.0000440806  -0.0000767574  -0.0000133534  -0.0000229570
        0.0000573721  -0.0000434271  -0.0000463186  -0.0001161680   0.0000227198
        0.0000655910   0.0000553276   0.0000142021  -0.0001254965  -0.0000074830
       -0.0000118073   0.0001205268  -0.0000599040  -0.0000564121  -0.0000497226
        0.0000951620   0.0000184169  -0.0004563885  -0.0030727042   0.0024166979
       -0.0001221763  -0.0009500880  -0.0009918822  -0.0000943817   0.0000307094
        0.0000417565   0.0000073207  -0.0001255633  -0.0009962019   0.0007973265
       -0.0004463295   0.0005709650   0.0260785919  -0.0104371352   0.0099602330
       -0.0000075323   0.0002778467   0.0004141691  -0.0008492778   0.0007262086
       -0.0000135563  -0.0010306385  -0.0010435677  -0.0030433956  -0.0586341622
       -0.0751866825   0.0577544728   0.0484554191  -0.2684427026   0.0406663918
       -0.0088884720  -0.1070227164  -0.1043770824  -0.0013162495  -0.0004765584
        0.0002329113  -0.0000161917   0.0000145484  -0.0000033664  -0.0000916522
        0.0000252214  -0.0000023093  -0.0000244598  -0.0000161250   0.0001010886