$hessian                                                                        
        0.5186260599   0.0152002313  -0.0042208546  -0.0721661190   0.0308351488
       -0.0086366587  -0.0136042379   0.0275453486  -0.0075421632  -0.0054896961
        0.0007483100  -0.0001429010  -0.0003878166   0.0014378912  -0.0003723368
        0.0000435612  -0.0000318626  -0.0000319637  -0.0000011830  -0.0000499763
        0.0000232466   0.0000165971  -0.0000124788   0.0000175297   0.0001602710
       -0.0000409030  -0.0000138549  -0.0000448503   0.0001012137  -0.0000033231
        0.0000226182  -0.0000725398   0.0000201913   0.0000117251   0.0000630268
        0.0000052338   0.0000736302  -0.0000271365  -0.0000177696  -0.0001819742
       -0.0000654502  -0.0000725872  -0.0000292746   0.0000114868  -0.0000370052
       -0.0000974003  -0.0000394341  -0.0000259626   0.0000314001   0.0000098147
       -0.0000309740   0.0000556140  -0.0000162273   0.0000010520   0.0000798832
       -0.0000080513   0.0000125987   0.0000580741  -0.0000376895  -0.0000635869
        0.0000045726   0.0000238456  -0.0000264880  -0.0000800803   0.0000254396
       -0.0000219612  -0.0000153376  -0.0000283776   0.0000100292   0.0000011356
        0.0000318252   0.0000009243  -0.0000024926  -0.0000427267  -0.0000096740
       -0.0000874331   0.0001489812  -0.0001508785  -0.0000103149  -0.0000916369
        0.0001323431   0.0000457722  -0.0000032363  -0.0000038704  -0.0000067282
       -0.0000587107   0.0001769362  -0.0000791533   0.0000225342  -0.0000079500
        0.0000403369   0.0000157586   0.0000131062  -0.0002474466   0.0000333328
       -0.0000063136  -0.2801779040   0.0146902212  -0.0125391704  -0.0724121441
       -0.0536152428  -0.0548311152  -0.0812732640  -0.0204742532   0.0838336463
        0.0028803178  -0.0091033573   0.0021743605   0.0029433595  -0.0091480715
        0.0030276217   0.0007908268   0.0009105928   0.0002375174   0.0008084338
        0.0008182798  -0.0007911762  -0.0000685907   0.0000303269  -0.0000177566
       -0.0000768958   0.0000568353  -0.0000225202  -0.0005005135   0.0001685442
       -0.0000628274   0.0001084359   0.0000389804   0.0000278068   0.0000301606
        0.0000367252  -0.0000738971  -0.0000148695   0.0000214476   0.0000110384
       -0.0000238553  -0.0000309785  -0.0000361215   0.0000038448   0.0000134095
        0.0000022087  -0.0000043059   0.0000074019   0.0000093742   0.0000033220
       -0.0000007106  -0.0000058834   0.0000245124   0.0000069308  -0.0000034117
        0.0000212333   0.0000084940   0.0000053053   0.0000025634   0.0000197656
        0.0000114199   0.0000789412  -0.0000345303   0.0000995981   0.0001129150
       -0.0000009525  -0.0000196087  -0.0000007875  -0.0000283635   0.0000027133
       -0.0000005092  -0.0000000668  -0.0000002081   0.0000001447  -0.0000029148
       -0.0000013157  -0.0000018710  -0.0000055670  -0.0000013876  -0.0000113921
       -0.0000066728  -0.0000081204  -0.0000080150   0.0000263865   0.0000123571
        0.0000000647   0.0000010094  -0.0000134666   0.0000161274  -0.0000154684
        0.0000014527   0.0000100019  -0.0000159524  -0.0000025476
        0.0152002313   0.4665091169   0.0165277669   0.0296920267  -0.1854856789
        0.0329776220   0.0072200007  -0.0075427820   0.0021852612   0.0009343400
        0.0000678246   0.0000722063  -0.0000231983  -0.0002117530   0.0001815834
       -0.0000305145  -0.0000013173   0.0000162044  -0.0000878251  -0.0000154403
        0.0000386877   0.0000270714  -0.0000195722   0.0000162930  -0.0000161352
        0.0001255923   0.0000094056  -0.0000681141  -0.0001486590   0.0000285692
        0.0000368614   0.0000401020  -0.0000181089   0.0000897663  -0.0000578807
        0.0000244206  -0.0000527179  -0.0000521882  -0.0000011499   0.0000605097
       -0.0000988104  -0.0000245608  -0.0001232705   0.0000155744  -0.0000345579
        0.0000150844   0.0000717269  -0.0000027531  -0.0000017650  -0.0000173162
        0.0000383070   0.0000716892   0.0000394819  -0.0000099041  -0.0000256562
        0.0001880293   0.0000125287   0.0001267216  -0.0002651081  -0.0000102781
       -0.0001260880   0.0001115402   0.0000011496  -0.0001044587  -0.0001794676
        0.0000132161   0.0000610954   0.0000680921  -0.0000082529   0.0000220732
       -0.0000442316   0.0000081569   0.0000574342   0.0001679545  -0.0000169613
       -0.0000082514  -0.0003161041   0.0000164784   0.0000933604   0.0002475086
       -0.0000050605  -0.0000372339  -0.0000268824  -0.0000017791  -0.0000871057
        0.0002426445  -0.0000018321   0.0000355426  -0.0000349595   0.0000219970
       -0.0000373296  -0.0000755931   0.0000367687   0.0000086400   0.0000673016
       -0.0000148063   0.0147514302  -0.0429054127  -0.0000449296  -0.0532772127
       -0.1425073360  -0.1049976344  -0.0204300480  -0.0532033507   0.0440809153
        0.0049950991  -0.0259512647   0.0034749635   0.0020892920  -0.0108120405
        0.0058589054  -0.0008294095   0.0009286356   0.0000110143  -0.0007475191
        0.0005484078  -0.0001333097   0.0001189399   0.0003059668   0.0001768849
        0.0001302199   0.0000753951  -0.0002727309   0.0000965326   0.0000639961
       -0.0000438382   0.0000647890  -0.0000295848  -0.0000026549   0.0000428069
       -0.0000170464  -0.0000109289   0.0000123067   0.0000098874  -0.0000259424
        0.0000225292   0.0000443413   0.0000136103   0.0000119279   0.0000256788
       -0.0000170090   0.0000065621   0.0000187957  -0.0000018638   0.0000124246
       -0.0000104408  -0.0000191416  -0.0000018417   0.0000343930  -0.0000069211
       -0.0000022798   0.0000239032  -0.0000053602   0.0000253513   0.0000762305
       -0.0000394176  -0.0000205727  -0.0000391596  -0.0000267532   0.0000537487
        0.0000506719  -0.0000049589  -0.0000248554  -0.0001849306   0.0000116828
       -0.0000028781   0.0000064081  -0.0000020216  -0.0000030660   0.0000015624
        0.0000041186  -0.0000020466  -0.0000004423  -0.0000006775  -0.0000055701
       -0.0000040556   0.0000005442   0.0000085006   0.0000087788   0.0000053844
       -0.0000287259   0.0000167724  -0.0000163715   0.0000279197   0.0000287856
       -0.0000254595  -0.0000171393   0.0000277089  -0.0000167170
       -0.0042208546   0.0165277669   0.5185014676  -0.0083914667   0.0331728005
       -0.0776952885  -0.0020856458   0.0022956361  -0.0004596912  -0.0002570188
        0.0000331769   0.0002339842   0.0000137701   0.0001065741   0.0000840369
       -0.0000667937   0.0000215751  -0.0000436393   0.0000052977  -0.0000035656
       -0.0000141570  -0.0000783252   0.0000756047  -0.0000432481   0.0000592460
       -0.0000412882   0.0000304703   0.0000420812  -0.0000327803  -0.0000211278
       -0.0000191855   0.0000065162   0.0000136545   0.0000327971   0.0000429527
       -0.0000271265  -0.0000574641  -0.0000075371   0.0000037090  -0.0000930869
        0.0001357369  -0.0000163098   0.0000390184  -0.0000362698   0.0000468225
       -0.0000178292  -0.0001346318   0.0000284721  -0.0000414233   0.0000885069
        0.0000295237   0.0000822703   0.0000511682  -0.0000316940   0.0000106232
       -0.0000128406  -0.0000387520   0.0001254705   0.0000494181   0.0000202369
       -0.0001295233  -0.0000388742   0.0000205571   0.0001452028   0.0000652320
       -0.0000145303  -0.0001467479  -0.0000799737   0.0000227440   0.0000024616
        0.0000398854  -0.0000074726  -0.0001173648  -0.0000851749   0.0000178377
        0.0001535822   0.0001967738   0.0000032221  -0.0000953090  -0.0000923606
       -0.0000246823   0.0001148137  -0.0000490853  -0.0000180593  -0.0000467635
       -0.0000607028  -0.0000575224  -0.0000127956   0.0000611520  -0.0000151520
        0.0000060480   0.0000452726  -0.0000179203  -0.0000834546   0.0000073950
       -0.0000249163  -0.0123211912  -0.0000678902  -0.0455086749  -0.0547480196
       -0.1048745216  -0.1537085050   0.0836216266   0.0437225310  -0.2369505173
        0.0038527256  -0.0186956653   0.0047538706  -0.0059142783   0.0281252918
       -0.0102901256  -0.0000180793   0.0005737087   0.0002165814   0.0005398405
       -0.0008466824   0.0006597864  -0.0000430230   0.0000878450  -0.0000350891
       -0.0000016025  -0.0001568447   0.0001959599  -0.0000127749  -0.0000174611
        0.0000258166   0.0000213160   0.0000314283   0.0000331879   0.0000010292
       -0.0000219459   0.0000223641  -0.0000088023  -0.0000033981   0.0000359428
       -0.0000125118  -0.0000015448  -0.0000012265   0.0000066695  -0.0000114216
        0.0000144497   0.0000132592  -0.0000179930   0.0000117185   0.0000196401
       -0.0000090779   0.0000063101   0.0000158481  -0.0000068388  -0.0000048960
        0.0000330596  -0.0000100243  -0.0000044732   0.0000287807  -0.0000102766
       -0.0000164613   0.0001017977  -0.0000509090   0.0000002154  -0.0000213665
       -0.0000325008   0.0000282597   0.0000030862   0.0000021269   0.0000102835
        0.0000043145  -0.0000054208   0.0000010141   0.0000039614   0.0000001306
       -0.0000002628  -0.0000014654  -0.0000061652   0.0000022652  -0.0000179479
        0.0000137271  -0.0000027480  -0.0000237612   0.0000052354   0.0000010308
        0.0000034149  -0.0000036529   0.0000043493  -0.0000004868  -0.0000330679
        0.0000087771   0.0000033110  -0.0000267809   0.0000053477
       -0.0721661190   0.0296920267  -0.0083914667   0.4693985058   0.0190734416
       -0.0059459218  -0.1936100279   0.0073375545  -0.0009892685  -0.0131500650
        0.0073300867  -0.0019369065  -0.0001162931   0.0012196474  -0.0005738960
       -0.0000585631  -0.0001409556  -0.0000365463   0.0000219761  -0.0000258804
       -0.0000805964  -0.0000619888   0.0000338255  -0.0000133241   0.0000626558
       -0.0000639233  -0.0000877151  -0.0000518338   0.0001197404  -0.0000040220
       -0.0000911721  -0.0000020734  -0.0000385371  -0.0000916527   0.0000221959
       -0.0000183954  -0.0000246857  -0.0000671725  -0.0000160546  -0.0000085563
       -0.0000187555   0.0000323826   0.0001123810   0.0000817722  -0.0000345144
        0.0000872441   0.0000510728   0.0000742649  -0.0001241813   0.0000641894
       -0.0000015645  -0.0001706496  -0.0000477537   0.0000389304   0.0002127496
        0.0000015118   0.0000671570  -0.0000886688   0.0000833701  -0.0000589643
        0.0000020206   0.0000119046  -0.0000313444  -0.0000275850   0.0000656348
       -0.0000014771  -0.0000575109  -0.0000489380   0.0000077660   0.0000138579
        0.0000363702   0.0000082117  -0.0000134933  -0.0000846326  -0.0000316457
       -0.0000072537   0.0002677291  -0.0000035544  -0.0000606988  -0.0000849434
       -0.0000151682   0.0000781121  -0.0000353053   0.0000139303   0.0000286739
       -0.0001157223   0.0000377286  -0.0000632713  -0.0000372739   0.0000196401
        0.0000169122  -0.0000366530   0.0000128317   0.0000241053  -0.0000811431
        0.0000629922  -0.0109221370   0.0294484737  -0.0085142385   0.0024945990
       -0.0088254848   0.0023451401   0.0027791822  -0.0098183728   0.0029995962
       -0.0752671079  -0.0551555990  -0.0559843621  -0.0745656775  -0.0182312233
        0.0755291891  -0.0181017719  -0.0011749909  -0.0033959613  -0.0183894908
        0.0007861956   0.0041413831   0.0008626204  -0.0010105148   0.0002374525
        0.0008514959  -0.0009672760   0.0002799817  -0.0003085484   0.0000120832
        0.0001061575   0.0001763170   0.0002752847   0.0001990374  -0.0000270232
        0.0000241466  -0.0000843396   0.0001528852   0.0000716176  -0.0000252633
       -0.0000485700   0.0000463735   0.0000372884   0.0000633497   0.0000123895
        0.0000414750  -0.0000088075  -0.0000170440   0.0000132142   0.0000249580
        0.0000098923  -0.0000019572   0.0000586030  -0.0000225013   0.0000202506
        0.0000415627   0.0000054175   0.0000122182   0.0000256818   0.0000013326
        0.0000103501   0.0000503973  -0.0000038645  -0.0000018599  -0.0000048194
        0.0000147449   0.0000118453  -0.0000012594  -0.0000938576  -0.0000070650
       -0.0000003542   0.0000022526   0.0000033606  -0.0000011070  -0.0000051416
       -0.0000049030  -0.0000015349  -0.0000096130  -0.0000000931   0.0000091376
        0.0000045917  -0.0000038033  -0.0000145330   0.0000067003  -0.0000109638
       -0.0000005205  -0.0000038200   0.0000079597   0.0000356861   0.0000030797
       -0.0000185558   0.0000218623   0.0000137800  -0.0000074856
        0.0308351488  -0.1854856789   0.0331728005   0.0190734416   0.4857310794
        0.0135302441   0.0082867908  -0.0629838859  -0.0021130694   0.0267111244
       -0.0076549057   0.0016654450   0.0013261006  -0.0046817833   0.0014349673
       -0.0000257584  -0.0000728427   0.0002022850  -0.0000740338   0.0000841468
       -0.0000137287  -0.0000018821  -0.0000106301  -0.0000443239  -0.0001347937
        0.0000556006   0.0000682139  -0.0000086638  -0.0000785705  -0.0000150944
       -0.0000274747   0.0000249212  -0.0000339813   0.0000027755  -0.0000851708
        0.0000280936  -0.0000574536  -0.0000729269  -0.0000056401   0.0000300963
       -0.0000309285  -0.0000367415   0.0000216886   0.0001027247  -0.0000066661
        0.0001143629   0.0001774991   0.0000278762  -0.0001455211   0.0000364405
       -0.0000107372  -0.0000840489  -0.0000308209   0.0000102631   0.0000456822
        0.0001084583   0.0001713083  -0.0001438000  -0.0001126437  -0.0001270476
       -0.0000670773   0.0000688974  -0.0000042130  -0.0000321513  -0.0000859571
        0.0000020548   0.0000130981   0.0000208875  -0.0000033863   0.0000204970
       -0.0000207928   0.0000072348   0.0000519095   0.0000470578  -0.0000278916
       -0.0000204029  -0.0000624431   0.0000130823  -0.0000262746   0.0001519272
       -0.0000366938   0.0000408149  -0.0000605057  -0.0000080144   0.0000205152
        0.0000761762   0.0000753010   0.0000726206  -0.0001373296   0.0000913619
       -0.0000565421  -0.0001146504   0.0000668875   0.0003240313  -0.0000561483
        0.0000013851   0.0037162507  -0.0056082758   0.0017118235   0.0040064355
       -0.0256123284   0.0028555934   0.0010760215  -0.0104486031   0.0067747963
       -0.0556615261  -0.1333320201  -0.0970379405  -0.0186340485  -0.0519830219
        0.0387769749  -0.0191112494   0.0005536298  -0.0016745183  -0.0051553333
        0.0008580972   0.0005770475   0.0012505594   0.0005024255   0.0003812375
        0.0007077374   0.0004936737  -0.0004853036   0.0015773288  -0.0004562571
        0.0002350428   0.0000291649  -0.0000526438   0.0000525146  -0.0000110556
        0.0000541392  -0.0000384836   0.0000705057   0.0000459588  -0.0001135043
        0.0000639910   0.0000250550   0.0000696815  -0.0000074521   0.0000216900
        0.0000116799   0.0000125971  -0.0000006028  -0.0000167603   0.0000076738
       -0.0000120425  -0.0000094152   0.0000031180   0.0000130491  -0.0000022966
       -0.0000026337   0.0000228430  -0.0000020437  -0.0000006767   0.0000378257
       -0.0000099537  -0.0000054393   0.0000186317  -0.0000100658   0.0000077698
        0.0000833195  -0.0000183904  -0.0000250076  -0.0001585721  -0.0000331090
       -0.0000054334   0.0000063232   0.0000066405  -0.0000049186  -0.0000017289
       -0.0000054348   0.0000029313  -0.0000067797  -0.0000001467   0.0000062811
       -0.0000004951   0.0000096396   0.0000059416  -0.0000021653  -0.0000088479
       -0.0000171887   0.0000111144   0.0000031579   0.0000185078   0.0000366914
       -0.0000507040  -0.0000056723   0.0000438680  -0.0000304866
       -0.0086366587   0.0329776220  -0.0776952885  -0.0059459218   0.0135302441
        0.5332102379  -0.0016086675  -0.0019916525  -0.0685425281  -0.0073431180
        0.0021478955  -0.0004569192  -0.0002989041   0.0014359980  -0.0003381079
        0.0001528208  -0.0001366373  -0.0000105674  -0.0000084124  -0.0000764925
        0.0000197473  -0.0000443832   0.0000488990  -0.0000359005  -0.0000974276
       -0.0000216571   0.0000459292   0.0000325985  -0.0000284768   0.0000114403
       -0.0000130424   0.0000016062  -0.0000012281  -0.0000158525  -0.0000437418
        0.0000147991  -0.0000563764  -0.0000340757   0.0000079192  -0.0000781932
        0.0001169742  -0.0000135914   0.0001086702  -0.0000460046  -0.0000444125
        0.0000639243   0.0000061021  -0.0001655476  -0.0001536910  -0.0000181515
       -0.0001500342  -0.0000615109   0.0000801504  -0.0000750979   0.0001194027
       -0.0000022331   0.0001308956  -0.0002754550  -0.0000777933  -0.0000774231
        0.0001016072   0.0000492391  -0.0000186752  -0.0002069722   0.0000147569
        0.0000325889   0.0000988610   0.0000081046  -0.0000144985   0.0000032287
        0.0000042602  -0.0000026618   0.0001432926  -0.0000456252  -0.0000356382
       -0.0002584516   0.0003221598  -0.0000183991   0.0000030444  -0.0001577180
        0.0000215960   0.0000249975   0.0000023185  -0.0000058735   0.0002293763
       -0.0000518070   0.0001555022   0.0001231680  -0.0001343710   0.0000785103
       -0.0000755480  -0.0000514275   0.0000585012   0.0002881232  -0.0000032270
       -0.0000384673  -0.0012744325   0.0024116508  -0.0003277457   0.0046131536
       -0.0191768167   0.0051021799  -0.0056591204   0.0279043118  -0.0105629996
       -0.0555247262  -0.0960819188  -0.1484357335   0.0755959494   0.0382793436
       -0.2287917074  -0.0218657297   0.0000737950  -0.0013929091   0.0290635678
       -0.0013518216  -0.0024048623   0.0005079556  -0.0004563310   0.0003377169
       -0.0010568596   0.0003361465   0.0003385873  -0.0004569736   0.0002561244
        0.0000030441   0.0000745820   0.0000189253   0.0000128649  -0.0002243000
        0.0001628592   0.0001314209  -0.0000462123  -0.0000506243   0.0000803156
        0.0000316693  -0.0000316916   0.0000165395  -0.0000211638  -0.0000169964
       -0.0000163792   0.0000127483  -0.0000077850   0.0000041094  -0.0000122743
       -0.0000109877   0.0000136080  -0.0000210442   0.0000009458  -0.0000059845
        0.0000017513  -0.0000082613  -0.0000033828  -0.0000140266  -0.0000268258
        0.0000074377   0.0000313410   0.0000473908   0.0000283382  -0.0000244028
        0.0000146579  -0.0000883109  -0.0000333896  -0.0001222931  -0.0000413891
       -0.0000088271  -0.0000017012   0.0000043698  -0.0000046910   0.0000028353
       -0.0000052074   0.0000074817  -0.0000063623   0.0000015963   0.0000026676
        0.0000041817  -0.0000026206   0.0000007043  -0.0000009382   0.0000041881
        0.0000048460  -0.0000075302   0.0000028011   0.0000050871   0.0000093188
       -0.0000311408  -0.0000198604   0.0000111594  -0.0000255520
       -0.0136042379   0.0072200007  -0.0020856458  -0.1936100279   0.0082867908
       -0.0016086675   0.4673784423   0.0225136128  -0.0039784687  -0.0680159271
        0.0253563520  -0.0067968744  -0.0121560677   0.0262811143  -0.0080382993
        0.0004506060  -0.0002428112  -0.0000289929  -0.0001755556  -0.0002426481
       -0.0000984060  -0.0000367486   0.0000557430   0.0000038736   0.0001409150
       -0.0000577897  -0.0001675143  -0.0001001066   0.0002009693  -0.0000347436
       -0.0001380138  -0.0001090737  -0.0000345486  -0.0001058834   0.0000814243
       -0.0000331569   0.0000131553  -0.0000596610  -0.0000217386   0.0000372387
       -0.0001764042   0.0000186025   0.0000958129   0.0000487071  -0.0000878834
        0.0001251686   0.0000223377  -0.0000139106   0.0000130791   0.0000847462
        0.0000672231  -0.0001166560  -0.0000736420   0.0000164269   0.0002146319
        0.0000001814   0.0000242195  -0.0000944282   0.0000595037  -0.0000432467
        0.0000556479   0.0000083516  -0.0000195692  -0.0001765515   0.0000539239
        0.0000060467   0.0000278090  -0.0000085912  -0.0000045877   0.0000111184
        0.0000078486   0.0000064263   0.0000162091  -0.0000538706  -0.0000228230
       -0.0000775501   0.0002994657  -0.0000242476  -0.0000223192  -0.0001329310
        0.0000003693   0.0000228914  -0.0000070852   0.0000149947   0.0000700757
       -0.0001189268   0.0000400536  -0.0001222797  -0.0000152190   0.0000068505
        0.0001040060   0.0000038803   0.0000171277  -0.0001419763   0.0000189330
        0.0000689938   0.0002138349   0.0015000974  -0.0003410792   0.0008827292
       -0.0009453783   0.0002602392   0.0009324375  -0.0010280023   0.0003307091
       -0.0184668759  -0.0013191710  -0.0035863340  -0.0179185265   0.0007327329
        0.0038242419  -0.0746108803  -0.0553791720  -0.0559346668  -0.0698678777
       -0.0191410233   0.0733758628   0.0021982666  -0.0099755561   0.0022097877
        0.0021179580  -0.0084907094   0.0028117373  -0.0058680499   0.0021764130
       -0.0005224373   0.0010105079   0.0012655061   0.0004011013  -0.0009365110
        0.0009288488   0.0000076023  -0.0000186160   0.0001770887  -0.0001051685
       -0.0000229061   0.0001277027   0.0000300987   0.0000968720   0.0001426605
        0.0000303911  -0.0000067719  -0.0000004848   0.0000549707   0.0000125337
        0.0000171641  -0.0000143992   0.0000661346   0.0000014180   0.0000165027
        0.0000349359   0.0000094103   0.0000147590   0.0000294488   0.0000157841
        0.0000142652   0.0000218577   0.0000188607   0.0000025585  -0.0000023956
       -0.0000013845  -0.0000022378  -0.0000178703  -0.0001383205  -0.0000045705
       -0.0000009514   0.0000022432  -0.0000017988  -0.0000011277  -0.0000030967
       -0.0000025339  -0.0000016145  -0.0000057989  -0.0000024684   0.0000067184
        0.0000005858  -0.0000043529  -0.0000081182   0.0000074669  -0.0000051107
       -0.0000019129  -0.0000034753   0.0000026237   0.0000356334   0.0000040871
       -0.0000114397   0.0000086599  -0.0000017301   0.0000032629
        0.0275453486  -0.0075427820   0.0022956361   0.0073375545  -0.0629838859
       -0.0019916525   0.0225136128   0.4838346029   0.0120855689   0.0246277560
       -0.1792888464   0.0304048487   0.0079660733  -0.0069768853   0.0017594015
        0.0000047424  -0.0000776707  -0.0000178757  -0.0000674615  -0.0003584687
        0.0000628194   0.0000801463   0.0000121891   0.0000874922  -0.0000286758
        0.0002407304  -0.0000689106  -0.0000373325  -0.0001453970   0.0000192503
       -0.0000938246  -0.0000745818  -0.0000136527   0.0000272556  -0.0000289085
       -0.0000183554   0.0000287447   0.0000299685  -0.0000240851   0.0000141903
       -0.0001460490   0.0000066425   0.0000074924  -0.0000411164  -0.0000474898
        0.0000364459   0.0000515557  -0.0000630413   0.0000307927   0.0000580359
        0.0000110145  -0.0000261998  -0.0000431340   0.0000101546   0.0000378689
        0.0000765525  -0.0000017429   0.0000091628  -0.0000933499  -0.0000089701
        0.0000224715   0.0000393401  -0.0000006573  -0.0001419599  -0.0000461598
        0.0000016076   0.0000723879   0.0000412095  -0.0000077201   0.0000036027
       -0.0000236371   0.0000005027   0.0000469155   0.0000601122   0.0000017965
       -0.0000946604  -0.0000487448  -0.0000306273   0.0000462715   0.0000328218
        0.0000338215  -0.0000254606   0.0000133821  -0.0000033120   0.0000307076
        0.0000594334   0.0000271558  -0.0000507673  -0.0000376547   0.0000180683
        0.0000713473  -0.0000654062   0.0000714396   0.0000791097   0.0001352791
       -0.0000044499   0.0031129511  -0.0053042925   0.0016265384   0.0009454892
        0.0006954903   0.0003281149   0.0005869029   0.0006703170  -0.0006091778
       -0.0190306699   0.0005329241  -0.0016013444  -0.0048752069   0.0006804655
        0.0003543694  -0.0554145439  -0.1346212079  -0.0963673811  -0.0190691979
       -0.0539789440   0.0427641990   0.0034324727  -0.0263927696   0.0026945156
        0.0014308936  -0.0110502199   0.0067262427   0.0003528393   0.0006157349
       -0.0004089117  -0.0013115741   0.0011937661  -0.0002223667  -0.0000817226
        0.0001001472   0.0000366380  -0.0001682342   0.0000658485   0.0001674317
        0.0000234771  -0.0000498095   0.0000255531   0.0000247888   0.0000736092
       -0.0000607471   0.0000007015   0.0000218939   0.0000072940  -0.0000079428
       -0.0000018318  -0.0000406118   0.0000107682   0.0000299961   0.0000066929
       -0.0000029501   0.0000294392   0.0000085808   0.0000083702   0.0000278475
        0.0000093988  -0.0000176810   0.0000309455  -0.0000069158   0.0000114195
       -0.0000242221  -0.0000226077  -0.0000154147  -0.0000951999  -0.0000018813
       -0.0000041839   0.0000064024  -0.0000007669  -0.0000056788   0.0000031062
        0.0000011997  -0.0000006306   0.0000026306  -0.0000018456  -0.0000034892
       -0.0000031685  -0.0000028265   0.0000065589   0.0000101094   0.0000077539
       -0.0000071550   0.0000064545  -0.0000084481   0.0000135512   0.0000305485
       -0.0000115967  -0.0000185670   0.0000314544   0.0000082288
       -0.0075421632   0.0021852612  -0.0004596912  -0.0009892685  -0.0021130694
       -0.0685425281  -0.0039784687   0.0120855689   0.5377206184  -0.0061656520
        0.0294035362  -0.0774701288  -0.0027846090   0.0011472704  -0.0001359433
       -0.0000835753   0.0004784548  -0.0000952555   0.0000759449  -0.0000767717
       -0.0001730058   0.0000057452   0.0000664502  -0.0001981113   0.0000749199
       -0.0000694910   0.0002991977   0.0000733542  -0.0001328164  -0.0000794334
        0.0002147542   0.0000735288   0.0000714850   0.0000790389   0.0000489452
        0.0000273027  -0.0000500866   0.0000648380   0.0000409848  -0.0001217714
        0.0001655432   0.0000474614  -0.0000985117   0.0000032527  -0.0000484194
       -0.0000610882  -0.0001077466  -0.0000522442  -0.0001320845   0.0000073475
        0.0000182045  -0.0000167074   0.0000824931  -0.0000019933   0.0000865555
        0.0000330324  -0.0000544903   0.0000276271  -0.0000292709   0.0000319611
       -0.0000250444   0.0000013578  -0.0000020890   0.0000175762   0.0000117622
        0.0000081453  -0.0000263825  -0.0000181087   0.0000004359   0.0000015487
        0.0000091325  -0.0000011062  -0.0000180887  -0.0000128595   0.0000008042
        0.0000114143   0.0000411739   0.0000202799  -0.0000139656  -0.0000142338
       -0.0000197186   0.0000193913  -0.0000074266  -0.0000033925   0.0000178906
       -0.0000045171  -0.0000412251   0.0001163102   0.0000354772  -0.0000093457
       -0.0000832620  -0.0000701888  -0.0000297962  -0.0000709381  -0.0000865884
       -0.0000864812  -0.0008820957   0.0016845017   0.0000976051   0.0005535395
       -0.0003956036   0.0002705676  -0.0010782875   0.0002594136   0.0003740649
       -0.0219468017   0.0000321549  -0.0014071790   0.0287075712  -0.0014440485
       -0.0019163944  -0.0557864634  -0.0963646118  -0.1473854469   0.0726839226
        0.0430003228  -0.2351974665   0.0031340753  -0.0188394567   0.0047342404
       -0.0048285171   0.0291347819  -0.0110358512  -0.0004313911   0.0000691103
        0.0007356708  -0.0002274531   0.0006643975   0.0001986483   0.0014997770
       -0.0008871140  -0.0003297422   0.0000694865  -0.0001400688   0.0000109396
       -0.0000521496   0.0000784945   0.0001510137  -0.0000254041   0.0000315769
       -0.0000189102   0.0000402108   0.0000233132   0.0000411399   0.0000182243
       -0.0000157170  -0.0000186119  -0.0000288246  -0.0000052194  -0.0000491898
       -0.0000144880  -0.0000260052  -0.0000214824   0.0000028656  -0.0000317758
       -0.0000240530   0.0000271504  -0.0000302045  -0.0000313748   0.0000077006
       -0.0000175268   0.0000140107  -0.0000014794  -0.0000116837   0.0000169613
       -0.0000009203  -0.0000008572   0.0000005179  -0.0000004273   0.0000010803
        0.0000007772   0.0000011267  -0.0000017356   0.0000018933  -0.0000002541
        0.0000063474  -0.0000021587  -0.0000043319  -0.0000020586  -0.0000003173
       -0.0000001665   0.0000004227   0.0000038094   0.0000076634   0.0000055007
        0.0000016003  -0.0000042619   0.0000209312   0.0000022359
       -0.0054896961   0.0009343400  -0.0002570188  -0.0131500650   0.0267111244
       -0.0073431180  -0.0680159271   0.0246277560  -0.0061656520   0.4688311064
        0.0205531290   0.0004883165  -0.1854118584   0.0151983894  -0.0076931230
       -0.0176787028   0.0011906909   0.0083826900  -0.0006255808  -0.0000116643
       -0.0005684653   0.0001063116  -0.0000554094  -0.0002519301   0.0001922740
        0.0000879337   0.0000548318   0.0000670981   0.0000481271  -0.0000402080
       -0.0000432754   0.0000035279  -0.0000325360   0.0000134668  -0.0000238089
        0.0000069470  -0.0000335353  -0.0000124604   0.0000007012  -0.0000293561
        0.0000090266  -0.0000207469   0.0000304936   0.0000069760  -0.0000106310
       -0.0000642459   0.0000339092   0.0000359406  -0.0000332508   0.0000422455
       -0.0000128027  -0.0000452774  -0.0000243764   0.0000053516   0.0000925089
        0.0000366574   0.0000054334   0.0000141360   0.0000434422  -0.0000037812
       -0.0000627700   0.0000001571  -0.0000052738   0.0000636928   0.0000113415
        0.0000054497  -0.0000577886  -0.0000234624   0.0000025859   0.0000123786
        0.0000059622   0.0000071257  -0.0000335427  -0.0000182958  -0.0000125261
        0.0000751721   0.0000013085   0.0000345290  -0.0000325635   0.0000305596
       -0.0000298169   0.0000314286  -0.0000249718   0.0000077997  -0.0000482055
        0.0000001036  -0.0000435076  -0.0000989531  -0.0000117703   0.0000593653
        0.0000198320  -0.0000294418   0.0000838282  -0.0001027706  -0.0000233250
       -0.0000849709  -0.0007392849   0.0016279085  -0.0004490848  -0.0000873036
        0.0000532683  -0.0000166091  -0.0000813351   0.0000030195   0.0000207035
        0.0005697572   0.0010690833   0.0001709656   0.0008275650   0.0008581870
       -0.0007601892   0.0022655641  -0.0094673660   0.0019977563   0.0027259475
       -0.0088730131   0.0024331249  -0.0817672504  -0.0604833497  -0.0611112453
       -0.0711801283  -0.0171915789   0.0745901919  -0.0115108456   0.0040175900
       -0.0012522615  -0.0198551833  -0.0010107358  -0.0036692496   0.0005654374
        0.0004074455  -0.0007418589  -0.0006494116   0.0004449259   0.0023366284
        0.0005566134  -0.0004659967  -0.0001744263  -0.0002237047  -0.0001733493
        0.0000742015   0.0000066722  -0.0000305314  -0.0000486717   0.0000009445