$hessian                                                                        
        0.4947318658  -0.0337300152   0.0228207216  -0.0960136656  -0.0476254078
        0.0320788145   0.0065066363   0.0082281943  -0.0055207083  -0.0174564643
       -0.0179232054  -0.0000803916  -0.0006226833  -0.0001632982   0.0014666271
       -0.0003302656   0.0004769615  -0.0004433264   0.0000253527   0.0001426384
       -0.0000526185  -0.0005126458   0.0006439103  -0.0006185389   0.0003594793
       -0.0021118779  -0.0015593423  -0.0003088588   0.0000737879   0.0001066702
        0.0002510823   0.0000708488  -0.0000523885  -0.0000315163  -0.0000554231
        0.0000240629   0.0000097529   0.0000186686   0.0000073353  -0.0000342708
        0.0000229202  -0.0000070983   0.0000536106  -0.0000142652   0.0000012814
       -0.0000409862  -0.0000021602   0.0000028800  -0.0000038540   0.0000078805
        0.0000025983   0.0000087843  -0.0000043574   0.0000021183  -0.0000007738
        0.0000024646  -0.0000010788  -0.0000013151   0.0000139251  -0.0000042237
        0.0000032550  -0.0000119399   0.0000039777  -0.0000012534  -0.0000017617
        0.0000002705  -0.0000018468  -0.0000019251   0.0000000493   0.0000063901
       -0.0000068567   0.0000016752  -0.0000125171  -0.0000080173   0.0000022060
        0.0000083095  -0.0000136429   0.0000016823  -0.0000035956   0.0000236690
       -0.0000033956   0.0000087203  -0.0000001739  -0.0000002676   0.0000027214
        0.0000088403  -0.0000018028  -0.0000033366  -0.0000062412   0.0000014473
        0.0000010388  -0.0000088280   0.0000011184  -0.0000117050  -0.0000058700
        0.0000015327  -0.0000012208   0.0000148017  -0.0000075584   0.0000427295
        0.0000012157   0.0000009703  -0.0000044767   0.0005295477   0.0023826998
       -0.0005521217   0.0007451417  -0.0002842930   0.0000837860   0.0001471176
       -0.0000547013  -0.0004170755   0.0006245350  -0.0001383659  -0.0006567769
       -0.0013758776  -0.0005440538  -0.0162293321  -0.0064861550   0.0163779157
       -0.1212865716   0.0633940732   0.0941191641  -0.1207994248   0.0943442674
       -0.0614140577  -0.1267351863  -0.0629550175  -0.0966051338   0.0006363295
        0.0005138875  -0.0001936473  -0.0008664954   0.0028478878  -0.0018434518
        0.0006147403   0.0003881614  -0.0004172823  -0.0001100358  -0.0000124299
        0.0003652257  -0.0000108207  -0.0000059494   0.0000478263  -0.0000049946
       -0.0001333751   0.0000850563  -0.0001111271  -0.0001375510  -0.0000448703
       -0.0000178997   0.0000144422   0.0000109921  -0.0000181708   0.0000040657
       -0.0000008936   0.0000146369   0.0000300552  -0.0000147182   0.0000028525
        0.0000128194  -0.0000051313  -0.0000018813  -0.0000018177   0.0000000060
       -0.0000008445  -0.0000012266   0.0000005959   0.0000008614  -0.0000004224
        0.0000001968  -0.0000008239   0.0000010021   0.0000001232  -0.0000008682
        0.0000029001   0.0000002459   0.0000028824   0.0000018637   0.0000004878
       -0.0000882038  -0.0000421952   0.0001646542   0.0000128481  -0.0001157222
        0.0000653373  -0.0000116399  -0.0000393794  -0.0000125693  -0.0000711198
       -0.0003501084  -0.0002226578
       -0.0337300152   0.4814936215   0.0314689476  -0.0415537750  -0.1103537782
        0.0325950149  -0.0099515156  -0.0206921590   0.0146425161  -0.0152790543
       -0.0126538376   0.0004192012  -0.0003209242  -0.0002418604   0.0001890101
       -0.0001928092   0.0005112802   0.0000405509  -0.0001830953  -0.0000154170
       -0.0000575442  -0.0003730169   0.0004887321  -0.0004860602   0.0010502778
       -0.0018266000  -0.0012872535  -0.0000217650   0.0006733958   0.0013761680
       -0.0000794059   0.0000888655  -0.0000420340   0.0000180504   0.0000047669
        0.0000027223  -0.0000271094   0.0000064188  -0.0000018479   0.0000156927
        0.0000010647  -0.0000012516  -0.0000061433   0.0000124039  -0.0000040500
        0.0000474588  -0.0000216565   0.0000364100  -0.0000092672  -0.0000090675
       -0.0000003621   0.0000188733  -0.0000020187   0.0000029763  -0.0000090286
        0.0000130193  -0.0000032768   0.0000215352  -0.0000242633   0.0000034867
       -0.0000125971   0.0000094638  -0.0000015471   0.0000032293   0.0000015479
       -0.0000006776  -0.0000022866  -0.0000004327   0.0000001231   0.0000023641
       -0.0000001560   0.0000009119   0.0000019425  -0.0000056025  -0.0000018160
       -0.0000063097   0.0000120507  -0.0000003048   0.0000040333  -0.0000128663
        0.0000010735  -0.0000035919   0.0000017844   0.0000001095   0.0000018017
       -0.0000057786   0.0000015215   0.0000030935   0.0000033431  -0.0000003897
       -0.0000003699   0.0000047633   0.0000006571   0.0000030862   0.0000040871
       -0.0000032038   0.0000013554  -0.0000076906   0.0000082824  -0.0000204732
        0.0000105484  -0.0000049114   0.0006130989  -0.0015696947  -0.0021359150
        0.0001567092  -0.0002083391   0.0006598548  -0.0000617177  -0.0000528533
       -0.0001964518  -0.0000545015   0.0000246311   0.0004732794   0.0002742409
       -0.0003027622  -0.0013430109   0.0043648691   0.0081345663  -0.0019502528
        0.0638685725  -0.0921346133  -0.0755719484   0.0939752216  -0.1567389697
        0.0728822435  -0.0624954794  -0.0912571686  -0.0728236431  -0.0006417378
        0.0007434913  -0.0006929026   0.0019625428  -0.0037154394   0.0027380158
       -0.0009840742   0.0005766594   0.0000446913  -0.0006816587  -0.0009682268
       -0.0001017171  -0.0000005972   0.0000085684   0.0000013645  -0.0000263902
       -0.0000887754   0.0000702844  -0.0000489944  -0.0000385088  -0.0000935998
        0.0000096922  -0.0000137899  -0.0000186702  -0.0000038390   0.0000019480
        0.0000003695   0.0000098808   0.0000083131  -0.0000121691   0.0000040478
        0.0000003558  -0.0000033644  -0.0000009774  -0.0000011411  -0.0000008391
       -0.0000013217  -0.0000002706  -0.0000006289   0.0000010352  -0.0000005805
       -0.0000005776   0.0000009894   0.0000000817  -0.0000004168   0.0000013571
        0.0000000008  -0.0000000443   0.0000007793  -0.0000006725  -0.0000008010
        0.0001120610   0.0000148151  -0.0001362506   0.0000265366   0.0000699502
       -0.0000582783  -0.0000156448  -0.0000669585   0.0000231950   0.0002250594
        0.0001074113  -0.0006449687
        0.0228207216   0.0314689476   0.5073299360   0.0281191030   0.0326216876
       -0.0841694407   0.0064565594   0.0142865915  -0.0082910282  -0.0110783414
       -0.0105563110   0.0075425086  -0.0005623026  -0.0013812829  -0.0008774429
        0.0000486128   0.0006838765   0.0003085601  -0.0000654266  -0.0001631924
       -0.0001275785  -0.0002807222   0.0009327463  -0.0001189690  -0.0000257803
       -0.0022384632  -0.0030997905  -0.0001538886   0.0013757591   0.0019279038
        0.0001280616  -0.0000748809   0.0000460030  -0.0000571272  -0.0000044590
        0.0000222032   0.0000253638   0.0000093439   0.0000047922  -0.0000458257
        0.0000119438  -0.0000027211   0.0000537878  -0.0000155419  -0.0000050622
       -0.0000749627  -0.0000230263   0.0000185804   0.0000027269   0.0000014978
        0.0000047965  -0.0000044410   0.0000047498   0.0000054779   0.0000024058
       -0.0000086478   0.0000006404  -0.0000101075   0.0000166394  -0.0000093310
        0.0000052564  -0.0000060625   0.0000078038  -0.0000013534   0.0000005208
        0.0000000873   0.0000023693   0.0000002025  -0.0000005856   0.0000026291
       -0.0000012286   0.0000005681  -0.0000119013   0.0000006244  -0.0000032732
        0.0000150578  -0.0000153255   0.0000079563  -0.0000094225   0.0000201997
       -0.0000073794   0.0000104996  -0.0000027233   0.0000016983  -0.0000010905
        0.0000105040  -0.0000024033  -0.0000072573  -0.0000057936   0.0000015076
        0.0000014399  -0.0000071408   0.0000027592  -0.0000108277  -0.0000068141
       -0.0000021657  -0.0000016609   0.0000249305   0.0000030632   0.0000415661
       -0.0000145931  -0.0000022112  -0.0007031107  -0.0010914371  -0.0033364529
        0.0005409642  -0.0007764998   0.0005382400   0.0001351684  -0.0001007474
       -0.0001907243   0.0002670307  -0.0002182069   0.0006942830   0.0003990300
        0.0001219008  -0.0006664401   0.0182467729   0.0094015100  -0.0138494420
        0.0938522607  -0.0750404141  -0.1568909835  -0.0611418926   0.0728614553
       -0.0921809646  -0.0969655124  -0.0733362066  -0.1522121460   0.0008059277
        0.0001001301   0.0002631623  -0.0012546534   0.0027334386  -0.0012651184
        0.0002398048  -0.0008047328   0.0004526424  -0.0005345138  -0.0010869481
       -0.0001960779   0.0000238522   0.0000634163  -0.0000530385  -0.0000474797
       -0.0001161247   0.0000640066  -0.0001555182  -0.0001170237  -0.0001001197
       -0.0000124855   0.0000239260  -0.0000124233   0.0000000601  -0.0000003570
       -0.0000071662   0.0000076243   0.0000053721  -0.0000218083  -0.0000005076
        0.0000022135  -0.0000099235  -0.0000002114  -0.0000002434  -0.0000007047
        0.0000000957   0.0000001565  -0.0000009514  -0.0000007171  -0.0000001809
       -0.0000009848  -0.0000014185   0.0000000067  -0.0000006677  -0.0000018900
        0.0000005867  -0.0000006260  -0.0000011285   0.0000011314  -0.0000010943
        0.0001082745  -0.0000543353  -0.0001555607   0.0000295518   0.0001368470
       -0.0000715766   0.0000000245  -0.0000343490   0.0000178766   0.0008308756
        0.0003804375  -0.0013226788
       -0.0960136656  -0.0415537750   0.0281191030   0.4583173818  -0.0006478556
        0.0010528574  -0.0904185589   0.0402655795  -0.0260632204  -0.1044682346
       -0.0295488214  -0.0481234581   0.0087828290   0.0013431995   0.0030941761
       -0.0010588692   0.0017337650   0.0022994350   0.0000306081  -0.0006041235
       -0.0009420912  -0.0044263189   0.0015466514   0.0017165826  -0.0212034920
       -0.0116754375  -0.0198286840   0.0036314295  -0.0002564924   0.0000169002
       -0.0001419167   0.0000091872  -0.0000149069   0.0002008419  -0.0000671723
        0.0000484973   0.0000546101  -0.0000101033   0.0000107687   0.0000173032
        0.0000061588   0.0000006581   0.0000418856   0.0000000611  -0.0000052456
        0.0002193332   0.0000714674  -0.0000512861   0.0000221711   0.0000027104
        0.0000117471   0.0000085547  -0.0000001722   0.0000014962  -0.0000026441
        0.0000127730  -0.0000025998   0.0000224403  -0.0000406797   0.0000098033
       -0.0000038382   0.0000225629  -0.0000058286   0.0000090495  -0.0000012395
        0.0000002172   0.0000018380   0.0000019875  -0.0000019123   0.0000109692
       -0.0000027199   0.0000016056   0.0000133450   0.0000155205  -0.0000057509
        0.0000134644  -0.0000072783   0.0000015814  -0.0000140610  -0.0000000289
        0.0000009757   0.0000147084  -0.0000132764   0.0000034445  -0.0000011568
        0.0000096312  -0.0000018680  -0.0000018092   0.0000016676   0.0000001251
        0.0000147279   0.0000087118  -0.0000018557   0.0000174109   0.0000104171
       -0.0000069725  -0.0000015658   0.0000311199  -0.0000069812   0.0000060663
       -0.0000392320   0.0000106154  -0.0202892320   0.0131417371   0.0198314884
       -0.0045507929  -0.0009214278  -0.0019506334   0.0000949924   0.0006068397
        0.0009569162  -0.0012884579  -0.0013521939  -0.0025826065   0.0090270251
       -0.0025039099  -0.0039307759  -0.1007717338   0.0309921315   0.0454340235
       -0.0130894639  -0.0103802701   0.0106768159   0.0083844036   0.0088261989
       -0.0059765833  -0.0135354468  -0.0141990544   0.0059300731  -0.0126468397
        0.0115903437  -0.0109244243   0.0084395911  -0.0104772465   0.0067305775
       -0.0119709451   0.0142406132  -0.0056668068  -0.0003027954   0.0003649427
        0.0006823943   0.0002071400   0.0004858328   0.0007564284   0.0000903901
        0.0000158671   0.0001557777  -0.0007313394  -0.0004720165  -0.0009167571
       -0.0000439825   0.0000017073   0.0000115113   0.0000104962  -0.0000086158
       -0.0000079886  -0.0000476802  -0.0000038022  -0.0000106098  -0.0000075453
       -0.0000041099  -0.0000018699   0.0000077252   0.0000011572  -0.0000000321
        0.0000073429   0.0000012830   0.0000003364   0.0000069909   0.0000018691
       -0.0000011594   0.0000077927   0.0000004343  -0.0000000293   0.0000085479
       -0.0000000957   0.0000011299   0.0000049072  -0.0000030875   0.0000004165
       -0.0007129254   0.0004959385   0.0009308215   0.0000872535  -0.0000944955
       -0.0001041690   0.0001956452  -0.0005088304  -0.0007901025  -0.0002859010
       -0.0004625037  -0.0005720908
       -0.0476254078  -0.1103537782   0.0326216876  -0.0006478556   0.4465031927
        0.0335034602   0.0463062436  -0.1159191540   0.0343888406  -0.0315426558
       -0.0807779941  -0.0421958918  -0.0065415461  -0.0098256463  -0.0148704093
        0.0023776346   0.0038172223  -0.0041275003  -0.0003493687   0.0000313141
        0.0000525424   0.0010780141   0.0046079940  -0.0026712705  -0.0033856089
        0.0022728863   0.0007739260  -0.0002468914  -0.0032257670   0.0001654157
        0.0000089311   0.0000737585  -0.0001435767   0.0000672585   0.0000699943
       -0.0000027029  -0.0000001597  -0.0000345811   0.0000309084  -0.0000004553
        0.0000135480  -0.0000077213  -0.0000149620  -0.0000408538   0.0000360913
       -0.0000671952   0.0000624993   0.0000034724   0.0000134298   0.0000167066
       -0.0000004822  -0.0000384693   0.0000067410  -0.0000039594   0.0000077162
       -0.0000252311   0.0000052614  -0.0000383782   0.0000360552  -0.0000070788
        0.0000378081  -0.0000167444   0.0000031058  -0.0000035053  -0.0000003616
       -0.0000001345   0.0000077524   0.0000012425  -0.0000012764  -0.0000082458
       -0.0000092480   0.0000007775   0.0000051611   0.0000196249  -0.0000033077
       -0.0000068859  -0.0000104253   0.0000022460  -0.0000034663  -0.0000047042
        0.0000008367  -0.0000014527  -0.0000021461   0.0000003697  -0.0000017267
       -0.0000022673   0.0000005831   0.0000012307   0.0000027202  -0.0000007974
        0.0000020942   0.0000067716  -0.0000017545   0.0000162564   0.0000054725
       -0.0000004515  -0.0000123646  -0.0000141596   0.0000019866  -0.0000003654
       -0.0000092973  -0.0000037106   0.0048631406   0.0011635476  -0.0005628513
       -0.0004253525   0.0047587607  -0.0025603602   0.0003452776  -0.0000258353
        0.0000004253  -0.0020043904   0.0040927114  -0.0039656710   0.0053258983
       -0.0099971188  -0.0145289742   0.0330592751  -0.0847445391  -0.0451315771
        0.0056482401   0.0074668115  -0.0045653368  -0.0114146934  -0.0176318718
        0.0118772651  -0.0111541833  -0.0117196931   0.0048453380  -0.0043855267
        0.0070994675  -0.0039082216   0.0097812829  -0.0177046222   0.0115045817
        0.0111352246  -0.0132769672   0.0052203093  -0.0006585317  -0.0017615549
        0.0015788006  -0.0003157355  -0.0001599916  -0.0005654421  -0.0000641785
       -0.0010579002   0.0007428419   0.0001839404  -0.0003037532   0.0003141807
        0.0000339844  -0.0000687200   0.0000221052   0.0000062201  -0.0000035473
        0.0000043858  -0.0000380858  -0.0000637641   0.0000211524   0.0000011421
       -0.0000076871   0.0000025110   0.0000028066  -0.0000007807   0.0000003623
        0.0000016723   0.0000009244  -0.0000001483  -0.0000013181  -0.0000006312
        0.0000002340  -0.0000001193  -0.0000010092   0.0000004090   0.0000006931
       -0.0000018597   0.0000003954  -0.0000004259  -0.0000037563   0.0000006571
       -0.0001499628  -0.0003321334   0.0002488987  -0.0000146433  -0.0010625638
        0.0007486612   0.0002943105  -0.0001437286  -0.0005132866   0.0005514743
       -0.0017835784   0.0016188688
        0.0320788145   0.0325950149  -0.0841694407   0.0010528574   0.0335034602
        0.4796068721  -0.0300126846   0.0346103286  -0.0843382593  -0.0496560915
       -0.0417171574  -0.1210593436  -0.0095330791  -0.0142054505  -0.0230790052
        0.0026696122  -0.0045416445   0.0000903528  -0.0002038519  -0.0001480757
       -0.0003177555   0.0006339751  -0.0027611549   0.0024797179  -0.0088131905
        0.0004344460   0.0017432781   0.0000185902  -0.0000166061  -0.0038073605
       -0.0000035937  -0.0001783753  -0.0000290524  -0.0000417938  -0.0000550788
       -0.0000769887   0.0000349590   0.0000239555  -0.0000229213  -0.0000038639
       -0.0000394050   0.0000121762  -0.0000273775   0.0000349331  -0.0000147705
        0.0000330058  -0.0000606886  -0.0000839507  -0.0000112269  -0.0000054789
        0.0000020955   0.0000221031  -0.0000056383  -0.0000086987  -0.0000026385
        0.0000138783  -0.0000018840   0.0000205398  -0.0000209460   0.0000125482
       -0.0000167771   0.0000110781  -0.0000125378   0.0000005256   0.0000018490
       -0.0000013608  -0.0000003825  -0.0000015921  -0.0000001765  -0.0000001805
        0.0000038456  -0.0000012242   0.0000006569  -0.0000124756   0.0000062079
       -0.0000006637   0.0000066669  -0.0000075981   0.0000041805  -0.0000017361
        0.0000050585  -0.0000025735   0.0000011050  -0.0000013532   0.0000002886
       -0.0000022280   0.0000000375   0.0000021846   0.0000000781  -0.0000004819
       -0.0000045722  -0.0000043468  -0.0000026154  -0.0000007080  -0.0000020372
        0.0000045215  -0.0000007868   0.0000023666  -0.0000161177   0.0000030984
        0.0000082007   0.0000106217   0.0087641238  -0.0001206336   0.0019124756
       -0.0008603068  -0.0027060395   0.0024604054   0.0001887040  -0.0001648819
       -0.0003230969  -0.0029725005  -0.0043484426   0.0000362740   0.0087541668
       -0.0147629830  -0.0230996840   0.0469712242  -0.0447376036  -0.1209621913
        0.0146332664   0.0129556827  -0.0120311656   0.0074290125   0.0115414207
       -0.0077376343  -0.0106452884  -0.0124208703   0.0076089801  -0.0138066486
        0.0138949530  -0.0121004153  -0.0066439121   0.0119262449  -0.0077148735
        0.0098112159  -0.0130205634   0.0076193010  -0.0008019737   0.0016982604
       -0.0002988102  -0.0004991093  -0.0004633059  -0.0006983897   0.0001224571
        0.0007723887  -0.0003283589   0.0003067511   0.0002096699  -0.0000026012
        0.0000039285   0.0000509779   0.0000163495  -0.0000001246   0.0000067451
        0.0000095368  -0.0000004259   0.0000509520   0.0000157222  -0.0000065608
        0.0000082014   0.0000084130   0.0000001218   0.0000007907   0.0000016798
       -0.0000006288  -0.0000004736   0.0000017902   0.0000006685   0.0000002341
        0.0000017127  -0.0000008657  -0.0000003662   0.0000011526  -0.0000018859
        0.0000005923   0.0000008746  -0.0000002739   0.0000029857   0.0000009585
       -0.0003044156   0.0002321109  -0.0000076693  -0.0000675763   0.0007770194
       -0.0003243467   0.0004734462  -0.0004965203  -0.0007014228   0.0009140547
        0.0016423628  -0.0002855577
        0.0065066363  -0.0099515156   0.0064565594  -0.0904185589   0.0463062436
       -0.0300126846   0.4991507917   0.0324922327  -0.0208350747  -0.0159200462
        0.0079789780  -0.0164333029  -0.0005824034   0.0013908112   0.0004319820
       -0.0004498031  -0.0005821257   0.0001680976   0.0000703954  -0.0001522022
        0.0000474285  -0.0006169916  -0.0007154362   0.0003177729  -0.0000670009
       -0.0006317731  -0.0025199951  -0.0003129365  -0.0000259145  -0.0000247220
        0.0002553583  -0.0000705120   0.0000478696  -0.0000336453  -0.0000033784
        0.0000068101   0.0000419269   0.0000201197  -0.0000031148  -0.0000413988
       -0.0000242176   0.0000089525   0.0000137087  -0.0000221148  -0.0000099199
       -0.0000343202   0.0000380010  -0.0000210087   0.0000085314   0.0000203560
       -0.0000038194  -0.0000232999   0.0000006428   0.0000062429   0.0000112744
       -0.0000167191   0.0000024547  -0.0000343119   0.0000428686  -0.0000148580
        0.0000310561  -0.0000242323   0.0000130729  -0.0000050148  -0.0000034497
        0.0000011200   0.0000014575  -0.0000032301   0.0000012224  -0.0000002468
       -0.0000095062   0.0000024707  -0.0000083353  -0.0000001261  -0.0000017943
        0.0000011278  -0.0000150021   0.0000045664  -0.0000035979   0.0000123954
       -0.0000028179   0.0000048754  -0.0000001259   0.0000005424   0.0000005078
        0.0000023324  -0.0000002465   0.0000003621  -0.0000026873   0.0000008816
        0.0000003870   0.0000014544  -0.0000000459   0.0000062534  -0.0000035491
       -0.0000015862  -0.0000143558   0.0000091969  -0.0000011499   0.0000503540
       -0.0000077931   0.0000025599   0.0004318234   0.0019844267   0.0015086500
       -0.0005394782  -0.0005810845   0.0005850839   0.0000204363  -0.0001455405
        0.0000465396  -0.0003433393  -0.0004235514   0.0004314598  -0.0005863882
        0.0002051249  -0.0014426687  -0.0153992954   0.0181159875   0.0000487792
        0.0006496869  -0.0005118078   0.0001520318  -0.0011816357  -0.0030219637
        0.0020175462   0.0006487947  -0.0003878487   0.0004183196  -0.1283598036
       -0.0607838278  -0.0986239685  -0.1329751512  -0.0962105846   0.0655778490
       -0.1196259565   0.0649450884   0.0921657601  -0.0000603161   0.0003634556
        0.0001859621  -0.0000080910   0.0000366102   0.0000135589   0.0000197752
        0.0001182526  -0.0000688441  -0.0000945195   0.0000460701  -0.0001738102
        0.0000075028  -0.0000264576   0.0000136815  -0.0000083315  -0.0000030755
       -0.0000042220  -0.0000170270  -0.0000077996  -0.0000135275   0.0000022071
        0.0000054350  -0.0000093657  -0.0000004748  -0.0000023432  -0.0000004581
        0.0000013358  -0.0000017101   0.0000000277  -0.0000001851  -0.0000007651
       -0.0000004661   0.0000000181   0.0000002484  -0.0000001609   0.0000009184
        0.0000013746   0.0000003283   0.0000029746  -0.0000021943   0.0000003606
       -0.0001018806   0.0001421526   0.0000379949   0.0000048289   0.0001285701
       -0.0000797085  -0.0000100071   0.0000071825  -0.0000478753  -0.0000671583
       -0.0000394461  -0.0003733232
        0.0082281943  -0.0206921590   0.0142865915   0.0402655795  -0.1159191540
        0.0346103286   0.0324922327   0.4776205462   0.0328388225  -0.0028678735
        0.0079067181  -0.0009355148  -0.0002424519  -0.0003647101  -0.0013740394
        0.0000811948   0.0000621676   0.0004621774   0.0000528821  -0.0000491597
       -0.0001989840  -0.0001427627  -0.0001492575   0.0006370095  -0.0006994266
       -0.0014972399  -0.0019856211   0.0000784490   0.0006811088   0.0013817412
        0.0000721883   0.0000876504  -0.0000441246  -0.0000493942  -0.0000247409
        0.0000311296   0.0000045258   0.0000064330   0.0000013014  -0.0000107546
       -0.0000008002   0.0000000729   0.0000261909   0.0000043085  -0.0000038532
       -0.0000138506   0.0000001139   0.0000049334   0.0000069973   0.0000026592
        0.0000028081  -0.0000114513   0.0000090542   0.0000058361   0.0000009857
       -0.0000095546   0.0000017355  -0.0000167508   0.0000096645  -0.0000072241
        0.0000138305  -0.0000001107   0.0000077303  -0.0000008807   0.0000001401
        0.0000008480   0.0000015812   0.0000011842  -0.0000000186   0.0000013819
        0.0000001470  -0.0000001973  -0.0000035255   0.0000015166  -0.0000022408
        0.0000074980  -0.0000062907   0.0000044849  -0.0000044175   0.0000082868
       -0.0000042817   0.0000042780  -0.0000018647   0.0000010608  -0.0000022251
        0.0000043709  -0.0000013591  -0.0000041084  -0.0000015040  -0.0000000102
       -0.0000005484  -0.0000045370   0.0000018075  -0.0000081498  -0.0000030896
       -0.0000020088  -0.0000020939   0.0000068111   0.0000048059   0.0000191879
       -0.0000042255  -0.0000033827  -0.0011797061  -0.0018863976  -0.0014140805
        0.0004456378   0.0005025833  -0.0005173127   0.0001806674  -0.0000192786
       -0.0000601088   0.0002519307   0.0005235068   0.0000220713   0.0003332648
       -0.0002818052   0.0002714330   0.0154344387  -0.0147354674   0.0004759500
        0.0006538131   0.0007382584  -0.0007068831  -0.0021269846  -0.0034098524
        0.0026128520   0.0009757694   0.0005391574   0.0000205755  -0.0612469875
       -0.0842621346  -0.0697415317  -0.0958260749  -0.1453308216   0.0686686988
        0.0644807500  -0.0990017341  -0.0783788538  -0.0002224332   0.0000955849
       -0.0006715220   0.0000111287  -0.0000688618   0.0000235750  -0.0000234560
        0.0000635086  -0.0000536596  -0.0001057438   0.0000157901  -0.0001274871
       -0.0000104550   0.0000119455  -0.0000113017   0.0000008453  -0.0000003689
       -0.0000042282  -0.0000072895  -0.0000106536  -0.0000177350  -0.0000022594
       -0.0000028433  -0.0000082485  -0.0000002855   0.0000005431  -0.0000001553
        0.0000004999   0.0000007170  -0.0000008229  -0.0000002696   0.0000002606
       -0.0000009922  -0.0000005190  -0.0000003755  -0.0000008628  -0.0000015014
       -0.0000011583  -0.0000007657  -0.0000029473  -0.0000005323  -0.0000008415
        0.0000553204  -0.0000509970  -0.0000950471   0.0000206390  -0.0000990025
        0.0000747581   0.0000012747   0.0000080930   0.0000044319   0.0006344204
       -0.0010221472  -0.0000842699
       -0.0055207083   0.0146425161  -0.0082910282  -0.0260632204   0.0343888406
       -0.0843382593  -0.0208350747   0.0328388225   0.5073406455  -0.0176048984
        0.0105485852  -0.0138933979  -0.0003716933   0.0001457614  -0.0006896940
       -0.0002889966  -0.0001890476   0.0006964615  -0.0001448035  -0.0000912934
       -0.0001895751  -0.0006030190  -0.0007363649   0.0005344449   0.0006429048
       -0.0011555893  -0.0033530871   0.0002419696   0.0013584882   0.0019388216
       -0.0001407180  -0.0000715347   0.0000481283   0.0000690989  -0.0000249262
        0.0000140419  -0.0000502997  -0.0000124484   0.0000001056   0.0000487194
        0.0000170505  -0.0000057831  -0.0000222887   0.0000098426  -0.0000012393
        0.0000562427   0.0000047537   0.0000252785  -0.0000083350  -0.0000069573
       -0.0000033540   0.0000226880  -0.0000043681   0.0000033151  -0.0000040480
        0.0000138784  -0.0000026922   0.0000219092  -0.0000192008   0.0000031171
       -0.0000161417   0.0000086267  -0.0000003117   0.0000003352   0.0000008458
        0.0000000305  -0.0000037214  -0.0000000338   0.0000006903   0.0000020458
        0.0000019524   0.0000005422   0.0000087382  -0.0000055426  -0.0000015976
       -0.0000101794   0.0000175533  -0.0000011610   0.0000090870  -0.0000146855
        0.0000011695  -0.0000080325   0.0000021059  -0.0000001303   0.0000015329
       -0.0000060550   0.0000012311   0.0000044568   0.0000043507  -0.0000009591
       -0.0000002655   0.0000032610   0.0000006549  -0.0000018520   0.0000040709
       -0.0000032825   0.0000124824  -0.0000159290   0.0000098281  -0.0000458802
        0.0000163845  -0.0000067506  -0.0001037476  -0.0022277674  -0.0031267501
        0.0003458865   0.0009127137  -0.0001080546   0.0000501158  -0.0001673621
       -0.0001301835   0.0000010522   0.0006814872   0.0003131754   0.0004615524
       -0.0014167622  -0.0008745793   0.0103480744  -0.0112008600   0.0075810519
       -0.0008026099   0.0001489084   0.0002636002   0.0014243290   0.0026484157
       -0.0012589720  -0.0002872634  -0.0007849317   0.0004495129  -0.0983129155
       -0.0692339571  -0.1577306409   0.0653000154   0.0686733274  -0.0916321601
        0.0924916012  -0.0789107413  -0.1516736605  -0.0008286693   0.0004316528
       -0.0013607320  -0.0000024842  -0.0000331558   0.0000181735  -0.0000210653
        0.0001376995  -0.0000724122  -0.0001141743  -0.0000501342  -0.0001573646
       -0.0000059640   0.0000051284  -0.0000223026  -0.0000042478   0.0000031912
        0.0000020256   0.0000130492   0.0000212696  -0.0000139464   0.0000018104
        0.0000029385  -0.0000047767  -0.0000007289   0.0000001009  -0.0000002763
       -0.0000010540  -0.0000008881   0.0000000117   0.0000011027  -0.0000000279
       -0.0000006393   0.0000010451  -0.0000003272  -0.0000005773   0.0000009722
       -0.0000003260  -0.0000006442   0.0000008569   0.0000005592  -0.0000017050
        0.0001502944  -0.0001254104  -0.0000982862   0.0000393001  -0.0001188229
        0.0000632265  -0.0000196303   0.0000647278  -0.0000531797   0.0004754622
       -0.0011343600  -0.0002051378
       -0.0174564643  -0.0152790543  -0.0110783414  -0.1044682346  -0.0315426558
       -0.0496560915  -0.0159200462  -0.0028678735  -0.0176048984   0.6348803076
       -0.0304494364  -0.0122399835  -0.1355355468   0.0332435017   0.0426631095
        0.0559722497   0.0095806080   0.0210975333  -0.0426176014   0.0174743385
        0.0235367481  -0.0345341731  -0.0351528105  -0.0593509780  -0.2923777103
        0.0253055004   0.0227845029  -0.0324586039   0.0116873386   0.0162077104
        0.0014069719   0.0017884859   0.0015962284  -0.0011621875   0.0001197888
       -0.0000348648   0.0001653033   0.0002742810  -0.0001686505  -0.0000070135
       -0.0002282333   0.0000870696  -0.0001476754  -0.0001336241  -0.0002676627
       -0.0003017236  -0.0000062493  -0.0004212679   0.0000002497   0.0000755735
       -0.0000589987  -0.0001089963   0.0000235638  -0.0000428888   0.0000601389
       -0.0000668647   0.0000230601  -0.0001159977   0.0001672575  -0.0000002833
        0.0000715732  -0.0000972616  -0.0000246720  -0.0000228202   0.0000028029
       -0.0000029942   0.0000057388  -0.0000048345   0.0000059023  -0.0000298690
       -0.0000015480   0.0000132902  -0.0000239045  -0.0000412905   0.0000310899
       -0.0000297373  -0.0000109266  -0.0000279565   0.0000425789   0.0000147356
        0.0000111680  -0.0000277167   0.0000343237  -0.0000136585   0.0000067631
       -0.0000300146   0.0000030223   0.0000226470  -0.0000025181  -0.0000025351
       -0.0000309136  -0.0000138192  -0.0000111125   0.0000019078  -0.0000300560
        0.0000201581  -0.0000321086  -0.0000867592  -0.0000341129   0.0001413754
        0.0000865252   0.0000563388   0.0005423042  -0.0006670817  -0.0014669053
        0.0004819729  -0.0001179742  -0.0001975930  -0.0001735759  -0.0002971476
       -0.0004897388   0.0009556795  -0.0000879356  -0.0001236150  -0.0020599105