$hessian                                                                        
        0.3208423938  -0.1376362163  -0.2208715597  -0.1551348762   0.0534940205
        0.1256229016  -0.0101427392   0.0544026099  -0.0138173340  -0.0234907903
       -0.0042338619   0.0291378934  -0.0004457183   0.0003055263  -0.0006366058
       -0.0000321894  -0.0001919791   0.0000967428  -0.0000121391  -0.0000022440
       -0.0000330971   0.0000811701   0.0000338723   0.0000030297  -0.0000384923
        0.0000066088  -0.0000154130   0.0000085401  -0.0000199124   0.0000398907
       -0.0000119740   0.0000075574   0.0000008335   0.0000097414   0.0000181788
       -0.0000004030   0.0000014564  -0.0000028749  -0.0000018948   0.0000016936
        0.0000067291  -0.0000008052   0.0000022401  -0.0000007653   0.0000002980
        0.0000007897   0.0000016130  -0.0000001564   0.0000051069  -0.0000052062
       -0.0000005863  -0.0000003057   0.0000016647  -0.0000014937  -0.0000036450
        0.0000146983   0.0000164140  -0.0000024282  -0.0000077190  -0.0000074066
        0.0000036753   0.0000065651   0.0000059293   0.0000145620  -0.0000307842
       -0.0000175209  -0.0000377912   0.0000181657  -0.0000153855   0.0000641600
       -0.0000256547  -0.0000172699   0.0000113106  -0.0000038215   0.0000097032
        0.0000022839  -0.0000013335   0.0000006627  -0.0000012892   0.0000022851
       -0.0000007837   0.0000047119   0.0000073346  -0.0000008156  -0.0000049815
       -0.0000010207  -0.0000006422  -0.0000000983   0.0000018860   0.0000002371
       -0.0000020530   0.0000014138  -0.0000013672   0.0000002509   0.0000011137
       -0.0000015166   0.0000003504  -0.0000006993  -0.0000047445   0.0000004746
        0.0000026443  -0.0000009199  -0.0000015123   0.0000016945  -0.0000011786
        0.0000004021   0.0000012370  -0.0000033770  -0.0000022278   0.0000005178
       -0.0000020529   0.0000007172   0.0000014095  -0.0000001388  -0.0000015143
       -0.0000031036  -0.0000006574  -0.0000024341  -0.0000039008  -0.0000037698
        0.0000669475   0.0000368987  -0.0000564812  -0.0000212253  -0.0001536355
        0.0000072989   0.0000297837  -0.0000045922  -0.0000655903  -0.0000009681
       -0.0000785629   0.0000407886  -0.0000153984   0.0000375647   0.0000026791
       -0.0000048454  -0.0000211901   0.0000037493  -0.0000121112   0.0000045881
       -0.0000002631   0.0000052920   0.0000049259   0.0000021276   0.0000068223
       -0.0000088255  -0.0000039641   0.0000072088   0.0000031525  -0.0000035423
        0.0000334727  -0.0000360460   0.0000466180  -0.0000117220  -0.0000128903
       -0.0000006140  -0.0000080065  -0.0000052384  -0.0000044112  -0.0000226739
        0.0000516602  -0.0000120917  -0.0000697420  -0.0001571337  -0.0000653514
       -0.0000416330  -0.0000037620   0.0000037827   0.0001166627   0.0000057430
       -0.0000981052   0.0234835294  -0.0329793492  -0.0130501250  -0.0927902072
       -0.0075424338   0.0701783097  -0.0589509864   0.0715336049  -0.0064045109
       -0.0065321702   0.0039475963   0.0086513245   0.0050593219   0.0033971229
        0.0025999227   0.0000002754  -0.0000011841   0.0000047166   0.0000030030
       -0.0000025893  -0.0000062899   0.0000015961  -0.0000055845   0.0000019000
       -0.0000031638  -0.0000017878  -0.0000060771  -0.0000040244   0.0000000705
       -0.0000064903  -0.0000026453   0.0000028244  -0.0000033991  -0.0000085396
        0.0000046301   0.0000009236  -0.0000096013   0.0000051657   0.0000015851
       -0.0000054225   0.0000085364   0.0000053559   0.0000119448   0.0000173414
        0.0000174786   0.0000028738   0.0000054026  -0.0000065390  -0.0000051207
       -0.0000010105  -0.0000025175   0.0000003325   0.0000010813  -0.0000001809
       -0.0000004016  -0.0000020749  -0.0000021853  -0.0000018721  -0.0000014509
       -0.0000017313  -0.0000004969   0.0000007054  -0.0000031850  -0.0000022713
        0.0000007273  -0.0000033876  -0.0000025033   0.0000010519  -0.0000024883
       -0.0000022676   0.0000008968  -0.0000029538   0.0000007476   0.0000001594
       -0.0000030431  -0.0000007336  -0.0000023611   0.0000002890   0.0000210388
        0.0000015738   0.0000085854   0.0000493069   0.0001833022  -0.0000361705
        0.0000011023   0.0000028346   0.0000019520  -0.0000021920   0.0000020481
        0.0000008501  -0.0000018853   0.0000017970   0.0000042219   0.0000002783
       -0.0000018237   0.0000026538  -0.0000074597  -0.0000009967  -0.0000021263
       -0.0000101425   0.0000020108   0.0000060786  -0.0000146737  -0.0000101057
       -0.0000034862  -0.0002300578   0.0001225969  -0.0001171234   0.0048611145
        0.0037142124   0.0024685898  -0.0066523218  -0.0082354462   0.0164370033
       -0.1376362163   0.6244530950  -0.0919972642   0.0954886513  -0.1360020075
       -0.0903744633   0.0227803712  -0.0286824291  -0.0168236625  -0.0041786958
        0.0036084181   0.0005850913   0.0000706097  -0.0011580864  -0.0000617699
        0.0001982857   0.0002062139  -0.0003204856   0.0000955008  -0.0000250433
        0.0000795810  -0.0000393128   0.0000140469   0.0000020910   0.0000102237
        0.0000307584  -0.0000221169  -0.0000161010  -0.0000266683   0.0000057420
        0.0000225054   0.0000148553  -0.0000115538   0.0000052458  -0.0000289422
        0.0000044463  -0.0000044930   0.0000162947  -0.0000006873   0.0000019063
        0.0000121204   0.0000005416  -0.0000015651  -0.0000029366   0.0000007507
        0.0000024717  -0.0000068687  -0.0000007887   0.0000009219  -0.0000012319
        0.0000031452   0.0000065562  -0.0000011879   0.0000080934  -0.0000076644
        0.0000221847  -0.0000087634  -0.0000044255   0.0000072607   0.0000020739
       -0.0000149676   0.0000027459  -0.0000162043   0.0000012009  -0.0000052920
       -0.0000236537  -0.0000274181  -0.0000463870   0.0000671859  -0.0000046109
       -0.0000022782   0.0000216672  -0.0000126754  -0.0000012315  -0.0000097565
        0.0000006703   0.0000036925   0.0000001394   0.0000110143  -0.0000042908
        0.0000003122  -0.0000035504  -0.0000071452   0.0000002208   0.0000035619
        0.0000027183   0.0000013046   0.0000005305   0.0000002017  -0.0000008696
        0.0000022625  -0.0000004839  -0.0000003741   0.0000005526   0.0000005998
       -0.0000003091   0.0000000676   0.0000007912   0.0000011094   0.0000014092
       -0.0000007004  -0.0000003773   0.0000012954  -0.0000002790  -0.0000003771
        0.0000018410   0.0000013372   0.0000018762   0.0000010623  -0.0000013916
       -0.0000005524  -0.0000005227   0.0000009987  -0.0000008555   0.0000015412
        0.0000047216   0.0000014900   0.0000143732  -0.0000043610   0.0000060051
       -0.0000213387   0.0000206077  -0.0000056721  -0.0002043086  -0.0000167491
        0.0001094486  -0.0000186304  -0.0000000450   0.0001182300  -0.0000366604
        0.0001215967  -0.0000665220   0.0000094928  -0.0000287968  -0.0000364622
       -0.0000039194   0.0000215357  -0.0000045239   0.0000012938  -0.0000074031
        0.0000030598   0.0000036126   0.0000008751   0.0000014052   0.0000172247
        0.0000173796   0.0000088477  -0.0000371691   0.0000098881   0.0000024009
        0.0000222424   0.0000350682  -0.0000180428  -0.0000163554   0.0000231240
       -0.0000016701  -0.0000233537  -0.0000104558   0.0000006808  -0.0000444096
        0.0000207852  -0.0000065105   0.0001201247  -0.0000172298   0.0000302322
       -0.0000866202  -0.0000501345  -0.0000153055  -0.0001412405   0.0001983964
        0.0002617429  -0.0016217228  -0.0365448404   0.0251316297  -0.0494302227
       -0.1519836892   0.1337188708   0.0715988482  -0.2771388453   0.0356045826
       -0.0085428246   0.0061310652   0.0098097147   0.0035926338  -0.0046188908
        0.0019318406   0.0000076336   0.0000433453  -0.0000430097   0.0000001731
        0.0000014446  -0.0000105677  -0.0000228442   0.0000318037  -0.0000124852
        0.0000004859   0.0000010664  -0.0000004369   0.0000029146   0.0000001756
        0.0000015661   0.0000068518  -0.0000040606   0.0000022656   0.0000000052
       -0.0000007750   0.0000012868   0.0000009760  -0.0000011305   0.0000004222
        0.0000072884  -0.0000074078  -0.0000025798   0.0000301197   0.0000380331
       -0.0000171069  -0.0000123002   0.0000118098  -0.0000014641   0.0000074133
        0.0000041830  -0.0000005210   0.0000002590  -0.0000010028  -0.0000019155
        0.0000001897   0.0000005134  -0.0000001995   0.0000011617   0.0000010530
       -0.0000002811   0.0000001573   0.0000003715   0.0000004273   0.0000006744
        0.0000002637   0.0000005755   0.0000007681   0.0000003246   0.0000000415
        0.0000002932   0.0000002040   0.0000009010  -0.0000006251  -0.0000001509
       -0.0000004099   0.0000022422  -0.0000008026  -0.0000020374  -0.0000587148
        0.0000328010  -0.0000364151   0.0000064832  -0.0002550363  -0.0001408855
        0.0000015573   0.0000074175   0.0000001955   0.0000062467   0.0000000273
        0.0000004432   0.0000031361  -0.0000000840  -0.0000042827   0.0000046121
       -0.0000033492  -0.0000013149   0.0000032387   0.0000084066  -0.0000051742
       -0.0000117570   0.0000065148  -0.0000070015   0.0000490518   0.0000285762
        0.0000100457   0.0002391631  -0.0001010071   0.0000443474   0.0035333950
       -0.0045765517   0.0021615738   0.0042806395   0.0061559690  -0.0096319626
       -0.2208715597  -0.0919972642   0.4980801995   0.1014902277  -0.0277531521
       -0.1822809273   0.0039302038  -0.0635382985   0.0315917395   0.0278842862
        0.0004672373  -0.0498696837   0.0001647748   0.0000663894   0.0007667450
       -0.0000431927   0.0001150986   0.0000594403   0.0000132805   0.0000986520
        0.0000098194  -0.0001365984  -0.0000844142   0.0000134304   0.0000778314
       -0.0000410139   0.0000551358   0.0000155692   0.0000841642  -0.0000931649
       -0.0000114737  -0.0000163029   0.0000053781   0.0000088682   0.0000127549
       -0.0000049014  -0.0000020640  -0.0000057145   0.0000020858   0.0000012234
       -0.0000028571  -0.0000010387  -0.0000005725   0.0000031343   0.0000008660
        0.0000010851   0.0000020102  -0.0000006133  -0.0000016405   0.0000033172
       -0.0000007862   0.0000036023   0.0000005019  -0.0000070920  -0.0000025364
       -0.0000064701  -0.0000003332   0.0000036009  -0.0000039058  -0.0000004108
        0.0000121184   0.0000001674   0.0000045095  -0.0000334709   0.0000223788
        0.0000112260   0.0000367601   0.0000049781   0.0000135782  -0.0000097965
       -0.0000259987  -0.0000266656  -0.0000087546   0.0000040317  -0.0000020827
       -0.0000007145  -0.0000039528  -0.0000032681  -0.0000065518   0.0000010229
        0.0000003044   0.0000007908  -0.0000019451  -0.0000016283   0.0000014061
        0.0000007615  -0.0000046491   0.0000001992  -0.0000009810  -0.0000025724
        0.0000002538  -0.0000004755  -0.0000044784   0.0000001083  -0.0000015587
       -0.0000010502  -0.0000003882  -0.0000007133  -0.0000004130  -0.0000027122
        0.0000007669  -0.0000039672   0.0000007755  -0.0000000325  -0.0000049018
       -0.0000025166  -0.0000019938  -0.0000043828   0.0000005532   0.0000016204
       -0.0000007901  -0.0000053257  -0.0000010582  -0.0000061164   0.0000004662
       -0.0000004227  -0.0000035748  -0.0000016838   0.0000043242  -0.0000015656
       -0.0001032383  -0.0000277219   0.0000628196   0.0001556621   0.0002576897
       -0.0000343414  -0.0000179006  -0.0000657926   0.0000657607  -0.0000053315
        0.0000615694  -0.0000153557   0.0000115385  -0.0000325531   0.0000283106
        0.0000081756   0.0000196255   0.0000027775   0.0000129052  -0.0000041238
        0.0000055134  -0.0000094272  -0.0000072980   0.0000000215  -0.0000215745
        0.0000003056   0.0000094091   0.0000129985  -0.0000096307   0.0000102806
       -0.0000783870   0.0000439667  -0.0000599316   0.0000309504   0.0000205319
        0.0000093193   0.0000377632   0.0000033581   0.0000199400   0.0000513127
       -0.0001327610   0.0000504194   0.0001344076   0.0002281963   0.0001353413
        0.0001288367   0.0000132346   0.0000132459  -0.0001060267  -0.0000256655
       -0.0000626157  -0.0320153188   0.0712290809   0.0058746907   0.0948721330
        0.0712827103  -0.2304376089  -0.0064771990   0.0356692306  -0.0459871603
        0.0161538286  -0.0088701747  -0.0176320648   0.0025234837   0.0023519918
        0.0030971636  -0.0000033820  -0.0000343457   0.0000287851  -0.0000042012
       -0.0000000188   0.0000218071   0.0000193290  -0.0000091840   0.0000008435
        0.0000040409   0.0000023726   0.0000020752   0.0000045542   0.0000001755
        0.0000007145   0.0000016883  -0.0000004532  -0.0000016226   0.0000035899
        0.0000012564  -0.0000009108   0.0000042433   0.0000002843   0.0000003234
       -0.0000028616   0.0000084685   0.0000056112  -0.0000116552  -0.0000112234
       -0.0000098858   0.0000074805  -0.0000087550  -0.0000015418   0.0000014266
       -0.0000010316  -0.0000004223  -0.0000014591   0.0000020622  -0.0000001724
        0.0000005355   0.0000027865  -0.0000006896   0.0000008697   0.0000019060
       -0.0000027996   0.0000008198   0.0000008198  -0.0000023199   0.0000002057
        0.0000003182  -0.0000044384  -0.0000009227   0.0000006707  -0.0000045990
        0.0000008775   0.0000009639  -0.0000026653  -0.0000008033   0.0000007169
       -0.0000014063  -0.0000012277  -0.0000012367  -0.0000011291   0.0000242741
       -0.0000161505   0.0000337783  -0.0000862626  -0.0001493983   0.0001858342
       -0.0000020630  -0.0000074783   0.0000008206  -0.0000018837  -0.0000034924
        0.0000035130  -0.0000008195  -0.0000045682   0.0000016517  -0.0000032814
        0.0000012364   0.0000034704   0.0000096083  -0.0000033944   0.0000128340
        0.0000273347  -0.0000095905  -0.0000027760   0.0000165501   0.0000052965
        0.0000104300   0.0003031813  -0.0001487209   0.0002030833   0.0026797100
        0.0018161389   0.0031444824   0.0092044793   0.0091530124  -0.0170620138
       -0.1551348762   0.0954886513   0.1014902277   0.3212848899  -0.1249331212
       -0.2291548793  -0.0830396491   0.0550410018   0.0230602496   0.0203235127
       -0.0009576947  -0.0333404862   0.0051442438  -0.0014938756   0.0055399264
       -0.0001582235   0.0009604528   0.0000656949  -0.0000509946   0.0000595120
        0.0000677810  -0.0000354964  -0.0000422009   0.0000005247   0.0000347198
        0.0000043389   0.0000003843  -0.0000115191   0.0000172595  -0.0000400607
        0.0000067545   0.0000007389   0.0000053940   0.0000048503  -0.0000035752
       -0.0000008505   0.0000021604   0.0000028336   0.0000004644  -0.0000012570
        0.0000063382   0.0000008988   0.0000005516  -0.0000034461   0.0000014646
       -0.0000008921   0.0000036636   0.0000018893   0.0000019565  -0.0000005423
        0.0000026392  -0.0000030733   0.0000015571  -0.0000001044   0.0000080259
       -0.0000031341  -0.0000017626  -0.0000006096  -0.0000023592  -0.0000011705
        0.0000065878   0.0000017173   0.0000032540   0.0000155013  -0.0000076031
       -0.0000045078  -0.0000044615  -0.0000011706  -0.0000004856   0.0000044227
        0.0000072446   0.0000045966   0.0000056864   0.0000021759  -0.0000020387
        0.0000005685   0.0000019661   0.0000015691  -0.0000007763  -0.0000001724
       -0.0000006553   0.0000014333   0.0000019696   0.0000001910  -0.0000017762
        0.0000007412   0.0000009315   0.0000006562   0.0000003164   0.0000008073
       -0.0000003200   0.0000006931   0.0000008030   0.0000011833   0.0000004552
        0.0000003684   0.0000009504  -0.0000010924  -0.0000007358   0.0000016930
       -0.0000000055   0.0000003435   0.0000001818  -0.0000006050   0.0000008806
        0.0000022819  -0.0000004025   0.0000007894   0.0000006543  -0.0000006518
        0.0000009503   0.0000002377  -0.0000006358  -0.0000003080  -0.0000001573
       -0.0000010163   0.0000006027   0.0000060518   0.0000074151   0.0000005582
       -0.0001057265  -0.0000564793   0.0000867200  -0.0000142813   0.0002028305
       -0.0000485628   0.0003840169   0.0002739720  -0.0001570193   0.0001211919
       -0.0004623793  -0.0001298936  -0.0000186353  -0.0000672315  -0.0000775923
        0.0000311696   0.0000100327  -0.0000092889   0.0000022505  -0.0000015256
        0.0000125460  -0.0000045174  -0.0000022666  -0.0000020268  -0.0000054036
        0.0000126715   0.0000168277  -0.0000180854  -0.0000192140   0.0000101099
        0.0000387374   0.0000031887  -0.0000612194  -0.0000248045  -0.0000016206
       -0.0000050575  -0.0000122819   0.0000190932   0.0000143421   0.0000731635
       -0.0000261215   0.0000345152   0.0001873194  -0.0000261411   0.0000831375
        0.0001165919  -0.0000203593   0.0000531524  -0.0004938259  -0.0006967476
        0.0005755364  -0.0200866390   0.0263160631   0.0067988236  -0.0145887604
       -0.0323585363   0.0431076290  -0.0056704367   0.0056395404   0.0059921363
       -0.0669306675  -0.0418018559   0.0728827932  -0.0056563786   0.0181019375
       -0.0010761797  -0.0000031643  -0.0000100164   0.0000080157   0.0000030972
       -0.0000017728   0.0000099262  -0.0000070332  -0.0000063288   0.0000013920
       -0.0000013679  -0.0000007695  -0.0000014214  -0.0000011482  -0.0000010567
       -0.0000009987  -0.0000018387  -0.0000006960  -0.0000006603  -0.0000020687
        0.0000000739   0.0000002988  -0.0000037453   0.0000003323   0.0000005561
       -0.0000056709   0.0000021835   0.0000011093  -0.0000186079   0.0000001720
       -0.0000004924  -0.0000031341  -0.0000044208   0.0000027434  -0.0000003972
       -0.0000013776  -0.0000002608   0.0000011671   0.0000001033  -0.0000013087
        0.0000007749  -0.0000011044  -0.0000010825   0.0000007658  -0.0000011174
       -0.0000004628   0.0000008197  -0.0000002882  -0.0000002036   0.0000002741
       -0.0000010246   0.0000000235   0.0000001105  -0.0000009903   0.0000002936
        0.0000007248  -0.0000001279  -0.0000000191   0.0000004262  -0.0000010962
       -0.0000006145   0.0000006797  -0.0000055122  -0.0000003943  -0.0000003740
       -0.0000024381  -0.0000072470  -0.0000371178  -0.0002091455   0.0001207077
       -0.0000036091   0.0000008710  -0.0000037252   0.0000035344  -0.0000005231
        0.0000005350   0.0000036213   0.0000017414  -0.0000079253   0.0000078772
        0.0000023517  -0.0000019739   0.0000033593  -0.0000010455  -0.0000043366
       -0.0000010695   0.0000023583  -0.0000103460   0.0000100043   0.0000128610
       -0.0000080746  -0.0000614985   0.0002505255  -0.0002870163  -0.0001748642
        0.0002828284  -0.0002906955   0.0045498025   0.0004978614   0.0046760897
        0.0534940205  -0.1360020075  -0.0277531521  -0.1249331212   0.6065735643
       -0.0993053061   0.0968269907  -0.3073684095   0.0080903392  -0.0323807864
       -0.0376252717   0.0717515129  -0.0000064639   0.0017347238   0.0022421406
       -0.0004569356  -0.0011616645   0.0006222037   0.0000917521   0.0000065689
       -0.0000831880   0.0001248568   0.0000408880  -0.0000472870  -0.0000824266
        0.0000331771  -0.0000514197   0.0000165658  -0.0000810643   0.0000763968
        0.0000096114   0.0000130246  -0.0000121235  -0.0000046028  -0.0000149265
       -0.0000042483  -0.0000040318   0.0000052110   0.0000022257   0.0000000864
       -0.0000082782  -0.0000019504  -0.0000033891   0.0000029502  -0.0000011749
       -0.0000005661  -0.0000064940  -0.0000031134  -0.0000056572   0.0000038702
       -0.0000019719   0.0000049704  -0.0000021106  -0.0000021908  -0.0000039703
       -0.0000087923  -0.0000050616   0.0000018894   0.0000073037   0.0000070071
       -0.0000028263  -0.0000050588  -0.0000028489  -0.0000327788   0.0000164918
        0.0000105988   0.0000358447   0.0000058328  -0.0000033250  -0.0000360464
        0.0000031143  -0.0000020223  -0.0000125235   0.0000002053  -0.0000059818
       -0.0000021699  -0.0000016890  -0.0000024534   0.0000064369  -0.0000011253
        0.0000016247  -0.0000047561  -0.0000076019   0.0000006372   0.0000092432
       -0.0000000589  -0.0000016556   0.0000002490  -0.0000018746  -0.0000011789
        0.0000017741  -0.0000030338  -0.0000014524  -0.0000011265  -0.0000022828
        0.0000005193   0.0000002758  -0.0000001142   0.0000011912  -0.0000003794
       -0.0000012974  -0.0000006562   0.0000007328  -0.0000008154  -0.0000007553
       -0.0000007862  -0.0000006584  -0.0000000014  -0.0000000697  -0.0000000633
        0.0000019693  -0.0000016000  -0.0000007787  -0.0000018132   0.0000016464
        0.0000036223  -0.0000002662   0.0000050957  -0.0000170354   0.0000052988
        0.0002166225   0.0001135367  -0.0001525043  -0.0001424805  -0.0002521613
        0.0002312513   0.0001251865   0.0005221640  -0.0003542984  -0.0000074244
       -0.0002177628  -0.0000015092   0.0000272427  -0.0000125402  -0.0000039780
       -0.0000512748  -0.0000391121   0.0000041051  -0.0000051965  -0.0000148339
        0.0000031883   0.0000190267  -0.0000028666   0.0000037826   0.0000533095
        0.0000272825  -0.0000087448  -0.0000195195   0.0000080359  -0.0000204822
        0.0000409259   0.0000195606   0.0001227883  -0.0000113730  -0.0000477880
       -0.0000014405  -0.0000536734   0.0000011842  -0.0000019875  -0.0002088721
        0.0002746279  -0.0000454470  -0.0001185099  -0.0005029352  -0.0004744254
       -0.0003388762   0.0000597697  -0.0000673092   0.0005198732  -0.0005484501
       -0.0000077906   0.0268015702  -0.0416115586  -0.0177342463  -0.0015138632
        0.0545446095  -0.0288460480   0.0183042322  -0.0150928305  -0.0178775268
       -0.0420374532  -0.1087888361   0.1056481828   0.0055191101  -0.0145864063
        0.0003461767  -0.0000101740   0.0000478878  -0.0000338284   0.0000065855
        0.0000141308  -0.0000170614   0.0000031296   0.0000200115  -0.0000014858
        0.0000049254   0.0000038585   0.0000046220   0.0000059273   0.0000005406
        0.0000044408   0.0000045397  -0.0000024419   0.0000013728   0.0000090598
       -0.0000019480  -0.0000024898   0.0000087239  -0.0000031079  -0.0000032293
        0.0000048125  -0.0000044553  -0.0000031237   0.0000149226  -0.0000140551
       -0.0000041938   0.0000087297   0.0000022079   0.0000068200   0.0000048605
        0.0000039709   0.0000004741  -0.0000033631  -0.0000000404   0.0000015633
       -0.0000010155   0.0000014632   0.0000018598  -0.0000004874   0.0000009508
        0.0000008808  -0.0000003461  -0.0000004184   0.0000011151  -0.0000003181
       -0.0000002961   0.0000005539  -0.0000001980   0.0000001809   0.0000004973
        0.0000007462   0.0000001331   0.0000015286  -0.0000010708   0.0000009713
        0.0000018804  -0.0000012863   0.0000112282  -0.0000018743  -0.0000262015
        0.0000236448  -0.0000128025  -0.0001788283  -0.0001131910  -0.0001906838
        0.0000214401   0.0000065361   0.0000025168   0.0000015302   0.0000141431
       -0.0000002131  -0.0000109861   0.0000110305   0.0000033944  -0.0000140975
       -0.0000136507   0.0000000494  -0.0000346125   0.0000300390  -0.0000131243
       -0.0000699743   0.0000242459   0.0000024933   0.0000086014   0.0000141064
       -0.0000034130  -0.0000241519   0.0001021789   0.0004331659   0.0002255100
       -0.0001979794  -0.0005467433   0.0002694555   0.0000373932   0.0040862343
        0.1256229016  -0.0903744633  -0.1822809273  -0.2291548793  -0.0993053061
        0.5154671442  -0.0006597968   0.0700523423  -0.0860237647  -0.0145288478
        0.0234256773   0.0073693981   0.0053198609   0.0036230153  -0.0017399357
       -0.0002428486   0.0011943529  -0.0006790389  -0.0001605185  -0.0000181801
       -0.0000056623   0.0000939648   0.0000640964  -0.0000172057  -0.0000576444
       -0.0000231288   0.0000001739  -0.0000072341  -0.0000122997   0.0000354819
       -0.0000196523  -0.0000113305   0.0000204143  -0.0000119779   0.0000127741
        0.0000100793  -0.0000008257  -0.0000088561  -0.0000015664   0.0000045892
       -0.0000111628   0.0000008853   0.0000005433   0.0000077354   0.0000031104
        0.0000006702  -0.0000038968   0.0000005614  -0.0000012312  -0.0000005473
       -0.0000000284   0.0000060158  -0.0000030412  -0.0000024581  -0.0000149132
        0.0000041516   0.0000024823  -0.0000008447   0.0000001694   0.0000011193
       -0.0000027938   0.0000025466  -0.0000010387  -0.0000143078   0.0000042733
       -0.0000029287  -0.0000059242  -0.0000013675   0.0000103812   0.0000113796
       -0.0000147766  -0.0000032765  -0.0000120091   0.0000002233   0.0000036768
       -0.0000025277  -0.0000045944  -0.0000016061  -0.0000045372   0.0000024395
        0.0000037175   0.0000038982   0.0000075698   0.0000013819  -0.0000044111
       -0.0000020165  -0.0000024387  -0.0000010416   0.0000011859   0.0000027102
       -0.0000016730   0.0000004876  -0.0000005389  -0.0000001269  -0.0000015833
        0.0000026553   0.0000011389  -0.0000016470   0.0000007413  -0.0000023289
        0.0000023416   0.0000037451   0.0000007227   0.0000013881   0.0000021524
       -0.0000006372  -0.0000017269  -0.0000004555   0.0000003439   0.0000016826
        0.0000042732  -0.0000019195   0.0000003070   0.0000009329  -0.0000006539
       -0.0000058933   0.0000002814  -0.0000199193   0.0000025243  -0.0000106105
        0.0000765393  -0.0000346953  -0.0000354172   0.0000938318  -0.0000144108
       -0.0001747046   0.0000186753   0.0006478605   0.0002219938   0.0002430130
       -0.0000327186   0.0000133707  -0.0000647474   0.0000064318  -0.0000116006
        0.0000391081  -0.0000262413   0.0000072429  -0.0000127549   0.0000078769
        0.0000007159   0.0000017351   0.0000023816  -0.0000029908  -0.0000283962
       -0.0000124382  -0.0000057859   0.0000333626   0.0000004156  -0.0000007307
        0.0000064665   0.0000215963   0.0000363465   0.0000050368  -0.0000101765
        0.0000054786   0.0000039205  -0.0000116261   0.0000105375  -0.0000701330
        0.0000060949  -0.0000305995  -0.0000677814  -0.0001948721  -0.0001497777
        0.0000237717  -0.0000299876  -0.0000286783  -0.0001728851  -0.0001519425
        0.0000719430   0.0074612848  -0.0184141594  -0.0050472576   0.0249301486
        0.0180077365  -0.0458959162  -0.0013998549   0.0008295857   0.0022256996
        0.0728402310   0.1055846302  -0.2042928794   0.0059255924  -0.0184178593
        0.0019976792  -0.0000121633  -0.0000355952   0.0000344317  -0.0000166642
       -0.0000086334   0.0000060373   0.0000141523  -0.0000053143  -0.0000102881
        0.0000005161  -0.0000007932   0.0000020909  -0.0000011122   0.0000010005
       -0.0000005619   0.0000004789   0.0000025279   0.0000003452  -0.0000013345
        0.0000004251   0.0000008992  -0.0000001386   0.0000013044   0.0000020265
        0.0000049763  -0.0000008127   0.0000007673   0.0000208730   0.0000046134
       -0.0000079345   0.0000004821   0.0000024902  -0.0000083769  -0.0000058645
        0.0000001227   0.0000014931  -0.0000011261   0.0000025081   0.0000038252
       -0.0000005006  -0.0000005176   0.0000017969  -0.0000020123  -0.0000010209
        0.0000021125   0.0000001425   0.0000000797   0.0000016698  -0.0000016120
        0.0000001217   0.0000011202  -0.0000011504   0.0000011607   0.0000015623
        0.0000002900   0.0000008725  -0.0000004711  -0.0000000725   0.0000013874
        0.0000008627   0.0000022829   0.0000030085   0.0000031486   0.0000278961
       -0.0000065106   0.0000271387   0.0000178443   0.0000685626   0.0001694737
       -0.0000013138  -0.0000073533  -0.0000003746  -0.0000004199  -0.0000107365
        0.0000008929   0.0000042879  -0.0000073370   0.0000019710   0.0000070875
       -0.0000014702   0.0000011412   0.0000159600  -0.0000034198  -0.0000029286
        0.0000171780   0.0000038420   0.0000057832   0.0000103816   0.0000115347
        0.0000157380  -0.0005938725   0.0002620108  -0.0002854746  -0.0003059462
       -0.0004722424   0.0004612746   0.0047843061   0.0038252355  -0.0015198798
       -0.0101427392   0.0227803712   0.0039302038  -0.0830396491   0.0968269907
       -0.0006597968   0.3239931270  -0.1430957785  -0.2260180894  -0.0894451211
       -0.0445259692   0.0912441622   0.0052786944   0.0021068169  -0.0052956745
       -0.0004139756  -0.0004528673  -0.0011684954   0.0000519183  -0.0000126961
        0.0000914774  -0.0000603263  -0.0000245167   0.0001080408   0.0000688638
       -0.0000455676   0.0000544393  -0.0000114407   0.0000683244  -0.0000524850
       -0.0000271364   0.0000010316   0.0000089802   0.0000114572   0.0000022209
       -0.0000060730  -0.0000056625  -0.0000005829   0.0000010098   0.0000002131
        0.0000021166  -0.0000019069  -0.0000020305  -0.0000047472  -0.0000026317
       -0.0000017747  -0.0000007699  -0.0000022409  -0.0000012689   0.0000010832
       -0.0000013414  -0.0000015402   0.0000012899  -0.0000004172  -0.0000014469
        0.0000000254   0.0000009490  -0.0000043045   0.0000021885   0.0000010758
       -0.0000027645   0.0000002403  -0.0000001843  -0.0000023957  -0.0000039116
       -0.0000020930   0.0000038437   0.0000036488  -0.0000012021  -0.0000015850
        0.0000011451   0.0000008413   0.0000033990  -0.0000027256   0.0000002104
        0.0000047607  -0.0000011455  -0.0000001225  -0.0000014737   0.0000020517
       -0.0000047403  -0.0000008951  -0.0000042798   0.0000000306   0.0000064023
        0.0000007550  -0.0000014794  -0.0000005271  -0.0000019721  -0.0000009885
       -0.0000001724  -0.0000003847  -0.0000003517   0.0000000947  -0.0000006593
       -0.0000008158  -0.0000000912  -0.0000001239  -0.0000018306   0.0000013670
       -0.0000002129  -0.0000018555  -0.0000008839  -0.0000000712  -0.0000008576
        0.0000007397  -0.0000000554  -0.0000013031  -0.0000008701   0.0000001764
        0.0000001338  -0.0000005806  -0.0000004363  -0.0000012652  -0.0000001412
        0.0000036671  -0.0000001248   0.0000123274  -0.0000173848   0.0000087380
       -0.0001331605  -0.0001196750   0.0000731885  -0.0000769712   0.0002181220
       -0.0001859380  -0.0001474475   0.0014292652   0.0001908104  -0.0000324372
        0.0003069311   0.0001206352   0.0000898571  -0.0000218758   0.0000554314