      -----------------------------------------------------------      
     |                   =====================                   |     
     |                           x T B                           |     
     |                   =====================                   |     
     |                         S. Grimme                         |     
     |          Mulliken Center for Theoretical Chemistry        |     
     |                    University of Bonn                     |     
      -----------------------------------------------------------      

   * xtb version 6.7.1 (edcfbbe) compiled by 'albert@albert-system' on 2024-07-22

   xtb is free software: you can redistribute it and/or modify it under
   the terms of the GNU Lesser General Public License as published by
   the Free Software Foundation, either version 3 of the License, or
   (at your option) any later version.
   
   xtb is distributed in the hope that it will be useful,
   but WITHOUT ANY WARRANTY; without even the implied warranty of
   MERCHANTABILITY or FITNESS FOR A PARTICULAR PURPOSE.  See the
   GNU Lesser General Public License for more details.
   
   Cite this work as:
   * C. Bannwarth, E. Caldeweyher, S. Ehlert, A. Hansen, P. Pracht,
     J. Seibert, S. Spicher, S. Grimme, WIREs Comput. Mol. Sci., 2020, 11,
     e01493. DOI: 10.1002/wcms.1493
   
   for GFN2-xTB:
   * C. Bannwarth, S. Ehlert and S. Grimme., J. Chem. Theory Comput., 2019,
     15, 1652-1671. DOI: 10.1021/acs.jctc.8b01176
   for GFN1-xTB:
   * S. Grimme, C. Bannwarth, P. Shushkov, J. Chem. Theory Comput., 2017,
     13, 1989-2009. DOI: 10.1021/acs.jctc.7b00118
   for GFN0-xTB:
   * P. Pracht, E. Caldeweyher, S. Ehlert, S. Grimme, ChemRxiv, 2019, preprint.
     DOI: 10.26434/chemrxiv.8326202.v1
   for GFN-FF:
   * S. Spicher and S. Grimme, Angew. Chem. Int. Ed., 2020, 59, 15665-15673.
     DOI: 10.1002/anie.202004239
   
   for ALPB and GBSA implicit solvation:
   * S. Ehlert, M. Stahn, S. Spicher, S. Grimme, J. Chem. Theory Comput.,
     2021, 17, 4250-4261. DOI: 10.1021/acs.jctc.1c00471
   
   for ddCOSMO and CPCM-X implicit solvation:
   * M. Stahn, S. Ehlert, S. Grimme, J. Phys. Chem. A,
     2023, XX, XXXX-XXXX. DOI: 10.1021/acs.jpca.3c04382
   
   for DFT-D4:
   * E. Caldeweyher, C. Bannwarth and S. Grimme, J. Chem. Phys., 2017,
     147, 034112. DOI: 10.1063/1.4993215
   * E. Caldeweyher, S. Ehlert, A. Hansen, H. Neugebauer, S. Spicher,
     C. Bannwarth and S. Grimme, J. Chem. Phys., 2019, 150, 154122.
     DOI: 10.1063/1.5090222
   * E. Caldeweyher, J.-M. Mewes, S. Ehlert and S. Grimme, Phys. Chem. Chem. Phys.
     2020, 22, 8499-8512. DOI: 10.1039/D0CP00502A
   
   for sTDA-xTB:
   * S. Grimme and C. Bannwarth, J. Chem. Phys., 2016, 145, 054103.
     DOI: 10.1063/1.4959605
   
   in the mass-spec context:
   * V. Asgeirsson, C. Bauer and S. Grimme, Chem. Sci., 2017, 8, 4879.
     DOI: 10.1039/c7sc00601b
   * J. Koopman and S. Grimme, ACS Omega 2019, 4, 12, 15120-15133.
     DOI: 10.1021/acsomega.9b02011
   
   for metadynamics refer to:
   * S. Grimme, J. Chem. Theory Comput., 2019, 155, 2847-2862
     DOI: 10.1021/acs.jctc.9b00143
   
   for SPH calculations refer to:
   * S. Spicher and S. Grimme, J. Chem. Theory Comput., 2021, 17, 1701-1714
     DOI: 10.1021/acs.jctc.0c01306
   
   for ONIOM refer to:
   * C. Plett, A. Katbashev, S. Ehlert, S. Grimme, M. Bursch,
     Phys. Chem. Chem. Phys., 2023, 25, 17860-17868. DOI: 10.1039/D3CP02178E
   
   for DIPRO refer to:
   * J. Kohn, N. Gildemeister, S. Grimme, D. Fazzi, A. Hansen,
     J. Chem. Phys., 2023, just accepted.
   
   for PTB refer to:
   * S. Grimme, M. Mueller, A. Hansen, J. Chem. Phys., 2023, 158, 124111.
     DOI: 10.1063/5.0137838
   
   with help from (in alphabetical order)
   P. Atkinson, C. Bannwarth, F. Bohle, G. Brandenburg, E. Caldeweyher
   M. Checinski, S. Dohm, S. Ehlert, S. Ehrlich, I. Gerasimov, C. Hölzer
   A. Katbashev, J. Kohn, J. Koopman, C. Lavigne, S. Lehtola, F. März, M. Müller,
   F. Musil, H. Neugebauer, J. Pisarek, C. Plett, P. Pracht, F. Pultar,
   J. Seibert, P. Shushkov, S. Spicher, M. Stahn, M. Steiner, T. Strunk,
   J. Stückrath, T. Rose, and J. Unsleber
   
 * started run on 2025/09/08 at 22:10:24.495     
   ID    Z sym.   atoms
    1    6 C      1-8, 10-15, 19-25, 28, 29
    2    7 N      9, 16-18, 26, 27
    3    1 H      30-45

           -------------------------------------------------
          |                Calculation Setup                |
           -------------------------------------------------

          program call               : xtb data2507/gas/ICz-2/ICz-2_gas_T1_crest.xyz --gfn 2 --spinpol --tblite --uhf 2 --ohess vtight --parallel 40 --molden --ceasefiles --namespace data2507/gas/ICz-2/ICz-2_gas_T1_finalOpt
          calculation namespace      : data2507/gas/ICz-2/ICz-2_gas_T1_finalOpt
          coordinate file            : data2507/gas/ICz-2/ICz-2_gas_T1_crest.xyz
          omp threads                :                    40

repulsion energy          1.2313758855088E+00 Eh
dispersion energy         1.9461886088089E-04 Eh
interaction energy        0.0000000000000E+00 Eh
number of electrons       1.3800000000000E+02 e
integral cutoff           1.7347787504999E+01 bohr

------------------------------------------------------------
  cycle        total energy    energy error   density error
------------------------------------------------------------
      1     -74.67914743592  -7.5910718E+01   1.0915621E-01
      2     -74.82196191475  -1.4281448E-01   6.0572933E-02
      3     -74.81464689346   7.3150213E-03   3.3460424E-02
      4     -74.83970898414  -2.5062091E-02   1.3724945E-02
      5     -74.85466266613  -1.4953682E-02   3.7903417E-03
      6     -74.85506180057  -3.9913444E-04   2.3802322E-03
      7     -74.85532031775  -2.5851718E-04   1.0954666E-03
      8     -74.85533275108  -1.2433327E-05   6.6909130E-04
      9     -74.85534210841  -9.3573316E-06   3.1384086E-04
     10     -74.85534375249  -1.6440811E-06   1.8204548E-04
     11     -74.85534448084  -7.2835378E-07   9.2479291E-05
     12     -74.85534507611  -5.9526211E-07   3.5984639E-05
     13     -74.85534511830  -4.2191687E-08   1.5874923E-05
------------------------------------------------------------

electronic energy        -7.6086915622667E+01 Eh
total energy             -7.4855345118297E+01 Eh

 total:                                   0.310 sec
 - repulsion                              0.000 sec (  0%)
 - dispersion                             0.005 sec (  1%)
 - coulomb                                0.004 sec (  1%)
 - hamiltonian                            0.009 sec (  2%)
 - scc                                    0.293 sec ( 94%)

      ----------------------------------------------------------- 
     |                   =====================                   |
     |                        A N C O P T                        |
     |                   =====================                   |
     |               Approximate Normal Coordinate               |
     |                Rational Function Optimizer                |
      ----------------------------------------------------------- 

Optimization log is written to '/dev/null'
      ----------------------------------------------------------- 
     |                   =====================                   |
     |                        A N C O P T                        |
     |                   =====================                   |
     |               Approximate Normal Coordinate               |
     |                Rational Function Optimizer                |
      ----------------------------------------------------------- 

          ...................................................
          :                      SETUP                      :
          :.................................................:
          :   optimization level         verytight          :
          :   max. optcycles                   900          :
          :   ANC micro-cycles                  20          :
          :   degrees of freedom               129          :
          :.................................................:
          :   RF solver                   davidson          :
          :   write xtbopt.log                true          :
          :   linear?                        false          :
          :   energy convergence         0.1000000E-06 Eh   :
          :   grad. convergence          0.2000000E-03 Eh/α :
          :   maxmium RF displ.          1.0000000          :
          :   Hlow (freq-cutoff)         0.1000000E-01      :
          :   Hmax (freq-cutoff)         5.0000000          :
          :   S6 in model hess.         20.0000000          :
          ...................................................

generating ANC from exact Hessian ...
Using Lindh-Hessian (1995)
 Shifting diagonal of input Hessian by   9.597187872684982E-003
 Lowest  eigenvalues of input Hessian
    0.000000    0.000000    0.000000    0.000000    0.000000    0.000000
    0.010000    0.010479    0.010792    0.011377    0.011740    0.012082
    0.012646    0.013586    0.015165    0.016297    0.017122    0.020321
 Highest eigenvalues
    2.063062    2.096484    2.146921    2.155716    2.176487    2.203443
 

........................................................................
.............................. CYCLE    1 ..............................
........................................................................
------------------------------------------------------------
  cycle        total energy    energy error   density error
------------------------------------------------------------
      1     -74.85534509099  -7.6086916E+01   1.8806961E-05
      2     -74.85534510704  -1.6045632E-08   1.3005308E-05
------------------------------------------------------------

 total:                                   0.030 sec
 * total energy  :   -74.8553451 Eh     change        0.1126128E-07 Eh
   gradient norm :     0.0054883 Eh/α   predicted     0.0000000E+00 (-100.00%)
   displ. norm   :     0.0187813 α      lambda       -0.1649364E-04
   maximum displ.:     0.0103215 α      in ANC's #1, #8, #4, ...

........................................................................
.............................. CYCLE    2 ..............................
........................................................................
------------------------------------------------------------
  cycle        total energy    energy error   density error
------------------------------------------------------------
      1     -74.85536312935  -7.6086712E+01   2.1306671E-04
      2     -74.85536329015  -1.6080308E-07   1.3675238E-04
      3     -74.85536315965   1.3050013E-07   1.0007073E-04
      4     -74.85536369136  -5.3171327E-07   2.5751044E-05
      5     -74.85536373600  -4.4639648E-08   1.3834453E-05
------------------------------------------------------------

 total:                                   0.041 sec
 * total energy  :   -74.8553637 Eh     change       -0.1862897E-04 Eh
   gradient norm :     0.0030463 Eh/α   predicted    -0.1220215E-04 ( -34.50%)
   displ. norm   :     0.0351197 α      lambda       -0.1902556E-04
   maximum displ.:     0.0205579 α      in ANC's #1, #8, #4, ...

........................................................................
.............................. CYCLE    3 ..............................
........................................................................
------------------------------------------------------------
  cycle        total energy    energy error   density error
------------------------------------------------------------
      1     -74.85537453207  -7.6086541E+01   3.1881845E-04
      2     -74.85537478436  -2.5229008E-07   1.9283650E-04
      3     -74.85537408432   7.0003341E-07   1.0448575E-04
      4     -74.85537497263  -8.8830951E-07   2.8455936E-05
      5     -74.85537499851  -2.5880880E-08   1.9303555E-05
------------------------------------------------------------

 total:                                   0.041 sec
 * total energy  :   -74.8553750 Eh     change       -0.1126251E-04 Eh
   gradient norm :     0.0005680 Eh/α   predicted    -0.9703769E-05 ( -13.84%)
   displ. norm   :     0.0308776 α      lambda       -0.2943953E-05
   maximum displ.:     0.0183312 α      in ANC's #1, #8, #4, ...

........................................................................
.............................. CYCLE    4 ..............................
........................................................................
------------------------------------------------------------
  cycle        total energy    energy error   density error
------------------------------------------------------------
      1     -74.85537845168  -7.6086563E+01   2.4685514E-04
      2     -74.85537849688  -4.5196785E-08   1.4701634E-04
      3     -74.85537776156   7.3531523E-07   8.7096720E-05
      4     -74.85537860232  -8.4075579E-07   1.4604730E-05
------------------------------------------------------------

 total:                                   0.034 sec
 * total energy  :   -74.8553786 Eh     change       -0.3603804E-05 Eh
   gradient norm :     0.0011085 Eh/α   predicted    -0.1548146E-05 ( -57.04%)
   displ. norm   :     0.0568398 α      lambda       -0.4950135E-05
   maximum displ.:     0.0322481 α      in ANC's #8, #1, #4, ...

........................................................................
.............................. CYCLE    5 ..............................
........................................................................
------------------------------------------------------------
  cycle        total energy    energy error   density error
------------------------------------------------------------
      1     -74.85538364548  -7.6086669E+01   4.5322396E-04
      2     -74.85538376330  -1.1782252E-07   2.6790660E-04
      3     -74.85538135109   2.4122108E-06   1.6223824E-04
      4     -74.85538410555  -2.7544619E-06   1.7055228E-05
      5     -74.85538412041  -1.4863701E-08   9.1172940E-06
------------------------------------------------------------

 total:                                   0.041 sec
 * total energy  :   -74.8553841 Eh     change       -0.5518095E-05 Eh
   gradient norm :     0.0009924 Eh/α   predicted    -0.2478862E-05 ( -55.08%)
   displ. norm   :     0.0592730 α      lambda       -0.3398046E-05
   maximum displ.:     0.0338193 α      in ANC's #1, #8, #4, ...

........................................................................
.............................. CYCLE    6 ..............................
........................................................................
------------------------------------------------------------
  cycle        total energy    energy error   density error
------------------------------------------------------------
      1     -74.85538732706  -7.6086733E+01   4.5433246E-04
      2     -74.85538749190  -1.6484344E-07   2.6616137E-04
      3     -74.85538637855   1.1133542E-06   1.1722292E-04
      4     -74.85538766728  -1.2887338E-06   1.4032972E-05
      5     -74.85538767344  -6.1575207E-09   7.8822334E-06
------------------------------------------------------------

 total:                                   0.041 sec
 * total energy  :   -74.8553877 Eh     change       -0.3553025E-05 Eh
   gradient norm :     0.0006019 Eh/α   predicted    -0.1704235E-05 ( -52.03%)
   displ. norm   :     0.0381152 α      lambda       -0.1478032E-05
   maximum displ.:     0.0233323 α      in ANC's #1, #8, #4, ...

........................................................................
.............................. CYCLE    7 ..............................
........................................................................
------------------------------------------------------------
  cycle        total energy    energy error   density error
------------------------------------------------------------
      1     -74.85538910387  -7.6086774E+01   2.6643989E-04
      2     -74.85538916156  -5.7687785E-08   1.5543558E-04
      3     -74.85538891247   2.4909174E-07   5.4871618E-05
      4     -74.85538920226  -2.8979277E-07   8.3915794E-06
------------------------------------------------------------

 total:                                   0.034 sec
 * total energy  :   -74.8553892 Eh     change       -0.1528824E-05 Eh
   gradient norm :     0.0002604 Eh/α   predicted    -0.7480561E-06 ( -51.07%)
   displ. norm   :     0.0237353 α      lambda       -0.8482668E-06
   maximum displ.:     0.0157131 α      in ANC's #1, #3, #2, ...

........................................................................
.............................. CYCLE    8 ..............................
........................................................................
------------------------------------------------------------
  cycle        total energy    energy error   density error
------------------------------------------------------------
      1     -74.85539000985  -7.6086805E+01   1.2771118E-04
      2     -74.85539001854  -8.6806580E-09   7.6048738E-05
      3     -74.85538974490   2.7363406E-07   5.3356294E-05
      4     -74.85539007762  -3.3271395E-07   5.2269798E-06
------------------------------------------------------------

 total:                                   0.034 sec
 * total energy  :   -74.8553901 Eh     change       -0.8753529E-06 Eh
   gradient norm :     0.0002565 Eh/α   predicted    -0.4244884E-06 ( -51.51%)
   displ. norm   :     0.0170917 α      lambda       -0.5596287E-06
   maximum displ.:     0.0112749 α      in ANC's #1, #3, #2, ...

........................................................................
.............................. CYCLE    9 ..............................
........................................................................
------------------------------------------------------------
  cycle        total energy    energy error   density error
------------------------------------------------------------
      1     -74.85539070851  -7.6086792E+01   7.1539795E-05
      2     -74.85539071200  -3.4824268E-09   4.3027864E-05
      3     -74.85539064351   6.8484241E-08   3.2116040E-05
      4     -74.85539073594  -9.2427840E-08   3.7871449E-06
------------------------------------------------------------

 total:                                   0.035 sec
 * total energy  :   -74.8553907 Eh     change       -0.6583251E-06 Eh
   gradient norm :     0.0002722 Eh/α   predicted    -0.2817478E-06 ( -57.20%)
   displ. norm   :     0.0185617 α      lambda       -0.4908857E-06
   maximum displ.:     0.0121325 α      in ANC's #1, #3, #8, ...

........................................................................
.............................. CYCLE   10 ..............................
........................................................................
------------------------------------------------------------
  cycle        total energy    energy error   density error
------------------------------------------------------------
      1     -74.85539132207  -7.6086770E+01   8.1227121E-05
      2     -74.85539132475  -2.6812046E-09   4.8359640E-05
      3     -74.85539123287   9.1883052E-08   2.9520456E-05
      4     -74.85539133717  -1.0429414E-07   2.8685064E-06
------------------------------------------------------------

 total:                                   0.034 sec
 * total energy  :   -74.8553913 Eh     change       -0.6012247E-06 Eh
   gradient norm :     0.0002122 Eh/α   predicted    -0.2478509E-06 ( -58.78%)
   displ. norm   :     0.0187308 α      lambda       -0.4274535E-06
   maximum displ.:     0.0126019 α      in ANC's #1, #3, #8, ...

........................................................................
.............................. CYCLE   11 ..............................
........................................................................
------------------------------------------------------------
  cycle        total energy    energy error   density error
------------------------------------------------------------
      1     -74.85539184072  -7.6086763E+01   9.0637990E-05
      2     -74.85539184395  -3.2271572E-09   5.3409999E-05
      3     -74.85539177424   6.9705749E-08   2.6433517E-05
      4     -74.85539185209  -7.7844419E-08   2.8090243E-06
------------------------------------------------------------

 total:                                   0.034 sec
 * total energy  :   -74.8553919 Eh     change       -0.5149219E-06 Eh
   gradient norm :     0.0001398 Eh/α   predicted    -0.2147365E-06 ( -58.30%)
   displ. norm   :     0.0169584 α      lambda       -0.3437142E-06
   maximum displ.:     0.0116284 α      in ANC's #1, #3, #8, ...

........................................................................
.............................. CYCLE   12 ..............................
........................................................................
------------------------------------------------------------
  cycle        total energy    energy error   density error
------------------------------------------------------------
      1     -74.85539224107  -7.6086759E+01   8.8193156E-05
      2     -74.85539224408  -3.0089495E-09   5.2179329E-05
      3     -74.85539215816   8.5927198E-08   2.8032085E-05
      4     -74.85539225387  -9.5710746E-08   2.6666361E-06
------------------------------------------------------------

 total:                                   0.034 sec
 * total energy  :   -74.8553923 Eh     change       -0.4017790E-06 Eh
   gradient norm :     0.0001453 Eh/α   predicted    -0.1728738E-06 ( -56.97%)
   displ. norm   :     0.0143800 α      lambda       -0.2648555E-06
   maximum displ.:     0.0103859 α      in ANC's #1, #3, #8, ...

........................................................................
.............................. CYCLE   13 ..............................
........................................................................
------------------------------------------------------------
  cycle        total energy    energy error   density error
------------------------------------------------------------
      1     -74.85539256556  -7.6086760E+01   7.7422975E-05
      2     -74.85539256882  -3.2608511E-09   4.5613867E-05
      3     -74.85539251535   5.3467701E-08   2.3766347E-05
      4     -74.85539257522  -5.9865229E-08   2.6632427E-06
------------------------------------------------------------

 total:                                   0.034 sec
 * total energy  :   -74.8553926 Eh     change       -0.3213517E-06 Eh
   gradient norm :     0.0001371 Eh/α   predicted    -0.1345699E-06 ( -58.12%)
   displ. norm   :     0.0107531 α      lambda       -0.1890849E-06
   maximum displ.:     0.0081413 α      in ANC's #1, #3, #4, ...

........................................................................
.............................. CYCLE   14 ..............................
........................................................................
------------------------------------------------------------
  cycle        total energy    energy error   density error
------------------------------------------------------------
      1     -74.85539280859  -7.6086764E+01   5.9445872E-05
      2     -74.85539280965  -1.0622330E-09   3.5420926E-05
      3     -74.85539275042   5.9229876E-08   2.5776692E-05
      4     -74.85539282127  -7.0847975E-08   2.0626319E-06
------------------------------------------------------------

 total:                                   0.034 sec
 * total energy  :   -74.8553928 Eh     change       -0.2460544E-06 Eh
   gradient norm :     0.0000935 Eh/α   predicted    -0.9705780E-07 ( -60.55%)
   displ. norm   :     0.0092356 α      lambda       -0.1509486E-06
   maximum displ.:     0.0072262 α      in ANC's #1, #4, #7, ...

........................................................................
.............................. CYCLE   15 ..............................
........................................................................
------------------------------------------------------------
  cycle        total energy    energy error   density error
------------------------------------------------------------
      1     -74.85539302229  -7.6086766E+01   5.3794025E-05
      2     -74.85539302426  -1.9698945E-09   3.1486023E-05
      3     -74.85539300222   2.2046606E-08   1.5672377E-05
------------------------------------------------------------

 total:                                   0.027 sec
 * total energy  :   -74.8553930 Eh     change       -0.1809441E-06 Eh
   gradient norm :     0.0000592 Eh/α   predicted    -0.7983362E-07 ( -55.88%)
   displ. norm   :     0.0083435 α      lambda       -0.1254168E-06
   maximum displ.:     0.0065085 α      in ANC's #1, #4, #7, ...

........................................................................
.............................. CYCLE   16 ..............................
........................................................................
------------------------------------------------------------
  cycle        total energy    energy error   density error
------------------------------------------------------------
      1     -74.85539279605  -7.6086768E+01   7.6175258E-05
      2     -74.85539274937   4.6678593E-08   6.7901762E-05
      3     -74.85539318916  -4.3979212E-07   2.3640817E-05
      4     -74.85539319151  -2.3429010E-09   6.6231164E-06
------------------------------------------------------------

 total:                                   0.034 sec
 * total energy  :   -74.8553932 Eh     change       -0.1892909E-06 Eh
   gradient norm :     0.0000775 Eh/α   predicted    -0.6645242E-07 ( -64.89%)
   displ. norm   :     0.0071968 α      lambda       -0.1062315E-06
   maximum displ.:     0.0053791 α      in ANC's #1, #4, #6, ...

........................................................................
.............................. CYCLE   17 ..............................
........................................................................
------------------------------------------------------------
  cycle        total energy    energy error   density error
------------------------------------------------------------
      1     -74.85539326205  -7.6086772E+01   5.0930447E-05
      2     -74.85539327707  -1.5018585E-08   3.3532108E-05
      3     -74.85539331306  -3.5990155E-08   2.1809736E-05
      4     -74.85539333346  -2.0399312E-08   6.9834284E-06
------------------------------------------------------------

 total:                                   0.034 sec
 * total energy  :   -74.8553933 Eh     change       -0.1419494E-06 Eh
   gradient norm :     0.0000759 Eh/α   predicted    -0.5399763E-07 ( -61.96%)
   displ. norm   :     0.0078194 α      lambda       -0.1064212E-06
   maximum displ.:     0.0057473 α      in ANC's #1, #4, #6, ...

........................................................................
.............................. CYCLE   18 ..............................
........................................................................
------------------------------------------------------------
  cycle        total energy    energy error   density error
------------------------------------------------------------
      1     -74.85539339431  -7.6086772E+01   5.8043203E-05
      2     -74.85539339586  -1.5438673E-09   4.0335332E-05
      3     -74.85539346045  -6.4596662E-08   2.4722225E-05
      4     -74.85539348070  -2.0244173E-08   5.4300297E-06
------------------------------------------------------------

 total:                                   0.034 sec
 * total energy  :   -74.8553935 Eh     change       -0.1472409E-06 Eh
   gradient norm :     0.0000635 Eh/α   predicted    -0.5482625E-07 ( -62.76%)
   displ. norm   :     0.0086463 α      lambda       -0.1144808E-06
   maximum displ.:     0.0062583 α      in ANC's #1, #4, #3, ...

........................................................................
.............................. CYCLE   19 ..............................
........................................................................
------------------------------------------------------------
  cycle        total energy    energy error   density error
------------------------------------------------------------
      1     -74.85539356695  -7.6086769E+01   6.1423850E-05
      2     -74.85539357138  -4.4309445E-09   3.9033300E-05
      3     -74.85539357694  -5.5624696E-09   2.9079871E-05
      4     -74.85539363355  -5.6608087E-08   5.4675856E-06
------------------------------------------------------------

 total:                                   0.038 sec
 * total energy  :   -74.8553936 Eh     change       -0.1528514E-06 Eh
   gradient norm :     0.0000441 Eh/α   predicted    -0.5820933E-07 ( -61.92%)
   displ. norm   :     0.0098705 α      lambda       -0.1203656E-06
   maximum displ.:     0.0071400 α      in ANC's #1, #4, #3, ...

........................................................................
.............................. CYCLE   20 ..............................
........................................................................
------------------------------------------------------------
  cycle        total energy    energy error   density error
------------------------------------------------------------
      1     -74.85539374031  -7.6086767E+01   7.0475365E-05
      2     -74.85539375133  -1.1021513E-08   4.3115163E-05
      3     -74.85539373393   1.7397923E-08   3.1758141E-05
      4     -74.85539379010  -5.6172482E-08   5.6631254E-06
------------------------------------------------------------

 total:                                   0.034 sec
 * total energy  :   -74.8553938 Eh     change       -0.1565535E-06 Eh
   gradient norm :     0.0000384 Eh/α   predicted    -0.6152211E-07 ( -60.70%)
   displ. norm   :     0.0099577 α      lambda       -0.1083137E-06
   maximum displ.:     0.0072755 α      in ANC's #1, #3, #4, ...
 * RMSD in coord.:     0.0470360 α      energy gain  -0.4867181E-04 Eh

generating ANC from exact Hessian ...
Using Lindh-Hessian (1995)
 Shifting diagonal of input Hessian by   9.597706340270847E-003
 Lowest  eigenvalues of input Hessian
    0.000000    0.000000    0.000000    0.000000    0.000000    0.000000
    0.010000    0.010475    0.010784    0.011376    0.011735    0.012078
    0.012634    0.013590    0.015149    0.016288    0.017103    0.020331
 Highest eigenvalues
    2.063299    2.096284    2.146618    2.155700    2.175860    2.203025
 

........................................................................
.............................. CYCLE   21 ..............................
........................................................................
------------------------------------------------------------
  cycle        total energy    energy error   density error
------------------------------------------------------------
      1     -74.85539385078  -7.6086760E+01   7.1182496E-05
      2     -74.85539385017   6.0690297E-10   4.5646621E-05
      3     -74.85539385477  -4.5960320E-09   3.4339233E-05
      4     -74.85539393527  -8.0506823E-08   5.0276509E-06
------------------------------------------------------------

 total:                                   0.034 sec
 * total energy  :   -74.8553939 Eh     change       -0.1451711E-06 Eh
   gradient norm :     0.0000457 Eh/α   predicted     0.0000000E+00 (-100.00%)
   displ. norm   :     0.0000685 α      lambda        0.0000000E+00
   maximum displ.:     0.0000289 α      in ANC's #121, #1, #123, ...

........................................................................
.............................. CYCLE   22 ..............................
........................................................................
------------------------------------------------------------
  cycle        total energy    energy error   density error
------------------------------------------------------------
      1     -74.85539391576  -7.6086762E+01   1.4961298E-05
      2     -74.85539392613  -1.0372673E-08   1.1200474E-05
------------------------------------------------------------

 total:                                   0.020 sec
 * total energy  :   -74.8553939 Eh     change        0.9139384E-08 Eh
   gradient norm :     0.0000277 Eh/α   predicted    -0.7795069E-09 (-108.53%)
   displ. norm   :     0.0000685 α      lambda        0.0000000E+00
   maximum displ.:     0.0000289 α      in ANC's #121, #1, #123, ...

........................................................................
.............................. CYCLE   23 ..............................
........................................................................
------------------------------------------------------------
  cycle        total energy    energy error   density error
------------------------------------------------------------
      1     -74.85539378261  -7.6086764E+01   3.7760160E-05
      2     -74.85539382623  -4.3620318E-08   3.1861252E-05
      3     -74.85539393717  -1.1094045E-07   3.1660840E-06
------------------------------------------------------------

 total:                                   0.027 sec
 * total energy  :   -74.8553939 Eh     change       -0.1103352E-07 Eh
   gradient norm :     0.0000652 Eh/α   predicted     0.2134882E-09 (-101.93%)
   displ. norm   :     0.0000685 α      lambda        0.0000000E+00
   maximum displ.:     0.0000289 α      in ANC's #121, #1, #123, ...

   *** GEOMETRY OPTIMIZATION CONVERGED AFTER 23 ITERATIONS ***

------------------------------------------------------------------------
 total energy gain   :        -0.0000488 Eh       -0.0306 kcal/mol
 total RMSD          :         0.0470418 a0        0.0249 Å
 total power (kW/mol):        -0.0055728 (step)   -0.1503 (real)
------------------------------------------------------------------------

 ANCopt (total)                0 d,  0 h,  0 min,  0.853 sec
 optimizer setup                ...        0 min,  0.000 sec (  0.025%)
 model hessian                  ...        0 min,  0.044 sec (  5.159%)
 ANC generation                 ...        0 min,  0.006 sec (  0.721%)
 coordinate transformation      ...        0 min,  0.003 sec (  0.300%)
 single point calculation       ...        0 min,  0.791 sec ( 92.767%)
 optimization log               ...        0 min,  0.003 sec (  0.352%)
 hessian update                 ...        0 min,  0.002 sec (  0.248%)
 rational function              ...        0 min,  0.002 sec (  0.191%)

================
 final structure:
================
45
 xtb: 6.7.1 (edcfbbe)
C           -3.62193533328257        1.32701586396157       -1.15582233476300
C           -4.40873228731207        0.41188598851189       -0.43246235084109
C           -3.86596906582391       -0.79235395971944        0.00232689790612
C           -2.55904234374865       -1.13572906872560       -0.26317653337755
C           -1.93449852768400       -2.37779909909752        0.09066730385017
C           -2.62995287546105       -3.54160640046657        0.42259864966668
C           -1.93463525603312       -4.71492392858126        0.65087679054387
C           -0.54908596561600       -4.69955786547512        0.50862001383519
N            0.14208232440288       -3.61539688827187        0.23622996704089
C           -0.50880463226942       -2.45988499097799        0.05771441674396
C            0.28255460630961       -1.27123394892837       -0.09295493024249
C            1.65821963981983       -1.28733976453347       -0.02732332843415
C            2.39442883298571       -0.10074509425951       -0.08733519164135
C            3.83123828960870       -0.08848856364074       -0.08280436291068
C            4.74102753028330       -1.13901087338920       -0.11195949415725
N            5.94767644822336       -0.52875380972850       -0.09792057151959
N            5.79871620746183        0.79389111588522       -0.06297693721598
N            4.55709772354286        1.06433770014590       -0.05494465397965
C            1.66949005074309        1.11138921564017       -0.05357938425158
C            0.30217992563226        1.11848818578457       -0.08725500262206
C           -0.43251671532775        2.33882030162787        0.22048825918193
C           -1.59816307415326        2.29003041516603        0.99787431348332
C           -2.23629563898461        3.47425485901074        1.30933413889966
C           -1.70428859565767        4.66849152843631        0.84264062354732
C           -0.53188067566770        4.61319443145866        0.10173451141051
N            0.08878478259884        3.49156565877571       -0.20132438612174
N           -0.39669072022198       -0.06359900075099       -0.25422312475674
C           -1.65797441769654       -0.18774349849587       -1.01028780754826
C           -2.31039588843336        1.08922072531157       -1.40330449690558
H           -4.07030727493944        2.24859627018902       -1.49660743624718
H           -5.43801930394326        0.64790710377072       -0.21434950580278
H           -4.48692168695266       -1.46944549498132        0.57036014354635
H           -3.70913704033538       -3.53335380137692        0.46547827358228
H           -2.45077886233239       -5.62762916515490        0.90331622643113
H            0.03251076272302       -5.60508805585377        0.62600327235220
H            2.13404478521811       -2.24712015696626        0.08851373855449
H            4.62630935266170       -2.20071647771955       -0.14221988356838
H            6.86317176765375       -0.95078430658140       -0.11020648394353
H            2.19743341434775        2.04362920910781        0.05941081987912
H           -1.96300301625896        1.34606984853333        1.37262215208094
H           -3.13376805348122        3.46871145867882        1.91136627228975
H           -2.17715810589947        5.61365057602431        1.05826543349640
H           -0.06419764813642        5.51518341537326       -0.27191021903882
H           -1.35854346218624       -0.69239584444439       -1.95619915202849
H           -1.71062762957785        1.78742257802723       -1.96694525170394
 
 Bond Distances (Angstroems)
 ---------------------------
C1-C2=1.4070         C1-C29=1.3557        C1-H30=1.0800        C2-C1=1.4070         C2-C3=1.3906         C2-H31=1.0783        
C3-C2=1.3906         C3-C4=1.3771         C3-H32=1.0801        C4-C3=1.3771         C4-C5=1.4346         C4-C28=1.5062        
C5-C4=1.4346         C5-C6=1.3958         C5-C10=1.4284        C6-C5=1.3958         C6-C7=1.3828         C6-H33=1.0801        
C7-C6=1.3828         C7-C8=1.3929         C7-H34=1.0785        C8-C7=1.3929         C8-N9=1.3143         C8-H35=1.0826        
N9-C8=1.3143         N9-C10=1.3382        C10-C5=1.4284        C10-N9=1.3382        C10-C11=1.4359       C11-C10=1.4359       
C11-C12=1.3773       C11-N27=1.3949       C12-C11=1.3773       C12-C13=1.3977       C12-H36=1.0775       C13-C12=1.3977       
C13-C14=1.4369       C13-C19=1.4128       C14-C13=1.4369       C14-C15=1.3900       C14-N18=1.3626       C15-C14=1.3900       
C15-N16=1.3523       C15-H37=1.0683       N16-C15=1.3523       N16-N17=1.3315       N16-H38=1.0082       N17-N16=1.3315       
N17-N18=1.2708       N18-C14=1.3626       N18-N17=1.2708       C19-C13=1.4128       C19-C20=1.3677       C19-H39=1.0773       
C20-C19=1.3677       C20-C21=1.4573       C20-N27=1.3833       C21-C20=1.4573       C21-C22=1.4019       C21-N26=1.3336       
C22-C21=1.4019       C22-C23=1.3808       C22-H40=1.0792       C23-C22=1.3808       C23-C24=1.3882       C23-H41=1.0807       
C24-C23=1.3882       C24-C25=1.3880       C24-H42=1.0786       C25-C24=1.3880       C25-N26=1.3172       C25-H43=1.0826       
N26-C21=1.3336       N26-C25=1.3172       N27-C11=1.3949       N27-C20=1.3833       N27-C28=1.4758       C28-C4=1.5062        
C28-N27=1.4758       C28-C29=1.4869       C28-H44=1.1131       C29-C1=1.3557        C29-C28=1.4869       C29-H45=1.0793       
H30-C1=1.0800        H31-C2=1.0783        H32-C3=1.0801        H33-C6=1.0801        H34-C7=1.0785        H35-C8=1.0826        
H36-C12=1.0775       H37-C15=1.0683       H38-N16=1.0082       H39-C19=1.0773       H40-C22=1.0792       H41-C23=1.0807       
H42-C24=1.0786       H43-C25=1.0826       H44-C28=1.1131       H45-C29=1.0793       
 C  H  Rav=1.0811 sigma=0.0091  Rmin=1.0683  Rmax=1.1131    15
 C  C  Rav=1.4084 sigma=0.0365  Rmin=1.3557  Rmax=1.5062    23
 N  H  Rav=1.0082 sigma=0.0000  Rmin=1.0082  Rmax=1.0082     1
 N  C  Rav=1.3636 sigma=0.0474  Rmin=1.3143  Rmax=1.4758     9
 N  N  Rav=1.3011 sigma=0.0304  Rmin=1.2708  Rmax=1.3315     2
 
 selected bond angles (degree)
 --------------------
C29-C1-C2=121.38               H30-C1-C2=119.02               H30-C1-C29=119.58              C3-C2-C1=120.38                
H31-C2-C1=119.70               H31-C2-C3=119.93               C4-C3-C2=121.74                H32-C3-C2=118.87               
H32-C3-C4=119.38               C5-C4-C3=125.56                C28-C4-C3=120.43               C28-C4-C5=114.01               
C6-C5-C4=124.31                C10-C5-C4=118.59               C10-C5-C6=117.06               C7-C6-C5=119.75                
H33-C6-C5=120.06               H33-C6-C7=120.15               C8-C7-C6=118.29                H34-C7-C6=121.07               
H34-C7-C8=120.62               N9-C8-C7=123.60                H35-C8-C7=120.94               H35-C8-N9=115.46               
C10-N9-C8=118.96               N9-C10-C5=122.14               C11-C10-C5=120.33              C11-C10-N9=117.43              
 
 selected dihedral angles (degree)
 ---------------------------------
C3-C2-C1-C29=357.40           C3-C2-C1-H30=179.02           H31-C2-C1-C29=177.35          H31-C2-C1-H30=358.97          
C4-C3-C2-C1=359.50            C4-C3-C2-H31=179.55           H32-C3-C2-C1=178.96           H32-C3-C2-H31=359.01          
C5-C4-C3-C2=183.04            C5-C4-C3-H32=  3.59           C28-C4-C3-C2=  1.66           C28-C4-C3-H32=182.21          
C6-C5-C4-C3= 18.15            C6-C5-C4-C28=199.46           C10-C5-C4-C3=195.70           C10-C5-C4-C28= 17.00          
C7-C6-C5-C4=175.13            C7-C6-C5-C10=357.55           H33-C6-C5-C4=357.35           H33-C6-C5-C10=179.77          
C8-C7-C6-C5=358.50            C8-C7-C6-H33=176.28           H34-C7-C6-C5=180.34           H34-C7-C6-H33=358.12          
N9-C8-C7-C6=  3.62            N9-C8-C7-H34=181.80           H35-C8-C7-C6=183.23           H35-C8-C7-H34=  1.41          
C10-N9-C8-C7=358.67           C10-N9-C8-H35=179.04          N9-C10-C5-C4=187.16           N9-C10-C5-C6=  4.88           
C11-C10-C5-C4= 10.87          C11-C10-C5-C6=188.59          C5-C10-N9-C8=356.96           C11-C10-N9-C8=173.36          
           -------------------------------------------------
          |                Final Singlepoint                |
           -------------------------------------------------
repulsion energy          1.2311589623749E+00 Eh
dispersion energy         2.1147084465053E-04 Eh
interaction energy        0.0000000000000E+00 Eh
number of electrons       1.3800000000000E+02 e
integral cutoff           1.7347787504999E+01 bohr

------------------------------------------------------------
  cycle        total energy    energy error   density error
------------------------------------------------------------
      1     -74.85539391786  -7.6086764E+01   1.2106935E-05
      2     -74.85539391637   1.4921113E-09   1.2585602E-05
------------------------------------------------------------

electronic energy        -7.6086764349592E+01 Eh
total energy             -7.4855393916373E+01 Eh

 total:                                   0.020 sec
 - repulsion                              0.000 sec (  0%)
 - dispersion                             0.001 sec (  6%)
 - coulomb                                0.001 sec (  7%)
 - hamiltonian                            0.004 sec ( 17%)
 - scc                                    0.014 sec ( 68%)

           ------------------------------------------------- 
          |                Numerical Hessian                |
           ------------------------------------------------- 
step length          :   0.00500
SCC accuracy         :   0.30000
Hessian scale factor :   1.00000
frozen atoms in %    :   0.00000    0
RMS gradient         :   0.00006
estimated CPU  time      2.29 min
estimated wall time      0.06 min

writing file <hessian>.

 projected vibrational frequencies (cm⁻¹)
eigval :       -0.00    -0.00    -0.00     0.00     0.00     0.00
eigval :       26.02    43.21    46.81    53.47    64.67    68.67
eigval :       91.01   103.03   118.58   139.58   175.61   204.43
eigval :      223.10   227.68   253.92   261.37   267.64   282.56
eigval :      306.54   352.88   375.47   397.98   402.78   405.84
eigval :      426.53   441.11   469.95   493.44   509.46   533.96
eigval :      559.21   577.19   592.18   597.94   607.13   609.39
eigval :      612.63   622.19   648.19   666.36   702.61   707.02
eigval :      711.62   722.43   735.35   737.28   761.26   772.99
eigval :      777.51   803.98   825.85   846.22   853.31   878.17
eigval :      881.88   890.95   897.28   899.16   910.07   913.95
eigval :      929.77   931.36   933.17   969.25   974.63   995.33
eigval :     1032.36  1042.79  1052.93  1068.15  1089.13  1091.99
eigval :     1099.51  1108.44  1120.30  1123.13  1133.46  1143.40
eigval :     1165.66  1166.13  1177.27  1202.06  1213.60  1220.02
eigval :     1233.45  1250.69  1255.30  1265.31  1289.28  1290.46
eigval :     1294.36  1302.38  1322.83  1333.41  1343.75  1351.27
eigval :     1363.14  1374.00  1376.76  1392.19  1405.05  1415.73
eigval :     1430.16  1437.64  1452.96  1487.21  1501.76  1520.77
eigval :     1533.15  1543.65  1555.20  1565.75  1580.61  2693.58
eigval :     3050.38  3053.68  3069.44  3073.83  3078.92  3081.48
eigval :     3090.93  3092.08  3097.25  3097.64  3104.45  3121.00
eigval :     3127.21  3199.23  3445.31
           -------------------------------------------------
          |                Property Printout                |
           -------------------------------------------------
           -------------------------------------------------
          |                Geometry Summary                 |
           -------------------------------------------------

      molecular mass/u    :      376.4141970
   center of mass at/Å    :       -0.0006367       0.0002275      -0.0011358
  moments of inertia/u·Å² :        0.2450963E+04   0.3218509E+04   0.5411485E+04
rotational constants/cm⁻¹ :        0.6877963E-02   0.5237714E-02   0.3115158E-02

 * 47 selected distances

     #   Z          #   Z                                           value/Å
     1   6 C        2   6 C                                       1.4070402
     2   6 C        3   6 C                                       1.3906214
     3   6 C        4   6 C                                       1.3771189
     5   6 C        6   6 C                                       1.3958091
     6   6 C        7   6 C                                       1.3828420
     7   6 C        8   6 C                                       1.3929179
     8   6 C        9   7 N                                       1.3142737
     5   6 C       10   6 C                                       1.4284353
     9   7 N       10   6 C                                       1.3381815
    10   6 C       11   6 C                                       1.4359117
    11   6 C       12   6 C                                       1.3773241
    12   6 C       13   6 C                                       1.3977170
    13   6 C       14   6 C                                       1.4368690
    14   6 C       15   6 C                                       1.3900230
    15   6 C       16   7 N                                       1.3522621
    16   7 N       17   7 N                                       1.3314654
    14   6 C       18   7 N                                       1.3625919
    17   7 N       18   7 N                                       1.2707567
    13   6 C       19   6 C                                       1.4127794
    19   6 C       20   6 C                                       1.3677433
    21   6 C       22   6 C                                       1.4019420
    22   6 C       23   6 C                                       1.3807999
    23   6 C       24   6 C                                       1.3881772
    24   6 C       25   6 C                                       1.3879987
    21   6 C       26   7 N                                       1.3336054
    25   6 C       26   7 N                                       1.3172402
    11   6 C       27   7 N                                       1.3949065
    20   6 C       27   7 N                                       1.3833398
    27   7 N       28   6 C                                       1.4757651
     1   6 C       29   6 C                                       1.3557028
    28   6 C       29   6 C                                       1.4868604 (max)
     1   6 C       30   1 H                                       1.0800382
     2   6 C       31   1 H                                       1.0782909
     3   6 C       32   1 H                                       1.0801375
     6   6 C       33   1 H                                       1.0800673
     7   6 C       34   1 H                                       1.0784994
     8   6 C       35   1 H                                       1.0825981
    12   6 C       36   1 H                                       1.0775001
    15   6 C       37   1 H                                       1.0683141
    16   7 N       38   1 H                                       1.0081630 (min)
    19   6 C       39   1 H                                       1.0772941
    22   6 C       40   1 H                                       1.0791691
    23   6 C       41   1 H                                       1.0807083
    24   6 C       42   1 H                                       1.0786220
    25   6 C       43   1 H                                       1.0825535
    28   6 C       44   1 H                                       1.1131403
    29   6 C       45   1 H                                       1.0793048

 * 5 distinct bonds (by element types)

   Z      Z             #   av. dist./Å        max./Å        min./Å
   1 H    6 C          15     1.0810825     1.1131403     1.0683141
   6 C    6 C          20     1.3997317     1.4868604     1.3557028
   1 H    7 N           1     1.0081630     1.0081630     1.0081630
   6 C    7 N           9     1.3635740     1.4757651     1.3142737
   7 N    7 N           2     1.3011111     1.3314654     1.2707567

           -------------------------------------------------
          |               Frequency Printout                |
           -------------------------------------------------
 projected vibrational frequencies (cm⁻¹)
eigval :       -0.00    -0.00    -0.00     0.00     0.00     0.00
eigval :       26.02    43.21    46.81    53.47    64.67    68.67
eigval :       91.01   103.03   118.58   139.58   175.61   204.43
eigval :      223.10   227.68   253.92   261.37   267.64   282.56
eigval :      306.54   352.88   375.47   397.98   402.78   405.84
eigval :      426.53   441.11   469.95   493.44   509.46   533.96
eigval :      559.21   577.19   592.18   597.94   607.13   609.39
eigval :      612.63   622.19   648.19   666.36   702.61   707.02
eigval :      711.62   722.43   735.35   737.28   761.26   772.99
eigval :      777.51   803.98   825.85   846.22   853.31   878.17
eigval :      881.88   890.95   897.28   899.16   910.07   913.95
eigval :      929.77   931.36   933.17   969.25   974.63   995.33
eigval :     1032.36  1042.79  1052.93  1068.15  1089.13  1091.99
eigval :     1099.51  1108.44  1120.30  1123.13  1133.46  1143.40
eigval :     1165.66  1166.13  1177.27  1202.06  1213.60  1220.02
eigval :     1233.45  1250.69  1255.30  1265.31  1289.28  1290.46
eigval :     1294.36  1302.38  1322.83  1333.41  1343.75  1351.27
eigval :     1363.14  1374.00  1376.76  1392.19  1405.05  1415.73
eigval :     1430.16  1437.64  1452.96  1487.21  1501.76  1520.77
eigval :     1533.15  1543.65  1555.20  1565.75  1580.61  2693.58
eigval :     3050.38  3053.68  3069.44  3073.83  3078.92  3081.48
eigval :     3090.93  3092.08  3097.25  3097.64  3104.45  3121.00
eigval :     3127.21  3199.23  3445.31
 reduced masses (amu)
   1: 12.03   2: 11.88   3: 12.19   4: 11.76   5: 11.89   6: 11.60   7: 11.53   8: 11.47
   9: 11.50  10: 11.14  11: 11.87  12: 11.11  13: 10.55  14: 10.73  15: 10.86  16: 11.37
  17: 10.48  18: 11.51  19: 10.78  20: 11.24  21: 11.86  22: 11.29  23: 11.25  24: 10.88
  25: 11.29  26: 10.91  27: 10.19  28: 10.32  29: 11.23  30: 10.91  31: 11.16  32: 10.44
  33: 10.85  34: 10.55  35: 10.78  36: 10.88  37: 11.05  38: 11.56  39: 11.56  40: 11.49
  41: 11.15  42: 11.40  43: 11.07  44: 11.09  45: 11.38  46:  3.73  47:  8.80  48: 11.46
  49: 11.00  50:  8.13  51: 10.59  52:  4.13  53:  7.23  54:  7.34  55:  3.89  56: 10.33
  57:  5.84  58:  4.14  59: 10.59  60:  3.76  61:  3.79  62:  3.61  63:  3.94  64:  3.83
  65:  3.29  66:  3.90  67: 10.98  68: 10.47  69:  3.49  70: 11.27  71: 11.15  72: 10.73
  73:  9.67  74:  7.59  75:  7.29  76:  7.26  77:  7.59  78:  7.26  79:  7.54  80:  7.01
  81:  7.95  82:  4.83  83:  8.36  84:  4.09  85:  2.39  86:  2.22  87:  1.97  88:  4.94
  89:  6.79  90:  6.98  91:  6.08  92:  4.91  93:  5.87  94: 11.26  95: 11.58  96:  7.72
  97:  8.57  98:  9.65  99: 10.62 100:  9.63 101: 10.21 102:  9.87 103:  7.97 104: 11.73
 105: 10.29 106: 11.21 107:  9.71 108: 11.38 109: 11.16 110: 10.25 111: 11.60 112: 10.70
 113: 11.29 114: 11.72 115: 11.59 116: 11.56 117: 11.39 118: 11.58 119: 11.79 120:  1.70
 121:  1.79 122:  1.79 123:  1.79 124:  1.80 125:  1.76 126:  1.79 127:  1.85 128:  1.86
 129:  1.88 130:  1.88 131:  1.88 132:  1.83 133:  1.83 134:  1.89 135:  1.87
 IR intensities (km·mol⁻¹)
   1:  0.03   2:  0.06   3:  0.08   4:  0.11   5:  0.19   6:  0.13   7:  0.66   8:  0.22
   9: 13.74  10:  0.67  11:  3.67  12:  0.15  13:  1.97  14:  0.64  15:  1.64  16:  0.08
  17:  0.40  18:  1.47  19:  1.85  20:  1.82  21:  1.03  22:  0.11  23:  3.16  24:  0.21
  25:  3.70  26:  0.57  27:  6.56  28:  1.64  29:  4.17  30:  0.29  31:  3.61  32:  3.00
  33:  1.46  34:  1.14  35:  1.93  36:  7.73  37:  2.16  38:  1.44  39:  2.66  40:  1.42
  41:  1.28  42:  1.41  43:  8.61  44:  8.24  45:  4.20  46: 63.55  47:  3.38  48:  1.01
  49:  0.78  50: 16.88  51:  2.20  52: 11.56  53:  9.00  54: 15.40  55: 10.69  56:  2.90
  57:  1.49  58: 12.27  59:  1.69  60:  8.04  61:  4.00  62:  0.12  63:  1.03  64:  0.23
  65:  1.94  66:  0.08  67:  1.59  68:  8.85  69:  0.27  70: 11.73  71: 21.40  72: 18.24
  73:  5.95  74: 41.31  75:  1.13  76:  6.36  77:  1.58  78:  1.97  79: 10.85  80: 17.62
  81: 17.91  82:  1.10  83:  4.59  84:  1.76  85: 11.56  86:  5.63  87:  0.48  88: 27.97
  89: 55.90  90:184.40  91: 77.39  92: 41.64  93:  1.78  94: 16.80  95:  0.89  96:171.09
  97:211.28  98: 85.29  99: 77.74 100:  4.83 101:103.47 102: 32.14 103: 26.31 104: 64.30
 105:  3.38 106:246.16 107: 16.97 108:105.06 109:  3.42 110: 27.69 111: 57.72 112: 30.35
 113: 18.81 114: 83.23 115: 30.43 116:102.11 117: 29.49 118: 58.85 119: 20.45 120: 29.07
 121: 54.85 122: 40.34 123: 18.41 124:  9.71 125: 15.50 126: 18.84 127: 17.38 128: 33.33
 129: 95.71 130: 26.19 131: 55.02 132:  2.36 133:  0.77 134:  6.47 135: 25.37
 Raman intensities (Ä⁴*amu⁻¹)
   1:  0.00   2:  0.00   3:  0.00   4:  0.00   5:  0.00   6:  0.00   7:  0.00   8:  0.00
   9:  0.00  10:  0.00  11:  0.00  12:  0.00  13:  0.00  14:  0.00  15:  0.00  16:  0.00
  17:  0.00  18:  0.00  19:  0.00  20:  0.00  21:  0.00  22:  0.00  23:  0.00  24:  0.00
  25:  0.00  26:  0.00  27:  0.00  28:  0.00  29:  0.00  30:  0.00  31:  0.00  32:  0.00
  33:  0.00  34:  0.00  35:  0.00  36:  0.00  37:  0.00  38:  0.00  39:  0.00  40:  0.00
  41:  0.00  42:  0.00  43:  0.00  44:  0.00  45:  0.00  46:  0.00  47:  0.00  48:  0.00
  49:  0.00  50:  0.00  51:  0.00  52:  0.00  53:  0.00  54:  0.00  55:  0.00  56:  0.00
  57:  0.00  58:  0.00  59:  0.00  60:  0.00  61:  0.00  62:  0.00  63:  0.00  64:  0.00
  65:  0.00  66:  0.00  67:  0.00  68:  0.00  69:  0.00  70:  0.00  71:  0.00  72:  0.00
  73:  0.00  74:  0.00  75:  0.00  76:  0.00  77:  0.00  78:  0.00  79:  0.00  80:  0.00
  81:  0.00  82:  0.00  83:  0.00  84:  0.00  85:  0.00  86:  0.00  87:  0.00  88:  0.00
  89:  0.00  90:  0.00  91:  0.00  92:  0.00  93:  0.00  94:  0.00  95:  0.00  96:  0.00
  97:  0.00  98:  0.00  99:  0.00 100:  0.00 101:  0.00 102:  0.00 103:  0.00 104:  0.00
 105:  0.00 106:  0.00 107:  0.00 108:  0.00 109:  0.00 110:  0.00 111:  0.00 112:  0.00
 113:  0.00 114:  0.00 115:  0.00 116:  0.00 117:  0.00 118:  0.00 119:  0.00 120:  0.00
 121:  0.00 122:  0.00 123:  0.00 124:  0.00 125:  0.00 126:  0.00 127:  0.00 128:  0.00
 129:  0.00 130:  0.00 131:  0.00 132:  0.00 133:  0.00 134:  0.00 135:  0.00
 output can be read by thermo (or use thermo option).
 writing <g98.out> molden fake output.
 recommended (thermochemical) frequency scaling factor: 1.0
           -------------------------------------------------
          |             Thermodynamic Functions             |
           -------------------------------------------------

Molecule has no symmetry elements
It seems to be the C1 point group
c1  symmetry found (for desy threshold:  0.10E+00) used in thermo

          ...................................................
          :                      SETUP                      :
          :.................................................:
          :  # frequencies                         129      :
          :  # imaginary freq.                       0      :
          :  linear?                             false      :
          :  only rotor calc.                    false      :
          :  symmetry                               c1      :
          :  rotational number                       1      :
          :  scaling factor                  1.0000000      :
          :  rotor cutoff                   50.0000000 cm⁻¹ :
          :  imag. cutoff                  -20.0000000 cm⁻¹ :
          :.................................................:

    mode    ω/cm⁻¹     T·S(HO)/kcal·mol⁻¹    T·S(FR)/kcal·mol⁻¹   T·S(vib)
   ------------------------------------------------------------------------
       1     26.02    -1.82230 (  6.83%)    -1.25002 ( 93.17%)    -1.28911
       2     43.21    -1.52246 ( 35.80%)    -1.09978 ( 64.20%)    -1.25109
       3     46.81    -1.47514 ( 43.45%)    -1.07603 ( 56.55%)    -1.24945
       4     53.47    -1.39675 ( 56.67%)    -1.03665 ( 43.33%)    -1.24072
       5     64.67    -1.28487 ( 73.67%)    -0.98033 ( 26.33%)    -1.20468
       6     68.67    -1.24956 ( 78.06%)    -0.96253 ( 21.94%)    -1.18659
       7     91.01    -1.08474 ( 91.65%)    -0.87910 (  8.35%)    -1.06757
       8    103.03    -1.01259 ( 94.74%)    -0.84237 (  5.26%)    -1.00364
       9    118.58    -0.93122 ( 96.94%)    -0.80070 (  3.06%)    -0.92722
      10    139.58    -0.83769 ( 98.38%)    -0.75242 (  1.62%)    -0.83631
      11    175.61    -0.70798 ( 99.35%)    -0.68439 (  0.65%)    -0.70782
      12    204.43    -0.62399 ( 99.64%)    -0.63938 (  0.36%)    -0.62404
      13    223.10    -0.57655 ( 99.75%)    -0.61348 (  0.25%)    -0.57664
      14    227.68    -0.56563 ( 99.77%)    -0.60746 (  0.23%)    -0.56573
      15    253.92    -0.50782 ( 99.85%)    -0.57516 (  0.15%)    -0.50792
      16    261.37    -0.49272 ( 99.87%)    -0.56658 (  0.13%)    -0.49282
      17    267.64    -0.48044 ( 99.88%)    -0.55957 (  0.12%)    -0.48054
      18    282.56    -0.45263 ( 99.90%)    -0.54350 (  0.10%)    -0.45272
   ------------------------------------------------------------------------

   temp. (K)  partition function   enthalpy   heat capacity  entropy
                                   cal/mol     cal/K/mol   cal/K/mol   J/K/mol
 298.15  VIB  0.184E+09            12179.483     81.110     74.110
         ROT  0.158E+08              888.752      2.981     35.919
         INT  0.291E+16            13068.235     84.091    110.028
         TR   0.707E+28             1481.254      4.968     43.649
         TOT                       14549.4892    89.0588   153.6777   642.9876

       T/K    H(0)-H(T)+PV         H(T)/Eh          T*S/Eh         G(T)/Eh
   ------------------------------------------------------------------------
    298.15    0.231861E-01    0.355837E+00    0.730172E-01    0.282820E+00
   ------------------------------------------------------------------------

         :::::::::::::::::::::::::::::::::::::::::::::::::::::
         ::                  THERMODYNAMIC                  ::
         :::::::::::::::::::::::::::::::::::::::::::::::::::::
         :: total free energy         -74.572573788871 Eh   ::
         ::.................................................::
         :: total energy              -74.855393938199 Eh   ::
         :: zero point energy           0.332651307083 Eh   ::
         :: G(RRHO) w/o ZPVE           -0.049831157755 Eh   ::
         :: G(RRHO) contrib.            0.282820149328 Eh   ::
         :::::::::::::::::::::::::::::::::::::::::::::::::::::

optimized geometry written to: xtbopt.xyz


           -------------------------------------------------
          | TOTAL ENERGY              -74.855393938199 Eh   |
          | TOTAL ENTHALPY            -74.499556544202 Eh   |
          | TOTAL FREE ENERGY         -74.572573788871 Eh   |
          | GRADIENT NORM               0.000062704033 Eh/α |
           -------------------------------------------------

------------------------------------------------------------------------
 * finished run on 2025/09/08 at 22:10:26.776     
------------------------------------------------------------------------
 total:
 * wall-time:     0 d,  0 h,  0 min,  2.280 sec
 *  cpu-time:     0 d,  0 h,  1 min, 24.630 sec
 * ratio c/w:    37.115 speedup
 SCF:
 * wall-time:     0 d,  0 h,  0 min,  0.311 sec
 *  cpu-time:     0 d,  0 h,  0 min, 11.183 sec
 * ratio c/w:    35.992 speedup
 ANC optimizer:
 * wall-time:     0 d,  0 h,  0 min,  0.874 sec
 *  cpu-time:     0 d,  0 h,  0 min, 34.877 sec
 * ratio c/w:    39.899 speedup
 analytical hessian:
 * wall-time:     0 d,  0 h,  0 min,  1.068 sec
 *  cpu-time:     0 d,  0 h,  0 min, 38.118 sec
 * ratio c/w:    35.702 speedup

