$hessian                                                                        
        0.3563702558   0.1302455574  -0.2337419915  -0.1742372307  -0.0508969337
        0.1316295044  -0.0120072180  -0.0594932310  -0.0138583214  -0.0264821915
        0.0064951236   0.0287513980  -0.0003864232  -0.0004997991  -0.0001300355
       -0.0000255070  -0.0000449294  -0.0002400243   0.0001426762  -0.0001773310
        0.0000379242  -0.0000255767  -0.0000099188   0.0000183098  -0.0000452302
        0.0000431157  -0.0000342208   0.0000402264   0.0000698265  -0.0000310966
       -0.0001825988  -0.0000188629  -0.0000001703   0.0000975839   0.0000735166
       -0.0000357319  -0.0000907792  -0.0000963207   0.0000369853   0.0000797925
       -0.0001183737   0.0000111151   0.0000325896   0.0000328734   0.0000024749
        0.0000098305   0.0000080168   0.0000012577  -0.0000094979  -0.0000131782
        0.0000008366   0.0000175679  -0.0000248514   0.0000045334   0.0000041531
        0.0000477405  -0.0000042946  -0.0000172996  -0.0000268991   0.0000009973
       -0.0000215513   0.0000202329  -0.0000014751   0.0000292489  -0.0000326402
        0.0000019240   0.0000091666   0.0000216513  -0.0000004031  -0.0000022143
        0.0000090255   0.0000007957   0.0000044364  -0.0000037759   0.0000024126
        0.0000544207  -0.0000145478   0.0000001495   0.0000360403   0.0001781766
       -0.0000239985  -0.0001282839  -0.0000354667   0.0000179638   0.0000098329
        0.0000333822  -0.0000065786   0.0000104199  -0.0000330059   0.0000214392
        0.0000141165   0.0000247241   0.0000039797  -0.0000048081  -0.0000414176
        0.0000075389  -0.0000025773   0.0000416813  -0.0000099898   0.0000106422
       -0.0000213434   0.0000099261   0.0000053693   0.0000054858  -0.0000008945
        0.0000268238  -0.0000013593   0.0000083955  -0.0000423354  -0.0000033267
       -0.0000165539   0.0000105461  -0.0000064078   0.0000010135  -0.0000029637
        0.0000287654  -0.0000069542  -0.0000146895  -0.0000323182  -0.0000099898
        0.0000506710  -0.0000696078   0.0000233195  -0.0000329402  -0.0000352602
        0.0000430539  -0.0000162017   0.0001189514   0.0000286339  -0.0000047200
       -0.0000752141  -0.0000297347   0.0000234466  -0.0000045290   0.0000017187
       -0.0000061194  -0.0000110325   0.0000001307   0.0000026402  -0.0000016751
        0.0000051225  -0.0000097124  -0.0000114991  -0.0000083985  -0.0000107679
        0.0000207294   0.0000041952  -0.0000853694  -0.0000560107  -0.0000382009
       -0.0000038821   0.0000154965   0.0000076105   0.0000073405  -0.0000055522
       -0.0000025526   0.0000013039  -0.0000027551   0.0000026651  -0.0000002110
        0.0000002068   0.0000004544   0.0000001204  -0.0000004579  -0.0000039460
        0.0000103706   0.0000038586   0.0000074071  -0.0002726421   0.0004196715
        0.0000837475   0.0000675463   0.0000792739   0.0000554020   0.0000953523
       -0.0000154165  -0.0000014166  -0.0000601458  -0.0000091152  -0.0000245704
       -0.0000036964   0.0000202251   0.0000679043   0.0000905046   0.0000186383
       -0.0000862581  -0.0001218389   0.0000263135  -0.0000026430   0.0264492428
        0.0356787192  -0.0134301652  -0.1007793598   0.0130502052   0.0741708211
       -0.0609747302  -0.0734780352  -0.0049045463  -0.0083813110  -0.0039116137
        0.0093970505   0.0046430492  -0.0034098470   0.0028673685   0.0001808579
       -0.0000306451  -0.0000284144   0.0000020205  -0.0000174898   0.0000172454
        0.0000032187  -0.0000077503   0.0000025230   0.0000030460  -0.0000013988
        0.0000010494  -0.0000008091  -0.0000021670   0.0000015516  -0.0000014709
       -0.0000008829   0.0000019690  -0.0000017145  -0.0000003992   0.0000016232
       -0.0000035537  -0.0000003929   0.0000015246  -0.0000040485   0.0000003985
       -0.0000001939  -0.0000006933   0.0000017588   0.0000002526   0.0000008724
        0.0000036168  -0.0000016859  -0.0000009455   0.0000020753  -0.0000027001
       -0.0000011452   0.0000001681  -0.0000025378  -0.0000007728   0.0000015681
        0.0000006052   0.0000014720  -0.0000002854  -0.0000007179   0.0000000753
       -0.0000020360  -0.0000000271  -0.0000053989   0.0000021615  -0.0000034859
       -0.0000019061  -0.0000012411  -0.0000039681   0.0000019564   0.0000034535
       -0.0000003880   0.0000017212   0.0000047436  -0.0000029346  -0.0000046094
        0.0000116520  -0.0000099587  -0.0000007033   0.0000011841   0.0000029658
        0.0000002613  -0.0000004977   0.0000015914  -0.0000001287   0.0000022821
        0.0000000002   0.0000009278   0.0000003112  -0.0000025346  -0.0000015075
        0.0000045122  -0.0000041908  -0.0000029667   0.0000002620  -0.0000026186
       -0.0000006747  -0.0000002978   0.0000001848  -0.0000008791  -0.0000002366
       -0.0000008280  -0.0000010506  -0.0000004364  -0.0000014809  -0.0000071978
        0.0000014365  -0.0000013647   0.0000019258  -0.0000168213  -0.0000135882
        0.0000023114   0.0000008906  -0.0000016421   0.0000037699  -0.0000108899
       -0.0000000272   0.0000210843  -0.0000041616   0.0000052649  -0.0000334288
       -0.0000879223  -0.0000039820   0.0045684413  -0.0037328085   0.0025696405
       -0.0086830606   0.0097889605   0.0168289539
        0.1302455574   0.6214539541   0.1002622047  -0.0977403772  -0.1288805890
        0.0804863176  -0.0237650969  -0.0244464163   0.0173004103   0.0061889358
        0.0048299647  -0.0024375661  -0.0004951297  -0.0020165355  -0.0003028668
        0.0005771258   0.0004565781  -0.0002721489   0.0002574264  -0.0004526563
       -0.0000347412  -0.0000257980  -0.0000124025   0.0000329010  -0.0001013896
        0.0000641856  -0.0000642920   0.0000736215   0.0001289083  -0.0000548507
       -0.0003891134  -0.0000321760   0.0000031098   0.0001113082   0.0001754213
       -0.0000858182  -0.0001450558  -0.0001903599   0.0000864875   0.0001288741
       -0.0002145165   0.0000114939   0.0000940495   0.0000910995   0.0000000332
        0.0000062909   0.0000094319  -0.0000005956  -0.0000095145  -0.0000192965
       -0.0000003044   0.0000327224  -0.0000442874   0.0000049875   0.0000166734
        0.0000945556  -0.0000113013  -0.0000398607  -0.0000606391   0.0000000691
       -0.0000251876   0.0000599185  -0.0000036961   0.0000615987  -0.0000597502
        0.0000015480   0.0000365897   0.0000425568  -0.0000018262  -0.0000167480
        0.0000040632   0.0000038755   0.0000137482  -0.0000497771   0.0000048425
        0.0001142890  -0.0000308826  -0.0000024340   0.0001042273   0.0003585289
       -0.0000502466  -0.0002353749  -0.0000865261   0.0000404191   0.0000025896
       -0.0000307494  -0.0000052995   0.0000160800  -0.0000226059   0.0000311534
       -0.0000015580   0.0000004449  -0.0000045901   0.0000014063  -0.0000002924
        0.0000034472   0.0000134377  -0.0000104756   0.0000046480  -0.0000031545
        0.0000029244  -0.0000007134  -0.0000035331  -0.0000058864   0.0000006126
       -0.0000078752   0.0000197929  -0.0000064849   0.0000367227   0.0000110299
        0.0000097453  -0.0000411681  -0.0000110713  -0.0000168600   0.0000008432
        0.0000027780  -0.0000085388  -0.0000163379  -0.0000302289  -0.0000253025
        0.0000986954  -0.0001253338   0.0000400393  -0.0000772998  -0.0000774906
        0.0000877885  -0.0001171577   0.0003545627   0.0000738678  -0.0000390555
       -0.0001732681  -0.0000408056   0.0000581467   0.0000128262   0.0000040797
       -0.0000099730  -0.0000214742  -0.0000082114   0.0000041161  -0.0000098242
        0.0000094807  -0.0000171953  -0.0000340134  -0.0000183595  -0.0000257927
        0.0000593353   0.0000037214  -0.0001132691  -0.0000865931  -0.0000137291
       -0.0000072146  -0.0000001367  -0.0000070951  -0.0000082651  -0.0000043702
       -0.0000078746   0.0000025453  -0.0000002507   0.0000022937   0.0000025386
       -0.0000034111  -0.0000041635   0.0000068402  -0.0000042364  -0.0000007154
        0.0000041697   0.0000014972   0.0000056294  -0.0004736825   0.0007216443
        0.0003568384   0.0001695922  -0.0000270794  -0.0000709772  -0.0000730928
        0.0000575732   0.0000150093   0.0000312046   0.0000140195   0.0000262358
        0.0000174586   0.0000050328  -0.0000240607   0.0000541993   0.0000228523
       -0.0000127599   0.0000476531  -0.0000386813  -0.0000726708   0.0001190578
       -0.0410407241  -0.0228206869   0.0598242653  -0.1607951010  -0.1347797010
       -0.0734370293  -0.2725263213  -0.0317223311   0.0103929111   0.0058395578
       -0.0105316203  -0.0037570099  -0.0045075771  -0.0018998182   0.0000576836
       -0.0000866955   0.0000310942   0.0000029951  -0.0000251831   0.0000156982
        0.0000009465  -0.0000103958   0.0000086544   0.0000097015  -0.0000054106
        0.0000000638  -0.0000022621  -0.0000065048   0.0000012077  -0.0000023030
       -0.0000043324   0.0000012764  -0.0000062829  -0.0000027015   0.0000005405
       -0.0000096058  -0.0000026399   0.0000018499  -0.0000120145   0.0000026228
       -0.0000009856  -0.0000068098   0.0000080394  -0.0000002003   0.0000036283
        0.0000123410  -0.0000032914   0.0000004414   0.0000053353  -0.0000018039
       -0.0000007686   0.0000059886  -0.0000020506   0.0000080727   0.0000017970
        0.0000018234   0.0000057157  -0.0000011417   0.0000016562   0.0000042352
       -0.0000033855   0.0000015268  -0.0000066102  -0.0000083655   0.0000036773
       -0.0000010779   0.0000067672   0.0000080881   0.0000037888  -0.0000001591
        0.0000070994   0.0000066787   0.0000102723  -0.0000086288  -0.0000036294
        0.0000171890  -0.0000244980   0.0000044002  -0.0000017706   0.0000100896
        0.0000032177  -0.0000003254   0.0000061787   0.0000012677   0.0000081766
        0.0000013921   0.0000020442   0.0000027761  -0.0000074644  -0.0000019024
        0.0000047218  -0.0000106455   0.0000037884   0.0000042682   0.0000121097
        0.0000009515   0.0000021587   0.0000039230  -0.0000009338   0.0000013219
        0.0000012382  -0.0000017072  -0.0000022619  -0.0000037744  -0.0000083233
       -0.0000018870  -0.0000074122  -0.0000000225   0.0000152867   0.0000653260
       -0.0000003139  -0.0000001913   0.0000251327  -0.0000064402   0.0000029205
        0.0000126531   0.0000482192   0.0000168316   0.0000290918  -0.0000554452
       -0.0000610153   0.0000525253  -0.0034226451  -0.0045257728  -0.0022268823
       -0.0043678796   0.0059102945   0.0085064882
       -0.2337419915   0.1002622047   0.4630955628   0.1070663114   0.0207684770
       -0.1713294430   0.0042671177   0.0621290726   0.0279591586   0.0290422863
       -0.0024310266  -0.0439650389  -0.0000113963  -0.0002921228  -0.0003701442
        0.0004297058   0.0002870658   0.0002420066  -0.0001393352  -0.0000280335
       -0.0000582664   0.0000482627   0.0000026874  -0.0000027291   0.0000224078
       -0.0000334345   0.0000311227  -0.0000150750  -0.0000353360   0.0000110249
        0.0000946704   0.0000075442  -0.0000018423  -0.0000186959  -0.0000424261
        0.0000271149   0.0000528310   0.0000455890  -0.0000147432  -0.0000509709
        0.0000875639  -0.0000097789  -0.0000254597  -0.0000275513   0.0000030280
       -0.0000057186  -0.0000053508  -0.0000025676   0.0000060837   0.0000081454
        0.0000046398  -0.0000128188   0.0000166552  -0.0000047626  -0.0000060076
       -0.0000355945   0.0000055993   0.0000111878   0.0000272255   0.0000048193
        0.0000083853  -0.0000257102   0.0000029880  -0.0000201556   0.0000220171
       -0.0000004516  -0.0000123717  -0.0000186219   0.0000001336   0.0000071445
       -0.0000039647  -0.0000019258  -0.0000065516   0.0000153570  -0.0000014576
       -0.0000204947   0.0000045201  -0.0000034838  -0.0000596974  -0.0001352131
        0.0000152148   0.0000970985   0.0000652860  -0.0000223235  -0.0000113439
       -0.0000413232   0.0000057501  -0.0000114883   0.0000328158  -0.0000200823
       -0.0000135189  -0.0000245840  -0.0000059524   0.0000044127   0.0000379645
       -0.0000073119   0.0000015225  -0.0000327135   0.0000050630  -0.0000080063
        0.0000135569  -0.0000133362  -0.0000049284  -0.0000054149   0.0000006923
       -0.0000074088   0.0000039621  -0.0000040256   0.0000120212  -0.0000093698
        0.0000115580  -0.0000057692   0.0000223857  -0.0000064666  -0.0000002685
       -0.0000264923   0.0000006937   0.0000170783   0.0000318174   0.0000085292
       -0.0000117236   0.0000367316  -0.0000125072   0.0000033758   0.0000168773
       -0.0000275009  -0.0000548295   0.0000228716  -0.0000091650  -0.0000135446
        0.0000321058   0.0000218541  -0.0000062297   0.0000110629   0.0000028322
        0.0000039029   0.0000033319   0.0000021371  -0.0000009673  -0.0000001829
       -0.0000012352   0.0000045018   0.0000053593   0.0000056591   0.0000028555
       -0.0000007685  -0.0000061327   0.0000569341   0.0000727287   0.0000704973
        0.0000025715  -0.0000138620  -0.0000049518  -0.0000123148   0.0000036774
        0.0000009808   0.0000017854   0.0000046172  -0.0000009432   0.0000032903
       -0.0000032024  -0.0000011618   0.0000009073  -0.0000000129   0.0000077389
       -0.0000093061  -0.0000045518  -0.0000116276   0.0001748825  -0.0001302583
        0.0001126483  -0.0000085116  -0.0002401837  -0.0000929462  -0.0001620149
        0.0000113910   0.0000670863   0.0000697150   0.0000089850   0.0000399768
        0.0000415938  -0.0000303052  -0.0001183331  -0.0001139910  -0.0000398759
        0.0000849267   0.0002260858  -0.0001988150  -0.0000347134  -0.0323335793
       -0.0674638857   0.0062916534   0.0982299430  -0.0747418618  -0.2120410766
       -0.0048767093  -0.0317165248  -0.0445485883   0.0169207149   0.0075435727
       -0.0164340838   0.0024586038  -0.0022904849   0.0035317679  -0.0002223441
        0.0000489278   0.0000395170  -0.0000032026   0.0000158704  -0.0000194696
       -0.0000036713   0.0000051758  -0.0000018764  -0.0000014550   0.0000024326
        0.0000011116  -0.0000002827   0.0000027364   0.0000001161   0.0000022173
        0.0000023858   0.0000001128   0.0000014985   0.0000001545  -0.0000006027
        0.0000039874   0.0000018766   0.0000002992   0.0000033684  -0.0000002068
        0.0000001443   0.0000009618  -0.0000030324  -0.0000008658  -0.0000012892
       -0.0000043033   0.0000015185  -0.0000030571  -0.0000085838   0.0000027995
        0.0000026723  -0.0000002741   0.0000035152   0.0000014092  -0.0000025681
       -0.0000014012   0.0000009991  -0.0000018891  -0.0000015064   0.0000022126
       -0.0000035570  -0.0000004174   0.0000077388  -0.0000014374   0.0000011987
        0.0000004844   0.0000034960   0.0000025380  -0.0000033731  -0.0000054926
        0.0000017620  -0.0000012784  -0.0000026251   0.0000035032   0.0000039475
       -0.0000068051   0.0000079658   0.0000024673  -0.0000020392   0.0000019137
       -0.0000008129   0.0000012232   0.0000010145  -0.0000008993  -0.0000047689
       -0.0000003614   0.0000005528  -0.0000024454   0.0000026529   0.0000006458
       -0.0000048565   0.0000029831   0.0000046233   0.0000011714   0.0000094012
        0.0000014046  -0.0000011344   0.0000017799  -0.0000002548  -0.0000021431
        0.0000030639   0.0000027778  -0.0000030507   0.0000018049   0.0000021991
       -0.0000033995  -0.0000020101   0.0000062875   0.0000280098   0.0000619024
        0.0000030155  -0.0000027702   0.0000203909   0.0000045310   0.0000146046
        0.0000088036   0.0000239451   0.0000139514   0.0000386370  -0.0000028901
        0.0000359205   0.0000754007   0.0028137375  -0.0017934191   0.0036107909
        0.0097701292  -0.0098533014  -0.0163614882
       -0.1742372307  -0.0977403772   0.1070663114   0.3577265210   0.1193138393
       -0.2417855724  -0.0888880778  -0.0542154382   0.0240634960   0.0252649262
       -0.0001008412  -0.0307866543   0.0036637181   0.0012998827   0.0048394906
       -0.0000617995   0.0005838239   0.0004252505  -0.0001578698   0.0005828236
       -0.0002855781   0.0001406901   0.0000740517  -0.0000295916   0.0000504466
       -0.0000295357   0.0000328551  -0.0000515597  -0.0001180440   0.0000480480
        0.0003616375   0.0000395407  -0.0000023810  -0.0002959564  -0.0001314324
        0.0000435581   0.0002241033   0.0002083080  -0.0000877650  -0.0002310977
        0.0002643432  -0.0000288930  -0.0000364526  -0.0000295957  -0.0000021456
       -0.0000327999  -0.0000247733   0.0000001477   0.0000467390   0.0000421502
       -0.0000032966  -0.0000531627   0.0000693848  -0.0000086050   0.0000008305
       -0.0000985021   0.0000119042   0.0000241056   0.0000607833  -0.0000043024
        0.0000894733  -0.0000101747  -0.0000027273  -0.0000699887   0.0000887677
       -0.0000059599   0.0000147830  -0.0000475346   0.0000013307  -0.0000176945
       -0.0000244488  -0.0000011628   0.0000211191  -0.0000462526   0.0000016546
       -0.0001789421   0.0000453540   0.0000025149   0.0000669363  -0.0003359206
        0.0000629579   0.0002054074  -0.0000978073   0.0000043042   0.0000114309
        0.0000559568  -0.0000014285   0.0000100153  -0.0000117731   0.0000003900
        0.0000156273   0.0000246484   0.0000163417  -0.0000067802  -0.0000237082
       -0.0000025816  -0.0000018352   0.0000128101  -0.0000053783   0.0000109792
       -0.0000120674   0.0000082065   0.0000072523   0.0000109837  -0.0000005895
        0.0000020117  -0.0000219606   0.0000057232   0.0000001739   0.0000121301
        0.0000068054   0.0000105375  -0.0000073307   0.0000063223  -0.0000029312
        0.0000161087  -0.0000031484  -0.0000182209   0.0000002433   0.0000081389
       -0.0000930754   0.0001228707  -0.0000332317   0.0000743089   0.0000365107
       -0.0000591100   0.0001237033  -0.0003833039  -0.0000634560   0.0000523563
        0.0001645223   0.0001117514  -0.0000618523   0.0000067962  -0.0000154066
        0.0000094661   0.0000287307  -0.0000042060  -0.0000067830  -0.0000107626
       -0.0000089528   0.0000219927   0.0000268400   0.0000220843   0.0000414065
       -0.0000719802   0.0000067976   0.0002847204   0.0001132417  -0.0002982083
       -0.0000106906  -0.0000487196   0.0000215977   0.0000030231   0.0000000777
        0.0000113151   0.0000030630   0.0000043507  -0.0000075067   0.0000036312
       -0.0000054283   0.0000010348  -0.0000001589   0.0000095165   0.0000034690
       -0.0000052398  -0.0000085314   0.0000007705   0.0004277173  -0.0012047609
       -0.0004992870  -0.0002023348  -0.0001869529   0.0000899971  -0.0000657628
       -0.0000367612   0.0000291826   0.0000176360   0.0000017019   0.0000088837
        0.0000210387  -0.0000157555  -0.0000341276  -0.0001134177  -0.0000208740
        0.0000883620   0.0001074214  -0.0000088324   0.0000097388  -0.0221842146
       -0.0282208699   0.0067342946  -0.0185706231   0.0371901730   0.0441782667
       -0.0065210823  -0.0057497866   0.0061644993  -0.0741770036   0.0495491525
        0.0757624603  -0.0069120483  -0.0202390463  -0.0006865544  -0.0000606549
       -0.0000012189   0.0002379388  -0.0000051240   0.0000069390  -0.0000037716
       -0.0000068550   0.0000038397  -0.0000027620  -0.0000031005   0.0000022478
        0.0000000588  -0.0000004439  -0.0000020925  -0.0000016248  -0.0000034936
       -0.0000001555  -0.0000019941  -0.0000044762   0.0000007097  -0.0000029075
       -0.0000014003  -0.0000000663  -0.0000017250  -0.0000020126   0.0000027734
        0.0000004943  -0.0000025218   0.0000025610  -0.0000011582  -0.0000017219
       -0.0000030329   0.0000031498  -0.0000009964  -0.0000029379  -0.0000007543
       -0.0000029622   0.0000014016  -0.0000023520  -0.0000058761   0.0000006620
       -0.0000032496  -0.0000037812   0.0000042804  -0.0000027469  -0.0000015233
        0.0000079146  -0.0000020060  -0.0000038953   0.0000045889  -0.0000023142
       -0.0000000148  -0.0000080384  -0.0000078753   0.0000001048   0.0000006521
       -0.0000084821  -0.0000064825  -0.0000036728   0.0000019472  -0.0000048120
       -0.0000094904   0.0000097494  -0.0000009445  -0.0000051922  -0.0000021708
       -0.0000019331  -0.0000021375  -0.0000043448  -0.0000047431  -0.0000063619
       -0.0000011242  -0.0000047020  -0.0000040869   0.0000033613  -0.0000082790
       -0.0000048247  -0.0000005439   0.0000025097  -0.0000052151   0.0000007392
        0.0000031409  -0.0000060094  -0.0000041146   0.0000007801  -0.0000053903
       -0.0000018556   0.0000060332  -0.0000067224   0.0000015226  -0.0000004030
       -0.0000113934  -0.0000103990   0.0000042832   0.0000091825   0.0000095854
        0.0000120209  -0.0000003628  -0.0000102922   0.0000148532   0.0000056501
        0.0000005121   0.0000103406   0.0000032597  -0.0000044473   0.0002130113
       -0.0000953971   0.0000439864  -0.0001246906  -0.0003691091  -0.0002841654
        0.0041065027  -0.0002242890   0.0049136868
       -0.0508969337  -0.1288805890   0.0207684770   0.1193138393   0.6073201655
        0.1062467947  -0.1015874680  -0.3055872061  -0.0079850806   0.0348486660
       -0.0416204080  -0.0657030019   0.0006410649   0.0022133296  -0.0031308092
       -0.0006060010  -0.0004390938   0.0006787883  -0.0002550851   0.0007375850
        0.0002750444  -0.0000081181   0.0000183809  -0.0000725062   0.0001040926
       -0.0000656277   0.0000912547  -0.0000868824  -0.0001055992   0.0000539665
        0.0003949613   0.0000381110  -0.0000070674  -0.0002206232  -0.0001523572
        0.0000540912   0.0001661889   0.0002002188  -0.0000870123  -0.0001534361
        0.0001806993  -0.0000118888  -0.0000579028  -0.0000413567  -0.0000018182
       -0.0000033175  -0.0000235051   0.0000041059   0.0000305282   0.0000215707
        0.0000000959  -0.0000349962   0.0000342692  -0.0000042175  -0.0000131439
       -0.0000685599   0.0000063866   0.0000302894   0.0000343458  -0.0000013708
        0.0000507559  -0.0000175010  -0.0000001504  -0.0000582571   0.0000449859
       -0.0000026381  -0.0000113619  -0.0000288579   0.0000009967  -0.0000102620
       -0.0000086087  -0.0000004733   0.0000154079  -0.0000018910  -0.0000022526
       -0.0001428121   0.0000285197   0.0000046536  -0.0000092215  -0.0002922028
        0.0000432070   0.0001951229  -0.0000181271  -0.0000064292  -0.0000021428
        0.0000362290   0.0000032793  -0.0000089983   0.0000024947  -0.0000242000
       -0.0000017087   0.0000028576  -0.0000046545  -0.0000055321  -0.0000012035
       -0.0000066844  -0.0000024052  -0.0000119101   0.0000052500  -0.0000013764
        0.0000033061  -0.0000001168  -0.0000083567  -0.0000071086  -0.0000030799
       -0.0000021825  -0.0000084428   0.0000069837   0.0000173581  -0.0000027278
       -0.0000120924  -0.0000145727   0.0000047841  -0.0000114078   0.0000119216
       -0.0000049083   0.0000095952   0.0000117209   0.0000038491   0.0000240168
       -0.0001200901   0.0001210056  -0.0000311828   0.0001216069   0.0000496976
       -0.0001090414   0.0001115353  -0.0003705320  -0.0000959770   0.0000478696
        0.0001983646   0.0000483546  -0.0000815748   0.0000072716  -0.0000097673
        0.0000077058   0.0000337975  -0.0000054031  -0.0000099332  -0.0000130412
       -0.0000131764   0.0000308870   0.0000325516   0.0000335472   0.0000431624
       -0.0000590990   0.0000131850   0.0001605574   0.0001606306   0.0002330259
        0.0000155036  -0.0000294556   0.0000127972  -0.0000201011   0.0000176800
        0.0000101859  -0.0000001184   0.0000023402  -0.0000027288   0.0000069138
       -0.0000042988   0.0000017099  -0.0000002455   0.0000095368   0.0000101079
       -0.0000138892   0.0000074445   0.0000045480   0.0006063902  -0.0011342237
       -0.0005121192  -0.0002478031  -0.0001819885  -0.0000772953  -0.0001448175
       -0.0000161553   0.0001035191   0.0000670929   0.0000095042   0.0000557319
        0.0000239131  -0.0000404400  -0.0000916696  -0.0002201622  -0.0000108910
        0.0001486051   0.0002746121  -0.0000489824  -0.0001571770  -0.0272763273
       -0.0395408044   0.0168725467   0.0021587325   0.0537999622   0.0244577039
       -0.0201231188  -0.0144782578   0.0173284155   0.0496305471  -0.1182686469
       -0.1052817130  -0.0062464899  -0.0132488554  -0.0004397701  -0.0002561604
       -0.0002043745  -0.0000687637  -0.0000233436  -0.0000125947  -0.0000348198
       -0.0000189990   0.0000035470  -0.0000079812  -0.0000072235   0.0000006453
        0.0000008222  -0.0000006970   0.0000062102   0.0000000778   0.0000046793
        0.0000042650   0.0000003768   0.0000042252  -0.0000022767   0.0000000643
        0.0000086480   0.0000041829  -0.0000005211   0.0000076128  -0.0000022346
        0.0000014244   0.0000008316  -0.0000106868  -0.0000001041  -0.0000084667
       -0.0000086383   0.0000021963  -0.0000010705   0.0000006302   0.0000007086
       -0.0000025388  -0.0000001635   0.0000029955  -0.0000002073   0.0000003450
       -0.0000018031   0.0000006239   0.0000010599  -0.0000017033   0.0000002381
        0.0000005002  -0.0000003857  -0.0000024997   0.0000116486   0.0000101937
       -0.0000034021   0.0000003557   0.0000005436  -0.0000052422   0.0000060586
       -0.0000075803  -0.0000063915   0.0000022807   0.0000105943  -0.0000077143
        0.0000002123   0.0000011036   0.0000057778  -0.0000075717  -0.0000050722
       -0.0000034419  -0.0000074948  -0.0000086568  -0.0000033872  -0.0000083964
       -0.0000004459  -0.0000026750  -0.0000049992   0.0000041617  -0.0000088812
       -0.0000065221  -0.0000051274   0.0000084296  -0.0000001288   0.0000085892
        0.0000053225  -0.0000044334  -0.0000047134   0.0000057837  -0.0000038256
       -0.0000013498   0.0000080680  -0.0000063667   0.0000006556   0.0000061095
       -0.0000193419  -0.0000204893   0.0000066242   0.0000344071   0.0000559070
        0.0000162418   0.0000119452   0.0000019474   0.0000097157   0.0000171077
        0.0000092172   0.0000433465   0.0000226183   0.0000221855  -0.0000811120
       -0.0000035088   0.0000674104  -0.0003581044  -0.0001153669   0.0005926087
        0.0002281024  -0.0002411194  -0.0043292643
        0.1316295044   0.0804863176  -0.1713294430  -0.2417855724   0.1062467947
        0.4757348098   0.0005656061  -0.0664294642  -0.0817981843  -0.0144934749
       -0.0219301229   0.0064736861   0.0049144740  -0.0038279525  -0.0004933791
        0.0003833098   0.0006870286   0.0002199047   0.0001507867  -0.0001938748
       -0.0001303050   0.0000395814   0.0000563678   0.0000383387  -0.0001108254
        0.0000803304  -0.0000468918   0.0000532154   0.0000845825  -0.0000363978
       -0.0002549527  -0.0000189943  -0.0000065481   0.0000038849   0.0001058563
       -0.0000800628  -0.0000504740  -0.0000866048   0.0000439651   0.0000459487
       -0.0001538813   0.0000075291   0.0000770937   0.0000991126   0.0000044240
        0.0000049364  -0.0000221695   0.0000002054   0.0000156387  -0.0000061075
        0.0000012635   0.0000139726  -0.0000313447  -0.0000022930   0.0000103832
        0.0000826432  -0.0000097812  -0.0000351649  -0.0000569730   0.0000027184
        0.0000152832   0.0000720655  -0.0000109319   0.0000282637  -0.0000443884
       -0.0000000489   0.0000486256   0.0000410886  -0.0000028222  -0.0000473713
        0.0000032306   0.0000020858   0.0000450883  -0.0000597923   0.0000070562
        0.0000034400  -0.0000117688  -0.0000008647   0.0001709658   0.0002760712
       -0.0000266493  -0.0001809060  -0.0001876974   0.0000617602   0.0000235255
        0.0000898621  -0.0000249732   0.0000344407  -0.0000898636   0.0000569108
        0.0000372330   0.0000667724   0.0000086838  -0.0000175348  -0.0001070539
        0.0000083458  -0.0000090372   0.0001156591  -0.0000168197   0.0000151873
       -0.0000517866   0.0000187938   0.0000056227   0.0000210088   0.0000048857
        0.0000313409  -0.0000105247   0.0000179173  -0.0000770157  -0.0000007355
       -0.0000494165   0.0000218887  -0.0000251978   0.0000000860  -0.0000147683
        0.0000763093  -0.0000165450  -0.0000647115  -0.0000882081  -0.0000443811
        0.0000734365  -0.0000756139   0.0000237589  -0.0000698533  -0.0000827819
        0.0001004043  -0.0000070877   0.0001778281   0.0000248622  -0.0000260395
       -0.0001013066  -0.0000168111   0.0000246773   0.0000082192  -0.0000030971
       -0.0000053830  -0.0000064441  -0.0000046169   0.0000024196  -0.0000094765
        0.0000067522  -0.0000089375  -0.0000225218  -0.0000124460  -0.0000137621
        0.0000323364   0.0000104244   0.0002186761  -0.0003172356  -0.0000244157
       -0.0000428646  -0.0000859341  -0.0000111525   0.0000051920  -0.0000165793
       -0.0000121159   0.0000111873   0.0000052521   0.0000003558  -0.0000026091
        0.0000018249  -0.0000033843   0.0000069722  -0.0000028790  -0.0000013814
        0.0000080908  -0.0000052560  -0.0000004895  -0.0004980831  -0.0011979138
       -0.0001771320  -0.0000661067   0.0000343523   0.0000588620   0.0000525268
       -0.0000059550  -0.0000362629  -0.0000338645   0.0000058123   0.0000111775
       -0.0000145031   0.0000068403   0.0000312756   0.0000847063   0.0000436733
       -0.0000583576  -0.0000280559   0.0000163954  -0.0001202434   0.0071512706
        0.0180782737  -0.0055314630   0.0260465367  -0.0200130743  -0.0416921304
       -0.0014146016  -0.0006938626   0.0019845367   0.0757076490  -0.1054375412
       -0.1845609534   0.0068350763   0.0178096469   0.0014776353  -0.0000481020
        0.0000839870  -0.0001054375  -0.0000019415  -0.0000017602   0.0000016310
        0.0000163490  -0.0000091850   0.0000041090   0.0000056097  -0.0000039490
       -0.0000007683  -0.0000022071  -0.0000015623  -0.0000021056   0.0000003375
        0.0000001988  -0.0000009751  -0.0000012587  -0.0000015864  -0.0000010060
       -0.0000038923   0.0000008259   0.0000013488  -0.0000040815   0.0000014870
       -0.0000011454  -0.0000013444   0.0000017116  -0.0000001628  -0.0000004473
        0.0000081863  -0.0000013991  -0.0000035699   0.0000008359  -0.0000009161
        0.0000000202   0.0000021536   0.0000051108   0.0000055721   0.0000048669
        0.0000045664   0.0000071516  -0.0000045009   0.0000035577   0.0000024867
       -0.0000093875   0.0000070487   0.0000097325   0.0000180188   0.0000086047