$hessian                                                                        
        0.5104764125   0.0276503175  -0.0019515080  -0.1079817488   0.0676513929
       -0.0011575595  -0.0221424862   0.0263185580  -0.0009906759  -0.0045953731
       -0.0010623771  -0.0009266018  -0.0001068149  -0.0001848101  -0.0000106664
       -0.0005630315  -0.0027835523  -0.0002694529   0.0061380820  -0.0067751573
        0.0007645327   0.0001661156  -0.0006025890  -0.0001063839   0.0001103765
        0.0000050370  -0.0000622881  -0.0000114062  -0.0000003951  -0.0000057660
        0.0000051096   0.0000028119   0.0000264160  -0.0000154582   0.0000054011
        0.0000055599  -0.0000229800   0.0000047543  -0.0000084311   0.0000074328
        0.0000165036  -0.0000494351   0.0000091688   0.0000179408   0.0000096273
       -0.0000144043   0.0000001879   0.0000013673  -0.0000153970  -0.0000061517
        0.0000020803   0.0000195507  -0.0000034930   0.0000095154  -0.0000375194
       -0.0000071018   0.0000023243   0.0000666766  -0.0000015396   0.0000669598
       -0.0000030699  -0.0000589748  -0.0000082410   0.0000188870  -0.0000179883
        0.0000034066   0.0000215419  -0.0000240616   0.0000061942  -0.0000097281
       -0.0000169780  -0.0000053073  -0.0000258733  -0.0000455763  -0.0000041178
       -0.0000176041   0.0001918305  -0.0000117720  -0.0002448049  -0.0003484929
        0.0000286854  -0.0001241059   0.0006843565   0.0001056935   0.0001627752
       -0.0000137535  -0.0000476134  -0.0001347531  -0.0000089118  -0.0000888507
        0.0001237663   0.0000070805  -0.0000058978  -0.0001400955   0.0000225528
        0.0000667602  -0.0000085547   0.0000078650  -0.0000009694   0.0000376564
        0.0000041655   0.0000115221   0.0000111180  -0.0000066171  -0.0000133250
       -0.0000317349   0.0000012796  -0.0000065207  -0.0000081900   0.0000072184
        0.0000004674  -0.0000257392   0.0000409884  -0.0000093640   0.0000097231
       -0.0000215272  -0.0000431603   0.0000060745   0.0000207692   0.0000607949
       -0.0000301762  -0.0000142939  -0.0000380668   0.0000545674   0.0000406348
        0.0001134154  -0.0001547461  -0.0000031428  -0.0000255068   0.0000780677
       -0.0000277775  -0.0000745576   0.0000603261   0.0000020507  -0.0000049338
       -0.0001275452  -0.0000263253  -0.0000740357   0.0001952729   0.0000188050
        0.0000605097  -0.0523199682   0.0110635266  -0.0490015999  -0.1144985575
       -0.0967105649  -0.0520795982  -0.2156275238  -0.0266307047   0.1055005458
        0.0010225755   0.0014128664   0.0002762264  -0.0008662428   0.0012240621
        0.0000288703   0.0010316358  -0.0010578929  -0.0001517216  -0.0000011130
       -0.0000026391   0.0000142065   0.0000050240  -0.0000011041   0.0000020822
        0.0000065359  -0.0000026427  -0.0000029620   0.0000068197  -0.0000021122
        0.0000022387   0.0000051351   0.0000006908  -0.0000049061   0.0000093311
        0.0000017442   0.0000090594  -0.0000036508   0.0000011020  -0.0000001868
       -0.0000034618  -0.0000039664  -0.0000118305   0.0000075037   0.0000088080
        0.0000015248   0.0000099294   0.0000096800   0.0000070317   0.0000110643
        0.0000140953  -0.0000042783   0.0000044212   0.0000033790   0.0000049996
       -0.0000060221   0.0000025131   0.0000027169   0.0000220761  -0.0000088350
        0.0000002873   0.0000021897  -0.0000039878   0.0000551414   0.0000013408
        0.0000142573  -0.0000039934   0.0000008726   0.0000031357   0.0000112180
        0.0000056841   0.0000041977   0.0000113812  -0.0000109597  -0.0000005218
       -0.0000112769
        0.0276503175   0.4888187668   0.0091609228   0.0700844871  -0.1777025428
        0.0007620911   0.0067776558  -0.0036743845  -0.0002427242  -0.0003940347
        0.0009063567  -0.0007419003   0.0002769033   0.0000598410  -0.0000385931
       -0.0033801206  -0.0021796071  -0.0007547947   0.0120274090  -0.0330501589
       -0.0005066595   0.0005246624  -0.0010899112   0.0000025159   0.0001523423
        0.0000615176  -0.0001165417  -0.0000079850   0.0000008817   0.0000156090
        0.0000048792   0.0000086238  -0.0000236001  -0.0000057331   0.0000045199
       -0.0000118607   0.0000519657   0.0000087065   0.0000142530   0.0000246616
        0.0000085979  -0.0000016321   0.0000163150   0.0000051517   0.0000099438
        0.0000611870   0.0000052913  -0.0000024754  -0.0000004683   0.0000097988
        0.0000153174  -0.0000039360   0.0000052598   0.0000134858   0.0000099822
       -0.0000005197  -0.0000211027   0.0001190795   0.0000400185   0.0001872451
       -0.0003404782  -0.0002639369  -0.0000678739   0.0000984595  -0.0001356130
        0.0000087709  -0.0000163229   0.0000009952   0.0000000179   0.0000303110
        0.0000019376   0.0000075023   0.0000009957   0.0000261299  -0.0000076989
        0.0000228664  -0.0001489663   0.0000084638   0.0001299484   0.0002744054
       -0.0000009500   0.0002766158  -0.0005158159   0.0000521279  -0.0001958182
       -0.0000522334   0.0000548918   0.0001310821   0.0000683486   0.0000727066
       -0.0000575746  -0.0000004643  -0.0000103156   0.0001018782  -0.0000124618
       -0.0000387565   0.0000188177  -0.0000035679  -0.0000068080  -0.0000450608
       -0.0000084909  -0.0000188653  -0.0000044398   0.0000102713   0.0000178101
        0.0000432042  -0.0000007579   0.0000114438  -0.0000172265  -0.0000134575
       -0.0000247347   0.0000759252  -0.0000531699  -0.0000205643  -0.0000110959
        0.0000362838   0.0000697145  -0.0000008062  -0.0000216354  -0.0000680996
        0.0000220914   0.0000160389   0.0000393695  -0.0000503011  -0.0000447716
       -0.0001296514   0.0001626064   0.0000060076   0.0000421950  -0.0000790478
        0.0000216778   0.0000671164  -0.0000647754  -0.0000031944   0.0000061520
        0.0001059497   0.0000177366   0.0000529342  -0.0001386819  -0.0000237763
       -0.0000500300   0.0106578348  -0.0537825079   0.0519215620  -0.0963929017
       -0.1731105586  -0.0740664344  -0.0280179185  -0.0463734237   0.0134726642
       -0.0014308570   0.0010550774   0.0004262688  -0.0001510884  -0.0000274333
        0.0000789426   0.0013551020   0.0009390377   0.0004309289  -0.0000192212
       -0.0000091013  -0.0000502099  -0.0000180965  -0.0000115301   0.0000163247
       -0.0000252681  -0.0000090764   0.0000247917  -0.0000279528  -0.0000106901
       -0.0000023424  -0.0000288336  -0.0000072102  -0.0000050753  -0.0000177899
       -0.0000045854  -0.0000274062  -0.0000016828  -0.0000041213  -0.0000119944
       -0.0000343795  -0.0000105388   0.0000401328   0.0000217387   0.0000153104
       -0.0000002945  -0.0000096794  -0.0000057997  -0.0000053148  -0.0000156331
       -0.0000156574   0.0000050091  -0.0000078668  -0.0000125797  -0.0000073073
        0.0000177451  -0.0000059333  -0.0000029169  -0.0000153545  -0.0000120631
        0.0000038143  -0.0000150309  -0.0000012291  -0.0000415451   0.0000000293
       -0.0000134348   0.0000084761  -0.0000023517  -0.0000028430  -0.0000120541
       -0.0000110580  -0.0000040729  -0.0000070240   0.0000018223   0.0000012369
        0.0000246365
       -0.0019515080   0.0091609228   0.4888620485   0.0013992098  -0.0032923098
       -0.0586105233  -0.0014841922   0.0010171474   0.0013455215  -0.0004039059
       -0.0005092682   0.0065569891   0.0001045606  -0.0002643534   0.0001703726
       -0.0007680292  -0.0010431466   0.0063576628   0.0015769005  -0.0023537361
        0.0006232549   0.0000641331  -0.0001250729   0.0000561528  -0.0000234793
       -0.0000629345  -0.0000369464   0.0000101544   0.0000001838   0.0000041407
       -0.0000123801  -0.0000020146   0.0000079722   0.0000015069  -0.0000055588
       -0.0000133897  -0.0000012707  -0.0000037189   0.0000021396  -0.0000115586
        0.0000236922  -0.0000121082   0.0000071502  -0.0000128430   0.0000029751
        0.0000034143  -0.0000094014   0.0000029894   0.0000094331   0.0000008132
        0.0000119125  -0.0000143713  -0.0000030212   0.0000021422  -0.0000213130
        0.0000008207   0.0000096036  -0.0000040648   0.0000863418  -0.0000325961
        0.0000357171  -0.0000196228  -0.0001176435  -0.0000172495  -0.0000550380
        0.0001248434  -0.0000019734  -0.0000077252   0.0000279514   0.0000156919
        0.0000121373  -0.0000365726  -0.0000332666  -0.0000319094   0.0000252964
        0.0000021422   0.0000666366   0.0000336848  -0.0001197231  -0.0002750545
       -0.0000882469  -0.0004639429   0.0005776332  -0.0010624243   0.0004593323
        0.0003029415  -0.0000869695  -0.0000978264  -0.0001996627  -0.0000145367
        0.0001046213  -0.0000529268  -0.0000093003  -0.0001847724   0.0000086964
       -0.0000039320   0.0000700431   0.0000204133   0.0000882705  -0.0000078440
       -0.0000310057  -0.0000559086   0.0000526653   0.0000193394   0.0000501581
       -0.0000547928   0.0000037029   0.0000185942  -0.0000077315  -0.0000277156
       -0.0000735709   0.0000005928   0.0000913848   0.0000316988   0.0000269194
        0.0000011120   0.0000073638  -0.0000065067   0.0000070096   0.0000244797
       -0.0000169510  -0.0000031328  -0.0000134719   0.0000331734   0.0000157625
        0.0000453112  -0.0000890617   0.0000091548   0.0000129718   0.0000432502
       -0.0000257365  -0.0000619120   0.0000412928   0.0000007822   0.0000030049
       -0.0001227717  -0.0000344816  -0.0000853324   0.0001998515   0.0000275972
        0.0000481552  -0.0519683978   0.0565055606  -0.2502810484  -0.0523757568
       -0.0735513024  -0.0840706552   0.1055987548   0.0134703051  -0.1055995908
       -0.0000844447   0.0002368898  -0.0020628650  -0.0000037125   0.0000088215
        0.0000517735   0.0004118912   0.0002808904  -0.0021637208   0.0000036153
       -0.0000029785   0.0000021308   0.0000026142   0.0000038859  -0.0000010842
        0.0000094700   0.0000051424  -0.0000013051   0.0000120585   0.0000075919
        0.0000058731   0.0000127990   0.0000011206   0.0000021174   0.0000019629
       -0.0000007534   0.0000021303   0.0000048276  -0.0000012893  -0.0000032569
        0.0000152210   0.0000016613  -0.0000095152   0.0000112724   0.0000093057
        0.0000046844   0.0000017103   0.0000007693   0.0000043137   0.0000090989
        0.0000154884  -0.0000058496  -0.0000004834  -0.0000036700   0.0000007931
       -0.0000008998   0.0000075520  -0.0000057508   0.0000019790  -0.0000052433
       -0.0000012096   0.0000109754  -0.0000053378  -0.0000078665  -0.0000066264
        0.0000078509  -0.0000099456  -0.0000019012   0.0000030502   0.0000029705
       -0.0000028899   0.0000025573   0.0000077945  -0.0000044073  -0.0000007035
       -0.0000031941
       -0.1079817488   0.0700844871   0.0013992098   0.6493424465   0.0037883313
        0.0366315988  -0.3174906846  -0.0427409607  -0.0179193647  -0.0397129766
        0.0817341401   0.0011835873  -0.0458926078  -0.0307869958  -0.0039277978
        0.0567318673  -0.0274173588   0.0035216809  -0.1422498167  -0.0564926021
       -0.0119970711  -0.0007142752   0.0040167945  -0.0001599489  -0.0004343478
        0.0000593679   0.0000656165  -0.0000433633   0.0000550444  -0.0000412347
        0.0000186888  -0.0000150242  -0.0000124660   0.0000171013   0.0000130293
       -0.0000386297   0.0000441853  -0.0000317270  -0.0000503503   0.0000086090
        0.0000563806   0.0000021172  -0.0000228772   0.0000885294   0.0000522810
        0.0000103957  -0.0000330079   0.0000434256  -0.0000143565   0.0000066091
        0.0000381403   0.0000370381  -0.0000208236   0.0000098475  -0.0000342347
        0.0000781253  -0.0000025437  -0.0004690899   0.0000886197  -0.0001684503
        0.0006705809   0.0005185060   0.0000793307  -0.0000755411   0.0006600527
        0.0000529948   0.0002870854  -0.0001924147   0.0000358262   0.0000207013
        0.0000200158  -0.0000114049  -0.0001378533  -0.0001484443  -0.0000154389
        0.0000354593   0.0002128888   0.0000389622   0.0002064030   0.0000132395
       -0.0003948125   0.0023343283   0.0003330429   0.0000657391  -0.0011157063
       -0.0002785276  -0.0003936397   0.0004464941   0.0008116448   0.0002577807
       -0.0003736370   0.0002461906   0.0001012586   0.0007649294  -0.0000554171
       -0.0000342301  -0.0001987010  -0.0001251883  -0.0003297934  -0.0000754163
        0.0001043971   0.0001123109  -0.0001814431  -0.0000496225  -0.0001183379
        0.0002434787  -0.0000011384  -0.0000595303  -0.0000165517   0.0000931974
        0.0002117338   0.0004393348  -0.0006019881  -0.0003107853  -0.0000325483
        0.0000475394   0.0001126960  -0.0000218133  -0.0000414189  -0.0001062935
        0.0000814361   0.0000183668   0.0000838717  -0.0001546321  -0.0000787311
       -0.0001997623   0.0003368204  -0.0000226060  -0.0000363544  -0.0001480109
        0.0001093009   0.0002505639  -0.0002545441   0.0000152359   0.0000126916
        0.0005893606   0.0001370077   0.0003648599  -0.0008061903  -0.0001494984
       -0.0003140363  -0.0060682837   0.0107798026  -0.0040188621   0.0080365607
       -0.0114855382  -0.0000471139  -0.0198368884   0.0232588404   0.0006017621
       -0.0169620766  -0.0034828171  -0.0018591011  -0.0003423355   0.0027045629
       -0.0004718317  -0.0185736936  -0.0258904037  -0.0024743956   0.0000535946
        0.0000418760  -0.0000451310  -0.0000196120  -0.0000155390   0.0000587946
       -0.0000378476   0.0000007341   0.0000324613  -0.0000572735  -0.0000081367
        0.0000107463  -0.0000505237  -0.0000060260  -0.0000255511  -0.0000267425
        0.0000043562  -0.0000448002  -0.0000016328  -0.0000126603  -0.0000648504
        0.0000344971   0.0000349996   0.0000644653  -0.0000056730  -0.0000076350
       -0.0000034932  -0.0000053897   0.0000064372   0.0000005104  -0.0000035833
        0.0000049167   0.0000068024   0.0000024769  -0.0000139164   0.0000021309
        0.0000111935  -0.0000227480   0.0000024275   0.0000412333  -0.0000519314
       -0.0000026280  -0.0001194645   0.0000783288   0.0001704601  -0.0000143521
       -0.0000350883   0.0000242775   0.0000036452  -0.0000102074   0.0000039836
       -0.0000131768   0.0000000225  -0.0000099380  -0.0000584286   0.0000011811
        0.0000030257
        0.0676513929  -0.1777025428  -0.0032923098   0.0037883313   0.6412376966
        0.0252385738   0.0371129785  -0.0917130061   0.0009166743   0.0235580868
        0.0283986507   0.0029188414  -0.0311108521  -0.0124776595  -0.0026964184
        0.0314125679  -0.0678026124  -0.0010623703  -0.1347422623  -0.2693342466
       -0.0240268849   0.0029947051  -0.0017188321   0.0000094463  -0.0003486387
        0.0004238740   0.0001745930   0.0000335924   0.0001476812   0.0000679831
        0.0000057619  -0.0000542406   0.0000861332  -0.0000162347  -0.0000004527
       -0.0000447561  -0.0000452333  -0.0000714811  -0.0000324334  -0.0000640652
        0.0000757407  -0.0000404989  -0.0000891057   0.0000912061   0.0000462406
       -0.0000482708  -0.0000728381   0.0000007885  -0.0000343932  -0.0000044040
        0.0000465600   0.0000393601  -0.0000463559  -0.0000879117   0.0000422967
        0.0001724757  -0.0000472534  -0.0003572062   0.0004276621  -0.0002449090
        0.0003801169  -0.0012832565  -0.0001174583   0.0001483722  -0.0000003685
        0.0000306387   0.0002277157  -0.0002037208   0.0000537253   0.0000292942
       -0.0000029347  -0.0000162448  -0.0003699728  -0.0002257703  -0.0000635424
       -0.0000663772   0.0005901394   0.0000055531  -0.0006767145  -0.0007421001
       -0.0000513559   0.0019538106  -0.0002698342  -0.0000500090   0.0002583021
       -0.0000603467  -0.0001170894  -0.0001734641   0.0000051658  -0.0000990253
        0.0003764712   0.0000067416  -0.0001474496  -0.0004659150   0.0000570708
        0.0001881686   0.0000685772   0.0000110193   0.0000616927   0.0000070665
       -0.0000077418  -0.0000018973   0.0000458596   0.0000050117   0.0000096923
       -0.0000169846   0.0000161828   0.0000053980  -0.0000337864  -0.0000194554
       -0.0000795248   0.0000172638   0.0000210833   0.0000378282   0.0000012137
       -0.0000124526  -0.0000441313   0.0000128111   0.0000356020   0.0000719539
       -0.0000731253  -0.0000151546  -0.0000567443   0.0001174253   0.0000536956
        0.0001340555  -0.0002436897   0.0000143374   0.0000315389   0.0001143636
       -0.0000737969  -0.0001777816   0.0001295405  -0.0000043706  -0.0000033121
       -0.0003610181  -0.0000873765  -0.0002374557   0.0005004753   0.0000535942
        0.0002322299   0.0097737007  -0.0126881570   0.0060565261   0.0092791827
       -0.0265330760  -0.0005563572   0.0045858598   0.0006193583  -0.0004826346
       -0.0264036264  -0.0034577095  -0.0022703480   0.0036031376  -0.0039151075
       -0.0004073173  -0.0028715374  -0.0018424635  -0.0000505148   0.0000630949
       -0.0000337200  -0.0000166653   0.0000068573  -0.0000019886  -0.0000354411
        0.0000465589   0.0000179589  -0.0000173074   0.0000385653   0.0000003805
        0.0000194393   0.0000412651   0.0000062395  -0.0000015759   0.0000400226
        0.0000202145   0.0000357322   0.0000010098  -0.0000020657   0.0000437308
        0.0000609047  -0.0000275462   0.0000246300   0.0000675157   0.0000003752
        0.0000068345   0.0000118096   0.0000019251   0.0000175878   0.0000093534
        0.0000145709  -0.0000182239  -0.0000196773   0.0000037096   0.0000062254
       -0.0000012733   0.0000224650  -0.0000069550  -0.0000405580  -0.0000153923
       -0.0000127755   0.0000271330  -0.0000386502   0.0000663970  -0.0000021626
        0.0000161808  -0.0000030883  -0.0000095576   0.0000006945   0.0000064697
       -0.0000014301   0.0000095416   0.0000203796   0.0000034085  -0.0000150169
        0.0000457104
       -0.0011575595   0.0007620911  -0.0586105233   0.0366315988   0.0252385738
        0.1463530690  -0.0149952943  -0.0043394968  -0.0498937592  -0.0016868183
        0.0063786837   0.0005601135  -0.0050664152  -0.0018973874  -0.0056612571
        0.0067841512  -0.0059918817  -0.0002437092  -0.0154223827  -0.0167341717
       -0.0504429637  -0.0007073840  -0.0003320735   0.0067282258  -0.0005695208
       -0.0005128323  -0.0001336785  -0.0000436847   0.0000459762   0.0000775163
        0.0000627332   0.0000298986  -0.0000368755  -0.0000207116  -0.0000042964
       -0.0000270586  -0.0000370309   0.0000334999  -0.0000061911  -0.0001120162
        0.0000798421   0.0001003898   0.0000780679  -0.0000694132   0.0001369314
        0.0000476987  -0.0000498834  -0.0000020041   0.0000245953   0.0000116936
       -0.0000041376  -0.0000423842  -0.0000357712  -0.0000559861   0.0000234580
       -0.0000203036   0.0000732969   0.0005161755   0.0006361109   0.0000888432
        0.0000390443  -0.0001112426   0.0001622512   0.0000355473   0.0000654794
       -0.0001104343   0.0000486793  -0.0000194448  -0.0000355616  -0.0000045018
       -0.0000065735   0.0000243779  -0.0000336461  -0.0000068526  -0.0000088171
       -0.0000015148  -0.0000044135  -0.0000067660   0.0000719133   0.0001598272
       -0.0000376393   0.0006423416  -0.0006847988   0.0000188496  -0.0001803166
       -0.0002725165   0.0000066394  -0.0000126058   0.0001347547   0.0000088797
        0.0000506391   0.0000160853  -0.0000436152   0.0000091679   0.0000205207
        0.0000538670   0.0000048706  -0.0000114094  -0.0000490386  -0.0000054297
        0.0000159050   0.0000252818  -0.0000163523  -0.0000074740  -0.0000200698
        0.0000347242   0.0000041179  -0.0000030213   0.0000002810   0.0000048241
       -0.0000044337   0.0000188413  -0.0000443622   0.0000079502  -0.0000180020
        0.0000032824   0.0000055364   0.0000089992  -0.0000027407  -0.0000148136
       -0.0000004457   0.0000018582   0.0000077492  -0.0000125186  -0.0000100667
       -0.0000296384   0.0000389646   0.0000013298   0.0000102658  -0.0000209209
        0.0000073621   0.0000157499  -0.0000081930  -0.0000021573  -0.0000015061
        0.0000124126   0.0000047552   0.0000069124  -0.0000220334  -0.0000086840
        0.0000020775  -0.0151963194   0.0242306181  -0.0003143933   0.0060211213
       -0.0107973646   0.0003718137   0.0083883699  -0.0128050070   0.0005805758
       -0.0020878596  -0.0004494291   0.0009292798  -0.0002309002  -0.0000838552
        0.0081118090  -0.0018716066  -0.0025127798   0.0013112746   0.0000028964
       -0.0000132674  -0.0000074988  -0.0000018054  -0.0000110379   0.0000027152
       -0.0000075623  -0.0000081593   0.0000009770  -0.0000233105   0.0000016585
        0.0000048096   0.0000106678  -0.0000059297   0.0000074614   0.0000002408
        0.0000104628  -0.0000066732   0.0000000855   0.0000062496  -0.0000070262
        0.0000064819   0.0000151827   0.0000188892  -0.0000020549  -0.0000034291
        0.0000070131  -0.0000029229  -0.0000015683  -0.0000024867  -0.0000061827
       -0.0000091506   0.0000015507  -0.0000007194  -0.0000004547  -0.0000009782
        0.0000024185  -0.0000034357   0.0000055210  -0.0000031785  -0.0000023162
       -0.0000012081   0.0000282910  -0.0000235865  -0.0000141167  -0.0000004999
       -0.0000048146   0.0000038880  -0.0000007686  -0.0000031549  -0.0000034400
       -0.0000036509  -0.0000028533  -0.0000042784  -0.0000084530   0.0000011982
        0.0000132467
       -0.0221424862   0.0067776558  -0.0014841922  -0.3174906846   0.0371129785
       -0.0149952943   0.6551589327  -0.0024907265   0.0323243932  -0.1593870022
        0.0736804326  -0.0041037684   0.0565911525   0.0313472522   0.0051418237
       -0.0464273176   0.0295747656  -0.0019983930  -0.0334761407  -0.0824739228
       -0.0063116133   0.0002633709  -0.0004795033  -0.0002128594   0.0000544897
       -0.0001574339  -0.0000036217   0.0000849037  -0.0000474485  -0.0001355711
       -0.0000922105   0.0000258730   0.0000468438   0.0000112126  -0.0000028077
        0.0000968687   0.0000825531   0.0000169623  -0.0000470745   0.0001240203
       -0.0000531327   0.0000040624   0.0001128073  -0.0000641839  -0.0000016224
        0.0000576946   0.0000263916   0.0000785288   0.0000363749   0.0000154235
       -0.0000907033  -0.0000967873   0.0000394422  -0.0000763486   0.0000351794
       -0.0000680747   0.0001542633   0.0000023237  -0.0002590189  -0.0000025189
       -0.0000420996   0.0001464036   0.0000301697   0.0000431219  -0.0005613477
       -0.0000642696  -0.0001713710   0.0003667157  -0.0000232150  -0.0000362215
       -0.0000471088   0.0000245943   0.0000212612   0.0000435751   0.0000076843
       -0.0002817079  -0.0002707941  -0.0001013675   0.0001719464  -0.0008948129
        0.0004363273  -0.0040062590  -0.0045591431  -0.0004118477   0.0006773709
        0.0009220166   0.0001463663  -0.0007879051  -0.0006661938  -0.0003113358
        0.0007674670  -0.0002000284  -0.0001832546  -0.0008974870   0.0000978695
        0.0001632660   0.0001886815   0.0001280464   0.0002774894   0.0001914405
       -0.0001254398  -0.0001045603   0.0001247335   0.0000462169   0.0000901857
       -0.0002110167   0.0000091143   0.0001215806   0.0000093091  -0.0001216895
       -0.0002336992  -0.0002943857   0.0006511280   0.0000858555  -0.0000779097
       -0.0000468069  -0.0001690487   0.0001308587   0.0000550551   0.0001426899
       -0.0001826945  -0.0000281030  -0.0001374037   0.0002361918   0.0001046766
        0.0002530320  -0.0004283771   0.0000119812   0.0000379198   0.0001796330
       -0.0001475721  -0.0003087296   0.0002965825  -0.0000279322  -0.0000362883
       -0.0007386734  -0.0001823436  -0.0004530034   0.0010562241   0.0001826690
        0.0004719428  -0.0005844377  -0.0005876578   0.0007170794   0.0007942148
       -0.0020451095  -0.0004559518  -0.0014134711   0.0017221131   0.0001063985
       -0.1071946441  -0.1097246388  -0.0071128076  -0.0200562411   0.0259415656
       -0.0000500963  -0.0010551565  -0.0028505290  -0.0012335991  -0.0000209184
       -0.0000519484   0.0000525858   0.0000104016  -0.0000004132  -0.0000337934
        0.0000360254  -0.0000087606  -0.0000039681   0.0000363987  -0.0000067989
        0.0000157593   0.0000346347  -0.0000047172   0.0000025879   0.0000313206
       -0.0000059862   0.0000174210   0.0000009895   0.0000077088   0.0000414843
        0.0000076892  -0.0000325091  -0.0000647945  -0.0000090307   0.0000225960
        0.0000037415  -0.0000017458  -0.0000149332  -0.0000178616  -0.0000181499
       -0.0000309131  -0.0000001973  -0.0000176354  -0.0000014551  -0.0000140794
        0.0000100240  -0.0000024558  -0.0000058365  -0.0000278551   0.0000292455
        0.0000115212  -0.0000664304   0.0001130425  -0.0001574182  -0.0000020255
        0.0000780154  -0.0000033081   0.0000019452   0.0000202407  -0.0000078286
        0.0000006239   0.0000007823   0.0000088566   0.0000623739   0.0000264394
        0.0000498224
        0.0263185580  -0.0036743845   0.0010171474  -0.0427409607  -0.0917130061
       -0.0043394968  -0.0024907265   0.6750136303   0.0215102499   0.1492494615
       -0.2783643828   0.0003199942  -0.0234550582  -0.0653932797  -0.0042923398
        0.0277917918  -0.0119213260   0.0021517846  -0.0273106702   0.0232016528
       -0.0010839261  -0.0010118428  -0.0003679121   0.0000411574   0.0000864614
       -0.0001360844  -0.0000944307  -0.0001480752   0.0000494835  -0.0000674286
        0.0000247846   0.0000190126  -0.0000309740   0.0000145628  -0.0000191555
       -0.0000119081   0.0000145490   0.0000242219  -0.0000402153   0.0000425217
        0.0000013546   0.0000848808   0.0000448542   0.0000098940  -0.0000551566
        0.0000309495  -0.0000122481   0.0000436248   0.0000390662  -0.0000036830
        0.0000192071   0.0000297394   0.0000249147   0.0000126892  -0.0001540446
        0.0000228162   0.0000413540   0.0001014529  -0.0000737419   0.0001550402
        0.0003055715   0.0003480102   0.0000567216  -0.0000779344   0.0003261614
        0.0000194229   0.0001468025  -0.0001851942   0.0000446268   0.0000446685
        0.0000199223  -0.0000331869  -0.0000275514  -0.0002711082   0.0000209071
       -0.0001064726   0.0001385301  -0.0000186601   0.0001665909  -0.0022193289
       -0.0002791859  -0.0023066285  -0.0004901039  -0.0004645246  -0.0001785452
       -0.0000230191  -0.0001498515   0.0000405938   0.0004425693  -0.0000499632
       -0.0000269312   0.0000918485   0.0000531237   0.0000920769   0.0000021689
        0.0000844649  -0.0001083738  -0.0000302936  -0.0001058774  -0.0001061000
        0.0000340349   0.0000160499  -0.0000129266  -0.0000133582  -0.0000391072
        0.0000737829  -0.0000076577  -0.0000633147  -0.0000725244   0.0000566809
        0.0000430502   0.0000805723  -0.0003045798  -0.0001695215   0.0000810403
        0.0000610784   0.0001226652  -0.0000608492  -0.0000095574  -0.0000040798
        0.0000280527   0.0000088364   0.0000042241  -0.0000076871   0.0000001992
        0.0000005087  -0.0000124617  -0.0000008558  -0.0000077085   0.0000344580
        0.0000054679   0.0000095098  -0.0000887407   0.0000271895   0.0000255849
        0.0001352529   0.0000086027   0.0000612604  -0.0000832124  -0.0000674393
       -0.0001348287   0.0017116788  -0.0010398617   0.0000307328   0.0020505014
        0.0008676539   0.0004523288   0.0029128995  -0.0033897010  -0.0000263939
       -0.1102040229  -0.2355414311  -0.0143336034   0.0022821450  -0.0009823332
        0.0000593868  -0.0031651896  -0.0044018943  -0.0008470286   0.0000234647
       -0.0000190339  -0.0000455371  -0.0000372776  -0.0000002747   0.0000478767
       -0.0000384817  -0.0000003538   0.0000331947  -0.0000141692   0.0000007904
       -0.0000063224  -0.0000132920   0.0000067049  -0.0000047470  -0.0000252827
        0.0000003955  -0.0000392976   0.0000059812   0.0000030124  -0.0000434840
        0.0000214444  -0.0000254414   0.0000290966   0.0000708362   0.0000306635
        0.0000018443   0.0000055341   0.0000135575   0.0000354485   0.0000139282
        0.0000371002  -0.0000171326   0.0000109062   0.0000116484   0.0000086513
       -0.0000018219  -0.0000389550  -0.0000007577  -0.0000174235  -0.0000473201
       -0.0000200885   0.0000467328  -0.0000934894   0.0001931705  -0.0000232314
       -0.0000096954  -0.0000084635  -0.0000102150  -0.0000031003   0.0000134054
       -0.0000030846   0.0000049577   0.0000303083  -0.0000324592  -0.0000201802
        0.0000338479
       -0.0009906759  -0.0002427242   0.0013455215  -0.0179193647   0.0009166743
       -0.0498937592   0.0323243932   0.0215102499   0.1157299771  -0.0012722757
       -0.0046672947  -0.0422054371   0.0028505747   0.0002832952  -0.0012871726
       -0.0016449818   0.0015251780  -0.0038823346  -0.0038630577  -0.0049050504
        0.0009108774  -0.0000364589  -0.0000316167  -0.0000821886  -0.0000443027
       -0.0000170691  -0.0000034860  -0.0000493546  -0.0000057683  -0.0000601114
       -0.0000147679  -0.0000075519   0.0000100378   0.0000132919  -0.0000017570
        0.0000175210   0.0000128562  -0.0000073141  -0.0000163702  -0.0000137072
       -0.0000326565   0.0000335021   0.0000261716   0.0000231494   0.0000251281
       -0.0000080178   0.0000137257  -0.0000046946  -0.0000116833   0.0000004878
       -0.0000060363   0.0000114644   0.0000139428   0.0000130650   0.0000557782
        0.0000043313  -0.0000189964   0.0000657820  -0.0000453129   0.0000342460
        0.0000331078   0.0000708596   0.0000229036   0.0000026310  -0.0000211140
       -0.0000701159  -0.0000112894   0.0000206761  -0.0000015237  -0.0000072857
       -0.0000126483   0.0000281634   0.0000440847  -0.0000189089  -0.0001748527
       -0.0000379832   0.0000020806  -0.0000814722  -0.0002006701  -0.0001851866
        0.0011125927   0.0002680681  -0.0005178394   0.0047086512  -0.0005054152
       -0.0007484686   0.0003751319  -0.0001511717   0.0003056151  -0.0002339498
        0.0002003856   0.0000663760  -0.0001073559  -0.0001066404   0.0000411009
        0.0001994280  -0.0001069930   0.0000124819  -0.0001026390   0.0000232318
        0.0000355060   0.0000846578  -0.0000519913  -0.0000243230  -0.0000682930
        0.0000673390  -0.0000017975  -0.0000081274  -0.0000359412   0.0000197245
        0.0000469910  -0.0001324732  -0.0000552530  -0.0000491864  -0.0000502047