$hessian                                                                        
        0.6796210859   0.0116332038   0.0061404425  -0.0947026585  -0.0248928716
       -0.0022051021   0.0339552273  -0.0204867666  -0.0011947586  -0.0169129574
        0.0262585856   0.0017929368  -0.0684093724  -0.0300623691  -0.0027925846
       -0.3030108850   0.1371194295   0.0075269854   0.0014039040  -0.0061089135
       -0.0004318895  -0.0012297623   0.0015941170   0.0000671739  -0.0009957232
       -0.0000021331  -0.0000041247   0.0003095585   0.0006619979   0.0000241595
       -0.0001987915  -0.0001770207  -0.0000284298  -0.0016662053   0.0014363617
        0.0001276625  -0.0005050864  -0.0009254659  -0.0000205881   0.0001770064
        0.0004233997   0.0000511863   0.0007425954   0.0005080447  -0.0000211533
       -0.0015527122   0.0004944620   0.0000702597   0.0009602903  -0.0015622757
       -0.0001538063   0.0010198630   0.0008070180   0.0000538254  -0.0003792495
       -0.0002830094   0.0000036867  -0.0009146236  -0.0009594585  -0.0000748443
        0.0022967657   0.0002898245   0.0000230424   0.0006987389   0.0001320496
        0.0000109358  -0.0003587912  -0.0009820413  -0.0000415648  -0.0001908261
        0.0003123948   0.0000385999   0.0001243659  -0.0000990518  -0.0001004550
        0.0001356121   0.0000445932   0.0000234913  -0.0000235776  -0.0000028838
       -0.0000000891  -0.0000035097  -0.0000011864   0.0000039018  -0.0000509117
        0.0000027056  -0.0000206871   0.0000424045   0.0000078460   0.0000867581
        0.0000420761   0.0000191028  -0.0000765918  -0.0000511290   0.0000015725
        0.0000200102  -0.0000044289   0.0000010866  -0.0000022528  -0.0000255524
       -0.0000039463  -0.0000007376   0.0001337854   0.0000448779  -0.0000156221
        0.0001219573  -0.0000978303   0.0000830560  -0.2197342007  -0.1213052548
       -0.0105856757  -0.0040188153   0.0268846993   0.0018832141  -0.0035592179
       -0.0035978246  -0.0003720217  -0.0030697786   0.0032490958   0.0001710775
       -0.0000624647  -0.0000210707   0.0000001846  -0.0000117988  -0.0000712313
       -0.0000004126  -0.0000526166  -0.0001211385  -0.0000128096   0.0000068236
       -0.0000916770  -0.0000262250  -0.0000330564  -0.0000375868   0.0000084191
       -0.0000067053  -0.0000277344   0.0000008144  -0.0000083687  -0.0000025006
        0.0000000311  -0.0000035176  -0.0000065444  -0.0000163210   0.0000106414
        0.0000152246  -0.0000056450  -0.0000276599  -0.0000022150   0.0000148232
       -0.0000209711  -0.0000008738  -0.0000032735   0.0000183627   0.0000030534
        0.0000004441   0.0000069407   0.0000008838   0.0000102749   0.0000051762
        0.0000025378  -0.0000082442   0.0000150521   0.0000049867  -0.0000070948
       -0.0000234611  -0.0000003951  -0.0000021599  -0.0000288470  -0.0000198840
       -0.0000122323
        0.0116332038   0.6405017054   0.0371387968   0.0549448545  -0.3131399778
       -0.0177343891  -0.0769248079  -0.0432647923  -0.0039517624   0.0330725944
       -0.0319912303  -0.0016741559   0.0255650703   0.0463330820   0.0037059877
        0.0590337209  -0.1404406804  -0.0064912593  -0.0091532112   0.0024432617
       -0.0003513370  -0.0027762595  -0.0018229459  -0.0001759933   0.0014472061
       -0.0004491864   0.0000163628  -0.0008927476  -0.0008920377   0.0000001318
        0.0001806457  -0.0000150868   0.0000410555   0.0037715276  -0.0019997558
       -0.0001882777   0.0005579715   0.0012675179  -0.0000146616   0.0000626440
       -0.0007014479  -0.0001035053  -0.0015875638  -0.0011992491   0.0000470281
        0.0030831879  -0.0009632347  -0.0001427104  -0.0020262185   0.0029265534
        0.0003007244  -0.0019860038  -0.0013556497  -0.0000933694   0.0004852758
        0.0006022391  -0.0000109776   0.0020553121   0.0023255052   0.0001853900
       -0.0047492415  -0.0013659032  -0.0001132894  -0.0009740805  -0.0002647437
       -0.0000190638   0.0009890292   0.0018343916   0.0000829754  -0.0008773614
       -0.0022310557  -0.0001977399  -0.0004122446   0.0003326689   0.0004188375
       -0.0001818757  -0.0002339205   0.0001220936   0.0000690140  -0.0000242672
       -0.0000675750  -0.0000055013   0.0000572380  -0.0000288788   0.0000781692
        0.0000173240   0.0000798923  -0.0001115745   0.0001760506  -0.0001928984
       -0.0001075771   0.0001414471   0.0001933999   0.0000776665   0.0000182811
       -0.0000928199  -0.0000057799   0.0000344604   0.0000195355   0.0000688607
       -0.0000456551   0.0000505383  -0.0001767978  -0.0002259209  -0.0001551391
       -0.0004010337   0.0003735706  -0.0003613255  -0.1208488379  -0.1268683572
       -0.0077164343   0.0032490160  -0.0147910065  -0.0010704295  -0.0030680080
       -0.0011770733  -0.0006867379   0.0264374937  -0.0147776286  -0.0008484682
        0.0000704482  -0.0000875027  -0.0000026356  -0.0000885868   0.0001385112
       -0.0000003171   0.0000950790   0.0003809748   0.0000318255   0.0000019043
        0.0002559243   0.0000582301   0.0001071467   0.0001950449  -0.0000370422
        0.0000751243   0.0000754807   0.0000040313   0.0000965136  -0.0000732542
       -0.0000013059   0.0000023222  -0.0000938302   0.0000495766   0.0000312413
        0.0000065890   0.0000166104  -0.0000155230   0.0000412028  -0.0000059337
        0.0000391483   0.0000106072  -0.0000388603  -0.0000259720   0.0000073560
       -0.0000284235   0.0000019999  -0.0000026120  -0.0000384626   0.0000036083
       -0.0000139041   0.0000109573  -0.0000202806  -0.0000194073   0.0000211765
        0.0000416594  -0.0000214147   0.0000330641  -0.0000115710   0.0000557440
        0.0000079586
        0.0061404425   0.0371387968   0.1182919653   0.0035532719  -0.0185164535
       -0.0501637944  -0.0052585490  -0.0034402311   0.0012070405   0.0022839251
       -0.0017689544  -0.0042014927   0.0012507103   0.0032184059  -0.0012105103
        0.0018884339  -0.0057781742  -0.0434495480  -0.0006379716  -0.0002499434
        0.0052168771  -0.0002712855  -0.0002094834   0.0011251450   0.0001097551
       -0.0000184457  -0.0002891515  -0.0000774052  -0.0000560908  -0.0001519795
        0.0000275761  -0.0000074141   0.0000331378   0.0002435882  -0.0000762774
       -0.0000553615   0.0000212376   0.0000700494   0.0000703121   0.0000135582
       -0.0000359559   0.0000216002  -0.0001060827  -0.0000896019  -0.0000678028
        0.0002038461  -0.0000516481   0.0000074561  -0.0001347654   0.0001871131
        0.0000190272  -0.0001297688  -0.0000821004  -0.0000092874   0.0000281933
        0.0000287681   0.0000405065   0.0001566143   0.0002127881  -0.0000572533
       -0.0003295937  -0.0001932547   0.0000597778  -0.0000819938  -0.0000164956
        0.0000175434   0.0000717401   0.0001286467   0.0001750872  -0.0000613818
       -0.0001353475  -0.0004019272  -0.0000281274   0.0000257766   0.0001081333
        0.0000005195   0.0000070320  -0.0000378959   0.0000077610  -0.0000016649
        0.0000108418   0.0000018321  -0.0000217489   0.0000086634   0.0000127887
       -0.0000230016   0.0000243529   0.0000151257  -0.0000081289  -0.0000171195
       -0.0000312782   0.0000252360   0.0000143713   0.0000047693   0.0000230630
        0.0000188358  -0.0000079408   0.0000268243   0.0000125243   0.0000013286
       -0.0000092013   0.0000189727  -0.0000340733  -0.0000348481  -0.0000528175
       -0.0000300452   0.0000026497   0.0000562741  -0.0105517508  -0.0077382106
       -0.0350804189   0.0001796987  -0.0008256450   0.0006390546  -0.0003354782
       -0.0006737574   0.0076182418   0.0018682148  -0.0010840311   0.0003219077
        0.0000048561  -0.0000084445   0.0000273642  -0.0000040887   0.0000085766
        0.0000490535   0.0000070627   0.0000332588  -0.0000173831  -0.0000004416
        0.0000206821  -0.0000016088   0.0000086779   0.0000142546   0.0000195814
        0.0000046104   0.0000074778  -0.0000032450   0.0000071263  -0.0000021730
       -0.0000124881   0.0000004509  -0.0000036577  -0.0000369038   0.0000026693
        0.0000009085  -0.0000239061   0.0000075724  -0.0000195662   0.0000147715
        0.0000015256  -0.0000190028   0.0000053452   0.0000010889  -0.0000174360
        0.0000100495  -0.0000031402  -0.0000102460   0.0000116670   0.0000024421
        0.0000079039   0.0000145168  -0.0000056169   0.0000132129   0.0000169233
        0.0000016508   0.0000151272   0.0000128963  -0.0000138859   0.0000100841
        0.0000220768
       -0.0947026585   0.0549448545   0.0035532719   0.6720915185  -0.0108082319
        0.0045057448  -0.2545353428  -0.1517058917  -0.0127994086  -0.0700800754
        0.0185510580   0.0006241245  -0.0035091398  -0.0254312113  -0.0017884645
        0.0134411912   0.0286767189   0.0022211391  -0.0020440578   0.0034183824
        0.0001893550  -0.0007362078  -0.0008868477  -0.0000469607   0.0009015907
       -0.0001520516  -0.0000088307  -0.0003221670  -0.0002989562  -0.0000263420
        0.0000306064  -0.0001853316  -0.0000017509   0.0007657452  -0.0006516661
       -0.0000520574   0.0001815281   0.0003983809   0.0000103044  -0.0000406367
       -0.0001616549  -0.0000114651  -0.0003473284  -0.0001296681   0.0000071923
        0.0006408343  -0.0001711258  -0.0000348817  -0.0003841407   0.0006764402
        0.0000566578  -0.0004217843  -0.0004017580  -0.0000257470   0.0002047737
        0.0000777839  -0.0000126876   0.0002432216   0.0003182747   0.0000256768
       -0.0009398564   0.0000205870  -0.0000063156  -0.0005107524   0.0000384879
        0.0000070595  -0.0009870163   0.0002013103   0.0000005109  -0.0023305248
        0.0041077753   0.0002625609   0.0004927491  -0.0003142609  -0.0002780735
        0.0002208404   0.0001552173  -0.0000358350  -0.0000621713   0.0000032778
       -0.0000218203   0.0000080877  -0.0000545265   0.0000370339  -0.0001014747
       -0.0000466116  -0.0000460959   0.0001174190  -0.0000671627   0.0001916374
        0.0001150969  -0.0000363731  -0.0001907765  -0.0001031574  -0.0000519343
        0.0000332147   0.0000052875  -0.0000445300  -0.0000422843  -0.0000666703
       -0.0000038932   0.0000235331   0.0002175863   0.0001491836   0.0000624632
        0.0005055860  -0.0003198554   0.0002119935   0.0003891527  -0.0245519779
       -0.0017571688  -0.2544408830   0.1021019643   0.0050662119   0.0009105781
       -0.0006239264  -0.0000146431  -0.0046500923   0.0029588133   0.0000931981
        0.0000112564  -0.0000159766   0.0000000118  -0.0000405069   0.0000033002
       -0.0000026002   0.0000127963   0.0000627446   0.0000030127  -0.0000099966
        0.0000048251   0.0000022205   0.0000233856   0.0000208080  -0.0000154249
       -0.0000226250   0.0000024812   0.0000034755  -0.0000006083  -0.0000061620
       -0.0000045498   0.0000074900  -0.0000196494   0.0000069858  -0.0000423213
        0.0000566411   0.0000039445  -0.0000387534   0.0000189148   0.0000338159
       -0.0000276778   0.0000104485   0.0000233341   0.0000263414   0.0000274312
        0.0000163004  -0.0000040020   0.0000413256   0.0000044174  -0.0000066163
        0.0000408219   0.0000045772   0.0000201359   0.0000300010  -0.0000168101
       -0.0000320996   0.0000127244  -0.0000197398  -0.0000434540   0.0000102573
       -0.0000242454
       -0.0248928716  -0.3131399778  -0.0185164535  -0.0108082319   0.6385941786
        0.0367637142  -0.0707521522  -0.1713778129  -0.0096198385  -0.0413034489
        0.0487034259   0.0030879901  -0.0276009676  -0.0415600489  -0.0028579004
        0.0867868591  -0.0304267366  -0.0015276479   0.0034564648  -0.0012650252
       -0.0000224975   0.0001665232   0.0010316074   0.0000551360  -0.0004385552
        0.0000203185  -0.0000115124   0.0003402442   0.0004251001  -0.0000022608
        0.0003467124  -0.0001765728  -0.0000412770  -0.0024127730   0.0012668591
        0.0001247650  -0.0003285348  -0.0007525373   0.0000045572  -0.0000563620
        0.0004546819   0.0000606721   0.0010221600   0.0007315274  -0.0000298900
       -0.0019459587   0.0006099017   0.0000897110   0.0012330447  -0.0017997011
       -0.0001872444   0.0011598079   0.0007920673   0.0000550037  -0.0002343881
       -0.0004163174  -0.0000024615  -0.0013950197  -0.0013758962  -0.0001092511
        0.0030299021   0.0006842173   0.0000588734   0.0003902727   0.0001744246
        0.0000090046   0.0001475592  -0.0006533335  -0.0000397396   0.0040069001
        0.0028242962  -0.0001396198   0.0003886224  -0.0009849503  -0.0007692000
        0.0002460369   0.0002383609   0.0001026507  -0.0000761284  -0.0000568698
        0.0000421772   0.0000092579  -0.0000270114   0.0000097489  -0.0001504355
        0.0000383102  -0.0000071436   0.0001995434  -0.0000589080   0.0003009594
        0.0001850370   0.0000051900  -0.0002832140  -0.0001591073   0.0000502888
        0.0000171723   0.0000048220  -0.0000056675  -0.0000001941  -0.0000828352
       -0.0000474182  -0.0000465542   0.0002407070   0.0002708764  -0.0000706491
        0.0004538415  -0.0009916125   0.0005944985  -0.0010340211  -0.0189096674
       -0.0014720200   0.1020092621  -0.0927593811  -0.0032828734  -0.0242866979
       -0.0200891456  -0.0017217778   0.0024189331   0.0001237377  -0.0005821308
       -0.0000781672   0.0000889791   0.0000049665   0.0000441447  -0.0000584480
       -0.0000032833  -0.0000559760  -0.0002004679  -0.0000164973  -0.0000041614
       -0.0001379161  -0.0000325354  -0.0000667104  -0.0001049967   0.0000208196
       -0.0000342836  -0.0000370822  -0.0000070035  -0.0000516274   0.0000448258
       -0.0000015352  -0.0000047146   0.0000575736  -0.0000315472  -0.0000247426
        0.0000328770  -0.0000104360   0.0000189068   0.0000091247  -0.0000118767
       -0.0000571640   0.0000128314   0.0000181215   0.0000428622   0.0000095015
        0.0000035585  -0.0000027437   0.0000332904   0.0000186711  -0.0000044478
        0.0000388201   0.0000049019   0.0000391785   0.0000215167   0.0000034887
       -0.0000603847   0.0000288647  -0.0000085544   0.0000160069  -0.0000040728
        0.0000154586
       -0.0022051021  -0.0177343891  -0.0501637944   0.0045057448   0.0367637142
        0.1171437490  -0.0069142971  -0.0103400574  -0.0466775589  -0.0037016873
        0.0036589213   0.0008856802  -0.0019491850  -0.0028574941  -0.0061236961
        0.0064147827  -0.0020758765   0.0016570826   0.0002260864  -0.0000532399
       -0.0001634962   0.0000135570   0.0000723589   0.0000096439  -0.0000205752
       -0.0000008109   0.0000107033   0.0000187020   0.0000327382   0.0000084283
        0.0000224249  -0.0000181459  -0.0000167392  -0.0001664380   0.0000747898
        0.0000050706  -0.0000172211  -0.0000563637   0.0000058990  -0.0000067327
        0.0000298797   0.0000041789   0.0000713430   0.0000496922   0.0000020819
       -0.0001324314   0.0000368699   0.0000064638   0.0000853388  -0.0001295751
       -0.0000028861   0.0000777104   0.0000549617   0.0000080603  -0.0000131619
       -0.0000299702   0.0000118603  -0.0001044284  -0.0001076365  -0.0000089376
        0.0002121252   0.0000739366   0.0000169764   0.0000206649   0.0000224463
       -0.0000572595  -0.0000185065  -0.0000761334   0.0001375658   0.0001990598
       -0.0002201404   0.0064965065   0.0006418336   0.0005398697  -0.0000337142
       -0.0000273811   0.0000753916   0.0000685299  -0.0000481049  -0.0000149831
       -0.0000142051   0.0000023155   0.0000327847  -0.0000121351  -0.0000578102
        0.0000506403  -0.0000170595  -0.0000519939   0.0001107987   0.0001200056
        0.0000834990  -0.0001210656   0.0000466413   0.0000392105  -0.0000404166
       -0.0000239523  -0.0000044967  -0.0000354463  -0.0000179468   0.0000344761
        0.0000121031  -0.0000151958   0.0000616728  -0.0000418148   0.0000416887
       -0.0005406511  -0.0006633485  -0.0000444930  -0.0000729922  -0.0017027571
        0.0007268556   0.0050557582  -0.0032772263  -0.0331181052  -0.0017602207
       -0.0015135185   0.0008562170   0.0000540976  -0.0005549746   0.0081887849
       -0.0000068152   0.0000052718   0.0000191828   0.0000027288  -0.0000049085
        0.0000173975  -0.0000045949  -0.0000148327  -0.0000072985   0.0000001897
       -0.0000109924  -0.0000113454  -0.0000048312  -0.0000096490  -0.0000031654
       -0.0000023955  -0.0000052338   0.0000049049  -0.0000037884  -0.0000001492
        0.0000127458  -0.0000018013   0.0000015707   0.0000112809  -0.0000021806
        0.0000017929   0.0000028814   0.0000246715  -0.0000194213   0.0000126295
        0.0000016263   0.0000161412   0.0000083261   0.0000119957   0.0000191112
       -0.0000096262  -0.0000051837   0.0000199233  -0.0000067451   0.0000063337
       -0.0000099168  -0.0000104452  -0.0000042269  -0.0000130267  -0.0000124885
       -0.0000125240  -0.0000136330   0.0000035141  -0.0000261900   0.0000114400
        0.0000207523
        0.0339552273  -0.0769248079  -0.0052585490  -0.2545353428  -0.0707521522
       -0.0069142971   0.6452671496   0.0114051537   0.0058770897  -0.2701042467
        0.0552765945   0.0018431482   0.0071518936   0.0800826465   0.0058977811
       -0.0547771902  -0.0002806326  -0.0005198262   0.0040695027  -0.0064851410
       -0.0004545066   0.0012271991   0.0009624078   0.0000406780  -0.0016323437
        0.0003130168   0.0000158852   0.0005679655   0.0005335516   0.0000311096
       -0.0005692001   0.0001473825   0.0000028741  -0.0011400898   0.0012691849
        0.0001048330  -0.0004095813  -0.0007815815  -0.0000370358   0.0001459657
        0.0003509321   0.0000390685   0.0004907676   0.0001163742  -0.0000187192
       -0.0009554321   0.0003050172   0.0000338906   0.0006073014  -0.0010708340
       -0.0001101502   0.0007286603   0.0006830208   0.0000389201  -0.0004187330
       -0.0001175608   0.0000045164  -0.0002499119  -0.0003747032  -0.0000302978
        0.0012678222  -0.0002470220  -0.0000297532  -0.0006386453   0.0007245508
        0.0000694520  -0.0035776158  -0.0044049229  -0.0003609399  -0.0324519418
       -0.0015012479  -0.0005599547  -0.0013483922   0.0018969566   0.0018607154
       -0.0004748648  -0.0004578209   0.0001614792   0.0001544061  -0.0000156557
       -0.0000804483  -0.0000173965   0.0001792244  -0.0000877757   0.0001771510
        0.0001624808   0.0003329978  -0.0003103248   0.0002679077  -0.0002748379
       -0.0003214753   0.0002342989   0.0003215649   0.0001691090   0.0002238587
       -0.0002901980  -0.0000203705   0.0001599115   0.0001131317   0.0001412463
       -0.0000241096   0.0000743145  -0.0002084953  -0.0003145513  -0.0002782208
       -0.0013629221   0.0021614507  -0.0014681607   0.0010894948   0.0006403140
       -0.0000073007  -0.0258867339  -0.0139993483  -0.0012999962  -0.0454404010
        0.0197631404   0.0012531815  -0.0004308322  -0.0001194104   0.0000040336
        0.0000056967  -0.0000312455  -0.0000055612   0.0000458912  -0.0000218187
        0.0000020531  -0.0000106601  -0.0000141560  -0.0000010752   0.0000197331
       -0.0000212893  -0.0000151587  -0.0000105350  -0.0000001646   0.0000089431
        0.0000163103  -0.0000081618   0.0000012497   0.0000119672  -0.0000094382
       -0.0000047891  -0.0000022138  -0.0000167311  -0.0000137491   0.0001620232
        0.0001382592   0.0000133920  -0.0001155149   0.0000836782  -0.0002316046
        0.0000919295  -0.0000478561  -0.0000511730  -0.0000653545   0.0000128214
       -0.0000232353  -0.0000183752  -0.0000162490  -0.0000621014  -0.0000186225
       -0.0000259977   0.0000621816  -0.0000664767   0.0000126834   0.0000152626
        0.0000852005  -0.0000520355   0.0000478685  -0.0000593783   0.0000298262
        0.0002178002
       -0.0204867666  -0.0432647923  -0.0034402311  -0.1517058917  -0.1713778129
       -0.0103400574   0.0114051537   0.6677882663   0.0399127084   0.1264371894
       -0.1339621049  -0.0050756969   0.0284145791  -0.0233285586  -0.0013760857
       -0.0050701978   0.0034254731   0.0004219823   0.0015055440  -0.0083162668
       -0.0010827872  -0.0001196470   0.0003422606   0.0000232572   0.0000395764
       -0.0000398537   0.0000395512   0.0000557626  -0.0000355262   0.0000024604
       -0.0000382665   0.0000240047  -0.0000062271  -0.0007111788  -0.0000403275
        0.0000135686   0.0000931293   0.0001604306   0.0000230429  -0.0001968648
        0.0000554999   0.0000071252   0.0002448719   0.0002375409   0.0000010598
       -0.0003533982   0.0001523717   0.0000237353   0.0002928895  -0.0002317654
       -0.0000258059   0.0002022213  -0.0000164289   0.0000056273   0.0000808975
       -0.0001360498  -0.0000058824  -0.0003227725  -0.0003686818  -0.0000260166
        0.0005438783   0.0003257063   0.0000348328  -0.0008433006   0.0006215807
        0.0000421983  -0.0025236962  -0.0020277425  -0.0002763241  -0.0130696330
        0.0071924350   0.0004100741  -0.0012663483   0.0003348385  -0.0000469613
       -0.0002341772  -0.0000079028  -0.0002085320   0.0001202651   0.0000366677
        0.0000275175   0.0000334506  -0.0001197861  -0.0000151903   0.0001594965
       -0.0000297229  -0.0000261664  -0.0001722488  -0.0001982817  -0.0000174008
       -0.0001947906  -0.0001946744   0.0000122674   0.0001579565  -0.0000335975
        0.0000132371   0.0000345923  -0.0001246449  -0.0000147975   0.0001219501
        0.0000511760  -0.0000374196  -0.0001595189  -0.0000102877   0.0001655462
       -0.0013805045   0.0003056478   0.0000149195   0.0002296827  -0.0059196927
       -0.0009258304   0.0096642093   0.0063950073   0.0005133242   0.0194290702
       -0.2981275840  -0.0187795700  -0.0000191098   0.0008156130   0.0000756593
       -0.0000625197   0.0000861264   0.0000059191   0.0000212941  -0.0000338117
       -0.0000100209   0.0000141444  -0.0000953076  -0.0000044208  -0.0000161157
       -0.0000786151  -0.0000106060  -0.0000324656  -0.0000901118   0.0000054895
       -0.0000534244  -0.0000230834  -0.0000043043  -0.0000604699   0.0000526968
        0.0000079792   0.0000055342   0.0000637010  -0.0000024133  -0.0000311868
        0.0000531982  -0.0000005432  -0.0000158320  -0.0000844975   0.0000937341
       -0.0000025909   0.0000026294  -0.0000166502  -0.0000336526  -0.0000273772
       -0.0000220907  -0.0000485654  -0.0000445794  -0.0000018784  -0.0000463648
       -0.0000461093  -0.0000080495  -0.0000293360  -0.0000334053   0.0000175880
       -0.0000048168  -0.0000017096   0.0000122378  -0.0000016862  -0.0000521780
       -0.0001186830
       -0.0011947586  -0.0039517624   0.0012070405  -0.0127994086  -0.0096198385
       -0.0466775589   0.0058770897   0.0399127084   0.1176903684   0.0069553633
       -0.0057230974  -0.0470209199   0.0021520275  -0.0008710540  -0.0013498628
       -0.0008376319   0.0004749482  -0.0036647135   0.0001048996  -0.0011787070
        0.0066684872   0.0000029471   0.0000776893  -0.0000161284  -0.0000025727
        0.0000383119  -0.0005414095  -0.0000007533   0.0000251331  -0.0000776947
        0.0000150581  -0.0000115411   0.0000588685  -0.0000989526  -0.0000055756
       -0.0001707994   0.0000239492   0.0000000643   0.0000638884  -0.0000215965
        0.0000011181   0.0000359103   0.0000278298   0.0000327065  -0.0000793244
       -0.0000409455   0.0000066749  -0.0000128631   0.0000289198  -0.0000306207
       -0.0000171325   0.0000200410   0.0000132479  -0.0000156361   0.0000104394
       -0.0000125955   0.0000949535  -0.0000499104  -0.0000591578   0.0000161001
        0.0000841025   0.0000678139  -0.0000204855  -0.0000830456   0.0000460415
        0.0001515942  -0.0001886866  -0.0003359744   0.0011455315  -0.0013413353
        0.0005771242  -0.0002283498  -0.0005834490  -0.0001627159   0.0004447131
       -0.0001878165  -0.0001367504   0.0000822917  -0.0000204357   0.0000918117
        0.0001575699   0.0000012948  -0.0000329535   0.0000696010  -0.0000077946
        0.0000255035   0.0000301631  -0.0001102737   0.0000531718  -0.0002865611
        0.0000824992  -0.0000345656  -0.0002980544   0.0000389290  -0.0000273189
        0.0000193137  -0.0000019772   0.0000030764   0.0000747639   0.0000417996
       -0.0001168516   0.0001399723   0.0001009280   0.0000899541   0.0000538102
        0.0004085704   0.0001673441   0.0004364214  -0.0000398181  -0.0009237238
        0.0069437923   0.0004321945   0.0002735700   0.0007244403   0.0012546315
       -0.0187848320  -0.0357024473  -0.0000022647   0.0000756312  -0.0002435446
       -0.0000050790   0.0000053510   0.0000357590   0.0000115072  -0.0000073739
        0.0001445575  -0.0000030371  -0.0000078257  -0.0000398870  -0.0000008369
       -0.0000051315  -0.0000214470  -0.0000033334  -0.0000074014   0.0000139846
       -0.0000025734  -0.0000008911   0.0000025501  -0.0000036785   0.0000043304
       -0.0000069535  -0.0000019700   0.0000072938  -0.0000310291   0.0000016548
        0.0000067533  -0.0000259572  -0.0000014442   0.0000021195   0.0000384307
       -0.0000126786   0.0000040575  -0.0000002741   0.0000152080  -0.0000038050
       -0.0000011542   0.0000044901  -0.0000249547  -0.0000220932  -0.0000129008
        0.0000230765  -0.0000171158  -0.0000222033  -0.0000002949   0.0000037204
        0.0000127461  -0.0000043452   0.0000032463  -0.0000259574  -0.0000249676
        0.0000375529
       -0.0169129574   0.0330725944   0.0022839251  -0.0700800754  -0.0413034489
       -0.0037016873  -0.2701042467   0.1264371894   0.0069553633   0.6189554451
       -0.0296380781   0.0029401502  -0.0792531378  -0.0286370976  -0.0022963066
        0.0279158730  -0.0202936775  -0.0012118013  -0.0187067680   0.0450804620
        0.0030637626   0.0047728661  -0.0017590563  -0.0000840452  -0.0004321080
       -0.0006204419  -0.0000410054   0.0001931029  -0.0002539211  -0.0000421100
       -0.0012906801  -0.0005966080  -0.0000167499  -0.0001922313  -0.0001839050
        0.0000003893   0.0000543650   0.0001669013   0.0000254304  -0.0000475700
       -0.0000323227   0.0000128092   0.0000072181   0.0002370426  -0.0000048417
       -0.0001015057   0.0000953450  -0.0000015462   0.0001370991  -0.0000165023
       -0.0000188485   0.0000761028  -0.0001585326  -0.0000015527   0.0001644792
       -0.0001241189  -0.0000062663  -0.0003345916  -0.0003117745  -0.0000272849
        0.0001290829   0.0005359200   0.0000445508  -0.0034833357   0.0021448308
        0.0001428843  -0.0303475936  -0.0082805688  -0.0008390543  -0.1463639188
       -0.0542140766  -0.0049213560  -0.0014911666  -0.0110592586  -0.0092318144
        0.0003139795   0.0008280843   0.0014311941  -0.0000521602  -0.0005674771
       -0.0000668771   0.0000109373   0.0001034871  -0.0000793092  -0.0001922656
       -0.0001088543  -0.0002146942  -0.0006879085   0.0006600932   0.0003721196
       -0.0007153034   0.0006812393  -0.0002123159  -0.0001885011  -0.0001465789
        0.0001703893   0.0000087383   0.0000838110   0.0000938095  -0.0000487903
       -0.0005735738  -0.0000419398   0.0003930166   0.0011542257  -0.0012781133
       -0.0015976981  -0.0124230829   0.0070695080   0.0002818087   0.0007951342
        0.0000641852  -0.0034227746  -0.0029506334  -0.0003236707  -0.0038481591
        0.0045910076   0.0003304736  -0.0037859497  -0.0032489810  -0.0003303566
        0.0003400384  -0.0002767324  -0.0000132228  -0.0000085514  -0.0000615761
       -0.0000009247  -0.0000291429  -0.0000555778  -0.0000085652  -0.0000251271
       -0.0000747907  -0.0000188005  -0.0000220894  -0.0000699046  -0.0000010439
       -0.0000529631  -0.0000232444   0.0000052362  -0.0000578655   0.0000384156
        0.0000014181   0.0000075847   0.0000331791  -0.0000060626   0.0000461885
        0.0000773206  -0.0000094167  -0.0000169781   0.0000776296  -0.0000757631
       -0.0000620303   0.0001253284   0.0002691881   0.0000626718   0.0001293483
        0.0001141927  -0.0000016023   0.0002499128   0.0000991900  -0.0000001994
        0.0002564618  -0.0000554425   0.0000579230   0.0001429403  -0.0001076582
       -0.0000617931   0.0001624164  -0.0002406885   0.0000912188   0.0001040760
        0.0000409664
        0.0262585856  -0.0319912303  -0.0017689544   0.0185510580   0.0487034259
        0.0036589213   0.0552765945  -0.1339621049  -0.0057230974  -0.0296380781
        0.6138212794   0.0346196047   0.0243416657  -0.2775864816  -0.0161580474
       -0.0577548384  -0.0353525944  -0.0032001356   0.0288974970  -0.0399862106
       -0.0030114560  -0.0003546322   0.0035063150   0.0003038339  -0.0033894829
        0.0008233916   0.0000008850   0.0014258290   0.0020680163   0.0000415234
       -0.0006938091   0.0001298574  -0.0000990616  -0.0055531091   0.0034432626
        0.0003398554  -0.0011725536  -0.0025891379  -0.0000024824   0.0002563134
        0.0011949729   0.0001775079   0.0024852435   0.0020280351  -0.0000839021
       -0.0051278498   0.0016084785   0.0002255242   0.0033988808  -0.0050567380
       -0.0005293342   0.0034487638   0.0024233778   0.0001802957  -0.0009477149
       -0.0009680253   0.0000293171  -0.0033296944  -0.0039971563  -0.0003205544
        0.0078578758   0.0026682554   0.0002332462   0.0054856403  -0.0014827454
       -0.0002165934   0.0056443558   0.0059174477   0.0006072205  -0.0699383116
       -0.0950493965  -0.0037913195  -0.0132752309  -0.0170425082  -0.0103335684
        0.0002129335   0.0007500635   0.0008804437   0.0005960961  -0.0003471444
       -0.0000067834  -0.0000080913  -0.0000860476   0.0001151113   0.0005607667
       -0.0005338621  -0.0004287284  -0.0000220759  -0.0010555994  -0.0003725334
        0.0000441554  -0.0014204554   0.0005516179   0.0007134796  -0.0006663882
        0.0003310905  -0.0000180370  -0.0000863792  -0.0001422928   0.0007324817
       -0.0003017781  -0.0000728559   0.0002948891   0.0008213023  -0.0007337092
       -0.0159856835  -0.0208496169   0.0070819587   0.0004688459  -0.0002243971
        0.0000142911  -0.0032855733  -0.0010623706  -0.0006839003   0.0274705411
       -0.0167888423  -0.0010347723  -0.0023651496  -0.0010900740  -0.0005779262
       -0.0001189958   0.0002580731   0.0000338968   0.0001813671  -0.0002756584
        0.0000131377  -0.0001982046  -0.0006679895  -0.0000619742   0.0000100536