$hessian                                                                        
        0.0670346608  -0.1046638736  -0.0226202136  -0.0692267096   0.0919793502
        0.0199429760  -0.0005474071   0.0211852576   0.0047094313   0.0014940627
        0.0019141916   0.0006014608   0.0014501174   0.0007961880   0.0002527598
        0.0003830512   0.0003688590   0.0000875370  -0.0009468428   0.0008892897
       -0.0002202865  -0.0051522680  -0.0006490763  -0.0009368846   0.0067594707
       -0.0079581089  -0.0017569443   0.0007603791  -0.0001151996  -0.0004279364
       -0.0004346876   0.0001966938  -0.0007866069   0.0000210690  -0.0002166124
       -0.0002287149  -0.0010917407  -0.0002071353   0.0001764464  -0.0001788525
       -0.0003767257   0.0013475032   0.0062537356  -0.0027046263   0.0018384007
        0.0000209966  -0.0002738059  -0.0007807076   0.0003365051   0.0000042279
       -0.0001664042   0.0000146658  -0.0000121657  -0.0000464844   0.0004425829
        0.0000944305  -0.0001691203  -0.0019047923   0.0019691264   0.0043331151
       -0.0029072299  -0.0037600835  -0.0036959329   0.0015619717   0.0006770173
       -0.0004636845  -0.0002785987  -0.0000763200  -0.0000379900  -0.0000294069
        0.0000031771   0.0000446762   0.0000325850  -0.0000103909   0.0000150717
        0.0000115133  -0.0000175847  -0.0000152520  -0.0000480985   0.0000298258
        0.0000092849  -0.0000262666   0.0000132494   0.0000267772   0.0000415886
        0.0000124373  -0.0000134816  -0.0000303112  -0.0000220862   0.0000162403
        0.0000055130  -0.0000072713  -0.0000043615  -0.0000015882  -0.0000002010
       -0.0000110054  -0.0000094768  -0.0000042677   0.0000004005   0.0000123076
       -0.0000165822   0.0000037106  -0.0000239207   0.0000138663   0.0000018395
        0.0000243830  -0.0000024382  -0.0000009942  -0.0000071967  -0.0000043097
       -0.0000020407   0.0000014160   0.0000020177   0.0000005197   0.0000007097
        0.0000004708  -0.0000004510  -0.0000007551  -0.0000029327  -0.0000007570
       -0.0000012979   0.0000089065   0.0000004297  -0.0000047569  -0.0000029192
       -0.0000019203   0.0000030087   0.0000020373   0.0000003249  -0.0000110836
       -0.0000006380  -0.0000021210   0.0000028365   0.0000015263   0.0000011419
        0.0000057522   0.0000004226   0.0000029085  -0.0000026874  -0.0000031048
       -0.0000000584   0.0000001823   0.0000079283  -0.0000038556  -0.0000008518
        0.0000048737  -0.0000033370  -0.0000100973   0.0000176486  -0.0000198867
       -0.0000066446   0.0000002820   0.0000119041  -0.0000019263  -0.0000031057
       -0.0000043790  -0.0000016862  -0.0000009852  -0.0000058422   0.0000031931
        0.0000013330   0.0000040024   0.0000008350  -0.0000030224   0.0000012009
        0.0000021184  -0.0000011809   0.0000032798   0.0000005303   0.0000032799
       -0.0000057800   0.0000014267  -0.0000003715   0.0000045305  -0.0000009261
       -0.0000045309   0.0000044151  -0.0000081776  -0.0000015704  -0.0000056160
        0.0000037513   0.0000147769   0.0000135325  -0.0000162420  -0.0000301879
       -0.0000283252  -0.0000131421  -0.0000292392   0.0000059881   0.0000456430
       -0.0000550148   0.0000624965  -0.0002954240   0.0000322281  -0.0000689904
        0.0013069467  -0.0004390674   0.0004046018  -0.0005806171   0.0004249396
       -0.0000356417  -0.0003176466   0.0001386949   0.0003502297  -0.0003430508
        0.0006011399   0.0000476185  -0.0002786701   0.0002273909  -0.0003592184
       -0.0002096709  -0.0001177394  -0.0002512134  -0.0001534370  -0.0003278797
       -0.0000594838  -0.0006168879  -0.0002348920   0.0002554195  -0.0001142359
       -0.0000148012  -0.0002049513   0.0001593535   0.0006008740   0.0004146561
       -0.0004028102  -0.0000268199  -0.0001469334   0.0000500301  -0.0000247404
       -0.0000290567   0.0000606417   0.0000121078  -0.0000028707   0.0000337004
       -0.0000346678  -0.0000363137  -0.0011163686   0.0012688361   0.0000200356
        0.0000001380  -0.0001243606  -0.0000001097  -0.0002333483   0.0000976280
        0.0000090549  -0.0005794757   0.0003284158  -0.0000597809  -0.0001614051
        0.0000306371   0.0000414331  -0.0002584568  -0.0006983108  -0.0000861074
        0.0000289911   0.0000299215  -0.0000162951   0.0001231514  -0.0001119118
        0.0000749433  -0.0001522756  -0.0001237959   0.0000233766   0.0001992049
       -0.0003236481   0.0000022871   0.0000912808  -0.0001725631  -0.0003904405
       -0.0000199076  -0.0000019551  -0.0000989858   0.0000036251  -0.0000299157
       -0.0000192428   0.0000680771   0.0000387461   0.0001542307   0.0000259559
       -0.0000097120   0.0000133918  -0.0000291877  -0.0000349665   0.0000096162
        0.0000189377   0.0000101917   0.0000123766  -0.0000029116  -0.0000092267
       -0.0000064952   0.0000061247  -0.0000018752   0.0000092182   0.0000074650
       -0.0000018788   0.0000008054   0.0000053532   0.0000023971   0.0000002355
        0.0000015423  -0.0000018163  -0.0000009223  -0.0000005767  -0.0000001669
       -0.0000011090   0.0000019274   0.0000005847  -0.0000004786  -0.0000002772
        0.0000003285  -0.0000010235   0.0000027570  -0.0000011902  -0.0000006622
        0.0000022970  -0.0000069292  -0.0000022053   0.0000032875   0.0000037969
       -0.0000010901   0.0000004180   0.0000007620   0.0000019344   0.0000043448
       -0.0000008352   0.0000001884   0.0000059302  -0.0000004513  -0.0000083654
        0.0000043765   0.0000036720  -0.0000010171   0.0000015975  -0.0000007141
        0.0000019337   0.0000014256  -0.0000022085  -0.0000012795   0.0000022831
       -0.0000013376   0.0000017790   0.0000015677  -0.0000013403  -0.0000018539
        0.0000037633   0.0000020464  -0.0000005532   0.0000070168  -0.0000013831
        0.0000067911  -0.0000007290   0.0000078688   0.0000058671   0.0000277289
       -0.0000047664  -0.0000208009  -0.0000167258   0.0000082257  -0.0000076665
        0.0001709954  -0.0000029214  -0.0000430975   0.0000886911  -0.0000896010
        0.0000252664   0.0001271247   0.0000234226   0.0000990839   0.0001276924
        0.0001113454  -0.0000133165   0.0000897617   0.0000041323  -0.0000975833
       -0.0008140928  -0.0000474131  -0.0006511199   0.0000822398   0.0000325469
       -0.0001064388   0.0000009875   0.0000052495  -0.0001117419  -0.0000124751
        0.0000110773  -0.0000594495  -0.0000449620  -0.0000064283  -0.0000393985
       -0.1046638736   0.5484439740   0.1166523082   0.0948492333  -0.5069741196
       -0.0997589917   0.0040823314  -0.0123134164  -0.0039929422  -0.0017135980
       -0.0024527659  -0.0003388684  -0.0004916645   0.0004450145   0.0003678525
       -0.0005903231   0.0003716523  -0.0000670531  -0.0001335096  -0.0008087327
        0.0002916746   0.0051135879   0.0007909891   0.0003079428   0.0031264067
       -0.0175398525  -0.0059190724   0.0004145603  -0.0013284711  -0.0033837659
       -0.0001097458   0.0006588804  -0.0007883026   0.0003414066   0.0005514224
       -0.0003100078  -0.0008397993  -0.0006577804  -0.0007881693  -0.0020610234
       -0.0023792870   0.0057680339   0.0019113456  -0.0071863149  -0.0079736574
       -0.0031918712  -0.0013575871  -0.0010261146  -0.0000517331   0.0006137018
       -0.0009269939   0.0006101166   0.0000486652   0.0003527992  -0.0000402943
        0.0011463563   0.0004293649   0.0039691102  -0.0021903969  -0.0032880289
       -0.0030233639   0.0009092331   0.0020697683   0.0015652543  -0.0002087679
       -0.0000216284  -0.0002772942  -0.0000260259  -0.0000950228   0.0001917228
        0.0001340812  -0.0000231501   0.0000164492   0.0002649666   0.0000029100
        0.0000113613   0.0000241403  -0.0000098553  -0.0000432023   0.0000715123
        0.0000194476  -0.0000180499   0.0000180918   0.0000230966   0.0000259470
        0.0000199851   0.0000125955  -0.0000235879  -0.0000148854   0.0000117232
        0.0000052004  -0.0000079776  -0.0000089285  -0.0000083888   0.0000113065
        0.0000018761  -0.0000048050  -0.0000006356   0.0000093059  -0.0000019847
       -0.0000021132  -0.0000004012   0.0000036992   0.0000077020  -0.0000009914
       -0.0000040466   0.0000030711   0.0000011376   0.0000002931   0.0000020760
        0.0000004294  -0.0000010726   0.0000008821   0.0000002906  -0.0000005199
        0.0000102291   0.0000023299  -0.0000003318   0.0000023863   0.0000011343
        0.0000041477  -0.0000003467   0.0000018595  -0.0000005504   0.0000054131
        0.0000014156   0.0000031246   0.0000063797   0.0000015634   0.0000100157
       -0.0000003903   0.0000014921  -0.0000061859  -0.0000000330  -0.0000024220
        0.0000067674   0.0000088468   0.0000008361   0.0000015635  -0.0000108959
        0.0000024211   0.0000016394   0.0000100710  -0.0000011454  -0.0000076861
        0.0000025138   0.0000036520  -0.0000075428   0.0000073318  -0.0000125371
       -0.0000136870  -0.0000116709  -0.0000013167  -0.0000071999   0.0000052518
       -0.0000049082  -0.0000052052   0.0000031391  -0.0000002384  -0.0000057473
        0.0000042021   0.0000003979  -0.0000010139  -0.0000009200   0.0000027945
       -0.0000014363   0.0000018382   0.0000011815  -0.0000066575   0.0000048453
       -0.0000023415  -0.0000050229   0.0000058525  -0.0000016203  -0.0000043942
        0.0000029795   0.0000045986  -0.0000115979  -0.0000100775   0.0000041454
       -0.0000004567   0.0000073876   0.0000057904  -0.0000008899  -0.0000042685
       -0.0000167185  -0.0000184280  -0.0000649410  -0.0000403433   0.0000300363
       -0.0000072672   0.0000178060   0.0002090479   0.0001179105   0.0000330554
       -0.0016050503  -0.0006392615  -0.0000204807   0.0004307402  -0.0001868063
       -0.0001065857   0.0001864911  -0.0001305191  -0.0003206811  -0.0001251279
       -0.0006925865  -0.0000403803   0.0002042644  -0.0003339163   0.0004379534
        0.0005068543   0.0000566919   0.0003614678   0.0005944339   0.0004650121
       -0.0000307816   0.0005722247   0.0003585471  -0.0005135725   0.0003073283
        0.0001514932   0.0003174740   0.0000071433  -0.0005007542  -0.0007507328
        0.0003038562  -0.0000101542   0.0004741548   0.0000683733   0.0000481134
        0.0000897989   0.0000894018   0.0000037439   0.0000376893   0.0001719006
        0.0000442062   0.0003247773   0.0001057123   0.0016835527   0.0001865689
        0.0003840494   0.0001647793   0.0000546329   0.0001906906   0.0000925518
       -0.0000682582   0.0005312042  -0.0002732953   0.0001152108  -0.0002718565
        0.0009873572  -0.0001016342   0.0001505507   0.0001690230   0.0008130092
       -0.0001360510  -0.0000724119   0.0004210243   0.0000687501  -0.0002003559
        0.0002596912  -0.0004156648  -0.0006479817   0.0003031877   0.0003866250
        0.0005377481   0.0003634737  -0.0004081601  -0.0003655650   0.0003230050
        0.0000139627  -0.0000413072  -0.0004999050  -0.0000449892  -0.0002705234
       -0.0001172668  -0.0003282044  -0.0001853641  -0.0002315372   0.0001455917
        0.0000767999   0.0000620563   0.0000093263  -0.0000630072   0.0000203020
        0.0000332743  -0.0000202170  -0.0000063442   0.0000051895  -0.0000192816
       -0.0000067355   0.0000013552  -0.0000180971   0.0000033354  -0.0000033523
       -0.0000019486  -0.0000036501  -0.0000010258  -0.0000011580   0.0000011456
       -0.0000009848   0.0000013653   0.0000009603  -0.0000000719   0.0000005346
        0.0000012530  -0.0000014736  -0.0000005947   0.0000009418  -0.0000003607
       -0.0000020682   0.0000013090  -0.0000033001   0.0000008833   0.0000014102
       -0.0000029365  -0.0000004204   0.0000026771  -0.0000060136  -0.0000140235
       -0.0000003939  -0.0000015612  -0.0000042523   0.0000012129   0.0000039817
       -0.0000039482  -0.0000034455   0.0000014183  -0.0000053630   0.0000002136
        0.0000007910  -0.0000071459   0.0000004185  -0.0000001165  -0.0000022668
       -0.0000015835  -0.0000001163  -0.0000030203   0.0000002097  -0.0000002371
       -0.0000009683   0.0000001934  -0.0000014979  -0.0000014087   0.0000014579
       -0.0000018959  -0.0000040981  -0.0000012685  -0.0000001472  -0.0000028917
       -0.0000007732  -0.0000186246  -0.0000040161   0.0000066867  -0.0000104821
       -0.0000054350   0.0000094292  -0.0001253365  -0.0000142425   0.0000028425
       -0.0000812537   0.0001485749   0.0000564749  -0.0001709449   0.0000709722
       -0.0000821663  -0.0002253193   0.0000275853   0.0000176428  -0.0002330867
        0.0000387392   0.0001015175  -0.0002576951   0.0000379747   0.0001066786
       -0.0001938236   0.0005292838   0.0001769836   0.0000147941  -0.0000266321
       -0.0003125583  -0.0000066224  -0.0000416627   0.0000825913   0.0000271613
       -0.0000370948   0.0000327969   0.0000593613  -0.0000238089   0.0000413818
       -0.0226202136   0.1166523082   0.0659974792   0.0231374198  -0.1078970848
       -0.0757426519  -0.0002803673  -0.0005245269   0.0057030473  -0.0004875263
       -0.0002330797   0.0003663431   0.0002329614   0.0002589313  -0.0004437508
       -0.0000520180   0.0002495309   0.0000375162  -0.0002910252  -0.0000780754
       -0.0007244469   0.0003661098  -0.0003326766   0.0008610049  -0.0031986946
        0.0075385947   0.0062914355  -0.0008815589  -0.0004231639   0.0008039456
       -0.0003025088   0.0001323753   0.0010538987   0.0000407597   0.0002500592
        0.0002125459   0.0003910784   0.0004994013  -0.0000321996   0.0011849733
        0.0008123044  -0.0011671047   0.0042815302  -0.0209931296  -0.0009989046
       -0.0029639684  -0.0005800264   0.0002712672  -0.0004711811   0.0016809822
       -0.0014517596   0.0007449901  -0.0001540293   0.0000738418   0.0004204726
        0.0018758238   0.0003237018   0.0041278626  -0.0008066098  -0.0015496077
       -0.0032593405  -0.0008432111   0.0019424867   0.0014397870   0.0002006070
       -0.0002743177  -0.0003229261  -0.0001276311   0.0000789347   0.0000911945
        0.0000292508   0.0000218459   0.0000036257   0.0000731417  -0.0000536159
        0.0000142730   0.0000074038  -0.0000065125  -0.0000326082   0.0000374930
        0.0000253701  -0.0000210258   0.0000124391   0.0000303571   0.0000308003
        0.0000221650  -0.0000075121  -0.0000225711  -0.0000164724   0.0000157702
        0.0000043591  -0.0000117827  -0.0000054830  -0.0000043410   0.0000025355
        0.0000011913  -0.0000054440  -0.0000005003   0.0000034415   0.0000014731
       -0.0000061615   0.0000001287  -0.0000045089   0.0000053472   0.0000118359
        0.0000021216   0.0000014784  -0.0000052248  -0.0000029402  -0.0000008493
        0.0000030114  -0.0000017593   0.0000009264   0.0000014828  -0.0000011809
        0.0000026719   0.0000017753  -0.0000019930   0.0000005514   0.0000017336
       -0.0000003638   0.0000015312   0.0000009049  -0.0000023564   0.0000014543
        0.0000002260   0.0000006927   0.0000009812   0.0000006848  -0.0000014401
        0.0000000665   0.0000023624  -0.0000028060   0.0000001153   0.0000022066
       -0.0000003776   0.0000010193   0.0000065466  -0.0000002310  -0.0000037644
       -0.0000050554  -0.0000001213   0.0000037928   0.0000010632  -0.0000029032
        0.0000060969   0.0000025919  -0.0000121819   0.0000161470  -0.0000144119
       -0.0000040239  -0.0000092256   0.0000094987   0.0000008866  -0.0000022741
       -0.0000057555   0.0000013653   0.0000027006   0.0000031426  -0.0000003431
       -0.0000030585   0.0000064026  -0.0000020067  -0.0000006838   0.0000015970
       -0.0000005644  -0.0000006928   0.0000014983  -0.0000023053   0.0000041704
        0.0000018914  -0.0000014168  -0.0000039260   0.0000061582  -0.0000046187
       -0.0000008068   0.0000019761  -0.0000089766  -0.0000044712   0.0000035731
       -0.0000008172   0.0000097879   0.0000098420  -0.0000059227  -0.0000153440
       -0.0000146050  -0.0000199166  -0.0000690047  -0.0000090464   0.0000037351
       -0.0000872030   0.0000608081  -0.0002041465   0.0000836816   0.0003582440
        0.0003332928  -0.0004786918  -0.0013398088  -0.0002613139   0.0001764638
        0.0003102873  -0.0000423659   0.0000745058  -0.0000815961   0.0000813394
       -0.0002845079  -0.0002097386   0.0002667471  -0.0002670134   0.0001802023
        0.0003266282   0.0001216855   0.0001555956   0.0001773960   0.0002430626
       -0.0000022481   0.0000635264   0.0000374140  -0.0002727699   0.0000409754
        0.0001272026  -0.0001246436   0.0000071177   0.0007323686   0.0005831602
       -0.0003368754   0.0000858013  -0.0001558329   0.0000986601  -0.0000371267
        0.0001582924  -0.0000484897  -0.0000066914   0.0001765121  -0.0000685794
       -0.0000445018   0.0000830878  -0.0001102576   0.0005713087  -0.0002289163
        0.0000589059   0.0000132329   0.0000353886  -0.0000188486   0.0000231118
        0.0001134801   0.0000522172   0.0000226024  -0.0001196002  -0.0001078848
        0.0002218370   0.0003003262   0.0002886812   0.0013871682   0.0006375405
       -0.0000618132  -0.0000961113   0.0000863129   0.0000352051   0.0001326586
       -0.0000254922   0.0000686299   0.0002221204  -0.0000833248   0.0000519717
        0.0004771039   0.0000165503  -0.0000922251  -0.0006396550   0.0002135594
        0.0000111127   0.0000038813  -0.0004199359  -0.0000491546  -0.0004399805
       -0.0000319047  -0.0001892251  -0.0000280535  -0.0001410417   0.0000432857
        0.0000310338  -0.0001217944  -0.0000346131  -0.0000375343   0.0000030749
        0.0000206322   0.0000002309  -0.0000097521  -0.0000007268  -0.0000100116
       -0.0000092724   0.0000046041  -0.0000024038  -0.0000020316   0.0000027509
       -0.0000001550  -0.0000045940   0.0000004285   0.0000007722  -0.0000008825
        0.0000000767   0.0000000722  -0.0000000636  -0.0000000698   0.0000003321
       -0.0000003778  -0.0000000780   0.0000001985  -0.0000006463  -0.0000002020
       -0.0000003442  -0.0000010955  -0.0000002538   0.0000000598  -0.0000017944
        0.0000006149  -0.0000004200  -0.0000032386   0.0000000075  -0.0000033502
       -0.0000047375  -0.0000023799  -0.0000001021  -0.0000008844   0.0000000864
       -0.0000014851  -0.0000023340  -0.0000016107   0.0000027674  -0.0000100199
       -0.0000027842  -0.0000013693   0.0000014764  -0.0000035105  -0.0000023021
       -0.0000010754  -0.0000013534   0.0000000232  -0.0000023533  -0.0000012131
       -0.0000017579  -0.0000014769  -0.0000002321   0.0000017208  -0.0000018505
        0.0000015646   0.0000013943  -0.0000012000   0.0000032918   0.0000009070
       -0.0000031670  -0.0000163809   0.0000058566   0.0000035473   0.0000018752
        0.0000100466  -0.0000143946  -0.0000436553   0.0000029530  -0.0000084789
       -0.0001265536   0.0000500782  -0.0000485427  -0.0001231409   0.0000322967
        0.0001348726  -0.0000801388   0.0000670824   0.0000829463  -0.0000921257
       -0.0000135319   0.0000322470  -0.0000716226  -0.0001336190   0.0001201776
       -0.0008012190   0.0005398320  -0.0017890712  -0.0000725397  -0.0000903437
        0.0000751427  -0.0000026866  -0.0000190850  -0.0001322971  -0.0000588405
       -0.0000029924  -0.0000811012  -0.0001315921  -0.0000264481  -0.0001130439
       -0.0692267096   0.0948492333   0.0231374198   0.3634429665  -0.0623779831
       -0.0132221802  -0.1492147151   0.0160886542  -0.0149597632  -0.0261117435
       -0.0096790815  -0.0051558628  -0.0014381377  -0.0033930536  -0.0015390769
       -0.0019404701  -0.0013640800  -0.0004099133   0.0044606869   0.0026665108
        0.0002428359  -0.0097374001   0.0151259033   0.0012011788  -0.0665303500
       -0.0348549619   0.0349807206  -0.0055487570  -0.0016315175   0.0110821042
        0.0051292311  -0.0001468428   0.0030508545  -0.0003949802  -0.0002228253
        0.0007088662   0.0058674515  -0.0018517861  -0.0002887053  -0.0031577451
       -0.0080724402  -0.0002329779  -0.0437949520  -0.0047117132  -0.0288616630
        0.0062744685   0.0021036626   0.0082898427  -0.0011329658   0.0009706856
        0.0028781107  -0.0010144204   0.0000279120  -0.0000507859  -0.0043087062
        0.0004207895  -0.0005226207  -0.0073791472  -0.0068395364  -0.0263428728
        0.0110515382   0.0014978352   0.0052805665  -0.0044698090  -0.0011988035
        0.0012652797   0.0010012938   0.0003887707   0.0002761395  -0.0000887160
       -0.0001729895  -0.0001179124  -0.0000910081  -0.0001276575  -0.0000192067
       -0.0000276865   0.0000035166   0.0000514821   0.0001430643  -0.0001096895
       -0.0000320165   0.0000742211  -0.0000429390  -0.0000867216  -0.0001257732
       -0.0000399359   0.0000323386   0.0000888199   0.0000629837  -0.0000513362
       -0.0000169932   0.0000242952   0.0000147072   0.0000112545  -0.0000045203
        0.0000263423   0.0000279448   0.0000133679  -0.0000069277  -0.0000288750
        0.0000418144  -0.0000115547   0.0000520916  -0.0000363930  -0.0000071542
       -0.0000486400   0.0000037217   0.0000011266   0.0000186284   0.0000112315
        0.0000026317  -0.0000006114  -0.0000042396  -0.0000035801  -0.0000006915
       -0.0000040664  -0.0000025681   0.0000052731   0.0000086741  -0.0000006194
        0.0000026221  -0.0000181923  -0.0000039339   0.0000156445   0.0000053146
        0.0000023420  -0.0000056102  -0.0000021971  -0.0000022287   0.0000266574
        0.0000014021   0.0000027329  -0.0000007513  -0.0000020948  -0.0000025609
       -0.0000115670  -0.0000051954  -0.0000084756   0.0000077082   0.0000163539
       -0.0000022307  -0.0000008792  -0.0000228533   0.0000094301   0.0000082359
       -0.0000145936   0.0000053970   0.0000316949  -0.0000482782   0.0000544914
        0.0000259217   0.0000096972  -0.0000294962   0.0000094230   0.0000097003
        0.0000141036   0.0000064824   0.0000016345   0.0000176884  -0.0000064372
       -0.0000055094  -0.0000125474  -0.0000010301   0.0000108853  -0.0000068218
       -0.0000042557   0.0000019752  -0.0000085200   0.0000031288  -0.0000089709
        0.0000165933  -0.0000018328  -0.0000020915  -0.0000131740   0.0000062099
        0.0000131705  -0.0000153455   0.0000271135   0.0000094249   0.0000130148
       -0.0000062630  -0.0000378646  -0.0000351613   0.0000476429   0.0000879218
        0.0000856932   0.0000496102   0.0001247698   0.0000137914  -0.0000116563
        0.0001222852  -0.0001947918   0.0006153033  -0.0003239207  -0.0000442837
       -0.0012136593   0.0020716247  -0.0004987796   0.0007654161  -0.0007862128
        0.0001308680  -0.0000709568  -0.0000016807  -0.0001208208   0.0002437841
       -0.0002411530   0.0000026898   0.0001330858  -0.0001924056   0.0003106484
        0.0000872596   0.0000436434   0.0001985153   0.0000970399   0.0001673241
       -0.0000377921   0.0000069337   0.0001942456  -0.0002420145  -0.0000334335
       -0.0002539386  -0.0000551622  -0.0002172224  -0.0003104373  -0.0004178766
        0.0003920482   0.0000445410   0.0000429208   0.0000111064   0.0000177862
       -0.0000046080  -0.0001409258  -0.0000006835   0.0000321805  -0.0001833840
        0.0000028944  -0.0000307610   0.0007406097   0.0000358089   0.0002424449
        0.0000411688   0.0005475490   0.0000662016   0.0006861882  -0.0001425125
        0.0002810327   0.0005793188  -0.0008023772  -0.0000796338   0.0009847109
       -0.0013825625   0.0002300967  -0.0015817579   0.0008478008  -0.0005512720
        0.0000647247  -0.0001856980  -0.0001563965  -0.0011234339   0.0006441531
       -0.0006640623   0.0001618928   0.0002895229   0.0001364429  -0.0012697774
        0.0014062879  -0.0003050433  -0.0009126414   0.0002119766   0.0009943966
        0.0000363923   0.0002389926   0.0009889317  -0.0000521400   0.0000192311
        0.0001642453  -0.0004261600  -0.0002885995  -0.0010763380  -0.0000623061
       -0.0001927677  -0.0000176165   0.0000719900   0.0000913719  -0.0000494661
       -0.0000538766  -0.0000282341  -0.0000385224   0.0000057409   0.0000255595
        0.0000153111  -0.0000127362   0.0000143174  -0.0000273379  -0.0000147471
        0.0000076497  -0.0000028621  -0.0000112722  -0.0000053926  -0.0000033373
       -0.0000034892   0.0000042148  -0.0000009237   0.0000013154   0.0000019057
       -0.0000005827  -0.0000028745   0.0000012039  -0.0000016888   0.0000009796
        0.0000018969  -0.0000003607  -0.0000044544   0.0000043913  -0.0000007568
       -0.0000047913   0.0000172511   0.0000026082  -0.0000063740  -0.0000015164
        0.0000012415  -0.0000013556   0.0000011396  -0.0000055633  -0.0000124858
        0.0000031009   0.0000006883  -0.0000149650   0.0000030391   0.0000210948
       -0.0000113473  -0.0000063930   0.0000021046  -0.0000043870   0.0000009374
       -0.0000044230  -0.0000043404   0.0000041827   0.0000008441  -0.0000055116
        0.0000018915  -0.0000058659  -0.0000023820   0.0000032439   0.0000008970
       -0.0000073762  -0.0000026396  -0.0000022984  -0.0000154190   0.0000073602
       -0.0000201699   0.0000108342  -0.0000204719  -0.0000188093  -0.0000693125
        0.0000095093   0.0000451401   0.0001046812  -0.0000056023   0.0000177506
       -0.0003070057  -0.0001863263   0.0001335683  -0.0000198793   0.0000670726
        0.0000293211  -0.0000689450  -0.0000432916  -0.0000960879  -0.0000696834
       -0.0001158568  -0.0000144978  -0.0000147900  -0.0000083429   0.0000699692
        0.0001480028   0.0007925265  -0.0003069232  -0.0000320245  -0.0000231571
        0.0000985698  -0.0000019675   0.0000054346   0.0001037612   0.0000089602
        0.0000029995   0.0000598120   0.0000293618   0.0000273911  -0.0000178773
        0.0919793502  -0.5069741196  -0.1078970848  -0.0623779831   0.7050605807
        0.0798527476   0.0266867347  -0.0406328277   0.0025713635  -0.0102222159
        0.0070933407  -0.0009666545  -0.0032410155  -0.0019979080  -0.0017116289
        0.0002309202  -0.0018927616  -0.0001836846   0.0026796121  -0.0032935189
       -0.0008332912   0.0158659121  -0.0056428446   0.0026298461  -0.0391071869
       -0.0857856463   0.0486821498  -0.0007495784   0.0063090654   0.0103037335
       -0.0003508945   0.0016274063  -0.0019995888  -0.0005608228  -0.0014463378
        0.0002612392  -0.0016612542  -0.0028495948  -0.0026467792  -0.0093776463
       -0.0191615457   0.0063838848  -0.0060599385  -0.0463024149  -0.0234858429
        0.0026346158  -0.0016500427  -0.0052259542   0.0014402842   0.0056079699
       -0.0014332989  -0.0005396749  -0.0003573986  -0.0005369702   0.0002191493
        0.0043588275  -0.0014278127  -0.0080255460   0.0034318171   0.0018523167
        0.0014121485  -0.0065511261  -0.0025187131  -0.0013469458   0.0004083067
       -0.0005323654   0.0000019749   0.0001581555   0.0001979735  -0.0002699413
       -0.0002646783   0.0001039567  -0.0000132149  -0.0003664581  -0.0000099108
       -0.0000273403  -0.0000622604   0.0000006226   0.0000412093  -0.0000857752
       -0.0000141122   0.0000121643  -0.0000247549  -0.0000217485  -0.0000314545
       -0.0000189967  -0.0000158578   0.0000305115   0.0000138918  -0.0000178791
       -0.0000099964   0.0000168692   0.0000125107   0.0000127514  -0.0000147448
       -0.0000039724   0.0000077848   0.0000017745  -0.0000129710  -0.0000025503
        0.0000058397  -0.0000011571  -0.0000075733  -0.0000221579   0.0000011102
        0.0000069443  -0.0000057632  -0.0000032782   0.0000010157  -0.0000016013
        0.0000002073   0.0000017918  -0.0000040599  -0.0000012943  -0.0000004591
       -0.0000140296  -0.0000031020   0.0000009070  -0.0000041662  -0.0000015068
       -0.0000050403   0.0000001440  -0.0000021667   0.0000035567  -0.0000085265
       -0.0000032781  -0.0000047864  -0.0000061561  -0.0000036918  -0.0000127374
       -0.0000008565  -0.0000034814   0.0000096302   0.0000000852   0.0000021919
       -0.0000090929  -0.0000101913  -0.0000005014  -0.0000000894   0.0000247048
       -0.0000042465  -0.0000012650  -0.0000120938   0.0000037691   0.0000101607
       -0.0000042963  -0.0000036601   0.0000092825  -0.0000042738   0.0000123947
        0.0000236516   0.0000189348   0.0000062867   0.0000120822  -0.0000044309
        0.0000065339   0.0000125393  -0.0000033894   0.0000046072   0.0000082420
       -0.0000077865   0.0000024850   0.0000032819   0.0000009249  -0.0000053816
        0.0000028966  -0.0000041989  -0.0000003929   0.0000116554  -0.0000043469
        0.0000051563   0.0000064463  -0.0000106571   0.0000041765   0.0000063978
       -0.0000029176  -0.0000052564   0.0000164951   0.0000133196  -0.0000046224
        0.0000050912  -0.0000073463  -0.0000024854   0.0000051413   0.0000025823
        0.0000174374   0.0000236901   0.0000927004   0.0000730353   0.0000555418
       -0.0000031042   0.0000073752  -0.0003556830  -0.0000127482  -0.0000261235
        0.0023164748   0.0006991645   0.0001203637  -0.0006575983   0.0002103426
        0.0000789911  -0.0001386656  -0.0001098509   0.0004986023   0.0003386486
        0.0009810771  -0.0000087684  -0.0002199991   0.0003087532  -0.0007090920
       -0.0005854301  -0.0001786518  -0.0003874885  -0.0006472362  -0.0004868207
        0.0001194184  -0.0005494107  -0.0005926130   0.0005408328  -0.0003296582
       -0.0001703576  -0.0003498634   0.0001362768   0.0007196995   0.0011754160
       -0.0003080038   0.0000589727  -0.0005035956  -0.0001058220  -0.0000974318
       -0.0000985155  -0.0001687906   0.0000039626  -0.0001196158  -0.0001859716
       -0.0000933623  -0.0003917192  -0.0018176560  -0.0027651165  -0.0003483791
       -0.0014454315  -0.0001690061  -0.0002204985  -0.0002736286  -0.0001874222
        0.0001833626   0.0007261397  -0.0001866249   0.0000166722  -0.0003353518
       -0.0014106801  -0.0000045592   0.0006748695  -0.0010257891  -0.0022636289
        0.0004669415   0.0003493262  -0.0011660692   0.0004721081   0.0001561448
       -0.0003190472  -0.0001271894  -0.0000116835   0.0003585958   0.0007150787
       -0.0002120819  -0.0005199334   0.0005984377  -0.0016880411   0.0007241511
       -0.0001030626   0.0002165864   0.0002042775  -0.0000127193  -0.0011070691
        0.0005763342   0.0003888756   0.0000954353   0.0003487963  -0.0001760498
       -0.0003289297  -0.0001456210  -0.0000154611   0.0000434503  -0.0000351706