$hessian                                                                        
        0.0958079029  -0.0944023810   0.0806599688  -0.0639129459   0.0715185554
       -0.0616115510   0.0036434283  -0.0139685954   0.0158839952  -0.0050835126
       -0.0027420595   0.0087905293   0.0022615415   0.0044446363  -0.0089767142
        0.0021435086  -0.0026954371  -0.0036409181  -0.0009871703  -0.0008612267
        0.0009933598  -0.0005992289   0.0004942177  -0.0001847367  -0.0003658874
       -0.0013719552   0.0025818134   0.0010567063  -0.0006624729  -0.0036145787
       -0.0012074134   0.0019989116   0.0031344322  -0.0001968936   0.0015142719
       -0.0017442072  -0.0280298653   0.0351957437  -0.0291898265  -0.0045777281
        0.0013314510  -0.0011272192   0.0040262793  -0.0063655971   0.0032494365
       -0.0068380024   0.0041224868  -0.0018003928   0.0036534743  -0.0017966223
       -0.0005600484   0.0012899321   0.0016754168   0.0009232325   0.0000170725
       -0.0019869945  -0.0000364623   0.0015216136  -0.0001772913   0.0001925854
       -0.0007809751   0.0005154337   0.0001444642  -0.0006870454  -0.0001514806
       -0.0000753830  -0.0009384890   0.0024277671   0.0002001659   0.0016480449
       -0.0009851959   0.0001616993  -0.0020981137  -0.0009877110  -0.0004501006
       -0.0000641436   0.0009649819   0.0001978859  -0.0013087626   0.0000061687
       -0.0001879108   0.0012346992  -0.0012917696   0.0000531730   0.0010348650
        0.0011842527   0.0001961774  -0.0001178553  -0.0012797859  -0.0011012020
        0.0036103642   0.0038651683  -0.0023422085  -0.0064692524   0.0017304823
       -0.0024895107  -0.0012020392   0.0001611093   0.0010579933   0.0015207045
       -0.0011548374   0.0006314785   0.0002943427  -0.0000580697   0.0002890042
       -0.0001000905  -0.0000626191   0.0001520680   0.0001649146   0.0000378564
        0.0000361701   0.0000133229   0.0001375925   0.0000006909   0.0006328259
       -0.0012595586   0.0003899566   0.0009170879   0.0003045790  -0.0001250843
        0.0002642854   0.0004115427   0.0001479746   0.0000622088   0.0001151076
       -0.0000547520   0.0000117172   0.0000696411  -0.0000176839  -0.0000122134
        0.0000009227  -0.0000284935  -0.0000562466   0.0000159805  -0.0000452501
       -0.0000750206   0.0000545647   0.0000108910  -0.0000023370   0.0000327727
       -0.0000019043   0.0000129422  -0.0001570151   0.0000269860   0.0001185705
        0.0000721120   0.0000266157  -0.0004537807   0.0004813476  -0.0002875703
       -0.0007973423  -0.0004663987  -0.0004390385
       -0.0944023810   0.2926470871  -0.2580567483   0.0679890388  -0.2395384489
        0.1928601356  -0.0120235312  -0.0210226413   0.0306578095   0.0138093200
       -0.0112679767  -0.0263224206  -0.0068617929  -0.0068174137   0.0251910721
       -0.0068652635   0.0098396238   0.0120784556   0.0024402703   0.0040691418
       -0.0036846084   0.0010098465  -0.0015454044   0.0006150196   0.0010254693
        0.0033442702  -0.0071960697  -0.0036538840   0.0019372991   0.0097193880
        0.0033398148  -0.0064220474  -0.0078028139  -0.0013018829  -0.0015788182
        0.0057830577   0.0353393076  -0.0189057616   0.0252577434  -0.0014874731
       -0.0025832065   0.0002754532  -0.0024049885   0.0059425842  -0.0059291298
        0.0050993216  -0.0050284416   0.0034081291  -0.0013364105   0.0014098930
       -0.0001385943  -0.0021316447  -0.0025076382  -0.0001814185   0.0001065376
        0.0024997562   0.0001490198  -0.0016838323   0.0004347448  -0.0000367609
        0.0010153867  -0.0001601138  -0.0001289164   0.0004998229  -0.0000312450
       -0.0000024668   0.0015741363  -0.0023197845  -0.0003815666  -0.0013237995
        0.0008844357  -0.0002323588   0.0022430808   0.0006657030   0.0003362748
        0.0000217981  -0.0010570411  -0.0002846303   0.0012691661   0.0000168911
        0.0003591967  -0.0015746880   0.0016768723  -0.0001281256  -0.0013803356
       -0.0012151975  -0.0000369423  -0.0001337816   0.0022797362   0.0006658804
       -0.0041406913  -0.0021382033   0.0026176608   0.0043897650  -0.0019188014
        0.0054075383   0.0002221194  -0.0004447864   0.0008699399   0.0010452741
        0.0014361208  -0.0019372083  -0.0010386167  -0.0031841436  -0.0015385404
        0.0001004124   0.0001164149  -0.0002790821  -0.0001837012  -0.0000869471
        0.0001988786  -0.0000424025   0.0001219526   0.0001828975  -0.0003338277
        0.0005507523  -0.0009899896   0.0006920121   0.0001154333  -0.0012721016
       -0.0000925925   0.0003936499   0.0003103439   0.0002087857  -0.0003603987
        0.0000075050   0.0000430763   0.0001223615  -0.0000389134   0.0000230212
        0.0001388423  -0.0000286004   0.0002544074  -0.0001526917   0.0000385113
        0.0002669408  -0.0002513039  -0.0000181898  -0.0002383445  -0.0002023949
       -0.0000158262  -0.0001248291   0.0002498555   0.0000256214  -0.0001688610
       -0.0003216182  -0.0000398873   0.0005763471  -0.0002428175  -0.0002771382
        0.0003250770   0.0004118655  -0.0000364840
        0.0806599688  -0.2580567483   0.2618418073  -0.0560783222   0.1901879483
       -0.2161991602   0.0143036778   0.0370391939  -0.0249430225  -0.0136481614
        0.0090964661   0.0294929477   0.0064961778   0.0087969349  -0.0290240570
        0.0071626811  -0.0112509416  -0.0128887291  -0.0028116014  -0.0041166609
        0.0030715807  -0.0020021417   0.0017237811  -0.0002616329  -0.0011011739
       -0.0040821700   0.0080722659   0.0041125164  -0.0020826715  -0.0107113234
       -0.0035678446   0.0074805058   0.0080661942   0.0011474608   0.0012049080
       -0.0053933237  -0.0392315259   0.0234757219  -0.0130235711   0.0046483933
        0.0014563331  -0.0018701745   0.0009323448  -0.0050256115   0.0053967621
       -0.0030065199   0.0047608241  -0.0040196023   0.0014731821  -0.0014907088
        0.0000566055   0.0013767810   0.0016239910   0.0001099507  -0.0000216603
       -0.0017970938  -0.0000791072   0.0012427574  -0.0005067210   0.0000023956
       -0.0007812162   0.0001472094   0.0001405514  -0.0003758877  -0.0001109586
       -0.0000207253  -0.0011985809   0.0018961855   0.0002900599   0.0009745733
       -0.0006973023   0.0002888788  -0.0017281983  -0.0006076581  -0.0003081331
        0.0001528222   0.0009783916   0.0003617249  -0.0011328116  -0.0001047625
       -0.0003579933   0.0013686158  -0.0014241390   0.0001677264   0.0008678405
        0.0009307538   0.0000241521   0.0003539792  -0.0013489290  -0.0007614028
        0.0008304423   0.0027625863  -0.0006858321  -0.0001166957   0.0046648232
       -0.0013289391  -0.0006543712  -0.0008067853   0.0002123998  -0.0005147108
       -0.0027520352   0.0016190884   0.0011972704   0.0002302215   0.0007319059
       -0.0001597284  -0.0000255690   0.0005049123   0.0004364727   0.0000051359
       -0.0002062487   0.0000755689  -0.0002602359  -0.0001709471   0.0006342548
       -0.0009323647   0.0007773678  -0.0011410066  -0.0005708301   0.0012173275
        0.0001534974  -0.0003885789  -0.0003833499  -0.0002660863   0.0002655223
       -0.0000409244  -0.0000290524  -0.0001282244   0.0000417453  -0.0000147199
       -0.0001497574   0.0000294344  -0.0002537072   0.0001661541  -0.0000257161
       -0.0002662949   0.0002486914  -0.0000157290   0.0002615233   0.0002054214
       -0.0000000297   0.0001403521  -0.0002341246  -0.0000342494   0.0001940000
        0.0004150309   0.0000103238  -0.0006240802  -0.0000121451   0.0001438390
       -0.0004710541  -0.0007990079   0.0000819765
       -0.0639129459   0.0679890388  -0.0560783222   0.4610159967  -0.0924107756
        0.0262438953  -0.1038846137  -0.0192295392   0.0243008177   0.0164651783
       -0.0146925218  -0.0194244976  -0.0076619024  -0.0095634439   0.0224351679
       -0.0087036835   0.0109490778   0.0134753591   0.0018259397   0.0038399280
       -0.0049229442   0.0024028051  -0.0013411830   0.0008077532   0.0011707531
        0.0040434894  -0.0081103106  -0.0033531964   0.0021161445   0.0112445281
        0.0040470823  -0.0067619114  -0.0085429379   0.0000311206  -0.0027635155
        0.0058420375  -0.2062546965   0.0513673556  -0.0286146351  -0.0467578614
        0.0014672517   0.0143789450   0.0005231784   0.0058661117  -0.0016214492
        0.0082087017  -0.0061345819   0.0029467179  -0.0068176408   0.0038332941
        0.0006257049  -0.0016893953  -0.0023812372  -0.0021062108  -0.0000378279
        0.0036040408   0.0000588561  -0.0028650792   0.0004627483  -0.0003934212
        0.0016147892  -0.0008667971  -0.0002617820   0.0015170583   0.0002468365
        0.0002069654   0.0015504965  -0.0047567186  -0.0003595825  -0.0029817417
        0.0020623491  -0.0002899474   0.0039498974   0.0019140903   0.0009463349
        0.0001749473  -0.0019349072  -0.0004364344   0.0027168789  -0.0001520760
        0.0003364614  -0.0026223579   0.0022950922  -0.0001313744  -0.0018309833
       -0.0020607250  -0.0002806315  -0.0002645808   0.0009957304   0.0025725040
        0.0006509468  -0.0066288436  -0.0008509285  -0.0160769038   0.0198985556
       -0.0124354287  -0.0021719483  -0.0026069647   0.0076842248  -0.0276467938
       -0.0070975062   0.0132983557  -0.0003759690  -0.0014648402  -0.0016045893
        0.0001141620   0.0001328451  -0.0003684559  -0.0004909547  -0.0002188750
       -0.0002813217  -0.0001920733  -0.0003690560   0.0000636479  -0.0010591404
        0.0016867252  -0.0010992393  -0.0004013551  -0.0001987974  -0.0012710017
       -0.0007643569  -0.0001094401  -0.0001484656  -0.0000785671   0.0000344666
        0.0002043006  -0.0000315792  -0.0001977090   0.0000618134  -0.0000488211
       -0.0000639326   0.0000658273  -0.0000220942   0.0000255589   0.0000947471
        0.0000676627   0.0000069417  -0.0000070865   0.0000725318   0.0000470201
        0.0000196062  -0.0000167881   0.0004298585  -0.0000794962  -0.0003897645
       -0.0004393851  -0.0002063473  -0.0002220696  -0.0005702789   0.0003356332
        0.0015075595  -0.0002989887   0.0016766369
        0.0715185554  -0.2395384489   0.1901879483  -0.0924107756   0.3681436408
       -0.2279145863  -0.0200779267  -0.0566735906   0.0100162011  -0.0321586171
       -0.0047441502   0.0446707348   0.0078698203   0.0017890178  -0.0255215211
        0.0076310017  -0.0111993813  -0.0101348831  -0.0042344603  -0.0029331214
        0.0038659290   0.0002249909   0.0003643225  -0.0014811928  -0.0014044531
       -0.0027527478   0.0076983401   0.0037487150  -0.0025459876  -0.0106744660
       -0.0039272874   0.0067937638   0.0102308664   0.0012249990   0.0021879994
       -0.0074327379   0.0359853275  -0.0634215529   0.0124486986   0.0037880107
        0.0079999949  -0.0057796314  -0.0005116966  -0.0040358064   0.0093166129
       -0.0051893685   0.0059575886  -0.0043521861   0.0003670262  -0.0016709842
        0.0001343672   0.0034627842   0.0036790917   0.0005338313  -0.0002081459
       -0.0039190755  -0.0002910637   0.0029628171  -0.0004848329   0.0001289931
       -0.0017908462   0.0005895158   0.0001420520  -0.0010848479  -0.0000302909
       -0.0000292594  -0.0024104269   0.0038975922   0.0005468007   0.0026415992
       -0.0014861169   0.0001859958  -0.0041725919  -0.0011104918  -0.0004763062
       -0.0002250394   0.0015805600   0.0001878200  -0.0021560560   0.0001820725
       -0.0003991501   0.0024573650  -0.0024660858   0.0000975174   0.0023241997
        0.0020498016   0.0000672194   0.0004961399  -0.0040987900  -0.0007632288
        0.0053340280   0.0026522059   0.0019470221   0.0167933248  -0.0071022082
        0.0041729463   0.0052948565   0.0043027845  -0.0023883101   0.0008510202
        0.0013501613   0.0003294745  -0.0006163977  -0.0009520855  -0.0016838413
       -0.0001748176  -0.0000663955   0.0004606827   0.0001786117   0.0001306046
       -0.0000802753   0.0000736586   0.0001476299  -0.0001394088   0.0006873691
       -0.0009333574   0.0012648519  -0.0023570229  -0.0009130331   0.0005672470
       -0.0004844580  -0.0000519239   0.0000673985  -0.0001472687   0.0003144657
        0.0000181642  -0.0000166281   0.0000031824   0.0000314005  -0.0000041811
       -0.0000824637   0.0000264034  -0.0002133178   0.0001108136  -0.0000637961
       -0.0002427698   0.0002071077   0.0000596455   0.0001594570   0.0001480201
        0.0000350804   0.0000825443  -0.0003552956   0.0000015540   0.0002533979
        0.0003607373   0.0001565271   0.0001484623  -0.0005650692   0.0002331338
       -0.0003406809  -0.0008093875  -0.0002256153
       -0.0616115510   0.1928601356  -0.2161991602   0.0262438953  -0.2279145863
        0.3572189489   0.0263866981   0.0017975939  -0.0680070457   0.0166324200
        0.0074418310  -0.0358138629  -0.0056038111  -0.0067804309   0.0285635814
       -0.0063988983   0.0083845836   0.0113461330   0.0010165588   0.0048566786
       -0.0016911657   0.0042535054  -0.0036887195  -0.0005344550   0.0007323391
        0.0055032678  -0.0084899260  -0.0036875025   0.0018995696   0.0110566622
        0.0030294456  -0.0066776112  -0.0086764914  -0.0007480850  -0.0013979250
        0.0053592861  -0.0026095948   0.0150363152  -0.0559536424   0.0132802195
       -0.0076300356   0.0052362225   0.0011416251   0.0079115321  -0.0078559509
        0.0027537890  -0.0062140736   0.0065351003  -0.0024536094   0.0016430486
        0.0002063093  -0.0011856959  -0.0012148240  -0.0002056733  -0.0001779372
        0.0015797880  -0.0000046386  -0.0011027608   0.0005589033  -0.0000860149
        0.0007026349  -0.0002390918  -0.0001751484   0.0004727121   0.0002332931
        0.0000274036   0.0010517495  -0.0021708971  -0.0001591564  -0.0010415463
        0.0008921509  -0.0003575023   0.0017564229   0.0006899421   0.0003927444
       -0.0002505547  -0.0010884238  -0.0003730494   0.0013856646   0.0001259301
        0.0003101548  -0.0015041405   0.0014490735  -0.0002132741  -0.0005970011
       -0.0009752613   0.0000222075  -0.0004642064   0.0006276806   0.0008763640
        0.0020350236  -0.0000411560  -0.0041280776  -0.0247434127   0.0074801147
       -0.0036468410   0.0204361501   0.0086329843  -0.0162213933  -0.0068397428
       -0.0022552470   0.0050717594  -0.0025717693  -0.0031800866  -0.0016136227
        0.0002305251   0.0000244250  -0.0005569022  -0.0006758655  -0.0001349870
        0.0000702955  -0.0000853359   0.0001156836   0.0001239830  -0.0011094756
        0.0015476492  -0.0007302497   0.0012843827  -0.0001538859  -0.0011511936
        0.0006116155  -0.0001672698   0.0002564347   0.0002229993  -0.0001768020
        0.0000672887   0.0000180066   0.0000551986  -0.0000320742  -0.0000020752
        0.0001173059   0.0000025592   0.0001982814  -0.0001395133   0.0000336097
        0.0002288873  -0.0002009491   0.0000346604  -0.0002205687  -0.0001591589
        0.0000189015  -0.0001136379   0.0002642983   0.0000225530  -0.0002674099
       -0.0005159079  -0.0000738725  -0.0004292092   0.0004903109  -0.0003077810
        0.0003898459   0.0008975552   0.0004050024
        0.0036434283  -0.0120235312   0.0143036778  -0.1038846137  -0.0200779267
        0.0263866981   0.4236254851  -0.0220223703   0.0260942329  -0.0610463040
        0.0147858482  -0.0112961235   0.0130590324  -0.0105096338   0.0126107272
        0.0048662569   0.0116128470   0.0066085337  -0.0006399812   0.0009555231
       -0.0018258424  -0.0010729092   0.0002902817  -0.0000352603   0.0002322089
       -0.0002790564  -0.0001551753  -0.0014898921  -0.0006618394   0.0001293802
        0.0025336562  -0.0002855913   0.0015032119   0.0005335088  -0.0004848649
       -0.0011314714  -0.0301553122  -0.0075106862   0.0164168689  -0.0065998927
        0.0009493084  -0.0011119683   0.0006563215  -0.0029599867   0.0025575583
       -0.0034684084   0.0015084731   0.0000708024   0.0013513198  -0.0005901541
       -0.0001788707   0.0006675972   0.0008430654   0.0004358047   0.0000518890
       -0.0009671958  -0.0000358085   0.0007179000  -0.0000361860   0.0001162607
       -0.0003869804   0.0002413820   0.0000560165  -0.0003483958  -0.0000043295
       -0.0000202575  -0.0004325345   0.0010530003   0.0000504678   0.0007992310
       -0.0004061814   0.0000697475  -0.0010125756  -0.0003896881  -0.0002559951
       -0.0001182336   0.0003632479   0.0000513243  -0.0005594563   0.0000923161
       -0.0000490095   0.0005280844  -0.0005378805   0.0000114500   0.0005673068
        0.0005770002   0.0000975375  -0.0001376881  -0.0007983445  -0.0004962283
        0.0030467235   0.0007126732  -0.0006240088  -0.0019820388   0.0000574853
       -0.0005539872  -0.0404618681   0.0062899587   0.0101563784  -0.2023892218
        0.0372859305  -0.1004469736   0.0005834618   0.0003399211   0.0003936295
        0.0000056092   0.0000062130   0.0000081978   0.0002810771   0.0001411306
        0.0001447974  -0.0000205689   0.0000499953  -0.0000009810  -0.0002082378
        0.0017155366   0.0007840544   0.0004832238   0.0001001168  -0.0002580777
       -0.0003267237   0.0005918888   0.0002633126   0.0000983012   0.0000646436
       -0.0000089526   0.0000122144   0.0000552670  -0.0000181608   0.0000009868
        0.0000330480  -0.0000253296   0.0000100326  -0.0000192498  -0.0000290520
        0.0000110400  -0.0000060647   0.0000113534  -0.0000375314  -0.0000232601
       -0.0000053396  -0.0000120310  -0.0000453238   0.0000172659   0.0000014005
       -0.0000439389   0.0000168225   0.0000285941   0.0000041474  -0.0001799940
       -0.0016044918  -0.0000369650  -0.0006232446
       -0.0139685954  -0.0210226413   0.0370391939  -0.0192295392  -0.0566735906
        0.0017975939  -0.0220223703   0.4124165561   0.0084909992   0.0033623578
       -0.1447387323   0.0102905905   0.0003975358  -0.0309399814   0.0290052926
        0.0116755452  -0.0308465697  -0.0079074137  -0.0011868586  -0.0019006869
        0.0039193757  -0.0001276085  -0.0003906894  -0.0001851973  -0.0004701247
       -0.0007224733   0.0025809259   0.0020201361  -0.0019287633  -0.0033175981
       -0.0007946909   0.0030931270  -0.0019149959   0.0014581814  -0.0012723026
       -0.0022360040  -0.0058349368   0.0042361543   0.0021172550   0.0042633920
        0.0024166368  -0.0012691017  -0.0016489328   0.0020875149  -0.0010512789
        0.0029599517  -0.0011079174  -0.0003276896   0.0006077506  -0.0002752706
       -0.0001458994  -0.0015716801  -0.0014252459  -0.0003164695   0.0001118421
        0.0013719709   0.0001028441  -0.0011454028   0.0000078744  -0.0000939021
        0.0006495708  -0.0004067944  -0.0000341038   0.0004430821   0.0000507161
        0.0000140442   0.0008309691  -0.0014256653  -0.0001167501  -0.0012087211
        0.0005249832  -0.0000208541   0.0017178542   0.0002852324   0.0002181132
        0.0002032269  -0.0003863351   0.0000252795   0.0007324031  -0.0001756463
        0.0000836686  -0.0007498348   0.0007946846   0.0000078329  -0.0009282094
       -0.0008508798  -0.0001135336  -0.0000259206   0.0021490568   0.0002072879
       -0.0043964141   0.0001121089   0.0017213024   0.0043789243  -0.0038333795
        0.0014426931   0.0081116935  -0.0861819719  -0.0951666813   0.0314180133
       -0.0454692276   0.0149991602   0.0002987440  -0.0000408074  -0.0005326792
        0.0000674811   0.0000432374  -0.0000483833   0.0001095926  -0.0000395079
       -0.0001709478   0.0002889832  -0.0004152954  -0.0003246365  -0.0018149269
        0.0032410565   0.0009673441   0.0005998821  -0.0002945223   0.0001901427
       -0.0001693898  -0.0001823845  -0.0003230388  -0.0000922328  -0.0000917956
       -0.0000158425  -0.0000116181  -0.0000531851   0.0000169398   0.0000019505
       -0.0000301952   0.0000120884   0.0000033680   0.0000200066   0.0000319066
       -0.0000020596  -0.0000049962  -0.0000309712   0.0000352296   0.0000234041
       -0.0000071137   0.0000156116   0.0000468485  -0.0000126531   0.0000104149
        0.0001002415  -0.0000110291   0.0000322946   0.0002589201   0.0002248793
        0.0005940849  -0.0001528769   0.0001880149
        0.0158839952   0.0306578095  -0.0249430225   0.0243008177   0.0100162011
       -0.0680070457   0.0260942329   0.0084909992   0.4824716645   0.0028912241
       -0.0093815684  -0.0636461209   0.0015907159   0.0448511537  -0.0164586663
        0.0018425354  -0.0114492493   0.0086498180   0.0011773400   0.0001202419
       -0.0025231390  -0.0003103329   0.0003223566   0.0007483435   0.0004001749
        0.0003050065  -0.0015324505  -0.0005765800  -0.0004497162   0.0027138352
        0.0032565949  -0.0042888038  -0.0043581765  -0.0009391420   0.0007932132
        0.0020719019   0.0118004708   0.0004510692   0.0012565319  -0.0032163374
        0.0007112352   0.0037191608   0.0015624600   0.0000819887  -0.0001889385
       -0.0011257967  -0.0002531268   0.0011057563   0.0000614150   0.0001060816
       -0.0001173548  -0.0003616864  -0.0001527351  -0.0001315632   0.0000817587
        0.0003563101   0.0000744347  -0.0004250314   0.0000408617  -0.0000110336
        0.0002595655  -0.0002145330  -0.0000130105   0.0002001889   0.0001441286
        0.0000300218   0.0001961963  -0.0006001837  -0.0000606332  -0.0004058712
        0.0002616884   0.0000158901   0.0005756668   0.0002400506   0.0000180996
       -0.0000011847  -0.0002803429  -0.0000075823   0.0003777119   0.0000174634
        0.0000383247  -0.0003393889   0.0002637269  -0.0000034908  -0.0001890729
       -0.0001683725  -0.0000008015  -0.0002184587   0.0002324275   0.0000503315
        0.0019546273  -0.0004864925  -0.0008352412  -0.0036313487   0.0009451365
       -0.0016026120   0.0169337218  -0.0893100705  -0.2179808915  -0.1003192225
        0.0208431318  -0.0971160178   0.0002868184  -0.0012604204  -0.0013156410
       -0.0000001757   0.0000171283  -0.0001182084   0.0000000248  -0.0000312723
       -0.0000165194   0.0001260186  -0.0002792677  -0.0001657053   0.0015766033
       -0.0019806837  -0.0013094474  -0.0001368211  -0.0000078143  -0.0001620580
       -0.0000126750  -0.0001385398  -0.0001024937   0.0000324840   0.0000410554
       -0.0000062126  -0.0000031065  -0.0000273501  -0.0000023541  -0.0000076338
       -0.0000116984  -0.0000076832  -0.0000049624   0.0000051317  -0.0000025759
        0.0000093979   0.0000057850  -0.0000030993   0.0000146079   0.0000096022
       -0.0000045304  -0.0000250170   0.0000858077  -0.0000071962  -0.0001000274
       -0.0001267694  -0.0000432732  -0.0000232894   0.0000143707  -0.0000348049
       -0.0011142063   0.0004678481  -0.0001245191
       -0.0050835126   0.0138093200  -0.0136481614   0.0164651783  -0.0321586171
        0.0166324200  -0.0610463040   0.0033623578   0.0028912241   0.2150563486
       -0.0132446770  -0.1444796913  -0.0815670976  -0.0349774887   0.1018434706
       -0.0665218555   0.0230366728   0.0221335772  -0.0080323043  -0.0067888133
        0.0169222887   0.0056846709  -0.0002077980  -0.0002912434  -0.0019389084
       -0.0007622265   0.0048777196   0.0066726546   0.0022053353  -0.0072960738
       -0.0090927631   0.0285216446   0.0034251437  -0.0040082080  -0.0000031477
        0.0061883789  -0.0204742179   0.0013939633   0.0003563974   0.0121475075
        0.0028717528  -0.0058363771  -0.0058106770   0.0061669539  -0.0021234368
        0.0113198472  -0.0018973140  -0.0043542927  -0.0015809081   0.0000835201
       -0.0002144755  -0.0018654568  -0.0028388730  -0.0006542525  -0.0000072583
        0.0023996490   0.0001027288  -0.0013116795  -0.0001377988  -0.0001851996
        0.0006261266   0.0001640097  -0.0000262480   0.0003650731  -0.0007062527
       -0.0000550069   0.0011038952  -0.0009009954  -0.0002113556  -0.0008266492
        0.0001562395  -0.0000475131   0.0014654494  -0.0001026599   0.0004720600
        0.0006046122  -0.0000102497   0.0000342648   0.0002687476  -0.0005027642
        0.0000762389  -0.0005558788   0.0009844079   0.0000780175  -0.0017527247
       -0.0013276621  -0.0002903077   0.0010302477   0.0031881958   0.0007435734
       -0.0159569498   0.0013734709   0.0070498768   0.0140754056  -0.0079594217
        0.0048844957  -0.0001933790   0.0035552436   0.0002586532  -0.0025904845
        0.0216236177  -0.0043102033  -0.0003798865  -0.0001253875  -0.0006337041
        0.0005234329   0.0002095501   0.0001599905  -0.0007183835  -0.0005349069
       -0.0005796608  -0.0001856935   0.0000100985   0.0001474940   0.0058708365
       -0.0080624446  -0.0026029799   0.0002067344  -0.0000217439   0.0001278488
       -0.0001346778  -0.0005376390  -0.0005677954  -0.0002444648  -0.0003576556
       -0.0000056249  -0.0000022321   0.0000256127   0.0000482898   0.0000439174
       -0.0000250933   0.0000507408   0.0000283594   0.0000046199   0.0000927193
       -0.0000129505  -0.0000328382  -0.0000715163   0.0000444258  -0.0000242850
       -0.0000108398   0.0000347366  -0.0000825784  -0.0000324664   0.0001638062
        0.0005427632   0.0001029195   0.0001209569   0.0005483454   0.0005381106
       -0.0020274650  -0.0019060123  -0.0017102163
       -0.0027420595  -0.0112679767   0.0090964661  -0.0146925218  -0.0047441502
        0.0074418310   0.0147858482  -0.1447387323  -0.0093815684  -0.0132446770
        0.4755963221  -0.1182405186  -0.0478264624  -0.1365529156   0.1753149735
        0.0283629493  -0.1188448864  -0.0517445183   0.0008428774   0.0135151916
       -0.0116170692   0.0010969047   0.0036178258   0.0051134076   0.0014480261
        0.0010823865  -0.0059895756   0.0006991149  -0.0026043392   0.0119160440
        0.0191725042  -0.0381435657  -0.0197767001  -0.0032365580   0.0039978901
        0.0002150376   0.0157261460  -0.0039858295   0.0007791691  -0.0092644896
       -0.0014457241   0.0045265649   0.0052715422  -0.0067272368   0.0035575822
       -0.0079149857   0.0035950768   0.0001540954   0.0013308186  -0.0008532347
       -0.0001759128   0.0022940350   0.0024757153   0.0009137845  -0.0000868606
       -0.0024720192  -0.0000621058   0.0019737205  -0.0000117230   0.0002677786
       -0.0010375610   0.0007445414   0.0001136150  -0.0009629216  -0.0001437013
       -0.0000421856  -0.0012710109   0.0028996715   0.0001507043   0.0021701065
       -0.0012936677   0.0000610631  -0.0028890541  -0.0008196457  -0.0005028055
       -0.0003703666   0.0009020546  -0.0000232017  -0.0014606768   0.0002202981
       -0.0000893477   0.0013972665  -0.0014557345  -0.0000113004   0.0016909980
        0.0014959968   0.0003051960  -0.0001620009  -0.0028114643  -0.0008416566
        0.0096041461   0.0017700839  -0.0033843545  -0.0081283250   0.0042025664
       -0.0051157827   0.0071340804  -0.0220463647  -0.0027624885   0.0019563653
       -0.0065286827   0.0057108003  -0.0021636976  -0.0011249149   0.0009791369
       -0.0004829347   0.0001596624   0.0008069998  -0.0009295633  -0.0002759204
        0.0002147968   0.0004470167  -0.0002446109  -0.0006549624   0.0020337566
       -0.0082582333   0.0041300915   0.0001775919   0.0002900450  -0.0002243913
        0.0002231630   0.0003944081   0.0004128554   0.0001941248   0.0000895324
       -0.0000296344   0.0000248709   0.0001979770  -0.0000397853   0.0000069579
        0.0000885541  -0.0000394346   0.0000391743  -0.0000728431  -0.0000623942
        0.0000141497  -0.0000391159   0.0000533673  -0.0001500337  -0.0000673140
        0.0000083726  -0.0001286483  -0.0001457649   0.0000322584   0.0001007256
       -0.0001234135  -0.0000035802   0.0001681508  -0.0002759815  -0.0003747685
       -0.0012417234   0.0007839069  -0.0010859489
        0.0087905293  -0.0263224206   0.0294929477  -0.0194244976   0.0446707348
       -0.0358138629  -0.0112961235   0.0102905905  -0.0636461209  -0.1444796913
       -0.1182405186   0.6517092813   0.1201468288   0.1435976436  -0.4356501006
        0.0203863169  -0.0340693282  -0.1070754202   0.0190070593  -0.0045404912
       -0.0491056535  -0.0012605246   0.0098406173   0.0006954785   0.0035276391
       -0.0001419349  -0.0083972273  -0.0042128123   0.0057852718   0.0141070835
        0.0050941763  -0.0410674160   0.0170789220   0.0087045372  -0.0028295524
       -0.0193954260   0.0342241954  -0.0073174523   0.0053735156  -0.0199081252
       -0.0037988899   0.0078868399   0.0117655551  -0.0115088797   0.0061305238
       -0.0120332103   0.0055080562  -0.0009000653   0.0020557712  -0.0002756973
       -0.0005306844   0.0011164572   0.0027815311   0.0003738900   0.0002768788
       -0.0019502565  -0.0001761617   0.0006045611   0.0000962368   0.0001311027
       -0.0002621493  -0.0008054669  -0.0000289356   0.0001372179   0.0012508234
        0.0000944750  -0.0009871647  -0.0007503470   0.0003635589  -0.0003952045
        0.0007518493   0.0000094768  -0.0002517007   0.0009512237  -0.0003316802
       -0.0005600383  -0.0006473621  -0.0000162966   0.0004159120   0.0006927516
       -0.0001143860   0.0000913868  -0.0005801025  -0.0000955990   0.0013989444
        0.0013358316   0.0001259575  -0.0013541640  -0.0031029304  -0.0005857038
        0.0155284901   0.0003120469  -0.0055248244  -0.0153423589   0.0121637473
       -0.0077503531   0.0054762225  -0.0263244726   0.0018776049  -0.0071189899
        0.0173275714  -0.0030869469  -0.0016157252  -0.0013960533   0.0000548891
        0.0003985387  -0.0004675320  -0.0008066528  -0.0011492926  -0.0000997820
        0.0002459236  -0.0006640163   0.0006515800   0.0005248898  -0.0147193086
        0.0286940663   0.0052398261  -0.0001608102  -0.0000117961  -0.0004343190
        0.0004743766   0.0009222342   0.0006063568   0.0002914464   0.0005555406
        0.0000810300  -0.0000106803  -0.0002366387  -0.0000429995  -0.0000632067
       -0.0000385766  -0.0000747805  -0.0000822576   0.0000660792  -0.0001278223
        0.0000102175   0.0000909480   0.0000610783   0.0001006068   0.0000838147
        0.0000151910   0.0000699261   0.0002369337   0.0000581792  -0.0003361662
       -0.0008323353  -0.0000369103  -0.0003990374  -0.0002048682  -0.0006780749
       -0.0020065354  -0.0010966228  -0.0019110140
        0.0022615415  -0.0068617929   0.0064961778  -0.0076619024   0.0078698203