$hessian                                                                        
        0.2585723040   0.1990865786   0.2243374901  -0.2124049852  -0.1693545583
       -0.1881858099   0.0188584628   0.0011910213   0.0023733334  -0.0047384209
       -0.0008028657  -0.0033784303   0.0015466786  -0.0010846187   0.0021943066
        0.0002680821   0.0020398901   0.0018879033  -0.0007508065   0.0000201640
        0.0016397747   0.0001238031   0.0005088275  -0.0001077650   0.0001465767
        0.0000523231  -0.0000660220   0.0000992880   0.0002309085  -0.0000152303
        0.0006323393  -0.0009160856  -0.0000002562  -0.0003402447   0.0011545168
       -0.0000095405  -0.0509224764  -0.0319637476  -0.0390344114  -0.0053445157
        0.0022478313   0.0036214796  -0.0043408143   0.0016242119  -0.0012924765
        0.0041987652  -0.0003724249  -0.0008692028  -0.0031017112  -0.0000189218
        0.0000968439   0.0005889322  -0.0007927603  -0.0007845858  -0.0000303477
       -0.0001793017  -0.0000372657  -0.0004700034   0.0000442517   0.0000158448
        0.0004361537   0.0003750788   0.0000014150   0.0000956739  -0.0006390919
        0.0000644366   0.0002408162   0.0008428332   0.0000043566  -0.0007927736
        0.0001021790  -0.0000260289   0.0002570518  -0.0009430180  -0.0000089742
        0.0001430340   0.0006190860  -0.0000517797   0.0003838710  -0.0003906141
        0.0000412622  -0.0004718147  -0.0000143580  -0.0000382330  -0.0000036337
        0.0001855743   0.0000680072   0.0004274987   0.0006230808   0.0007990458
       -0.0008054206  -0.0010372108  -0.0018751205   0.0018141567  -0.0040891148
       -0.0045529693  -0.0013933703   0.0005177995   0.0015049846  -0.0004764767
        0.0022611269   0.0017508975  -0.0005194511   0.0003602949  -0.0000376820
       -0.0000098587  -0.0001411887  -0.0000499323  -0.0001531131  -0.0001125881
       -0.0000655782  -0.0001034049  -0.0000289264  -0.0001138705  -0.0001878760
       -0.0006585411  -0.0003438428   0.0000056282  -0.0003853188   0.0003899849
       -0.0007870141   0.0000233265  -0.0001175537  -0.0000257647  -0.0001373894
        0.0000011503   0.0000217586   0.0001058550   0.0000220998  -0.0000520881
        0.0000810158  -0.0000065793  -0.0000512817   0.0000212302  -0.0000112697
       -0.0000619387  -0.0000194333   0.0000021660  -0.0000578142  -0.0000775306
       -0.0000070023   0.0000194713  -0.0000830271  -0.0000296160  -0.0000032802
        0.0001534767  -0.0000438052   0.0001536580  -0.0000492813   0.0000527813
       -0.0006333033  -0.0001805655   0.0002912699
        0.1990865786   0.3006817511   0.3064819621  -0.1668274937  -0.2741791347
       -0.2407831069  -0.0023286147  -0.0245966504  -0.0401947788  -0.0080871239
       -0.0021824494  -0.0027361136   0.0018574384  -0.0000200158   0.0006393719
        0.0020393093   0.0014128851   0.0002147369   0.0007565562  -0.0007610767
        0.0013023840   0.0001388011   0.0002513347   0.0000786919   0.0001321844
       -0.0001205974  -0.0000224548   0.0000481081   0.0004718607   0.0000172582
       -0.0005959489  -0.0004931433  -0.0004926877   0.0003407947   0.0008267969
        0.0000233604  -0.0298074292   0.0038326477  -0.0178086202   0.0002277098
        0.0039081074   0.0018541221  -0.0028854852   0.0003477112   0.0002737051
        0.0032611887  -0.0002865280  -0.0000596795  -0.0018260900   0.0006474052
       -0.0000117735   0.0003684560  -0.0003913127  -0.0006082464  -0.0002124335
       -0.0003017337  -0.0000119882  -0.0004486588   0.0001370276   0.0000203671
        0.0004044615   0.0003122382  -0.0000013824   0.0001022749  -0.0005076656
        0.0000609367   0.0001119130   0.0005350589  -0.0000283838  -0.0005623265
        0.0003316289   0.0000119638   0.0004118292  -0.0008000391  -0.0000136076
        0.0001422774   0.0004605799  -0.0000354609   0.0003191267  -0.0002867500
        0.0000422488  -0.0003781666  -0.0000951858  -0.0000188643  -0.0000629430
        0.0003180725   0.0000685258   0.0000363421  -0.0001474272   0.0005328766
       -0.0021514542  -0.0017272750  -0.0001618617   0.0050355171  -0.0021508988
       -0.0032795767   0.0005186323  -0.0032016306  -0.0024835306   0.0021101200
       -0.0025541720  -0.0029358576  -0.0002112970   0.0000435777  -0.0006575486
        0.0000706840   0.0001138534  -0.0001416116  -0.0000600822  -0.0000082615
       -0.0000911164   0.0000071925   0.0000457488  -0.0000684176  -0.0008778915
       -0.0002751419  -0.0004019243   0.0001804735  -0.0001707553   0.0004647159
       -0.0003037877  -0.0002234398   0.0001351890   0.0000181881  -0.0000567592
       -0.0000366321   0.0000133448   0.0001074781   0.0000144682  -0.0000082860
        0.0000487051  -0.0000080432  -0.0000090611   0.0000137891  -0.0000087473
       -0.0000313799  -0.0000020593  -0.0000005582  -0.0000225888  -0.0000423296
       -0.0000068682   0.0000197185  -0.0000253622  -0.0000267295  -0.0000272576
       -0.0000032221  -0.0000443079  -0.0000364828   0.0001032895   0.0000245587
        0.0000030621   0.0006594694   0.0009190367
        0.2243374901   0.3064819621   0.3587644192  -0.1850971628  -0.2416595217
       -0.3223099215  -0.0041977460  -0.0433463715  -0.0260171280  -0.0073915305
        0.0002516822  -0.0051518625   0.0019378497  -0.0021898426   0.0030068923
        0.0014584244   0.0011807536   0.0005045905   0.0002378535  -0.0005761599
       -0.0000039679   0.0005214627   0.0002469525   0.0001850766  -0.0003424786
        0.0002970481  -0.0001809643  -0.0001023754  -0.0001871697   0.0001294962
       -0.0000773750   0.0005464658  -0.0009999620   0.0003131233  -0.0000968131
        0.0008895341  -0.0376509023  -0.0166116685  -0.0049506961   0.0011560184
        0.0008644311   0.0039526839  -0.0033807826   0.0027815190   0.0000291053
        0.0040160386  -0.0002872122  -0.0003198780  -0.0024545977   0.0001626791
        0.0003360489   0.0003933215  -0.0002754160  -0.0007854169  -0.0001852104
       -0.0003834533   0.0000015129  -0.0005231643   0.0001669183   0.0000256842
        0.0004833581   0.0003762634  -0.0000009816   0.0001289059  -0.0006254436
        0.0000801370   0.0002705630   0.0007514443  -0.0000255025  -0.0007219211
        0.0001833129   0.0000003359   0.0003652046  -0.0009216460  -0.0000192861
        0.0001743340   0.0006068161  -0.0000506237   0.0004304814  -0.0003897520
        0.0000591792  -0.0005124789  -0.0001462868  -0.0000346051  -0.0000668903
        0.0004130136   0.0000682734   0.0001453483   0.0000218422   0.0007420130
       -0.0029706942  -0.0007017350  -0.0008161167   0.0067138355  -0.0031037403
       -0.0041318295  -0.0003346605   0.0005755574   0.0012561279   0.0034015956
       -0.0044503292  -0.0043912913   0.0006251657  -0.0000696799  -0.0008274772
        0.0000358667  -0.0000567011  -0.0000672210   0.0000156646  -0.0000433130
       -0.0000600280   0.0000193705  -0.0000205521  -0.0000682300  -0.0006424592
       -0.0004301669  -0.0008161440   0.0002611539  -0.0004276250   0.0007816316
       -0.0001766183   0.0001130770   0.0000766393  -0.0000004305  -0.0000324184
       -0.0000435674   0.0000236455   0.0000980579   0.0000113919  -0.0000206885
        0.0000625900  -0.0000117523  -0.0000229748   0.0000114743  -0.0000135196
       -0.0000382112  -0.0000073056   0.0000003726  -0.0000284848  -0.0000586286
       -0.0000047450   0.0000243137  -0.0000493716  -0.0000402962  -0.0000003444
        0.0000273647  -0.0000622174  -0.0000613371   0.0000728302   0.0000339833
       -0.0004888702   0.0008542679   0.0012701027
       -0.2124049852  -0.1668274937  -0.1850971628   0.5356741282   0.1124942752
        0.1445706819  -0.0899998377   0.0313805074   0.0313378929  -0.0226923449
        0.0197614639   0.0142970618  -0.0004298362  -0.0009479319  -0.0028957622
        0.0013435015   0.0005272291  -0.0033294829  -0.0010015765  -0.0017539251
        0.0002566470   0.0010542179  -0.0002328355   0.0008169691  -0.0008447462
        0.0004459170  -0.0004726756  -0.0005676187  -0.0006527563   0.0005066586
       -0.0014631850   0.0027296073  -0.0015824087   0.0017320048  -0.0024664559
        0.0010079839  -0.1672337841   0.0097368076   0.0000719951  -0.0256689783
       -0.0105548083  -0.0173164477   0.0093692830  -0.0054888620  -0.0041769656
       -0.0129921642   0.0006990333   0.0001924778   0.0097224988  -0.0004632044
        0.0003096293  -0.0014838012   0.0021686766   0.0023947221   0.0001713003
        0.0004169423   0.0000862638   0.0012584712  -0.0001149693  -0.0000407328
       -0.0011694827  -0.0009341434   0.0000076124  -0.0002743323   0.0016895245
       -0.0001977596  -0.0005553545  -0.0023980632  -0.0000182898   0.0020400419
       -0.0001095036   0.0000859310  -0.0004423025   0.0024518276  -0.0000122638
       -0.0004188172  -0.0016440551   0.0001659688  -0.0010785569   0.0010128199
       -0.0001075730   0.0012561487   0.0000202273   0.0001251343   0.0001605156
       -0.0004042540  -0.0000738893  -0.0014265826  -0.0019660030  -0.0024716163
        0.0070452640   0.0053077495   0.0052646943  -0.0383018491   0.0138568969
        0.0181302004   0.0012060464   0.0018955747   0.0035107754   0.0077724795
       -0.0096264836  -0.0069884490  -0.0005507166  -0.0016151990   0.0016877351
        0.0001247997   0.0003804283  -0.0000387841   0.0003775930   0.0001931735
       -0.0000334757   0.0003097711   0.0000584718   0.0001212729  -0.0012268817
        0.0007877743  -0.0004328859   0.0008847503   0.0016543480   0.0012271875
        0.0000953804   0.0002193431   0.0002088865  -0.0000424296   0.0002716416
        0.0000020624  -0.0000742457  -0.0002639851  -0.0000654344   0.0001226559
       -0.0002004735   0.0000127535   0.0001335478  -0.0000497964   0.0000325027
        0.0001425025   0.0000418870  -0.0000149535   0.0001363208   0.0001947668
        0.0000096917  -0.0000602444   0.0002665814   0.0000656491  -0.0000424302
       -0.0002687052   0.0000184492  -0.0003284632  -0.0000659201  -0.0001351093
        0.0006423242  -0.0016136682  -0.0010233686
       -0.1693545583  -0.2741791347  -0.2416595217   0.1124942752   0.4400855785
        0.2836550566   0.0157880151  -0.0878348803  -0.0286195470   0.0270075239
       -0.0053613372   0.0068961209  -0.0034696285   0.0039511750  -0.0028253571
       -0.0043051588  -0.0038099244  -0.0012444168  -0.0008238495   0.0016357413
       -0.0018416451  -0.0013062433  -0.0004795540  -0.0004180950   0.0004145837
       -0.0002791382   0.0003351164   0.0001286276  -0.0001625571  -0.0000597056
        0.0013025846  -0.0011526185   0.0016530116  -0.0011227407  -0.0000096676
       -0.0009235362   0.0153613099  -0.0625325449   0.0053754048  -0.0105858132
       -0.0029407988  -0.0012464161   0.0008229270   0.0048299695  -0.0042975364
       -0.0010190851   0.0002708787  -0.0007163393  -0.0000251783  -0.0020199607
        0.0007602407   0.0000863992   0.0000309911   0.0002897892   0.0001822909
        0.0003231850  -0.0000253314   0.0002669709  -0.0001700153  -0.0000365594
       -0.0002249195  -0.0001638056  -0.0000016558  -0.0000223693   0.0002441652
       -0.0000425218   0.0000661180  -0.0001457142   0.0000430115   0.0001916826
       -0.0004013601  -0.0000565683  -0.0004425469   0.0003338178   0.0000114792
       -0.0000756004  -0.0001377165  -0.0000055226  -0.0000922088   0.0001118654
       -0.0000259486   0.0001454675   0.0001116410  -0.0000274785   0.0000395711
       -0.0002185613  -0.0000610925   0.0001372884   0.0007132612  -0.0000422180
        0.0029223329   0.0055952868  -0.0048088028   0.0098647111   0.0007380255
        0.0010891514  -0.0034977617   0.0064994840   0.0032209282   0.0073513944
       -0.0188583568  -0.0171777345  -0.0008985928   0.0001439662   0.0014627266
       -0.0000995164  -0.0002088779   0.0001766953  -0.0000036841  -0.0000351632
        0.0001059351  -0.0000970006  -0.0000652108   0.0000699082   0.0018882168
        0.0004170156   0.0010932410  -0.0003754881  -0.0021753967   0.0001788220
       -0.0004033812   0.0003008627  -0.0002854354  -0.0000645188   0.0000246569
        0.0000591012   0.0000015566  -0.0000594242  -0.0000012183  -0.0000229206
       -0.0000071507   0.0000170572  -0.0000191820  -0.0000109660   0.0000120489
       -0.0000003457  -0.0000107635   0.0000106497  -0.0000052477   0.0000018817
        0.0000105476  -0.0000089877  -0.0000408855   0.0000140585   0.0000595425
        0.0001075114   0.0000471438   0.0006421167  -0.0000924750  -0.0000353662
        0.0012010216  -0.0029070009  -0.0001016751
       -0.1881858099  -0.2407831069  -0.3223099215   0.1445706819   0.2836550566
        0.4966163750   0.0157465519  -0.0221882613  -0.0845906565   0.0184674801
        0.0028397057   0.0171997601  -0.0066326316   0.0065391227  -0.0082889639
       -0.0035748309  -0.0037801903  -0.0021059638   0.0003589727   0.0013582298
       -0.0015534005  -0.0016199477  -0.0004091725  -0.0003616258   0.0004870288
       -0.0004425237   0.0004485190   0.0000896330   0.0001954659   0.0000505241
        0.0009687421  -0.0015515954   0.0016202641  -0.0011948123   0.0002812943
       -0.0014529452   0.0060521405  -0.0000672276  -0.0632162551  -0.0228293961
        0.0002039583  -0.0037747298  -0.0011670515  -0.0055648775  -0.0020711480
       -0.0021248366  -0.0004197137  -0.0010765827   0.0010478980   0.0003143022
       -0.0005350479  -0.0002123166  -0.0001005551   0.0003561430   0.0001992007
        0.0002677120   0.0000274751   0.0003340374  -0.0001323069   0.0000045221
       -0.0002569208  -0.0002234153   0.0000066299  -0.0000797401   0.0003291141
       -0.0000383009  -0.0002066229  -0.0003340955   0.0000233285   0.0003764903
       -0.0001813510  -0.0000000184  -0.0002436214   0.0005683288   0.0000104139
       -0.0000881346  -0.0003708593   0.0000393428  -0.0002679356   0.0002463592
       -0.0000364391   0.0003139104   0.0001913848   0.0000370842   0.0000256920
       -0.0003886375  -0.0000046666   0.0001706929   0.0002327022  -0.0004428543
        0.0057722735  -0.0036242892  -0.0013812492   0.0168263839   0.0020624979
        0.0038844483   0.0141664619  -0.0165622617  -0.0233388531  -0.0017639677
       -0.0036697283  -0.0023520197   0.0009048906   0.0008706246   0.0001520016
       -0.0000607014  -0.0000644232   0.0001336064  -0.0000264368  -0.0000267999
        0.0000100451  -0.0000947116  -0.0000225680   0.0000602053   0.0019321116
        0.0005940433   0.0013342413  -0.0004866683   0.0008765611  -0.0010701816
       -0.0011258635  -0.0001898695  -0.0002605343  -0.0000046201   0.0000135383
        0.0000121018  -0.0000083005  -0.0000522878   0.0000041468  -0.0000022053
       -0.0000214182   0.0000056311  -0.0000057187  -0.0000015313   0.0000043088
        0.0000112759   0.0000054255  -0.0000014931  -0.0000040726   0.0000224575
       -0.0000041905  -0.0000138451   0.0000026026   0.0000330641  -0.0000215689
        0.0000575697   0.0000079272   0.0012202658  -0.0003035497  -0.0000957793
        0.0022604732  -0.0002514409  -0.0017182889
        0.0188584628  -0.0023286147  -0.0041977460  -0.0899998377   0.0157880151
        0.0157465519   0.4351282643   0.0523461912   0.0235984159  -0.1471723591
        0.0080710457  -0.0263967858  -0.0136178280   0.0300660727  -0.0207946798
       -0.0277733063  -0.0032291414  -0.0110560182  -0.0002577271   0.0021783817
       -0.0015173358  -0.0013765869   0.0000582624  -0.0005701555   0.0005240759
       -0.0000405502   0.0001875300  -0.0012321913   0.0002719678  -0.0000547642
       -0.0000406379  -0.0056224532   0.0015427100  -0.0016892072   0.0005188979
       -0.0010595594  -0.0244440527   0.0183971580   0.0185105082  -0.0003771015
        0.0012927403   0.0012844231  -0.0006434255   0.0006982892   0.0009741414
        0.0030324822   0.0000008486   0.0004823247  -0.0027411714   0.0001104646
       -0.0001806261   0.0004285589  -0.0008301520  -0.0005229317   0.0000653698
        0.0000344633  -0.0000547755  -0.0002799999  -0.0000721726   0.0000037037
        0.0002660747   0.0001992146   0.0000022625   0.0000597491  -0.0004138927
        0.0000332412   0.0001618788   0.0007022212   0.0000328629  -0.0005776474
       -0.0000881151  -0.0000350727   0.0000141467  -0.0005969418  -0.0000036542
        0.0001007961   0.0004120429  -0.0000298214   0.0002689959  -0.0002398579
        0.0000172988  -0.0002930992   0.0001012783  -0.0000323849   0.0000131239
       -0.0000547548   0.0000277912   0.0006103615   0.0009512082   0.0005900449
       -0.0021883996  -0.0004161053   0.0010073654  -0.0048734672  -0.0005418120
       -0.0026752924  -0.0345863584  -0.0116350242   0.0138722938  -0.1044865137
       -0.1052469155  -0.0096440940  -0.0007976884  -0.0011088034   0.0002841288
       -0.0000109228  -0.0002378889   0.0001283798  -0.0000761296  -0.0001667172
        0.0000064727  -0.0004173537  -0.0003270986  -0.0000161054   0.0027412937
        0.0001525713   0.0009725903  -0.0014991367   0.0008148098  -0.0000637610
       -0.0001966807  -0.0000194158  -0.0001408183  -0.0000070424  -0.0001392975
        0.0000312054   0.0000215885   0.0000664554   0.0000198254  -0.0000549783
        0.0000671389   0.0000015532  -0.0000596290   0.0000178155  -0.0000087190
       -0.0000516345  -0.0000153041   0.0000044912  -0.0000577924  -0.0000645338
       -0.0000051151   0.0000113296  -0.0001014547  -0.0000134336  -0.0000022285
        0.0001431312  -0.0000044297  -0.0007204528   0.0000206168   0.0001146966
        0.0002960355   0.0000557148  -0.0003987334
        0.0011910213  -0.0245966504  -0.0433463715   0.0313805074  -0.0878348803
       -0.0221882613   0.0523461912   0.4913406505  -0.0333205287  -0.0066185692
       -0.0661533347  -0.0035890826   0.0473572595  -0.0314534707   0.0311803434
       -0.0123326575   0.0082928623  -0.0018849978  -0.0002815574  -0.0024147871
        0.0005531282   0.0011974655   0.0005448881  -0.0001908500  -0.0005444009
        0.0002476217  -0.0002627455  -0.0007638112   0.0001191069  -0.0012571768
       -0.0042836092  -0.0017177795   0.0003188842   0.0027889656   0.0010377290
        0.0007814210   0.0101503267   0.0007852804  -0.0096075511  -0.0010154632
       -0.0011223143  -0.0007611612   0.0003561097  -0.0010845792  -0.0000913445
       -0.0017135432  -0.0000323584  -0.0002986770   0.0014631226   0.0001548709
        0.0000071286  -0.0002230766   0.0003281877   0.0002650804  -0.0000028092
       -0.0000059801   0.0000446565   0.0001564609   0.0000223370   0.0000075769
       -0.0001478961  -0.0001041745   0.0000018173  -0.0000544686   0.0002139845
       -0.0000161454  -0.0001021083  -0.0003515924  -0.0000252237   0.0003072204
        0.0000353594   0.0000288614  -0.0000096346   0.0003285400  -0.0000063093
       -0.0000625388  -0.0002249631   0.0000228517  -0.0001569812   0.0001264189
       -0.0000094914   0.0001692733  -0.0000464306   0.0000248370  -0.0000034165
       -0.0000061498  -0.0000108891  -0.0002508722  -0.0004126741  -0.0003297581
        0.0011709705  -0.0002508511   0.0001915932   0.0002614224   0.0017934762
        0.0011537326  -0.0126859208  -0.0721322346   0.0946752438  -0.1027456052
       -0.2137283459  -0.0106179625  -0.0018963355  -0.0009912062  -0.0005644199
       -0.0000036727   0.0000506014  -0.0000674181  -0.0000933440   0.0001175168
        0.0000959751  -0.0002069354  -0.0001799635  -0.0000178873  -0.0043972325
       -0.0013853328  -0.0009910922   0.0003608986   0.0006906358  -0.0001418723
        0.0000483228   0.0000082853   0.0000590986   0.0000147645   0.0000478701
       -0.0000284804  -0.0000162317  -0.0000347115  -0.0000142292   0.0000283879
       -0.0000379241  -0.0000060927   0.0000315054  -0.0000047793   0.0000003846
        0.0000267419   0.0000048439  -0.0000039822   0.0000301137   0.0000344463
        0.0000007733  -0.0000118226   0.0000455931   0.0000068801  -0.0000079345
       -0.0000645037   0.0000012936   0.0002355187  -0.0000700212   0.0000065302
       -0.0004401217   0.0000708870   0.0002219101
        0.0023733334  -0.0401947788  -0.0260171280   0.0313378929  -0.0286195470
       -0.0845906565   0.0235984159  -0.0333205287   0.4453422774  -0.0404288486
        0.0051357912  -0.0789232664  -0.0233231516   0.0221079333   0.0029118295
       -0.0055658770   0.0018013519   0.0079535251  -0.0007153731  -0.0000750514
       -0.0005891448   0.0007308326  -0.0003880605  -0.0007818730  -0.0002972556
        0.0002882765  -0.0003268780   0.0004142136  -0.0011076883  -0.0015726417
       -0.0007423906   0.0016531083   0.0021605449  -0.0001810360  -0.0008287787
        0.0003362012   0.0083312547  -0.0077310361   0.0044551521  -0.0008337993
       -0.0009124555  -0.0021983984   0.0008264198   0.0003748964  -0.0002050730
       -0.0011729169  -0.0000638296  -0.0003384266   0.0008535862  -0.0000514654
        0.0002491129  -0.0000995645   0.0001256655   0.0002604623  -0.0000124944
        0.0000817739   0.0000098924   0.0001155793  -0.0000195224  -0.0000039288
       -0.0001207039  -0.0001044442   0.0000021237  -0.0000323835   0.0001841418
       -0.0000234554  -0.0001032036  -0.0002670243  -0.0000158586   0.0001976930
        0.0000746963   0.0000221231  -0.0000178000   0.0001880440  -0.0000148493
       -0.0000511903  -0.0001803916   0.0000206000  -0.0001202269   0.0001201182
       -0.0000103973   0.0001293523  -0.0000024989   0.0000201576   0.0000408141
       -0.0000641154   0.0000082794  -0.0002096947  -0.0002249072  -0.0002612749
        0.0010083215   0.0011414854   0.0003150556  -0.0015840832  -0.0001237222
        0.0018691157   0.0137169605   0.0876814471  -0.2336148886  -0.0081128860
       -0.0082249564  -0.0400082984   0.0005919278   0.0005729896   0.0011283908
        0.0000313180   0.0000676650  -0.0000439341  -0.0000983348   0.0001878439
        0.0004523968   0.0000479818   0.0000324620   0.0000787633   0.0003765993
        0.0007041170   0.0005863676  -0.0005954689   0.0000238690   0.0009025476
        0.0000778121   0.0000150378   0.0000331436   0.0000123038   0.0000277921
       -0.0000154584  -0.0000085732  -0.0000177643  -0.0000127065   0.0000190509
       -0.0000260057  -0.0000015367   0.0000231107  -0.0000058080   0.0000013866
        0.0000146753   0.0000052743  -0.0000015284   0.0000166892   0.0000245083
       -0.0000007191  -0.0000061605   0.0000408366   0.0000014687   0.0000004996
       -0.0000336818  -0.0000163614  -0.0000010612   0.0000938242   0.0000425208
       -0.0004521600  -0.0001668873   0.0004252434
       -0.0047384209  -0.0080871239  -0.0073915305  -0.0226923449   0.0270075239
        0.0184674801  -0.1471723591  -0.0066185692  -0.0404288486   0.4695051751
       -0.0049317075   0.0876661313  -0.0956004058   0.0757957916  -0.0382771075
       -0.1507040361  -0.0679765537  -0.0036786272   0.0041056074  -0.0148468573
        0.0077472976   0.0085737943   0.0031273574  -0.0006999602  -0.0035955555
        0.0023745541  -0.0021559141  -0.0054751395  -0.0008229949  -0.0045478276
       -0.0382793888  -0.0056674341  -0.0112946143   0.0008394527  -0.0123856766
        0.0058614631   0.0046494324  -0.0003437856  -0.0014777966  -0.0012567589
       -0.0009855571  -0.0011220508   0.0013959757  -0.0010892152  -0.0007881126
       -0.0035944731   0.0001822026  -0.0000469271   0.0031602797  -0.0003089362
        0.0000623408  -0.0005615066   0.0009755934   0.0006422739  -0.0000212099
       -0.0000297711   0.0000417761   0.0003832926   0.0000597152  -0.0000084455
       -0.0003613968  -0.0002309646  -0.0000008686  -0.0000925245   0.0004840712
       -0.0000471142  -0.0000994010  -0.0007396786  -0.0000114506   0.0007536062
       -0.0001696800   0.0000178761  -0.0001867133   0.0008657258   0.0000211062
       -0.0001309383  -0.0004655286   0.0000334681  -0.0003184108   0.0002326397
       -0.0000268950   0.0003453189  -0.0000845557   0.0000277046  -0.0000834124
        0.0000211999  -0.0000610301  -0.0004295046  -0.0007179293  -0.0006609331
        0.0013600975   0.0008455641   0.0005012113  -0.0008090871   0.0012292197
        0.0017464358   0.0022298264   0.0045443683  -0.0002322962  -0.0230928709
       -0.0008116674  -0.0072763168  -0.0007966808   0.0021970783  -0.0006994186
        0.0003093145   0.0008855368  -0.0004806474  -0.0001129717   0.0005487965
        0.0003852975  -0.0009087216  -0.0008109990   0.0000626576   0.0034260824
        0.0068596766  -0.0015483235  -0.0004335432   0.0000156509  -0.0004014006
        0.0001856012   0.0000826664   0.0001199672   0.0000034744   0.0001210561
       -0.0000101429  -0.0000328175  -0.0001030970  -0.0000205730   0.0000636412
       -0.0000887083   0.0000013952   0.0000655742  -0.0000177991   0.0000136705
        0.0000778400   0.0000048411  -0.0000034256   0.0000759665   0.0000780727
        0.0000108498  -0.0000322443   0.0000643071   0.0000196706   0.0000142485
       -0.0000925775   0.0000345854   0.0002786327  -0.0000725454  -0.0001486382
       -0.0001893960  -0.0001032965   0.0000625779
       -0.0008028657  -0.0021824494   0.0002516822   0.0197614639  -0.0053613372
        0.0028397057   0.0080710457  -0.0661533347   0.0051357912  -0.0049317075
        0.7381781963  -0.1910208388   0.0572758691  -0.5199141225   0.1783118239
       -0.0534710807  -0.1126724119  -0.0005361217  -0.0167543076  -0.0423265325
        0.0079414729   0.0122967346   0.0006032524   0.0072392189  -0.0060536794
        0.0034825419  -0.0038956539  -0.0018931960  -0.0026726027   0.0029139853
       -0.0231423681   0.0358244568  -0.0209344913  -0.0086194155  -0.0349819557
        0.0089411426   0.0001717092  -0.0005602628  -0.0019851939  -0.0002112817
        0.0002195439   0.0000569257  -0.0003200653   0.0000738612   0.0002095943
        0.0004120673  -0.0000392531  -0.0001184366  -0.0003615058  -0.0003636295
       -0.0000106439  -0.0001682160   0.0001950155  -0.0000882754   0.0000207226
       -0.0000324514   0.0000154729  -0.0000087667   0.0000088955   0.0000092840
        0.0000137499  -0.0000066924   0.0000022187   0.0000020501  -0.0000276475
        0.0000119206   0.0001915002   0.0002607597   0.0000127908  -0.0000568629
       -0.0003836231  -0.0000150997  -0.0001853566   0.0001124509  -0.0000023194
        0.0000092937   0.0000449049   0.0000004344   0.0000497201  -0.0000520245
        0.0000049968  -0.0001304114   0.0000182585  -0.0000023011  -0.0000837212
       -0.0000122258   0.0000242874   0.0002407865   0.0003276915   0.0000801895
       -0.0000439099  -0.0002442100  -0.0000620199   0.0006837326  -0.0000901580
       -0.0002777798   0.0108051700  -0.0033480806   0.0073483919  -0.0255624871
        0.0031603067  -0.0102751520  -0.0001889229   0.0004903000  -0.0011425011
       -0.0007479329  -0.0002110166   0.0000929072   0.0003841252  -0.0000034562
       -0.0005253955   0.0007469746   0.0001531654   0.0000652965   0.0325325603
        0.0081413430   0.0093723540  -0.0000524756   0.0001650396   0.0001564506
       -0.0000164109   0.0000530522  -0.0000357700  -0.0000146537   0.0000174677
       -0.0000104081  -0.0000048666  -0.0000298200  -0.0000025668   0.0000042778
       -0.0000090595  -0.0000032565  -0.0000063223  -0.0000005354  -0.0000061437
        0.0000170886  -0.0000059550  -0.0000046449   0.0000003588   0.0000009811
       -0.0000058572  -0.0000101627  -0.0000621374  -0.0000120835   0.0000659182
        0.0000527182  -0.0000205030   0.0000247057   0.0000140927  -0.0000058190
        0.0000613282   0.0001486896  -0.0000390615
       -0.0033784303  -0.0027361136  -0.0051518625   0.0142970618   0.0068961209
        0.0171997601  -0.0263967858  -0.0035890826  -0.0789232664   0.0876661313
       -0.1910208388   0.2746046204  -0.0312054042   0.1812260484  -0.1283433667
       -0.0084435744  -0.0020079017  -0.0639376139   0.0088117185   0.0082237034
       -0.0036857681  -0.0038788067   0.0041187447   0.0049233095   0.0006904231
       -0.0003121866   0.0001422831  -0.0041788929   0.0030349680   0.0043476352
       -0.0052879693  -0.0147894627   0.0035630406   0.0039789488   0.0072765964
       -0.0028663749   0.0041030139  -0.0035331090  -0.0038795569  -0.0005935859
       -0.0004515747  -0.0007333501   0.0003284425  -0.0003340682  -0.0002201910
       -0.0014880232   0.0000241008  -0.0000306350   0.0011945426   0.0000421182
        0.0000281748  -0.0001404505   0.0002683135   0.0002429192  -0.0000187618
       -0.0000134265   0.0000078004   0.0001356885   0.0000255606  -0.0000078260
       -0.0001224826  -0.0000627932  -0.0000022557  -0.0000330455   0.0001619907
       -0.0000210248  -0.0000960373  -0.0003414208  -0.0000064421   0.0002692494
        0.0000847865   0.0000055436   0.0000195963   0.0002491128   0.0000134605
       -0.0000483232  -0.0001612691   0.0000070661  -0.0001266080   0.0000864178
       -0.0000129485   0.0001622459  -0.0000365256   0.0000049141   0.0000189489
        0.0000291784  -0.0000377812  -0.0002529220  -0.0003917270  -0.0002464071
        0.0006660868   0.0002340016  -0.0002261236   0.0012022483   0.0005068675
        0.0008565894  -0.0237226931   0.0085615917  -0.0113997523  -0.0040566995
       -0.0001364522   0.0008053379   0.0006685788  -0.0004230166  -0.0024428408
        0.0001229811   0.0006986067   0.0005448937   0.0005393677  -0.0005113971
       -0.0015642751  -0.0004719563  -0.0005210263  -0.0003871944  -0.0108734632
       -0.0003231222  -0.0032687645  -0.0002898798   0.0001085376  -0.0000613004
        0.0000563677  -0.0000003182   0.0000639135  -0.0000010934   0.0000454842
       -0.0000006008  -0.0000107645  -0.0000244107  -0.0000040886   0.0000193590
       -0.0000259350   0.0000023229   0.0000229820  -0.0000045762   0.0000087978
        0.0000172206   0.0000023976   0.0000018979   0.0000215361   0.0000240603
        0.0000074143  -0.0000071943   0.0000473626   0.0000155838  -0.0000238070
       -0.0000580923   0.0000273498   0.0002269728  -0.0000428188  -0.0000658893
       -0.0000920573  -0.0001240052   0.0001028718
        0.0015466786   0.0018574384   0.0019378497  -0.0004298362  -0.0034696285