$hessian                                                                        
        0.5411270637   0.1517024857  -0.1678126570  -0.0969471973  -0.0039599137
        0.0320491939   0.0398956826   0.0123871478  -0.0168330381  -0.0250509180
        0.0184392004   0.0277437658  -0.0010446720  -0.0006960470  -0.0002802719
        0.0001216015  -0.0000674484  -0.0003226967   0.0000102460  -0.0000834100
        0.0001000531   0.0000007271  -0.0000120191   0.0000121734   0.0000164206
       -0.0000067866  -0.0000096336  -0.0000031924  -0.0000052906   0.0000065739
       -0.0000061789  -0.0000023743   0.0000016985  -0.0000008678   0.0000080904
        0.0000004332  -0.0000150269  -0.0000057968  -0.0000018561  -0.0000016029
       -0.0000082441  -0.0000022767   0.0000004636   0.0000001400  -0.0000000903
       -0.0000003159   0.0000002637   0.0000001908   0.0000008473  -0.0000007331
       -0.0000008670  -0.0000014451  -0.0000003805  -0.0000005221   0.0000005451
        0.0000010000  -0.0000003590  -0.0000018006  -0.0000005216  -0.0000000723
        0.0000007453   0.0000009801  -0.0000000266  -0.0000012225  -0.0000002964
       -0.0000007206   0.0000018735   0.0000009903  -0.0000007174   0.0000005740
       -0.0000012153  -0.0000002965   0.0000029669   0.0000002415   0.0000000177
       -0.0000034107   0.0000019354   0.0000001596   0.0000139315   0.0000008091
        0.0000001606  -0.0000152011  -0.0000031050  -0.0000035157   0.0000155405
        0.0000064571   0.0000074540   0.0000020999   0.0000024404   0.0000037692
        0.0000175193   0.0000017017   0.0000188623  -0.0000322223  -0.0000139633
        0.0000020400  -0.0000402938  -0.0000061574  -0.0000027807  -0.0000202762
       -0.0000256656  -0.0000243083  -0.0000261913  -0.0000111839  -0.0000211504
        0.0001018478   0.0000427357  -0.0000354948   0.0003636412  -0.0000588304
        0.0000377047   0.0000928658   0.0000642256  -0.0000517900  -0.0000037837
       -0.0001340088  -0.0000704263  -0.0001336017  -0.0000336832  -0.0001626252
       -0.0000752839   0.0000091666  -0.0000544908  -0.0000805310   0.0000393072
        0.0000126381  -0.0002367090   0.0001058725   0.0001502886  -0.0000708033
       -0.0000015528   0.0001233609   0.0001372255   0.0001852130  -0.0001296900
        0.0001060705   0.0001978389   0.0003774843  -0.0000205902  -0.0000690402
       -0.0000391822   0.0000157546   0.0000241452  -0.0000025758  -0.0000070835
       -0.0000377730  -0.0000010028  -0.0000445033  -0.0000468920   0.0000696741
       -0.0000619294   0.0000964462  -0.0002125945  -0.0000044248  -0.0000776089
        0.0000591914  -0.0000275810  -0.0000346273   0.0000364873   0.0000062233
        0.0000063612  -0.0000069198  -0.0000017833   0.0000017133  -0.0000028556
        0.0000004908   0.0000070924  -0.0000082273   0.0000142748  -0.0000099243
        0.0000027584   0.0000922633  -0.0000100794   0.0000265613   0.0000149281
       -0.0000120564  -0.0000291607   0.0000121894   0.0000175750  -0.0000030825
       -0.0000038473  -0.0000058666   0.0000094345  -0.0000110928  -0.0000139436
       -0.0000032992  -0.0000063566   0.0000017577  -0.0000105308   0.0000126182
        0.0000002571   0.0000098940  -0.0002010919  -0.0000633930  -0.0000803916
        0.0000121683   0.0000315880   0.0000013149   0.0000122461   0.0000086005
        0.0000077023   0.0000060252  -0.0000109375   0.0000051828   0.0000051141
       -0.0000106488   0.0000028156  -0.0000041630   0.0000006117  -0.0000063901
       -0.0000003205  -0.0000013352  -0.0000042699  -0.0000378804   0.0005683383
        0.0001360464  -0.0000205631   0.0000735208   0.0000177687  -0.0000819605
        0.0002113001  -0.0000378186   0.0001582100  -0.0000282078  -0.0000639541
       -0.0000109359   0.0000383886   0.0001111799  -0.0001025454   0.0000223716
       -0.0000690870   0.0001297674  -0.0001236248  -0.0000352116  -0.0456223238
       -0.0588327578  -0.0149867117  -0.2578788986  -0.0040198200   0.1403081310
       -0.1390340854  -0.1220410991  -0.0276240450  -0.0081687069   0.0165534926
        0.0196924100   0.0001669432  -0.0053518417   0.0011312123   0.0001939856
       -0.0001289767   0.0000112758   0.0000006001   0.0000068748  -0.0000031812
       -0.0000034583   0.0000012390  -0.0000026541   0.0000000715  -0.0000008001
       -0.0000003528  -0.0000017395  -0.0000017213  -0.0000006860  -0.0000021527
       -0.0000005381  -0.0000004710  -0.0000015280  -0.0000000154  -0.0000005025
       -0.0000018216  -0.0000000879  -0.0000005485  -0.0000019314   0.0000001855
       -0.0000005702  -0.0000014242   0.0000004285  -0.0000005555  -0.0000027480
       -0.0000010574  -0.0000011881   0.0000029550   0.0000025476  -0.0000020817
       -0.0000161096  -0.0000171456  -0.0000074378  -0.0000028070   0.0000034851
        0.0000051408   0.0000172168   0.0000079621  -0.0000073473   0.0000271198
       -0.0000167481   0.0000067904   0.0000325722  -0.0000079840   0.0000121042
        0.0000499540  -0.0000030540  -0.0000027573   0.0000353169  -0.0000106555
       -0.0000342768  -0.0000140710  -0.0000250101   0.0000369725  -0.0000078484
       -0.0000111113  -0.0000026995  -0.0000095814  -0.0000085759   0.0000201611
       -0.0000297409  -0.0000253165  -0.0000191885  -0.0005844534   0.0001800456
       -0.0009264734   0.0000598326   0.0000205517   0.0000098380  -0.0000007804
        0.0000014047  -0.0000176375  -0.0000045801   0.0000011655  -0.0000025930
       -0.0000027846   0.0000014639  -0.0000028856  -0.0000049847  -0.0000015235
        0.0000003720  -0.0000046247  -0.0000099162   0.0000069439  -0.0000043450
        0.0000031721  -0.0000000241  -0.0000014546  -0.0000008088  -0.0000010382
        0.0000013340   0.0000006979  -0.0000004182  -0.0000020467  -0.0000020750
        0.0000010605   0.0000000822   0.0000014685  -0.0000006426  -0.0000112597
       -0.0000012565  -0.0000017590  -0.0000013945  -0.0000017552  -0.0000027267
       -0.0000020363   0.0000021700   0.0000009591  -0.0000003352   0.0000004286
        0.0000022098  -0.0000010227   0.0000002816  -0.0000007354  -0.0000867140
       -0.0000762256  -0.0000086605   0.0000214398  -0.0000100439   0.0000119595
       -0.0000046565  -0.0000034188   0.0000055037  -0.0000080565   0.0000135935
        0.0000008658   0.0000001182  -0.0000030419   0.0000136863   0.0003078973
       -0.0050928269   0.0016194103  -0.0074523041   0.0002908259   0.0060607371
        0.1517024857   0.4969890783   0.2068825918   0.0504428985  -0.1846717677
       -0.1479756665  -0.0284849328  -0.0453319901  -0.0186688282   0.0179533706
       -0.0052029151  -0.0120525373  -0.0009610821  -0.0012249212  -0.0002902223
        0.0005947193   0.0001083155  -0.0001171547  -0.0000173777  -0.0001795852
       -0.0000247276   0.0000396783  -0.0000023696   0.0000139064   0.0000017198
        0.0000017559  -0.0000073826  -0.0000018471  -0.0000099430   0.0000067341
       -0.0000106237   0.0000027117  -0.0000013121  -0.0000052287  -0.0000366689
       -0.0000024335   0.0000131025   0.0000164554   0.0000009286   0.0000025556
        0.0000019152   0.0000018661  -0.0000066815  -0.0000005689   0.0000009249
        0.0000032335  -0.0000011152  -0.0000007338  -0.0000013782  -0.0000008379
       -0.0000003739  -0.0000006055  -0.0000004140  -0.0000009031  -0.0000031718
        0.0000021039   0.0000004139   0.0000014197  -0.0000016236  -0.0000007525
       -0.0000006664  -0.0000006353   0.0000003443  -0.0000011893  -0.0000002729
       -0.0000000931  -0.0000009143  -0.0000002575   0.0000002814   0.0000001722
        0.0000000643  -0.0000001281  -0.0000034938  -0.0000006232  -0.0000010613
        0.0000003753   0.0000007346   0.0000000807  -0.0000219973   0.0000026442
       -0.0000028205   0.0000273731   0.0000325816   0.0000074667  -0.0000190433
       -0.0000216061  -0.0000055977   0.0000009290  -0.0000060852   0.0000053994
        0.0000047994   0.0000077301   0.0000074919  -0.0000266230  -0.0000090106
        0.0000113557  -0.0000265591   0.0000050666  -0.0000092577  -0.0000037287
       -0.0000164419  -0.0000064257  -0.0000303756  -0.0000055050  -0.0000107289
        0.0000793073   0.0000274286  -0.0000209365   0.0001065844  -0.0000891589
       -0.0000067965   0.0000133896  -0.0000973925   0.0000388081   0.0001712578
       -0.0000818491  -0.0000996753  -0.0000115960   0.0000068041  -0.0001041181
       -0.0000624020   0.0000032161  -0.0000775382  -0.0000825817   0.0000337495
        0.0000008275  -0.0000954839   0.0000594147   0.0001276351   0.0001552489
       -0.0000737731   0.0002263825   0.0000296458  -0.0000462197   0.0000149168
        0.0000986553   0.0001925712   0.0003347493  -0.0000335106  -0.0000022642
       -0.0000516686   0.0000082251  -0.0000176113  -0.0000451186  -0.0000155616
        0.0000220773  -0.0000633956  -0.0001123690  -0.0002395021   0.0000235286
        0.0004506320   0.0000059590  -0.0003098438  -0.0000655594  -0.0001073385
       -0.0000412699  -0.0000272890  -0.0000197781   0.0000516720   0.0000068195
        0.0000051589  -0.0000151953   0.0000019714   0.0000085114  -0.0000033723
        0.0000031124   0.0000103632  -0.0000052748   0.0000017337  -0.0000032873
        0.0000091612   0.0000149871   0.0000968786   0.0000173934   0.0000015924
        0.0000091802   0.0000066023   0.0000053368   0.0000190139  -0.0000102990
       -0.0000021419  -0.0000113641   0.0000121512  -0.0000147324  -0.0000159218
       -0.0000045164  -0.0000042326   0.0000017344  -0.0000145380   0.0000157268
        0.0000066623   0.0000156413  -0.0000824098  -0.0000053015  -0.0000076498
       -0.0000088127   0.0000177359  -0.0000071207  -0.0000059871   0.0000056779
       -0.0000059576   0.0000063803  -0.0000090758   0.0000089099   0.0000030736
       -0.0000151393  -0.0000027830  -0.0000012979   0.0000013831  -0.0000052808
       -0.0000108859   0.0000057163   0.0000061330  -0.0000574983   0.0003722501
        0.0002777904  -0.0000055604  -0.0000413466  -0.0001221388   0.0001098490
       -0.0000609941  -0.0000292903  -0.0000057173   0.0000117096   0.0000253982
        0.0000242476  -0.0000154912  -0.0000639927   0.0000392800   0.0000002427
        0.0000460341  -0.0000586981   0.0000665783  -0.0000011000  -0.0178093261
        0.0093877495   0.0195118636  -0.0581165541  -0.0826211680   0.0117462304
       -0.1220073990  -0.1882892375  -0.0418575917   0.0001269486   0.0013848782
        0.0008304632  -0.0050580266  -0.0007371491  -0.0036799898  -0.0000417825
       -0.0000322624   0.0000448988   0.0000023474   0.0000004105  -0.0000023107
       -0.0000032863   0.0000007370  -0.0000016581   0.0000000102  -0.0000012099
       -0.0000001745  -0.0000002759   0.0000004935  -0.0000002804   0.0000001219
        0.0000003869  -0.0000002226   0.0000002295  -0.0000009464  -0.0000004070
        0.0000010731   0.0000004383   0.0000000814   0.0000010432   0.0000002251
       -0.0000000742  -0.0000005997   0.0000011662   0.0000007826   0.0000003969
        0.0000006917   0.0000016957   0.0000044162   0.0000038878  -0.0000002581
       -0.0000004602  -0.0000194747   0.0000024919   0.0000041967   0.0000039925
        0.0000117955   0.0000076976   0.0000184749   0.0000100243   0.0000066924
       -0.0000286104   0.0000116935  -0.0000236997  -0.0000256974   0.0000098098
       -0.0000165891  -0.0000122627   0.0000166650   0.0000231085   0.0000068253
       -0.0000003233  -0.0000292601  -0.0000371645   0.0000643172  -0.0000010574
       -0.0000065385   0.0000378421  -0.0000109966  -0.0000027039   0.0000759142
        0.0000123105  -0.0000463179   0.0000200236  -0.0002567324   0.0001252578
        0.0002418476   0.0000122181   0.0000976647   0.0000291161  -0.0000102382
       -0.0000032750  -0.0000069158  -0.0000034416   0.0000011398   0.0000014262
        0.0000047201   0.0000016765   0.0000039461  -0.0000066265  -0.0000005744
       -0.0000006313   0.0000001870  -0.0000109984  -0.0000002868  -0.0000025023
        0.0000015670   0.0000015082  -0.0000019225  -0.0000023021  -0.0000007259
        0.0000008227   0.0000010599   0.0000003500  -0.0000021359  -0.0000030536
        0.0000019522   0.0000030876   0.0000004421   0.0000007977  -0.0000057910
       -0.0000008430  -0.0000074231  -0.0000001575  -0.0000044705  -0.0000010591
       -0.0000003014  -0.0000001021   0.0000024553   0.0000014506  -0.0000023190
        0.0000030022   0.0000050824   0.0000011813   0.0000087334  -0.0000530012
       -0.0000129940   0.0000250875   0.0000327253  -0.0000013459   0.0000366121
        0.0000021124   0.0000131956   0.0000126566  -0.0000061840  -0.0000007125
        0.0000196333   0.0000014031   0.0000240615   0.0000755902  -0.0054521564
       -0.0007257540  -0.0035809582   0.0169220607   0.0010686773  -0.0116055256
       -0.1678126570   0.2068825918   0.4021065615   0.0763379972  -0.1097270973
       -0.1916054145  -0.0504980511  -0.0465057780  -0.0024576267   0.0279735401
       -0.0118828280  -0.0355484611  -0.0001777101  -0.0004112647  -0.0003706690
        0.0004710918   0.0001367445   0.0002126030  -0.0000596978  -0.0001042584
       -0.0000844659   0.0000159456   0.0000078651   0.0000074121  -0.0000082757
        0.0000009757   0.0000024998   0.0000011678  -0.0000053638   0.0000020128
       -0.0000026333   0.0000023688  -0.0000010511  -0.0000056045  -0.0000126670
       -0.0000028823   0.0000109271   0.0000059919   0.0000041565   0.0000038672
        0.0000040186   0.0000011912  -0.0000047551  -0.0000005250  -0.0000024275
        0.0000029530  -0.0000004058  -0.0000012091  -0.0000030908   0.0000001215
        0.0000010478   0.0000000080  -0.0000008766   0.0000002785  -0.0000032103
        0.0000019352   0.0000012185   0.0000031455  -0.0000013748  -0.0000023855
        0.0000001464   0.0000003344  -0.0000004217  -0.0000006322  -0.0000005117
        0.0000001252  -0.0000022048  -0.0000003135   0.0000018036  -0.0000001362
        0.0000011421  -0.0000005080  -0.0000025132  -0.0000003885  -0.0000006339
       -0.0000003446   0.0000011725   0.0000016343  -0.0000121455  -0.0000007606
       -0.0000000989   0.0000149886   0.0000091445   0.0000050838  -0.0000139067
       -0.0000063216  -0.0000047724  -0.0000029576  -0.0000050479   0.0000013183
       -0.0000278110   0.0000008514  -0.0000232988   0.0000229872   0.0000088740
        0.0000089270  -0.0000011979   0.0000126941  -0.0000147354   0.0000093912
       -0.0000024468   0.0000155501  -0.0000144081  -0.0000091649   0.0000412533
        0.0000807637   0.0000199244   0.0000091946   0.0002093853  -0.0001598552
       -0.0000727834  -0.0000247892   0.0000806521   0.0000499336   0.0000158052
       -0.0000511149  -0.0001627202  -0.0000419436  -0.0000223331  -0.0000864325
       -0.0000282307  -0.0000278497  -0.0000510391  -0.0001128678  -0.0000258011
       -0.0000366709  -0.0001039513   0.0000347048   0.0001016286  -0.0000276326
        0.0000157321  -0.0000458035   0.0000630411   0.0002116592  -0.0000002810
        0.0000812561   0.0001509258   0.0001570778   0.0000078933  -0.0000199366
        0.0000141643   0.0000014603  -0.0000218469  -0.0000016161   0.0000430612
        0.0000017994  -0.0000438575  -0.0000035140  -0.0000363575  -0.0000329252
       -0.0002701110   0.0000193816  -0.0002976881  -0.0000535100  -0.0000634830
       -0.0000948683   0.0000243076  -0.0000000206   0.0000093831  -0.0000105359
       -0.0000016381  -0.0000017931   0.0000053608   0.0000012020   0.0000010095
       -0.0000019526   0.0000036575  -0.0000030082   0.0000007391   0.0000063123
        0.0000037031  -0.0000704510   0.0001163926  -0.0000115509  -0.0000162398
        0.0000111270   0.0000221056  -0.0000000623   0.0000044609  -0.0000035890
        0.0000007450  -0.0000058253   0.0000037908  -0.0000041673  -0.0000033403
       -0.0000003158   0.0000012812  -0.0000004464  -0.0000063036   0.0000041057
        0.0000108179   0.0000022900   0.0000961879   0.0000661013   0.0000755843
       -0.0000085347  -0.0000115252  -0.0000014761  -0.0000127002  -0.0000023753
       -0.0000102999  -0.0000003671   0.0000016484   0.0000037342  -0.0000000173
       -0.0000041726  -0.0000035870   0.0000016300  -0.0000002927   0.0000003772
       -0.0000121467   0.0000105455   0.0000057461   0.0000253662  -0.0000823337
        0.0001605169   0.0000265200  -0.0002370728  -0.0000770856   0.0001315344
       -0.0003567678  -0.0000006818  -0.0001415352   0.0000175977   0.0000477554
        0.0000431240  -0.0000549506  -0.0001528000   0.0000929571  -0.0000104837
        0.0000910185  -0.0001724330   0.0001125999   0.0000714832   0.0179988833
        0.0480338520   0.0278379159   0.0955678837  -0.0262498215  -0.1339886013
       -0.0275438829  -0.0418104410  -0.0494454274   0.0064210224  -0.0112078088
       -0.0123131692   0.0015677703  -0.0034823136   0.0042453856  -0.0001678534
        0.0001068776   0.0000163420   0.0000001430  -0.0000050004   0.0000019546
       -0.0000001239   0.0000001207  -0.0000000014  -0.0000002422   0.0000002095
       -0.0000005740   0.0000004489   0.0000011854  -0.0000000825   0.0000012147
        0.0000007039  -0.0000005455   0.0000010516   0.0000000893  -0.0000004005
        0.0000018225   0.0000001209  -0.0000001480   0.0000020092  -0.0000002948
       -0.0000000292   0.0000009372  -0.0000000022  -0.0000000242   0.0000024356
        0.0000010995   0.0000010387  -0.0000012725  -0.0000021247   0.0000025716
        0.0000093869   0.0000012607   0.0000120390  -0.0000062091  -0.0000054078
        0.0000037370   0.0000011688  -0.0000050103   0.0000177871   0.0000205474
        0.0000296432   0.0000491169   0.0000177762   0.0000131254   0.0000253058
        0.0000139471   0.0000123888   0.0000147001   0.0000196443   0.0000213632
        0.0000374697  -0.0000073995  -0.0000106848   0.0000199957  -0.0000056433
        0.0000020078   0.0000000047  -0.0000032806  -0.0000089088   0.0000050443
       -0.0000091539  -0.0000386683   0.0000079700  -0.0005266153   0.0001966079
       -0.0002637151  -0.0000216292   0.0000711680  -0.0000152365  -0.0000291932
       -0.0000044214   0.0000175278   0.0000060183  -0.0000033205   0.0000063328
        0.0000034885  -0.0000003960   0.0000038183   0.0000017622  -0.0000008384
        0.0000014504   0.0000016638   0.0000029512  -0.0000076337   0.0000001164
       -0.0000019546   0.0000020762  -0.0000008507  -0.0000011981  -0.0000008224
        0.0000005811   0.0000015955   0.0000003677   0.0000009354  -0.0000001458
        0.0000019707   0.0000016529  -0.0000016361   0.0000004751   0.0000013471
       -0.0000010474  -0.0000040702   0.0000006622  -0.0000039258   0.0000012612
        0.0000001531  -0.0000018163   0.0000013577   0.0000013225  -0.0000007383
        0.0000018188   0.0000053733  -0.0000000186   0.0000077306  -0.0000100100
        0.0000185092   0.0000633539   0.0000240715  -0.0000038277   0.0000480020
        0.0000094629   0.0000097739   0.0000097587   0.0000000929  -0.0000111508
        0.0000231917   0.0000067218   0.0000186066   0.0000666851   0.0010552313
       -0.0036723733   0.0041435079   0.0195115640  -0.0001048146  -0.0125835195
       -0.0969471973   0.0504428985   0.0763379972   0.5445293789   0.1448816030
       -0.1826341884  -0.1748876731  -0.1533963519  -0.0341830486  -0.0440515492
       -0.0183850548   0.0169672888  -0.0011617562  -0.0011146132   0.0051518943
       -0.0007008008  -0.0001889099  -0.0000156428   0.0000696715   0.0000935575
       -0.0004323568  -0.0000219823   0.0000113842  -0.0000074718   0.0000233417
       -0.0000204541   0.0000061740   0.0000006708  -0.0000097258   0.0000045627
        0.0000004760  -0.0000002500   0.0000008816  -0.0000028609  -0.0000101716
        0.0000006525  -0.0000057510   0.0000050547   0.0000013780   0.0000028441
       -0.0000078684  -0.0000024560  -0.0000053054  -0.0000006655  -0.0000011133
        0.0000034969   0.0000002373  -0.0000006871  -0.0000000230  -0.0000009460
       -0.0000014899  -0.0000009378  -0.0000012925  -0.0000014252  -0.0000009997
        0.0000034878  -0.0000000213   0.0000005691  -0.0000022392  -0.0000012487
        0.0000019987   0.0000010678   0.0000001844  -0.0000017961  -0.0000008549
       -0.0000007057   0.0000007623   0.0000012045   0.0000002096   0.0000003632
       -0.0000002048   0.0000001599   0.0000017600  -0.0000015942  -0.0000011350
       -0.0000032821   0.0000041428   0.0000015701   0.0000043205   0.0000013960
       -0.0000005707   0.0000020386   0.0000168982  -0.0000001795  -0.0000070925
       -0.0000045146  -0.0000025369  -0.0000037936  -0.0000088760   0.0000012344
        0.0000175992  -0.0000003447   0.0000144890  -0.0000169786  -0.0000049527
        0.0000019465   0.0000050885  -0.0000061605  -0.0000020386   0.0000096615
       -0.0000089940   0.0000021731  -0.0000011590  -0.0000157592  -0.0000290745
       -0.0000382461  -0.0000135895   0.0000007484  -0.0001106677   0.0000684352
       -0.0000317009  -0.0000570371  -0.0000764756   0.0001141467  -0.0000038103
       -0.0000029395  -0.0000469522   0.0000563802   0.0000401532   0.0000945314
        0.0000102380   0.0000211054   0.0000726660  -0.0000214775  -0.0000161931
       -0.0000401416   0.0000347239  -0.0000458040  -0.0001487377   0.0001504605
       -0.0000061532  -0.0000557763   0.0000086698  -0.0001152070  -0.0000669144
        0.0000272713   0.0000086406  -0.0000130966  -0.0000813954  -0.0000849973
        0.0000652300  -0.0000365234  -0.0000168161   0.0000482166  -0.0000352012
       -0.0000015088   0.0000787564   0.0000827889   0.0000469977   0.0000383555
        0.0001216034   0.0001486820  -0.0003233334   0.0000094569   0.0000077625
        0.0000410534  -0.0000225813  -0.0000094918   0.0000071292   0.0000070920
        0.0000042409  -0.0000102735  -0.0000041456   0.0000045196  -0.0000050160
        0.0000041165   0.0000092010  -0.0000154104   0.0000192786   0.0000047103
       -0.0000015915  -0.0000131060  -0.0000444938   0.0000012817   0.0000034425
       -0.0000048903   0.0000887472   0.0000171704  -0.0000094402   0.0000019274
        0.0000059778  -0.0000100993   0.0000127658  -0.0000118322  -0.0000121137
       -0.0000060414   0.0000019341   0.0000038036  -0.0000149328   0.0000167691
        0.0000290876  -0.0000040442   0.0001652055  -0.0000110275  -0.0003661968
       -0.0000005259  -0.0000215036   0.0000226388   0.0000071115   0.0000261680
       -0.0000019674   0.0000093636  -0.0000045730   0.0000143125   0.0000065465
       -0.0000195711   0.0000000576  -0.0000038837   0.0000021523  -0.0000222770
       -0.0000084381   0.0000221865  -0.0000167674  -0.0003749767  -0.0004862492
       -0.0004049124  -0.0001338830   0.0000145430   0.0002306884  -0.0000719779
        0.0002595005  -0.0001136971   0.0002230459   0.0000929104  -0.0000063335
        0.0000222180  -0.0000096554   0.0000612538  -0.0000126577   0.0000030429
       -0.0000808463   0.0000208898   0.0000304569  -0.0001612176  -0.0020100712
       -0.0095565011  -0.0104746907  -0.0038050099   0.0219510411   0.0211465993
        0.0035918213  -0.0132213457  -0.0126672730  -0.2253698687  -0.0232031774
        0.1153229148   0.0038568143   0.0038230376   0.0013024718   0.0001096987
       -0.0001348806   0.0001429407  -0.0000014609   0.0000105860  -0.0000043118
        0.0000006184   0.0000007978  -0.0000045324  -0.0000005458   0.0000000970
       -0.0000011057  -0.0000009358   0.0000004564  -0.0000013685  -0.0000005398
        0.0000008088  -0.0000010888  -0.0000002503   0.0000003957  -0.0000007850
        0.0000001106   0.0000006698  -0.0000002824  -0.0000001660   0.0000005188
        0.0000001797   0.0000002019   0.0000015128   0.0000008971   0.0000005648
        0.0000007333   0.0000012133   0.0000039696   0.0000041862   0.0000008093
        0.0000053062  -0.0000065084   0.0000002054   0.0000084022   0.0000088395
       -0.0000017398   0.0000133957   0.0000063030  -0.0000095773  -0.0000114383
        0.0000045338   0.0000008526  -0.0000145387  -0.0000006631   0.0000020972
       -0.0000322398  -0.0000121025  -0.0000031364  -0.0000242697  -0.0000463015
        0.0000905144  -0.0000036467  -0.0000335316   0.0000239316   0.0000013966
       -0.0000165767   0.0000317703   0.0000013065   0.0000019834   0.0000373263
       -0.0000729063  -0.0000590526  -0.0000699906  -0.0009837771   0.0006001098
       -0.0002688760   0.0000006702  -0.0000247147   0.0000107283   0.0000188513
        0.0000045081  -0.0000064763  -0.0000025057   0.0000027992  -0.0000010196
        0.0000002777   0.0000026300   0.0000003095  -0.0000023580  -0.0000038463
        0.0000021567  -0.0000158561  -0.0000055681   0.0000090283  -0.0000098255
        0.0000005884  -0.0000006554  -0.0000024458   0.0000001863  -0.0000024761
        0.0000012757   0.0000026268  -0.0000002481   0.0000019585  -0.0000005783
        0.0000033973  -0.0000049764  -0.0000060060   0.0000025215  -0.0000148819
       -0.0000122664   0.0000068198  -0.0000005884  -0.0000036891  -0.0000036943
       -0.0000019016   0.0000045813   0.0000015857   0.0000011004   0.0000018676
        0.0000078465   0.0000024813  -0.0000118660   0.0000042652  -0.0001308085
       -0.0000101906   0.0000652803   0.0000180703  -0.0000152414   0.0000065039
       -0.0000499340   0.0000006438   0.0000126869  -0.0000199314   0.0000282684
        0.0000388692   0.0000097149  -0.0000097283   0.0000322602   0.0006607483
       -0.0000549287  -0.0005281147  -0.0025635681  -0.0021136862   0.0055307266
       -0.0039599137  -0.1846717677  -0.1097270973   0.1448816030   0.4871489402
        0.2014916820  -0.0982493786  -0.2204969287  -0.0717615354  -0.0577133246
        0.0080202315   0.0464303562  -0.0004120495   0.0050750958  -0.0018398746
       -0.0018791702  -0.0008681392  -0.0000889500  -0.0000850523   0.0003899614
        0.0003828384  -0.0000738388  -0.0000299312  -0.0000607352   0.0000137076
       -0.0000074388  -0.0000027192  -0.0000069340   0.0000070189   0.0000071299
        0.0000027227  -0.0000017591   0.0000023104   0.0000063504  -0.0000310427
       -0.0000041087   0.0000012303   0.0000164905   0.0000006102  -0.0000005168
       -0.0000046413   0.0000007742   0.0000016399   0.0000025784   0.0000016104
        0.0000022958  -0.0000021737  -0.0000010081   0.0000029579  -0.0000006387
       -0.0000001284   0.0000004151   0.0000002915  -0.0000002938  -0.0000008880
        0.0000005663   0.0000004394   0.0000010004   0.0000012575   0.0000003229
       -0.0000030912  -0.0000001044   0.0000007342   0.0000020416  -0.0000005076
        0.0000006642  -0.0000019049  -0.0000011071   0.0000009909   0.0000013383
       -0.0000015576   0.0000001668  -0.0000015195   0.0000011410   0.0000005480
        0.0000040178  -0.0000056442  -0.0000017709  -0.0000131576   0.0000097898
        0.0000001148   0.0000180823   0.0000220369   0.0000069643  -0.0000130427
       -0.0000146192  -0.0000017702   0.0000004390  -0.0000087684   0.0000058147
        0.0000002516   0.0000068855  -0.0000024366  -0.0000035643  -0.0000041143
        0.0000078562  -0.0000126511  -0.0000091947  -0.0000201121  -0.0000159405
       -0.0000095395   0.0000115688  -0.0000073918  -0.0000012557  -0.0000017531
        0.0000386206   0.0000246827  -0.0000106568   0.0000230001  -0.0000306653
        0.0000260803  -0.0000565772   0.0000401722  -0.0000381242  -0.0000467430
       -0.0000097691   0.0000177342  -0.0000152219   0.0000174673   0.0000092797
        0.0000456793   0.0000056800  -0.0000111485   0.0000681835   0.0000332114
        0.0000152941  -0.0000486656  -0.0001270072   0.0000204282  -0.0000860484
       -0.0000612840  -0.0000352807  -0.0000775263   0.0000674269   0.0000056799
       -0.0000271160  -0.0001263172   0.0001955410  -0.0000063790   0.0000276679
       -0.0000001846  -0.0000363170  -0.0000643795  -0.0000346092   0.0000041409
        0.0000157616  -0.0000675946   0.0000587232  -0.0000528020   0.0000480657
        0.0000693065  -0.0001132590  -0.0000992246  -0.0000310103   0.0000230315
       -0.0000104800  -0.0000134197  -0.0000061236  -0.0000216085   0.0000056784
        0.0000020713  -0.0000054536   0.0000006543   0.0000036973  -0.0000002922
        0.0000097105   0.0000033105   0.0000034438   0.0000065625  -0.0000007503
       -0.0000194338   0.0000364646  -0.0002570397  -0.0000138872   0.0000385381
        0.0000284592  -0.0000668911   0.0000254056  -0.0000138070   0.0000232356
        0.0000018202   0.0000123517   0.0000031636  -0.0000012954  -0.0000014494
       -0.0000019949   0.0000011313   0.0000095026  -0.0000009848  -0.0000244665
        0.0000154029  -0.0000283390   0.0000166791   0.0001945782   0.0001537347
        0.0000601718   0.0000019621   0.0000211098   0.0000099901   0.0000284388
        0.0000056344  -0.0000026008   0.0000012406   0.0000055300   0.0000022710
       -0.0000046362   0.0000020422  -0.0000099689   0.0000053653  -0.0000061879
       -0.0000120827   0.0000327014  -0.0000207330   0.0007405504  -0.0000515611
       -0.0005330492  -0.0000324555   0.0000890944   0.0000824770  -0.0002200126
        0.0001461021  -0.0001381705   0.0001578587  -0.0002175170  -0.0000237348
        0.0000113240   0.0000598593   0.0001505058  -0.0002177314   0.0000128939
       -0.0001431323   0.0001696708  -0.0002811250  -0.0000858668  -0.0111872505
       -0.0465412480  -0.0256141188   0.0623831318   0.0281009767  -0.0216488462
        0.0033771529  -0.0176643007  -0.0174680569  -0.0235422250  -0.0428974480
        0.0086802287  -0.0125034456  -0.0177423540  -0.0065136284   0.0001954509
       -0.0001487527  -0.0001080438  -0.0000049313   0.0000100284  -0.0000078742
       -0.0000046193   0.0000010786   0.0000005897   0.0000008846   0.0000007109
        0.0000001420  -0.0000002648   0.0000004251  -0.0000002691  -0.0000008146
        0.0000010009   0.0000002020  -0.0000002277   0.0000009353   0.0000005405
        0.0000000796   0.0000012572   0.0000010717   0.0000007743   0.0000024772
        0.0000015217   0.0000015197   0.0000029436   0.0000021825   0.0000024305
        0.0000011021   0.0000016868   0.0000062992   0.0000043684  -0.0000012369