 Entering Gaussian System
 *********************************************
 Gaussian 98:
 frequency output generated by the xtb code
 *********************************************
                         Standard orientation:
 --------------------------------------------------------------------
  Center     Atomic     Atomic              Coordinates (Angstroms)
  Number     Number      Type              X           Y           Z
 --------------------------------------------------------------------
    1          6             0        7.679261    2.652961   -1.523502
    2          6             0        7.276765    2.238268   -0.105109
    3          6             0        7.089320    3.514517    0.728923
    4          6             0        8.410292    1.389256    0.489705
    5          6             0        5.987880    1.431580   -0.075227
    6          6             0        5.467230    1.012800    1.148668
    7          6             0        4.294333    0.288882    1.228133
    8          6             0        3.603280   -0.043469    0.069154
    9          7             0        2.374772   -0.761869    0.129269
   10          6             0        2.414450   -2.133603    0.294307
   11          6             0        3.652872   -2.761942    0.444690
   12          6             0        3.736189   -4.118445    0.703562
   13          6             0        2.581715   -4.894075    0.842690
   14          6             0        2.715847   -6.367050    1.194795
   15          6             0        3.554147   -7.072181    0.117372
   16          6             0        1.365859   -7.083865    1.287656
   17          6             0        3.416095   -6.488016    2.557328
   18          6             0        1.360885   -4.267837    0.641727
   19          6             0        1.219942   -2.909296    0.311806
   20          5             0       -0.112149   -2.201779    0.009467
   21          6             0       -1.509075   -2.770723   -0.293186
   22          6             0       -1.787315   -4.106858   -0.627301
   23          6             0       -3.065345   -4.604570   -0.832206
   24          6             0       -3.348287   -6.054058   -1.193159
   25          6             0       -2.077267   -6.901447   -1.299625
   26          6             0       -4.246668   -6.679029   -0.114709
   27          6             0       -4.065042   -6.094040   -2.551932
   28          6             0       -4.135286   -3.716577   -0.689319
   29          6             0       -3.914683   -2.376447   -0.425825
   30          6             0       -2.618673   -1.877925   -0.274458
   31          7             0       -2.439959   -0.517443   -0.110239
   32          6             0       -3.589773    0.322107   -0.057823
   33          6             0       -4.074719    0.755937    1.166631
   34          6             0       -5.171911    1.597504    1.224676
   35          6             0       -5.813735    2.030710    0.070180
   36          6             0       -7.015411    2.962657    0.091788
   37          6             0       -7.399992    3.395268    1.509819
   38          6             0       -6.686150    4.225233   -0.718727
   39          6             0       -8.217375    2.240142   -0.534930
   40          6             0       -5.318071    1.576103   -1.151317
   41          6             0       -4.224071    0.736933   -1.222512
   42          6             0       -1.200314    0.105597   -0.053534
   43          6             0       -1.130889    1.495553   -0.070691
   44          6             0        0.108229    2.141520    0.009896
   45          7             0        0.179258    3.541446    0.008971
   46          6             0        1.203180    4.179478   -0.693910
   47          6             0        1.797839    5.339194   -0.189821
   48          6             0        2.822572    5.954228   -0.880534
   49          6             0        3.280807    5.426357   -2.078316
   50          6             0        2.696596    4.274410   -2.582706
   51          6             0        1.667759    3.654822   -1.902644
   52          6             0       -0.773594    4.282221    0.710519
   53          6             0       -1.294268    3.807147    1.916961
   54          6             0       -2.252233    4.531468    2.597000
   55          6             0       -2.708418    5.740903    2.095221
   56          6             0       -2.194454    6.219395    0.899290
   57          6             0       -1.240831    5.499591    0.208019
   58          6             0        1.275536    1.373437    0.090704
   59          6             0        1.204276   -0.016523    0.072664
   60          6             0       -0.035352   -0.690591    0.009776
   61          6             0        4.112241    0.354459   -1.157954
   62          6             0        5.288693    1.080277   -1.224230
   63          1             0        7.866249    1.783280   -2.149311
   64          1             0        6.907996    3.267040   -1.983141
   65          1             0        8.595673    3.238310   -1.482482
   66          1             0        6.878905    3.284030    1.769529
   67          1             0        6.262633    4.103003    0.335735
   68          1             0        7.992781    4.119474    0.691851
   69          1             0        9.345029    1.945375    0.466107
   70          1             0        8.201980    1.116734    1.520784
   71          1             0        8.538112    0.474406   -0.085892
   72          1             0        5.979713    1.256575    2.066639
   73          1             0        3.904140   -0.021862    2.186661
   74          1             0        4.566008   -2.189896    0.373062
   75          1             0        4.715521   -4.558291    0.815752
   76          1             0        3.639335   -8.133376    0.343854
   77          1             0        4.556206   -6.656083    0.057706
   78          1             0        3.081219   -6.963215   -0.856972
   79          1             0        0.845930   -7.054164    0.333147
   80          1             0        0.735298   -6.635831    2.052450
   81          1             0        1.525911   -8.127877    1.551682
   82          1             0        3.527304   -7.535677    2.830807
   83          1             0        2.827969   -5.990233    3.326268
   84          1             0        4.403125   -6.033614    2.536296
   85          1             0        0.451981   -4.832518    0.750969
   86          1             0       -0.940580   -4.760782   -0.738345
   87          1             0       -1.551311   -6.930639   -0.348425
   88          1             0       -1.409547   -6.512993   -2.065467
   89          1             0       -2.342089   -7.922451   -1.569295
   90          1             0       -5.200402   -6.163022   -0.044124
   91          1             0       -4.441479   -7.724087   -0.348317
   92          1             0       -3.758056   -6.626784    0.856590
   93          1             0       -3.438048   -5.644053   -3.319666
   94          1             0       -5.005526   -5.550404   -2.519227
   95          1             0       -4.274723   -7.123689   -2.835787
   96          1             0       -5.154138   -4.054501   -0.802663
   97          1             0       -4.764479   -1.714115   -0.352281
   98          1             0       -3.586686    0.432428    2.074489
   99          1             0       -5.515583    1.912686    2.195694
  100          1             0       -8.255520    4.066113    1.463282
  101          1             0       -7.679663    2.539130    2.119565
  102          1             0       -6.581636    3.926844    1.990492
  103          1             0       -7.524034    4.918307   -0.685011
  104          1             0       -6.483438    3.989418   -1.759673
  105          1             0       -5.810351    4.720747   -0.304300
  106          1             0       -9.092564    2.886118   -0.516889
  107          1             0       -8.445505    1.334137    0.023374
  108          1             0       -8.019541    1.963525   -1.566966
  109          1             0       -5.787510    1.882129   -2.073634
  110          1             0       -3.851798    0.399098   -2.178980
  111          1             0       -2.023653    2.097509   -0.139279
  112          1             0        1.451465    5.746758    0.749002
  113          1             0        3.274558    6.848713   -0.476125
  114          1             0        4.085029    5.909002   -2.613314
  115          1             0        3.041436    3.858970   -3.518740
  116          1             0        1.207851    2.762747   -2.302271
  117          1             0       -0.932777    2.870239    2.315052
  118          1             0       -2.641642    4.152506    3.531074
  119          1             0       -3.457071    6.305571    2.630536
  120          1             0       -2.547583    7.158016    0.496572
  121          1             0       -0.851676    5.869880   -0.729562
  122          1             0        2.224572    1.881896    0.160321
  123          1             0        3.580351    0.093865   -2.061421
  124          1             0        5.648398    1.371258   -2.196987
 --------------------------------------------------------------------
     1 basis functions        1 primitive gaussians
     1 alpha electrons        1 beta electrons
 
 Harmonic frequencies (cm**-1), IR intensities (km*mol⁻¹),
 Raman scattering activities (A**4/amu), Raman depolarization ratios,
 reduced masses (AMU), force constants (mDyne/A) and normal coordinates:
                      1                      2                      3
                        a                      a                      a 
 Frequencies --   -15.4855                 6.6627                 8.2117
 Red. masses --     8.9657                 9.8258                10.4386
 Frc consts  --     0.0000                 0.0000                 0.0000
 IR Inten    --    22.3928                 3.6225                 2.6605
 Raman Activ --     0.0000                 0.0000                 0.0000
 Depolar     --     0.0000                 0.0000                 0.0000
 Atom AN      X      Y      Z        X      Y      Z        X      Y      Z
   1   6    -0.01   0.06   0.02     0.03   0.07   0.20     0.04   0.00   0.15
   2   6     0.00  -0.01   0.00    -0.01   0.03   0.18    -0.01   0.02   0.14
   3   6     0.01  -0.05   0.07    -0.06   0.01   0.20    -0.05   0.02   0.12
   4   6     0.02  -0.04  -0.05    -0.02   0.03   0.20    -0.02   0.03   0.19
   5   6     0.01  -0.01  -0.02    -0.00   0.02   0.12    -0.00   0.01   0.10
   6   6     0.04  -0.10  -0.04    -0.03  -0.03   0.09    -0.04   0.01   0.09
   7   6     0.04  -0.10  -0.06    -0.03  -0.04   0.03    -0.04   0.01   0.05
   8   6    -0.00  -0.01  -0.06     0.00   0.00   0.00    -0.00   0.00   0.03
   9   7    -0.00  -0.01  -0.08     0.00  -0.00  -0.05    -0.01   0.00  -0.01
  10   6    -0.00  -0.01  -0.08     0.01  -0.01  -0.08    -0.01   0.00  -0.00
  11   6    -0.00  -0.02  -0.17     0.01  -0.01  -0.14    -0.01   0.00   0.00
  12   6    -0.00  -0.02  -0.14     0.02  -0.01  -0.17    -0.01   0.00   0.01
  13   6    -0.00   0.01  -0.00     0.03  -0.01  -0.12    -0.01   0.00   0.01
  14   6     0.01   0.03   0.07     0.04  -0.02  -0.15    -0.01   0.01   0.02
  15   6    -0.23  -0.07  -0.04    -0.10  -0.02  -0.25    -0.05  -0.01  -0.00
  16   6    -0.00   0.09   0.40     0.04   0.01   0.01    -0.02   0.02   0.07
  17   6     0.27   0.10  -0.05     0.20  -0.04  -0.23     0.03   0.01  -0.00
  18   6    -0.01   0.01   0.05     0.02  -0.01  -0.07    -0.01   0.00   0.00
  19   6    -0.01   0.00   0.00     0.01  -0.01  -0.05    -0.01   0.00  -0.00
  20   5    -0.01   0.00   0.01    -0.00  -0.00  -0.01    -0.01   0.00  -0.01
  21   6    -0.01  -0.00   0.01    -0.01  -0.00   0.03    -0.00   0.00  -0.03
  22   6    -0.01  -0.01   0.05    -0.02  -0.01   0.04     0.01   0.00  -0.04
  23   6    -0.00  -0.01   0.01    -0.03  -0.01   0.10     0.01   0.01  -0.07
  24   6     0.00  -0.02   0.06    -0.04  -0.01   0.11     0.02   0.01  -0.09
  25   6    -0.01  -0.06   0.27    -0.04   0.02  -0.06     0.02  -0.01   0.01
  26   6    -0.15   0.06  -0.03     0.11  -0.04   0.22    -0.08   0.02  -0.17
  27   6     0.18  -0.08  -0.03    -0.22  -0.01   0.20     0.13   0.03  -0.15
  28   6    -0.00   0.01  -0.09    -0.02  -0.02   0.17     0.01   0.01  -0.10
  29   6    -0.00   0.01  -0.11    -0.02  -0.01   0.15     0.00   0.01  -0.08
  30   6    -0.01   0.00  -0.04    -0.01  -0.01   0.07    -0.00   0.00  -0.04
  31   7    -0.00   0.00  -0.05    -0.00  -0.00   0.04    -0.00   0.00  -0.03
  32   6    -0.00   0.01  -0.05    -0.00  -0.00   0.02    -0.00  -0.00   0.03
  33   6    -0.04  -0.05  -0.04     0.01   0.05   0.01     0.03  -0.05   0.06
  34   6    -0.03  -0.05  -0.03     0.01   0.06  -0.01     0.02  -0.06   0.12
  35   6     0.00   0.01  -0.03     0.00   0.01  -0.03    -0.01  -0.02   0.15
  36   6     0.00   0.01  -0.02     0.00   0.01  -0.05    -0.02  -0.04   0.22
  37   6    -0.02  -0.04  -0.01     0.01   0.07  -0.07     0.02  -0.08   0.24
  38   6     0.02   0.04   0.03     0.01  -0.02  -0.10    -0.07  -0.01   0.24
  39   6     0.02   0.03  -0.07    -0.00  -0.00  -0.02    -0.03  -0.03   0.24
  40   6     0.04   0.06  -0.04    -0.01  -0.05  -0.01    -0.04   0.02   0.12
  41   6     0.04   0.06  -0.04    -0.02  -0.05   0.01    -0.04   0.04   0.06
  42   6    -0.00   0.00  -0.04    -0.00  -0.00   0.01    -0.00   0.00  -0.03
  43   6    -0.00   0.00  -0.02    -0.00  -0.00  -0.00    -0.00   0.00  -0.05
  44   6    -0.00  -0.00  -0.01    -0.00  -0.00  -0.02    -0.00   0.00  -0.07
  45   7    -0.00  -0.00   0.02     0.00  -0.00  -0.04     0.01   0.00  -0.11
  46   6    -0.00   0.01   0.03     0.00  -0.01  -0.04     0.01  -0.03  -0.12
  47   6     0.00  -0.00   0.06     0.01  -0.01  -0.05     0.03  -0.02  -0.15
  48   6     0.00   0.01   0.08     0.01  -0.02  -0.05     0.03  -0.05  -0.16
  49   6    -0.00   0.05   0.06     0.01  -0.03  -0.05     0.02  -0.08  -0.15
  50   6    -0.01   0.06   0.03    -0.00  -0.03  -0.05     0.01  -0.09  -0.12
  51   6    -0.01   0.05   0.02    -0.00  -0.02  -0.04    -0.00  -0.06  -0.11
  52   6    -0.00  -0.01   0.03     0.01   0.01  -0.04     0.01   0.03  -0.11
  53   6    -0.01  -0.04   0.02     0.01   0.02  -0.03     0.01   0.06  -0.11
  54   6    -0.02  -0.05   0.03     0.02   0.03  -0.04     0.02   0.08  -0.12
  55   6    -0.01  -0.04   0.05     0.02   0.03  -0.05     0.04   0.08  -0.14
  56   6     0.00  -0.02   0.07     0.01   0.01  -0.06     0.04   0.05  -0.15
  57   6     0.00  -0.00   0.06     0.01  -0.00  -0.05     0.03   0.02  -0.14
  58   6    -0.00  -0.00  -0.03    -0.00  -0.00  -0.03    -0.00   0.00  -0.05
  59   6    -0.00  -0.00  -0.05     0.00  -0.00  -0.03    -0.00   0.00  -0.02
  60   6    -0.00  -0.00  -0.04    -0.00  -0.00  -0.01    -0.00   0.00  -0.02
  61   6    -0.03   0.08  -0.05     0.03   0.05   0.03     0.04  -0.00   0.04
  62   6    -0.03   0.08  -0.03     0.03   0.06   0.09     0.04   0.00   0.08
  63   1    -0.01   0.03  -0.01     0.02   0.03   0.05     0.02  -0.00   0.05
  64   1    -0.00   0.03   0.02     0.01   0.02   0.06     0.02  -0.00   0.03
  65   1    -0.00   0.02   0.01     0.01   0.02   0.07     0.01   0.00   0.05
  66   1     0.00  -0.03   0.02    -0.03  -0.01   0.06    -0.03   0.01   0.03
  67   1     0.00  -0.01   0.03    -0.01   0.00   0.05    -0.01   0.00   0.02
  68   1     0.00  -0.02   0.03    -0.02   0.01   0.07    -0.02   0.01   0.04
  69   1     0.00  -0.01  -0.01    -0.01   0.01   0.07    -0.01   0.01   0.06
  70   1     0.01  -0.03  -0.02    -0.01   0.00   0.05    -0.02   0.01   0.05
  71   1     0.00  -0.00  -0.03     0.00   0.01   0.05     0.00   0.01   0.06
  72   1     0.02  -0.05  -0.01    -0.02  -0.02   0.03    -0.02   0.01   0.03
  73   1     0.02  -0.05  -0.02    -0.01  -0.02   0.00    -0.02   0.00   0.01
  74   1     0.00  -0.01  -0.08     0.00  -0.00  -0.05    -0.00   0.00   0.00
  75   1     0.00  -0.01  -0.07     0.01  -0.01  -0.06    -0.00   0.00   0.00
  76   1    -0.05  -0.01   0.01    -0.01  -0.00  -0.07    -0.01  -0.00   0.00
  77   1    -0.07  -0.02  -0.09    -0.03  -0.00  -0.11    -0.02  -0.00  -0.01
  78   1    -0.13  -0.05   0.02    -0.07  -0.01  -0.05    -0.02  -0.01   0.00
  79   1    -0.05   0.01   0.14    -0.02   0.00   0.02    -0.01   0.00   0.02
  80   1     0.05   0.06   0.14     0.04   0.01   0.02     0.00   0.01   0.02
  81   1     0.00   0.03   0.13     0.01   0.00   0.00    -0.00   0.01   0.02
  82   1     0.04   0.03   0.02     0.04  -0.01  -0.06     0.00   0.00   0.00
  83   1     0.15   0.09  -0.00     0.10   0.01  -0.05     0.02   0.01   0.00
  84   1     0.10  -0.02  -0.09     0.07  -0.04  -0.10     0.01  -0.01  -0.01
  85   1    -0.00   0.01   0.04     0.01  -0.00  -0.01    -0.00   0.00   0.00
  86   1    -0.00  -0.01   0.03    -0.01  -0.00  -0.00     0.00   0.00  -0.01
  87   1    -0.04  -0.00   0.10     0.02  -0.00  -0.04    -0.02  -0.00   0.02
  88   1     0.03  -0.04   0.09    -0.04   0.02  -0.04     0.02  -0.01   0.02
  89   1    -0.00  -0.02   0.09    -0.01   0.01  -0.02     0.01  -0.00   0.00
  90   1    -0.05   0.02  -0.06     0.04  -0.01   0.11    -0.03   0.00  -0.08
  91   1    -0.04   0.01   0.01     0.02  -0.01   0.06    -0.02   0.00  -0.05
  92   1    -0.08   0.04   0.01     0.07  -0.02   0.04    -0.05   0.01  -0.04
  93   1     0.09  -0.06   0.00    -0.10   0.02   0.04     0.06  -0.01  -0.03
  94   1     0.07   0.01  -0.06    -0.07  -0.03   0.10     0.05   0.02  -0.07
  95   1     0.03  -0.02   0.01    -0.05  -0.00   0.05     0.03   0.01  -0.05
  96   1     0.00   0.01  -0.04    -0.01  -0.01   0.07     0.00   0.00  -0.04
  97   1     0.00   0.01  -0.05    -0.00  -0.00   0.05     0.00   0.00  -0.03
  98   1    -0.02  -0.03  -0.01     0.01   0.03   0.01     0.02  -0.02   0.01
  99   1    -0.02  -0.03  -0.01     0.01   0.03  -0.01     0.01  -0.03   0.04
 100   1    -0.01  -0.01  -0.00     0.00   0.02  -0.03     0.00  -0.03   0.08
 101   1    -0.01  -0.02  -0.01     0.01   0.03  -0.01     0.01  -0.03   0.07
 102   1    -0.01  -0.02   0.01     0.01   0.03  -0.03     0.01  -0.03   0.07
 103   1     0.01   0.01   0.01     0.00  -0.00  -0.04    -0.02  -0.01   0.09
 104   1     0.01   0.02   0.01     0.00  -0.02  -0.03    -0.03   0.01   0.07
 105   1     0.00   0.01   0.02     0.00  -0.00  -0.04    -0.02  -0.00   0.07
 106   1     0.00   0.01  -0.02    -0.00   0.00  -0.01    -0.01  -0.01   0.08
 107   1     0.00   0.00  -0.03    -0.00   0.00   0.00    -0.00  -0.01   0.06
 108   1     0.01   0.02  -0.02    -0.00  -0.01  -0.00    -0.02  -0.00   0.06
 109   1     0.02   0.03  -0.01    -0.01  -0.03  -0.01    -0.02   0.02   0.04
 110   1     0.02   0.03  -0.01    -0.01  -0.03   0.01    -0.02   0.02   0.01
 111   1    -0.00   0.00  -0.00    -0.00  -0.00   0.00    -0.00   0.00  -0.02
 112   1     0.00  -0.01   0.02     0.00  -0.00  -0.01     0.01   0.00  -0.04
 113   1     0.00   0.00   0.03     0.01  -0.01  -0.02     0.01  -0.01  -0.05
 114   1    -0.00   0.02   0.02     0.00  -0.01  -0.02     0.01  -0.03  -0.05
 115   1    -0.01   0.03   0.00    -0.00  -0.01  -0.01    -0.00  -0.03  -0.03
 116   1    -0.00   0.02  -0.00    -0.00  -0.01  -0.01    -0.00  -0.02  -0.03
 117   1    -0.00  -0.01   0.00     0.00   0.01  -0.01    -0.00   0.02  -0.03
 118   1    -0.01  -0.02   0.00     0.01   0.01  -0.01     0.00   0.03  -0.03
 119   1    -0.00  -0.01   0.02     0.01   0.01  -0.02     0.01   0.03  -0.04
 120   1     0.00  -0.00   0.02     0.00   0.00  -0.02     0.02   0.01  -0.05
 121   1     0.00   0.01   0.02     0.00  -0.00  -0.02     0.01   0.00  -0.04
 122   1    -0.00  -0.00  -0.01     0.00  -0.00  -0.01    -0.00   0.00  -0.02
 123   1    -0.02   0.04  -0.01     0.02   0.02   0.00     0.02  -0.00   0.01
 124   1    -0.02   0.04  -0.00     0.01   0.03   0.03     0.02  -0.00   0.03
                      4                      5                      6
                        a                      a                      a 
 Frequencies --    15.3745                16.6912                17.5740
 Red. masses --     9.8226                 9.5101                10.2947
 Frc consts  --     0.0000                 0.0000                 0.0000
 IR Inten    --    29.5305                16.4487                12.4229
 Raman Activ --     0.0000                 0.0000                 0.0000
 Depolar     --     0.0000                 0.0000                 0.0000
 Atom AN      X      Y      Z        X      Y      Z        X      Y      Z
   1   6    -0.00   0.12   0.11     0.05  -0.04  -0.01    -0.09   0.14   0.04
   2   6    -0.01   0.04   0.09     0.06  -0.08  -0.02    -0.07   0.09   0.03
   3   6    -0.03  -0.01   0.15     0.10  -0.10   0.03    -0.13   0.07   0.06
   4   6    -0.01   0.02   0.05     0.05  -0.13  -0.07    -0.04   0.13   0.02
   5   6    -0.00   0.02   0.03     0.04  -0.05  -0.03    -0.04   0.04   0.01
   6   6    -0.01  -0.05   0.00     0.05  -0.08  -0.04    -0.02  -0.02   0.00
   7   6    -0.00  -0.06  -0.05     0.04  -0.06  -0.05    -0.00  -0.05  -0.02
   8   6     0.01  -0.01  -0.07     0.01   0.00  -0.05    -0.00  -0.02  -0.02
   9   7     0.01  -0.01  -0.12     0.00   0.01  -0.06     0.00  -0.03  -0.04
  10   6     0.00  -0.01  -0.10    -0.00   0.01  -0.05    -0.00  -0.03  -0.02
  11   6    -0.00  -0.01  -0.08    -0.01  -0.00  -0.07    -0.00  -0.03  -0.03
  12   6    -0.01  -0.00  -0.04    -0.02   0.00  -0.02    -0.01  -0.03   0.01
  13   6    -0.01   0.00  -0.03    -0.03   0.03   0.05    -0.02  -0.01   0.05
  14   6    -0.02   0.02   0.04    -0.04   0.05   0.15    -0.03   0.00   0.13
  15   6     0.17  -0.01   0.21    -0.11  -0.05   0.16    -0.04  -0.06   0.16
  16   6    -0.01  -0.02  -0.15    -0.05   0.09   0.27    -0.03   0.02   0.18
  17   6    -0.23   0.11   0.16     0.02   0.15   0.13    -0.02   0.08   0.13
  18   6    -0.00   0.00  -0.07    -0.02   0.03   0.03    -0.01  -0.01   0.03
  19   6    -0.00  -0.00  -0.10    -0.01   0.02  -0.02    -0.00  -0.02  -0.00
  20   5     0.00  -0.01  -0.11     0.00   0.02  -0.04    -0.00  -0.02  -0.01
  21   6    -0.01  -0.01  -0.08     0.01   0.02  -0.04     0.00  -0.02  -0.01
  22   6    -0.02  -0.02  -0.03     0.02   0.02  -0.07     0.01  -0.02  -0.04
  23   6    -0.03  -0.02   0.02     0.02   0.02  -0.05     0.01  -0.02  -0.05
  24   6    -0.05  -0.04   0.14     0.03   0.03  -0.10     0.02  -0.01  -0.12
  25   6    -0.06  -0.05   0.13     0.05   0.10  -0.37     0.04   0.03  -0.22
  26   6     0.01   0.05   0.24     0.23  -0.07   0.01     0.09  -0.08  -0.10
  27   6    -0.13  -0.16   0.18    -0.19   0.08   0.01    -0.04   0.06  -0.08
  28   6    -0.02   0.01  -0.03     0.01  -0.00   0.02     0.01  -0.03  -0.01
  29   6    -0.01   0.01  -0.09     0.00  -0.00   0.04     0.00  -0.04   0.02
  30   6     0.00   0.00  -0.10     0.00   0.01  -0.01    -0.00  -0.03   0.01
  31   7     0.01   0.00  -0.13     0.00   0.01  -0.01    -0.00  -0.03   0.02
  32   6     0.01   0.00  -0.08    -0.00   0.01   0.01    -0.00  -0.02   0.01
  33   6     0.00  -0.08  -0.06     0.02   0.02   0.01     0.02   0.02   0.00
  34   6     0.00  -0.08  -0.01     0.01  -0.00   0.03     0.05   0.05  -0.01
  35   6     0.02  -0.00   0.01    -0.04  -0.04   0.04     0.04   0.04  -0.01
  36   6     0.02  -0.00   0.07    -0.06  -0.08   0.05     0.08   0.09  -0.03
  37   6     0.01  -0.10   0.10    -0.04  -0.06   0.06     0.11   0.14  -0.04
  38   6     0.02   0.05   0.16    -0.12  -0.08   0.02     0.14   0.05  -0.06
  39   6     0.02   0.04   0.01    -0.06  -0.12   0.10     0.05   0.13  -0.01
  40   6     0.03   0.08  -0.01    -0.06  -0.05   0.03     0.01  -0.02  -0.01
  41   6     0.02   0.08  -0.06    -0.04  -0.03   0.02    -0.01  -0.05   0.01
  42   6     0.01  -0.00  -0.13     0.00   0.02  -0.03    -0.00  -0.03   0.01
  43   6     0.01  -0.00  -0.11     0.00   0.02  -0.03    -0.00  -0.03   0.01
  44   6     0.01  -0.00  -0.09     0.00   0.02  -0.03    -0.00  -0.03  -0.00
  45   7     0.01  -0.00  -0.05     0.00   0.01  -0.01    -0.00  -0.03   0.00
  46   6     0.02   0.02  -0.02     0.03   0.02   0.03    -0.05  -0.03  -0.06
  47   6     0.01   0.00   0.02     0.01   0.02   0.07    -0.01  -0.03  -0.10
  48   6     0.02   0.02   0.05     0.03   0.03   0.12    -0.05  -0.04  -0.17
  49   6     0.02   0.07   0.03     0.07   0.05   0.12    -0.13  -0.05  -0.20
  50   6     0.03   0.08  -0.01     0.08   0.06   0.08    -0.16  -0.05  -0.15
  51   6     0.02   0.06  -0.04     0.06   0.05   0.03    -0.12  -0.04  -0.09
  52   6     0.02  -0.03  -0.02    -0.01   0.01  -0.03     0.04  -0.04   0.07
  53   6     0.02  -0.07  -0.03    -0.04   0.01  -0.04     0.10  -0.06   0.09
  54   6     0.03  -0.09   0.00    -0.06   0.01  -0.07     0.15  -0.07   0.16
  55   6     0.03  -0.07   0.05    -0.05   0.01  -0.08     0.13  -0.05   0.21
  56   6     0.02  -0.03   0.06    -0.03   0.00  -0.07     0.07  -0.03   0.20
  57   6     0.02  -0.01   0.03    -0.01   0.01  -0.05     0.02  -0.02   0.12
  58   6     0.01  -0.01  -0.10     0.00   0.02  -0.03    -0.00  -0.03  -0.02
  59   6     0.01  -0.01  -0.12     0.01   0.02  -0.05     0.00  -0.03  -0.02
  60   6     0.01  -0.01  -0.13     0.00   0.02  -0.04    -0.00  -0.02  -0.01
  61   6     0.02   0.06  -0.05    -0.01   0.05  -0.04    -0.02   0.03  -0.01
  62   6     0.01   0.07   0.01     0.01   0.02  -0.03    -0.04   0.06   0.00
  63   1     0.01   0.04   0.02     0.01  -0.01  -0.01    -0.02   0.05   0.01
  64   1    -0.00   0.04   0.04     0.02   0.00   0.01    -0.03   0.04   0.02
  65   1    -0.00   0.04   0.04     0.02  -0.02  -0.00    -0.03   0.05   0.02
  66   1    -0.01  -0.02   0.04     0.03  -0.04   0.01    -0.04   0.01   0.01
  67   1    -0.01   0.00   0.05     0.03  -0.02   0.02    -0.04   0.01   0.02
  68   1    -0.01   0.00   0.06     0.03  -0.04   0.01    -0.04   0.03   0.02
  69   1    -0.00   0.01   0.03     0.02  -0.04  -0.02    -0.02   0.05   0.01
  70   1    -0.00  -0.01   0.01     0.02  -0.05  -0.02    -0.01   0.03   0.00
  71   1     0.00   0.01   0.00     0.01  -0.03  -0.03    -0.00   0.04  -0.00
  72   1    -0.01  -0.03   0.01     0.02  -0.04  -0.01    -0.01  -0.01   0.00
  73   1    -0.00  -0.03  -0.02     0.01  -0.03  -0.02     0.00  -0.03  -0.01
  74   1     0.00  -0.00  -0.02     0.00  -0.01  -0.03    -0.00  -0.01  -0.02
  75   1    -0.00   0.00  -0.00    -0.01  -0.00  -0.01    -0.00  -0.01   0.00
  76   1     0.03  -0.00   0.07    -0.03  -0.01   0.07    -0.01  -0.01   0.06
  77   1     0.06  -0.01   0.12    -0.03  -0.02   0.02    -0.01  -0.02   0.04
  78   1     0.11   0.00   0.03    -0.04  -0.03   0.05    -0.01  -0.03   0.05
  79   1     0.04  -0.01  -0.06    -0.03   0.01   0.08    -0.01  -0.01   0.05
  80   1    -0.04  -0.01  -0.07    -0.00   0.05   0.07    -0.01   0.02   0.05
  81   1    -0.00  -0.00  -0.03    -0.02   0.03   0.10    -0.01   0.01   0.07
  82   1    -0.04   0.04   0.05    -0.01   0.05   0.07    -0.01   0.03   0.06
  83   1    -0.12   0.01   0.02     0.03   0.08   0.03     0.00   0.05   0.03
  84   1    -0.08   0.07   0.09     0.01   0.02   0.01    -0.00   0.02   0.03
  85   1    -0.00   0.00  -0.02    -0.01   0.01   0.02    -0.01  -0.00   0.01
  86   1    -0.01  -0.01  -0.00     0.01   0.01  -0.03     0.01  -0.00  -0.02
  87   1    -0.00   0.00   0.03     0.05   0.01  -0.13     0.02  -0.01  -0.07
  88   1    -0.03  -0.03   0.02    -0.02   0.06  -0.12    -0.00   0.03  -0.07
  89   1    -0.02  -0.02   0.06     0.02   0.03  -0.12     0.01   0.01  -0.08
  90   1     0.01   0.02   0.08     0.07  -0.02   0.07     0.03  -0.03  -0.01
  91   1    -0.01   0.01   0.09     0.06  -0.02  -0.01     0.02  -0.02  -0.04
  92   1     0.02   0.03   0.06     0.12  -0.04  -0.02     0.04  -0.04  -0.04
  93   1    -0.05  -0.06   0.03    -0.11   0.07  -0.01    -0.03   0.04  -0.02
  94   1    -0.04  -0.05   0.06    -0.08  -0.02   0.07    -0.02  -0.00   0.00
  95   1    -0.04  -0.05   0.08    -0.03   0.02  -0.02     0.00   0.02  -0.04
  96   1    -0.01   0.00  -0.00     0.00  -0.00   0.02     0.00  -0.01   0.00
  97   1     0.00   0.01  -0.03    -0.00  -0.00   0.03    -0.00  -0.01   0.01
  98   1    -0.00  -0.04  -0.02     0.02   0.01   0.00     0.01   0.01   0.00
  99   1    -0.00  -0.04   0.00     0.01   0.00   0.01     0.02   0.03  -0.00
 100   1     0.00  -0.03   0.04    -0.02  -0.03   0.02     0.04   0.05  -0.02
 101   1     0.00  -0.04   0.01     0.00  -0.02   0.02     0.02   0.05  -0.01
 102   1     0.00  -0.04   0.04    -0.01  -0.01   0.01     0.04   0.03  -0.02
 103   1     0.01   0.01   0.06    -0.04  -0.03   0.01     0.05   0.03  -0.02
 104   1     0.01   0.04   0.04    -0.04  -0.03   0.01     0.04   0.01  -0.02
 105   1     0.01   0.01   0.06    -0.04  -0.01  -0.00     0.05   0.01  -0.02
 106   1     0.01   0.01   0.01    -0.02  -0.04   0.03     0.02   0.05  -0.01
 107   1     0.00   0.00  -0.01    -0.01  -0.03   0.04     0.00   0.04   0.00
 108   1     0.01   0.03  -0.00    -0.02  -0.04   0.03     0.01   0.03  -0.00
 109   1     0.01   0.04   0.00    -0.03  -0.02   0.01     0.00  -0.01  -0.00
 110   1     0.01   0.04  -0.02    -0.02  -0.01   0.00    -0.01  -0.03   0.00
 111   1     0.00  -0.00  -0.03     0.00   0.00  -0.01    -0.00  -0.01   0.01
 112   1     0.00  -0.01   0.01    -0.01  -0.00   0.02     0.01  -0.01  -0.02
 113   1     0.00   0.00   0.02     0.01   0.01   0.04    -0.01  -0.01  -0.06
 114   1     0.01   0.02   0.02     0.03   0.02   0.05    -0.05  -0.01  -0.07
 115   1     0.01   0.03  -0.01     0.03   0.02   0.02    -0.06  -0.02  -0.05
 116   1     0.01   0.02  -0.02     0.02   0.02   0.00    -0.04  -0.01  -0.01
 117   1     0.01  -0.02  -0.02    -0.01   0.01  -0.01     0.03  -0.02   0.01
 118   1     0.01  -0.04  -0.00    -0.02   0.00  -0.02     0.06  -0.03   0.05
 119   1     0.01  -0.03   0.02    -0.02   0.00  -0.03     0.05  -0.02   0.08
 120   1     0.01  -0.00   0.03    -0.01  -0.00  -0.03     0.02  -0.00   0.07
 121   1     0.00   0.01   0.01     0.00   0.00  -0.01    -0.01  -0.00   0.03
 122   1     0.00  -0.00  -0.03     0.00   0.00  -0.01    -0.00  -0.01  -0.01
 123   1     0.01   0.03  -0.02    -0.01   0.03  -0.01    -0.01   0.01  -0.01
 124   1     0.01   0.04   0.01     0.00   0.01  -0.01    -0.02   0.03   0.00
                      7                      8                      9
                        a                      a                      a 
 Frequencies --    25.5026                27.6849                29.3171
 Red. masses --     9.1410                 9.6008                10.2119
 Frc consts  --     0.0000                 0.0000                 0.0000
 IR Inten    --     0.2846                 2.5058                 1.9842
 Raman Activ --     0.0000                 0.0000                 0.0000
 Depolar     --     0.0000                 0.0000                 0.0000
 Atom AN      X      Y      Z        X      Y      Z        X      Y      Z
   1   6     0.03  -0.08  -0.04    -0.05   0.14   0.06     0.08  -0.06   0.01
   2   6     0.02  -0.02  -0.03     0.04  -0.04   0.03     0.02   0.01   0.02
   3   6     0.03   0.00  -0.07     0.12  -0.15   0.21    -0.05   0.06  -0.06
   4   6    -0.00  -0.02   0.01     0.06  -0.14  -0.17     0.01   0.07   0.12
   5   6     0.00  -0.00  -0.01     0.02  -0.02   0.01     0.04  -0.01   0.01
   6   6    -0.00   0.03   0.00     0.10  -0.17  -0.01     0.00   0.03   0.00
   7   6    -0.01   0.04   0.02     0.09  -0.15  -0.02     0.00   0.02  -0.01
   8   6    -0.01   0.02   0.03    -0.00   0.02  -0.01     0.04  -0.02  -0.01
   9   7    -0.01   0.02   0.04     0.00   0.02  -0.02     0.03  -0.01  -0.02
  10   6    -0.00   0.02   0.04     0.01   0.01  -0.04     0.01  -0.01  -0.01
  11   6    -0.00   0.02   0.05     0.01   0.00  -0.12     0.00  -0.02   0.00
  12   6     0.00   0.02   0.04     0.02   0.00  -0.12    -0.02  -0.02   0.01
  13   6     0.00   0.02   0.02     0.03   0.01  -0.06    -0.03  -0.01   0.00
  14   6     0.01   0.01  -0.01     0.04   0.02  -0.02    -0.05  -0.01   0.01
  15   6    -0.04   0.03  -0.06     0.17   0.01   0.09    -0.08  -0.02   0.00
  16   6     0.01   0.02   0.03     0.05  -0.02  -0.15    -0.07   0.02   0.02
  17   6     0.07  -0.03  -0.04    -0.10   0.09   0.06    -0.05  -0.02   0.00
  18   6     0.00   0.01   0.03     0.02   0.01  -0.01    -0.02   0.01  -0.01
  19   6    -0.00   0.01   0.03     0.01   0.01  -0.00     0.00   0.01  -0.01
  20   5    -0.00   0.01   0.03    -0.00   0.01   0.04     0.01   0.03  -0.01
  21   6     0.00   0.00   0.01    -0.01   0.01   0.07    -0.00   0.05   0.00
  22   6     0.01   0.01   0.00    -0.01   0.01   0.06    -0.02   0.05   0.01
  23   6     0.02   0.00  -0.02    -0.01   0.01   0.06    -0.03   0.07   0.03
  24   6     0.03  -0.00  -0.01    -0.01   0.03  -0.02    -0.06   0.08   0.02
  25   6     0.04   0.04  -0.15    -0.01   0.01   0.04    -0.08   0.04   0.05
  26   6     0.16  -0.03   0.08    -0.10  -0.01  -0.12    -0.11   0.09  -0.01
  27   6    -0.11  -0.02   0.06     0.10   0.12  -0.08    -0.02   0.11  -0.00
  28   6     0.01   0.00  -0.04    -0.01   0.01   0.10    -0.02   0.08   0.05
  29   6     0.00   0.00  -0.03    -0.01   0.00   0.12     0.00   0.08   0.05
  30   6     0.00   0.00   0.00    -0.01   0.00   0.10     0.01   0.06   0.02
  31   7    -0.01  -0.00   0.02    -0.01   0.00   0.11     0.04   0.07   0.01
  32   6    -0.01  -0.01   0.01    -0.01   0.00   0.07     0.03   0.06  -0.01
  33   6    -0.14  -0.17   0.01    -0.04   0.02   0.05     0.03   0.08  -0.02
  34   6    -0.15  -0.17   0.01    -0.06   0.00   0.01    -0.02   0.02  -0.03
  35   6    -0.03  -0.02  -0.01    -0.04  -0.03  -0.01    -0.07  -0.07  -0.04
  36   6    -0.02  -0.02  -0.01    -0.06  -0.06  -0.06    -0.15  -0.18  -0.06
  37   6    -0.22  -0.27   0.01    -0.12  -0.06  -0.08    -0.23  -0.24  -0.06
  38   6     0.11   0.12   0.26    -0.05  -0.06  -0.06    -0.25  -0.14  -0.03
  39   6     0.06   0.11  -0.31    -0.03  -0.08  -0.10    -0.07  -0.29  -0.09
  40   6     0.11   0.14  -0.01    -0.01  -0.05   0.01    -0.03  -0.05  -0.03
  41   6     0.11   0.14  -0.01     0.01  -0.03   0.05     0.01   0.01  -0.02
  42   6    -0.01   0.01   0.03    -0.01   0.01   0.08     0.04   0.04  -0.00
  43   6    -0.02   0.01   0.04    -0.01   0.01   0.08     0.06   0.04  -0.00
  44   6    -0.02   0.01   0.04    -0.01   0.01   0.05     0.07   0.02  -0.02
  45   7    -0.01   0.01   0.03    -0.00   0.01   0.04     0.09   0.03  -0.00
  46   6    -0.02  -0.02  -0.01    -0.01  -0.02  -0.00     0.05   0.03  -0.04
  47   6     0.05  -0.04  -0.03     0.07  -0.06  -0.01     0.03   0.06  -0.08
  48   6     0.04  -0.08  -0.07     0.06  -0.09  -0.05     0.00   0.07  -0.11
  49   6    -0.02  -0.10  -0.09    -0.02  -0.09  -0.08    -0.00   0.05  -0.10
  50   6    -0.08  -0.08  -0.07    -0.10  -0.06  -0.08     0.02   0.02  -0.06
  51   6    -0.08  -0.04  -0.03    -0.09  -0.03  -0.03     0.04   0.02  -0.03
  52   6     0.01   0.03   0.02     0.01   0.04   0.01     0.10  -0.00   0.05
  53   6    -0.04   0.03   0.00    -0.03   0.07   0.00     0.18  -0.03   0.08
  54   6    -0.03   0.05  -0.00    -0.02   0.10  -0.02     0.18  -0.07   0.13
  55   6     0.04   0.08   0.02     0.03   0.11  -0.04     0.11  -0.09   0.16
  56   6     0.08   0.09   0.04     0.07   0.09  -0.03     0.04  -0.06   0.14
  57   6     0.06   0.06   0.04     0.06   0.06  -0.00     0.03  -0.01   0.09
  58   6    -0.02   0.01   0.03    -0.01   0.01   0.03     0.06   0.01  -0.03
  59   6    -0.01   0.01   0.04    -0.00   0.01   0.02     0.04   0.01  -0.02
  60   6    -0.01   0.01   0.03    -0.00   0.01   0.05     0.03   0.03  -0.01
  61   6    -0.01  -0.01   0.02    -0.08   0.17   0.00     0.08  -0.06  -0.01
  62   6    -0.00  -0.02   0.00    -0.07   0.16   0.02     0.07  -0.06  -0.00
  63   1     0.00  -0.03  -0.00    -0.03   0.07  -0.02     0.03  -0.03   0.02
  64   1     0.01  -0.02  -0.02    -0.02   0.06   0.06     0.03  -0.03  -0.02
  65   1     0.01  -0.03  -0.02    -0.01   0.04   0.02     0.02  -0.01   0.01
  66   1     0.01   0.01  -0.02     0.05  -0.08   0.06    -0.03   0.03  -0.02
  67   1     0.01   0.00  -0.03     0.03  -0.02   0.10    -0.01   0.01  -0.04
  68   1     0.01  -0.00  -0.02     0.04  -0.05   0.07    -0.02   0.02  -0.02
  69   1     0.00  -0.01  -0.00     0.02  -0.05  -0.05     0.00   0.03   0.04
  70   1    -0.00   0.00   0.00     0.04  -0.08  -0.05    -0.01   0.04   0.04
  71   1    -0.00  -0.01   0.01    -0.00  -0.02  -0.09     0.02   0.01   0.05
  72   1     0.00   0.01  -0.00     0.05  -0.09  -0.00    -0.01   0.02   0.00
  73   1    -0.00   0.02   0.01     0.04  -0.08  -0.01    -0.01   0.02  -0.00
  74   1    -0.00   0.01   0.02     0.00  -0.00  -0.05     0.00  -0.01   0.00
  75   1     0.00   0.01   0.01     0.01   0.00  -0.05    -0.01  -0.01   0.01
  76   1    -0.00   0.01  -0.02     0.03   0.00   0.03    -0.03  -0.01   0.00
  77   1    -0.01   0.01  -0.03     0.06  -0.01   0.07    -0.02  -0.01  -0.00
  78   1    -0.03   0.01  -0.01     0.09   0.00   0.01    -0.02  -0.01   0.00
  79   1    -0.01   0.01   0.02     0.04  -0.01  -0.06    -0.02   0.01   0.01
  80   1     0.01   0.00   0.02    -0.01  -0.02  -0.06    -0.02   0.01   0.01
  81   1     0.00   0.00   0.01     0.02  -0.01  -0.04    -0.02   0.01   0.01
  82   1     0.01  -0.01  -0.02    -0.00   0.03   0.02    -0.02  -0.00   0.00
  83   1     0.03  -0.01  -0.00    -0.07   0.01  -0.00    -0.01   0.00   0.00
  84   1     0.02  -0.02  -0.02    -0.04   0.06   0.05    -0.01  -0.01  -0.00
  85   1     0.00   0.00   0.01     0.01   0.00   0.01    -0.01   0.01  -0.00
  86   1     0.00   0.00   0.00    -0.00   0.00   0.01    -0.01   0.01  -0.00
  87   1     0.04   0.00  -0.06    -0.02  -0.00   0.02    -0.03   0.01   0.02
  88   1    -0.01   0.03  -0.05     0.01   0.00   0.03    -0.02   0.01   0.02
  89   1     0.01   0.01  -0.05    -0.00   0.01   0.00    -0.03   0.01   0.01
  90   1     0.05  -0.01   0.06    -0.03  -0.01  -0.06    -0.03   0.03  -0.01
  91   1     0.04  -0.01   0.02    -0.02  -0.00  -0.05    -0.03   0.03  -0.01
  92   1     0.08  -0.02   0.01    -0.06  -0.01  -0.02    -0.04   0.02   0.00
  93   1    -0.07   0.02   0.00     0.05   0.03  -0.00     0.00   0.02   0.00
  94   1    -0.05  -0.03   0.05     0.04   0.05  -0.04    -0.00   0.04  -0.01
  95   1    -0.01  -0.01   0.01     0.02   0.04  -0.04    -0.02   0.03  -0.00
  96   1     0.00  -0.00  -0.02    -0.00   0.00   0.03    -0.01   0.03   0.02
  97   1     0.00   0.00  -0.02    -0.00  -0.00   0.04     0.00   0.02   0.02
  98   1    -0.07  -0.08   0.01    -0.02   0.01   0.02     0.02   0.04  -0.00
  99   1    -0.07  -0.09   0.00    -0.02   0.00  -0.00    -0.01   0.01  -0.01
 100   1    -0.07  -0.08   0.00    -0.04  -0.02  -0.03    -0.09  -0.10  -0.02
 101   1    -0.08  -0.11  -0.05    -0.03  -0.02  -0.02    -0.04  -0.08  -0.02
 102   1    -0.09  -0.10   0.06    -0.04  -0.01  -0.02    -0.09  -0.04  -0.01
 103   1     0.03   0.04   0.07    -0.02  -0.02  -0.03    -0.09  -0.06  -0.01
 104   1     0.08   0.09   0.07    -0.00  -0.02  -0.01    -0.06  -0.03  -0.01
 105   1     0.02   0.01   0.14    -0.02  -0.01  -0.01    -0.09  -0.02  -0.00
 106   1     0.02   0.03  -0.09    -0.01  -0.03  -0.04    -0.04  -0.11  -0.03
 107   1    -0.01   0.00  -0.15    -0.01  -0.02  -0.03     0.00  -0.09  -0.03
 108   1     0.06   0.09  -0.10     0.00  -0.02  -0.03    -0.01  -0.07  -0.03
 109   1     0.06   0.08  -0.01     0.00  -0.02  -0.00    -0.02  -0.03  -0.01
 110   1     0.06   0.08  -0.00     0.01  -0.01   0.02     0.01   0.00  -0.00
 111   1    -0.01   0.00   0.02    -0.00   0.00   0.03     0.02   0.01   0.00
 112   1     0.03  -0.01  -0.01     0.04  -0.02   0.00     0.01   0.02  -0.02
 113   1     0.03  -0.03  -0.02     0.04  -0.04  -0.02    -0.00   0.03  -0.04
 114   1    -0.01  -0.04  -0.03    -0.01  -0.04  -0.03    -0.01   0.02  -0.04
 115   1    -0.04  -0.03  -0.02    -0.05  -0.02  -0.03     0.00   0.00  -0.02
 116   1    -0.04  -0.01  -0.00    -0.04  -0.00  -0.01     0.02  -0.00  -0.00
 117   1    -0.02   0.00  -0.00    -0.02   0.02   0.01     0.07  -0.01   0.01
 118   1    -0.02   0.01  -0.01    -0.02   0.03  -0.01     0.07  -0.03   0.04
 119   1     0.01   0.03   0.00     0.01   0.04  -0.02     0.03  -0.04   0.06
 120   1     0.04   0.03   0.01     0.03   0.03  -0.01    -0.00  -0.02   0.05
 121   1     0.03   0.02   0.02     0.03   0.01   0.00    -0.01   0.00   0.02
 122   1    -0.01   0.00   0.01    -0.00   0.00   0.01     0.02  -0.00  -0.01
 123   1    -0.00  -0.01   0.01    -0.04   0.09   0.00     0.03  -0.03  -0.01
 124   1    -0.00  -0.01  -0.00    -0.04   0.08   0.01     0.03  -0.03  -0.00
                     10                     11                     12
                        a                      a                      a 
 Frequencies --    30.1588                32.6157                37.4666
 Red. masses --    10.0536                10.0497                10.4801
 Frc consts  --     0.0000                 0.0000                 0.0000
 IR Inten    --     1.0642                 0.1148                 0.2909
 Raman Activ --     0.0000                 0.0000                 0.0000
 Depolar     --     0.0000                 0.0000                 0.0000
 Atom AN      X      Y      Z        X      Y      Z        X      Y      Z
   1   6     0.26  -0.34   0.04    -0.09   0.08  -0.02     0.09  -0.10   0.04
   2   6     0.11  -0.17   0.05     0.02  -0.02  -0.02     0.10  -0.12   0.04
   3   6     0.14  -0.08  -0.09     0.11  -0.08   0.10     0.14  -0.14   0.07
   4   6    -0.00  -0.21   0.22     0.05  -0.09  -0.17     0.09  -0.17  -0.00
   5   6     0.04  -0.07   0.02     0.00   0.00   0.02     0.07  -0.08   0.04
   6   6    -0.04   0.03   0.01     0.08  -0.06   0.03     0.11  -0.14   0.03
   7   6    -0.08   0.09  -0.01     0.07  -0.05   0.07     0.08  -0.10   0.04
   8   6    -0.04   0.07  -0.03    -0.01   0.03   0.09     0.02   0.00   0.04
   9   7    -0.04   0.07  -0.06    -0.01   0.03   0.12     0.02   0.02   0.05
  10   6    -0.01   0.06  -0.06    -0.01   0.03   0.13     0.01   0.01   0.05
  11   6    -0.00   0.08  -0.08    -0.02   0.03   0.18     0.01   0.00   0.04
  12   6     0.02   0.09  -0.07    -0.03   0.02   0.15     0.00   0.00   0.03
  13   6     0.04   0.07  -0.04    -0.04   0.02   0.07     0.00   0.00   0.02
  14   6     0.07   0.09  -0.00    -0.05  -0.01  -0.03    -0.01  -0.01  -0.02
  15   6     0.12   0.07   0.04    -0.12   0.06  -0.13    -0.00   0.02  -0.03
  16   6     0.09   0.05  -0.01    -0.06   0.01  -0.03    -0.01  -0.01  -0.05
  17   6     0.04   0.16   0.02     0.01  -0.15  -0.07    -0.01  -0.05  -0.02
  18   6     0.03   0.05  -0.04    -0.03   0.02   0.05     0.00   0.01   0.04
  19   6    -0.00   0.04  -0.05    -0.01   0.03   0.06     0.01   0.02   0.05
  20   5    -0.01   0.02  -0.03    -0.00   0.03  -0.01     0.01   0.02   0.04
  21   6    -0.01   0.00  -0.03     0.02   0.02  -0.08     0.01   0.02   0.03
  22   6     0.01  -0.00  -0.01     0.03   0.02  -0.06     0.01   0.02   0.02
  23   6     0.02  -0.03  -0.00     0.04   0.00  -0.08     0.01   0.03   0.01
  24   6     0.05  -0.04   0.02     0.06  -0.03   0.04     0.02   0.03  -0.00
  25   6     0.06  -0.02   0.06     0.07  -0.01   0.03     0.02   0.03  -0.02
  26   6     0.03  -0.03   0.01     0.14   0.04   0.15     0.03   0.02  -0.00
  27   6     0.08  -0.07   0.00    -0.03  -0.18   0.09     0.01   0.04   0.00
  28   6     0.01  -0.04  -0.01     0.03   0.01  -0.17     0.01   0.03  -0.00
  29   6    -0.01  -0.04  -0.02     0.02   0.02  -0.21     0.01   0.03   0.00
  30   6    -0.02  -0.01  -0.02     0.01   0.02  -0.14     0.01   0.02   0.02
  31   7    -0.05  -0.01  -0.03     0.00   0.03  -0.14     0.02   0.02   0.02
  32   6    -0.05  -0.02  -0.02    -0.00   0.02  -0.10     0.02   0.03   0.01
  33   6    -0.02   0.02  -0.02     0.06   0.05  -0.09    -0.01  -0.01   0.02
  34   6    -0.01   0.03  -0.02     0.05   0.03  -0.05    -0.00  -0.00   0.02
  35   6    -0.04  -0.00  -0.01    -0.02  -0.02  -0.03     0.03   0.04   0.01
  36   6    -0.02   0.02  -0.01    -0.04  -0.04   0.02     0.04   0.05   0.01
  37   6     0.03   0.09  -0.02     0.05   0.01   0.03     0.01   0.01   0.02
  38   6    -0.00  -0.01  -0.06    -0.13  -0.07  -0.06     0.05   0.07   0.05
  39   6    -0.05   0.04   0.05    -0.07  -0.10   0.14     0.05   0.06  -0.03
  40   6    -0.09  -0.06  -0.01    -0.08  -0.04  -0.04     0.06   0.08   0.01
  41   6    -0.09  -0.07  -0.01    -0.07  -0.03  -0.08     0.05   0.07   0.01
  42   6    -0.05   0.01  -0.02    -0.00   0.02  -0.06     0.02   0.02   0.01
  43   6    -0.07   0.01  -0.01    -0.00   0.03  -0.05     0.02   0.01  -0.02
  44   6    -0.08   0.03  -0.02    -0.01   0.02   0.01     0.02   0.02  -0.02
  45   7    -0.10   0.03  -0.01    -0.00   0.03   0.01    -0.01   0.02  -0.04
  46   6    -0.08   0.01  -0.02    -0.01   0.00  -0.02    -0.07   0.06  -0.07
  47   6    -0.02  -0.03  -0.01     0.05  -0.02  -0.04    -0.19   0.16  -0.16
  48   6     0.01  -0.07  -0.01     0.04  -0.05  -0.07    -0.24   0.20  -0.19
  49   6    -0.03  -0.08  -0.02    -0.02  -0.06  -0.09    -0.17   0.15  -0.14
  50   6    -0.10  -0.03  -0.04    -0.08  -0.04  -0.07    -0.06   0.06  -0.06
  51   6    -0.13   0.01  -0.04    -0.07  -0.01  -0.03    -0.01   0.02  -0.03
  52   6    -0.05   0.03   0.04     0.02   0.03   0.03    -0.05  -0.04  -0.02
  53   6    -0.03  -0.01   0.03     0.01   0.01   0.02     0.07  -0.04   0.03
  54   6     0.01   0.00   0.09     0.03   0.01   0.04     0.02  -0.11   0.04
  55   6     0.05   0.04   0.16     0.07   0.05   0.09    -0.15  -0.19  -0.00
  56   6     0.04   0.08   0.17     0.09   0.07   0.11    -0.26  -0.19  -0.05
  57   6    -0.01   0.07   0.11     0.06   0.07   0.08    -0.21  -0.11  -0.06
  58   6    -0.07   0.04  -0.03    -0.01   0.03   0.07     0.02   0.02  -0.00
  59   6    -0.05   0.04  -0.04    -0.01   0.03   0.06     0.02   0.02   0.02
  60   6    -0.04   0.03  -0.03    -0.00   0.03  -0.00     0.02   0.02   0.02
  61   6     0.02   0.01  -0.02    -0.08   0.10   0.08    -0.02   0.07   0.05
  62   6     0.06  -0.05   0.00    -0.08   0.08   0.05     0.00   0.03   0.05
  63   1     0.06  -0.12   0.04    -0.04   0.04  -0.03     0.01  -0.03   0.00
  64   1     0.11  -0.09  -0.02    -0.03   0.04   0.03     0.03  -0.01   0.02
  65   1     0.09  -0.13   0.02    -0.02   0.02  -0.01     0.04  -0.04   0.01
  66   1     0.01   0.01  -0.03     0.06  -0.04   0.03     0.04  -0.05   0.02
  67   1     0.06  -0.02  -0.06     0.03  -0.01   0.06     0.04  -0.03   0.03
  68   1     0.06  -0.04  -0.02     0.04  -0.03   0.02     0.04  -0.05   0.02
  69   1     0.01  -0.08   0.07     0.02  -0.03  -0.06     0.03  -0.06  -0.00
  70   1    -0.03  -0.02   0.07     0.03  -0.05  -0.05     0.03  -0.05  -0.00
  71   1    -0.01  -0.08   0.09    -0.01  -0.01  -0.07     0.01  -0.05  -0.01
  72   1    -0.02   0.01   0.01     0.04  -0.04   0.00     0.05  -0.06   0.01
  73   1    -0.04   0.04  -0.00     0.04  -0.03   0.02     0.03  -0.04   0.01
  74   1    -0.00   0.03  -0.03    -0.00   0.01   0.07     0.00  -0.00   0.01
  75   1     0.01   0.03  -0.02    -0.01   0.01   0.05     0.00  -0.00   0.00
  76   1     0.04   0.02   0.02    -0.03   0.01  -0.06    -0.00   0.00  -0.02
  77   1     0.03   0.02   0.02    -0.04   0.02  -0.05     0.00   0.00  -0.00
  78   1     0.04   0.01   0.01    -0.05   0.03  -0.03     0.00   0.02  -0.01
  79   1     0.03   0.01  -0.01    -0.03   0.02  -0.00    -0.00   0.01  -0.01
  80   1     0.02   0.01  -0.01    -0.01  -0.00   0.00    -0.00  -0.01  -0.01
  81   1     0.03   0.02   0.00    -0.02  -0.00  -0.02    -0.00  -0.00  -0.02
  82   1     0.02   0.05   0.02    -0.00  -0.05  -0.05     0.00  -0.02  -0.02
  83   1     0.00   0.05  -0.00     0.02  -0.06  -0.00    -0.01  -0.03  -0.00
  84   1     0.01   0.06   0.01     0.01  -0.05  -0.02    -0.01  -0.01   0.00
  85   1     0.01   0.01  -0.01    -0.01   0.01  -0.00     0.00   0.00   0.01
  86   1     0.01   0.00  -0.00     0.01   0.00  -0.00     0.00   0.01   0.01
  87   1     0.01   0.00   0.02     0.03   0.01   0.00     0.01   0.01  -0.01
  88   1     0.02  -0.01   0.02     0.01  -0.01  -0.00     0.00   0.01  -0.01
  89   1     0.02  -0.01   0.02     0.02  -0.01   0.03     0.01   0.01  -0.01
  90   1     0.01  -0.01  -0.01     0.04   0.02   0.06     0.01   0.01   0.00
  91   1     0.02  -0.01   0.01     0.03   0.01   0.07     0.01   0.01  -0.00
  92   1     0.00  -0.00   0.01     0.06   0.03   0.03     0.01   0.00  -0.00
  93   1     0.03  -0.03   0.00    -0.03  -0.07   0.00    -0.00   0.02   0.00
  94   1     0.02  -0.02  -0.01    -0.01  -0.06   0.03    -0.00   0.01   0.00
  95   1     0.02  -0.02   0.01    -0.00  -0.06   0.06     0.01   0.01  -0.00
  96   1     0.00  -0.02  -0.00     0.01   0.00  -0.06     0.00   0.01  -0.00
  97   1    -0.01  -0.01  -0.01     0.00   0.00  -0.08     0.00   0.01  -0.00
  98   1     0.00   0.02  -0.01     0.03   0.02  -0.03    -0.01  -0.01   0.01
  99   1     0.01   0.02  -0.01     0.03   0.02  -0.01    -0.01  -0.01   0.00
 100   1     0.01   0.03  -0.00     0.01  -0.00   0.02     0.00   0.01   0.01
 101   1     0.01   0.03   0.01     0.03   0.01   0.03    -0.00  -0.00  -0.00
 102   1     0.02   0.02  -0.02     0.02   0.01  -0.02     0.00  -0.00   0.01
 103   1     0.00   0.00  -0.02    -0.04  -0.03  -0.01     0.01   0.02   0.02
 104   1    -0.01  -0.02  -0.02    -0.06  -0.03  -0.02     0.02   0.03   0.01
 105   1     0.01  -0.01  -0.03    -0.03  -0.01  -0.04     0.01   0.02   0.02
 106   1    -0.01   0.02   0.01    -0.02  -0.04   0.05     0.01   0.02  -0.01
 107   1    -0.02   0.02   0.02    -0.00  -0.02   0.06     0.01   0.01  -0.02
 108   1    -0.03  -0.00   0.01    -0.04  -0.04   0.04     0.02   0.03  -0.01
 109   1    -0.03  -0.03  -0.00    -0.04  -0.02  -0.01     0.03   0.03   0.00
 110   1    -0.04  -0.03  -0.00    -0.04  -0.01  -0.03     0.02   0.03   0.00
 111   1    -0.02   0.00  -0.00    -0.00   0.01  -0.03     0.01   0.00  -0.01
 112   1     0.01  -0.01   0.00     0.03  -0.00  -0.01    -0.07   0.06  -0.06
 113   1     0.02  -0.03   0.00     0.03  -0.02  -0.02    -0.10   0.08  -0.07
 114   1    -0.00  -0.03  -0.00    -0.01  -0.02  -0.03    -0.06   0.05  -0.05
 115   1    -0.04  -0.01  -0.01    -0.04  -0.01  -0.03    -0.00   0.01  -0.01
 116   1    -0.05   0.01  -0.01    -0.03   0.00  -0.00     0.02  -0.02   0.01
 117   1    -0.02  -0.01  -0.01    -0.01  -0.01  -0.00     0.05   0.01   0.01
 118   1     0.01  -0.01   0.02     0.01  -0.00   0.01     0.03  -0.03   0.02
 119   1     0.03   0.01   0.06     0.03   0.02   0.03    -0.06  -0.07   0.00
 120   1     0.02   0.03   0.06     0.03   0.03   0.04    -0.11  -0.07  -0.02
 121   1    -0.01   0.03   0.03     0.02   0.03   0.03    -0.08  -0.03  -0.03
 122   1    -0.02   0.02  -0.01    -0.00   0.01   0.03     0.01   0.01  -0.00
 123   1     0.01   0.00  -0.01    -0.04   0.05   0.03    -0.02   0.04   0.02
 124   1     0.03  -0.03   0.00    -0.04   0.04   0.01    -0.01   0.02   0.01
                     13                     14                     15
                        a                      a                      a 
 Frequencies --    46.3638                55.1771                55.9522
 Red. masses --    10.1467                 9.7639                 9.5582
 Frc consts  --     0.0000                 0.0000                 0.0000
 IR Inten    --     0.6699                 9.3011                 1.1386
 Raman Activ --     0.0000                 0.0000                 0.0000
 Depolar     --     0.0000                 0.0000                 0.0000
 Atom AN      X      Y      Z        X      Y      Z        X      Y      Z
   1   6     0.07  -0.11  -0.03     0.12  -0.12  -0.01    -0.04   0.11   0.03
   2   6    -0.00   0.01  -0.01     0.03   0.01  -0.00     0.02   0.01   0.01
   3   6    -0.13   0.08  -0.15    -0.08   0.07  -0.13     0.14  -0.05   0.13
   4   6     0.01   0.14   0.14     0.03   0.11   0.16    -0.00  -0.11  -0.11
   5   6     0.03  -0.03  -0.01     0.04  -0.01  -0.01    -0.00   0.04   0.01
   6   6     0.07  -0.09  -0.01     0.12  -0.14  -0.02    -0.09   0.17   0.01
   7   6     0.08  -0.10  -0.01     0.12  -0.14  -0.02    -0.09   0.17   0.00
   8   6     0.03  -0.04   0.00     0.02   0.01  -0.01     0.01   0.02  -0.01
   9   7     0.03  -0.03   0.01     0.03   0.01  -0.01     0.01   0.01  -0.03
  10   6     0.02  -0.04  -0.06     0.02   0.01   0.05     0.01   0.01  -0.00
  11   6     0.02  -0.06  -0.16     0.00   0.00   0.13     0.02   0.04   0.06
  12   6     0.01  -0.06  -0.17    -0.02   0.00   0.15     0.03   0.04   0.08
  13   6     0.00  -0.04  -0.08    -0.03   0.00   0.08     0.04   0.03   0.03
  14   6    -0.00  -0.02  -0.00    -0.06  -0.02   0.00     0.05   0.03   0.02
  15   6     0.04  -0.09   0.08    -0.09   0.04  -0.06     0.04   0.04  -0.00
  16   6    -0.00  -0.02  -0.00    -0.08   0.01  -0.03     0.06   0.02   0.05
  17   6    -0.05   0.09   0.03    -0.05  -0.14  -0.02     0.08   0.02   0.01
  18   6     0.00  -0.02  -0.02    -0.01   0.02   0.04     0.03   0.01  -0.02
  19   6     0.01  -0.02  -0.02     0.01   0.01   0.03     0.02   0.00  -0.02
  20   5     0.01  -0.00   0.01     0.02   0.00  -0.02     0.01  -0.00  -0.02
  21   6     0.01   0.02  -0.02     0.02  -0.01   0.02    -0.00  -0.00   0.02
  22   6     0.00   0.02  -0.03     0.01  -0.02   0.03    -0.03   0.00   0.02
  23   6     0.01   0.04  -0.08     0.00  -0.02   0.09    -0.04   0.03   0.02
  24   6    -0.00   0.02   0.00    -0.01   0.00   0.01    -0.08   0.04  -0.01
  25   6    -0.00   0.02  -0.00    -0.02  -0.01  -0.01    -0.10   0.02  -0.05
  26   6     0.05   0.09   0.09    -0.05  -0.05  -0.06    -0.08   0.03  -0.02
  27   6    -0.06  -0.08   0.04     0.02   0.11  -0.01    -0.09   0.10  -0.01
  28   6     0.01   0.06  -0.18     0.00  -0.03   0.17    -0.03   0.04   0.03
  29   6     0.02   0.06  -0.17     0.01  -0.03   0.15    -0.01   0.03   0.03
  30   6     0.02   0.04  -0.06     0.02  -0.02   0.05     0.00   0.01   0.02
  31   7     0.03   0.03   0.00     0.02  -0.01  -0.02     0.01   0.01   0.01
  32   6     0.03   0.04  -0.00     0.02  -0.02  -0.01     0.02   0.01   0.00
  33   6    -0.02  -0.03   0.00    -0.01  -0.07  -0.00    -0.12  -0.16   0.01
  34   6    -0.01  -0.02  -0.00    -0.01  -0.07   0.00    -0.11  -0.15   0.00
  35   6     0.04   0.04  -0.00     0.02  -0.02  -0.00     0.04   0.04  -0.01
  36   6     0.00  -0.00  -0.00     0.03  -0.01   0.01     0.01   0.01  -0.01
  37   6     0.07   0.08  -0.01     0.07   0.03   0.01     0.11   0.13  -0.02
  38   6    -0.11  -0.04  -0.10     0.01  -0.03  -0.03    -0.14  -0.05  -0.15
  39   6     0.01  -0.11   0.11     0.02  -0.03   0.05     0.01  -0.14   0.15
  40   6     0.08   0.10  -0.01     0.05   0.02  -0.00     0.16   0.20  -0.02
  41   6     0.09   0.11  -0.01     0.05   0.02  -0.01     0.16   0.20  -0.01
  42   6     0.03   0.01   0.08     0.02  -0.01  -0.07     0.01   0.00  -0.01
  43   6     0.04   0.01   0.15     0.01  -0.01  -0.09     0.01  -0.00   0.00
  44   6     0.04  -0.00   0.19     0.01  -0.00  -0.08     0.01   0.00  -0.01
  45   7     0.07  -0.00   0.21    -0.00   0.00  -0.03     0.00   0.00   0.01
  46   6     0.01  -0.03   0.10    -0.00   0.03  -0.01    -0.01  -0.01  -0.02
  47   6     0.04  -0.00   0.01     0.09  -0.07   0.09     0.06  -0.04  -0.02
  48   6    -0.02  -0.02  -0.09     0.07  -0.03   0.09     0.07  -0.09  -0.04
  49   6    -0.11  -0.06  -0.11    -0.06   0.10  -0.01     0.02  -0.09  -0.05
  50   6    -0.13  -0.08  -0.02    -0.15   0.19  -0.11    -0.06  -0.05  -0.06
  51   6    -0.07  -0.07   0.09    -0.12   0.15  -0.11    -0.07  -0.01  -0.04
  52   6     0.01   0.02   0.10    -0.01  -0.02  -0.02    -0.00  -0.02   0.02
  53   6    -0.07   0.06   0.08    -0.14  -0.11  -0.11    -0.06  -0.10  -0.03
  54   6    -0.15   0.07  -0.03    -0.16  -0.13  -0.13    -0.11  -0.16  -0.04
  55   6    -0.13   0.04  -0.12    -0.05  -0.05  -0.04    -0.11  -0.14   0.01
  56   6    -0.04   0.00  -0.09     0.09   0.05   0.06    -0.03  -0.05   0.07
  57   6     0.03  -0.01   0.02     0.11   0.06   0.07     0.02   0.01   0.08
  58   6     0.04  -0.01   0.16     0.01   0.01  -0.08     0.01   0.00  -0.04
  59   6     0.03  -0.01   0.08     0.02   0.00  -0.07     0.01   0.00  -0.03
  60   6     0.02  -0.00   0.06     0.02   0.00  -0.06     0.01  -0.00  -0.02
  61   6    -0.02   0.03   0.01    -0.07   0.17   0.00     0.10  -0.12  -0.02
  62   6    -0.02   0.03  -0.00    -0.06   0.16   0.00     0.09  -0.10  -0.01
  63   1     0.02  -0.05   0.02     0.02  -0.05   0.02    -0.00   0.05  -0.01
  64   1     0.03  -0.04  -0.03     0.06  -0.03  -0.03    -0.03   0.03   0.02
  65   1     0.02  -0.04  -0.01     0.05  -0.06  -0.00    -0.02   0.04   0.01
  66   1    -0.07   0.05  -0.04    -0.06   0.04  -0.04     0.07  -0.03   0.04
  67   1    -0.03   0.00  -0.08    -0.01   0.01  -0.08     0.03   0.00   0.07
  68   1    -0.04   0.03  -0.03    -0.02   0.02  -0.02     0.04  -0.02   0.02
  69   1    -0.00   0.05   0.03     0.00   0.04   0.03     0.01  -0.04  -0.02
  70   1    -0.00   0.07   0.05     0.00   0.07   0.05     0.00  -0.06  -0.04
  71   1     0.02   0.02   0.08     0.02   0.01   0.08    -0.02  -0.02  -0.06
  72   1     0.03  -0.04  -0.01     0.05  -0.07  -0.01    -0.05   0.08   0.01
  73   1     0.03  -0.05  -0.00     0.05  -0.07  -0.01    -0.05   0.08   0.00
  74   1     0.01  -0.02  -0.06     0.00  -0.00   0.04     0.00   0.02   0.03
  75   1     0.00  -0.02  -0.07    -0.01  -0.00   0.06     0.01   0.02   0.03
  76   1    -0.00  -0.02   0.04    -0.03   0.01  -0.04     0.02   0.01  -0.00
  77   1     0.02  -0.04   0.03    -0.03   0.01  -0.02     0.01   0.02  -0.01
  78   1     0.03  -0.04   0.01    -0.03   0.03  -0.01     0.00   0.01   0.00
  79   1     0.01  -0.02  -0.00    -0.02   0.02  -0.01     0.01   0.00   0.02
  80   1    -0.01   0.00  -0.01    -0.02  -0.00  -0.00     0.02   0.01   0.01
  81   1    -0.00  -0.00   0.01    -0.03  -0.00  -0.02     0.02   0.01   0.02
  82   1    -0.01   0.03   0.03    -0.02  -0.05  -0.03     0.02   0.00   0.00
  83   1    -0.03   0.04  -0.01    -0.01  -0.06   0.01     0.03   0.01   0.01
  84   1    -0.02   0.03   0.01    -0.01  -0.05   0.00     0.03  -0.00  -0.01
  85   1    -0.00  -0.00   0.01    -0.01   0.01   0.00     0.01  -0.00  -0.01
  86   1    -0.00   0.00   0.01     0.00  -0.00  -0.00    -0.01  -0.00   0.01
  87   1     0.01   0.02  -0.00    -0.01  -0.02  -0.00    -0.02  -0.01  -0.02
  88   1    -0.01  -0.00  -0.01    -0.00   0.00   0.00    -0.03   0.01  -0.01
  89   1    -0.00   0.00   0.01    -0.01   0.00  -0.02    -0.03   0.01  -0.02
  90   1     0.02   0.04   0.03    -0.02  -0.02  -0.02    -0.02   0.02   0.00
  91   1     0.00   0.02   0.04    -0.01  -0.01  -0.03    -0.03   0.01  -0.02
  92   1     0.03   0.04   0.02    -0.03  -0.03  -0.01    -0.02  -0.00  -0.01
  93   1    -0.03  -0.03  -0.01     0.02   0.04   0.01    -0.03   0.04   0.00
  94   1    -0.02  -0.03   0.01     0.01   0.04   0.00    -0.03   0.03   0.01
  95   1    -0.01  -0.03   0.03     0.00   0.04  -0.03    -0.03   0.03  -0.01
  96   1     0.00   0.02  -0.07    -0.00  -0.01   0.07    -0.01   0.02   0.01
  97   1     0.01   0.02  -0.07     0.00  -0.01   0.05     0.00   0.02   0.01
  98   1    -0.02  -0.02   0.00    -0.01  -0.03  -0.00    -0.07  -0.09   0.01
  99   1    -0.02  -0.02   0.00    -0.01  -0.03   0.00    -0.06  -0.08   0.00
 100   1     0.02   0.03  -0.00     0.03   0.02   0.00     0.05   0.06  -0.01
 101   1     0.02   0.03   0.01     0.01   0.01   0.01     0.02   0.06   0.02
 102   1     0.03   0.03  -0.02     0.03   0.00  -0.00     0.05   0.03  -0.03
 103   1    -0.04  -0.02  -0.02     0.00  -0.01  -0.00    -0.05  -0.02  -0.02
 104   1    -0.06  -0.02  -0.03    -0.01  -0.01  -0.01    -0.08  -0.03  -0.05
 105   1    -0.03   0.01  -0.06     0.01  -0.01  -0.02    -0.03   0.00  -0.09
 106   1    -0.01  -0.04   0.03     0.01  -0.01   0.01    -0.01  -0.05   0.03
 107   1     0.02  -0.02   0.06     0.01  -0.00   0.03     0.02  -0.02   0.08
 108   1    -0.00  -0.06   0.04     0.00  -0.02   0.02    -0.00  -0.08   0.05
 109   1     0.03   0.04  -0.00     0.02   0.02  -0.00     0.08   0.09  -0.01
 110   1     0.04   0.05  -0.00     0.02   0.02  -0.00     0.08   0.09  -0.00
 111   1     0.01   0.01   0.05     0.00  -0.00  -0.03     0.00  -0.00   0.01
 112   1     0.03   0.01   0.01     0.05  -0.05   0.05     0.03  -0.01  -0.00
 113   1    -0.00   0.00  -0.05     0.04  -0.03   0.05     0.04  -0.03  -0.01
 114   1    -0.05  -0.02  -0.05    -0.02   0.04  -0.01     0.01  -0.04  -0.02
 115   1    -0.06  -0.03  -0.01    -0.07   0.09  -0.06    -0.03  -0.02  -0.02
 116   1    -0.03  -0.03   0.04    -0.05   0.06  -0.05    -0.04   0.01  -0.01
 117   1    -0.03   0.02   0.04    -0.06  -0.05  -0.05    -0.02  -0.03  -0.02
 118   1    -0.06   0.03  -0.01    -0.08  -0.06  -0.06    -0.05  -0.07  -0.03
 119   1    -0.06   0.01  -0.06    -0.02  -0.02  -0.01    -0.04  -0.05  -0.00
 120   1    -0.01  -0.01  -0.05     0.05   0.03   0.04    -0.00  -0.01   0.03
 121   1     0.03  -0.01   0.01     0.06   0.04   0.04     0.02   0.02   0.04
 122   1     0.01  -0.01   0.05     0.00   0.00  -0.02     0.00   0.00  -0.02
 123   1    -0.02   0.02   0.00    -0.04   0.09   0.00     0.05  -0.07  -0.01
 124   1    -0.02   0.02  -0.00    -0.04   0.08   0.00     0.05  -0.06  -0.00
                     16                     17                     18
                        a                      a                      a 
 Frequencies --    61.4342                65.8396                69.8044
 Red. masses --    10.1442                10.3305                10.2154
 Frc consts  --     0.0000                 0.0000                 0.0000
 IR Inten    --     3.3416                 3.8353                 9.5923
 Raman Activ --     0.0000                 0.0000                 0.0000
 Depolar     --     0.0000                 0.0000                 0.0000
 Atom AN      X      Y      Z        X      Y      Z        X      Y      Z
   1   6    -0.03  -0.06  -0.01     0.03   0.05   0.05     0.02  -0.06  -0.02
   2   6    -0.06  -0.02  -0.01     0.03  -0.02   0.03     0.01  -0.01  -0.01
   3   6    -0.11   0.00  -0.05     0.04  -0.05   0.09     0.02   0.01  -0.04
   4   6    -0.05   0.03   0.05     0.01  -0.07  -0.01     0.00  -0.01   0.01
   5   6    -0.05  -0.03  -0.01     0.02  -0.02  -0.01    -0.00   0.01   0.01
   6   6     0.00  -0.10  -0.01    -0.05   0.05  -0.02     0.05  -0.04   0.01
   7   6     0.00  -0.10  -0.00    -0.06   0.06  -0.05     0.04  -0.04   0.03
   8   6    -0.05  -0.02   0.00     0.03  -0.03  -0.08    -0.01   0.02   0.04
   9   7    -0.05  -0.01   0.02     0.02  -0.02  -0.11     0.00   0.00   0.04
  10   6    -0.04  -0.01   0.04     0.01  -0.02  -0.06     0.02   0.00   0.04
  11   6    -0.03  -0.01  -0.07    -0.01  -0.04   0.02     0.02   0.05   0.14
  12   6    -0.01  -0.01  -0.09    -0.05  -0.04   0.04     0.06   0.05   0.15
  13   6     0.00  -0.01   0.02    -0.07  -0.02   0.01     0.07   0.01   0.03
  14   6     0.05  -0.01  -0.02    -0.14  -0.03  -0.01     0.12   0.02   0.04
  15   6     0.09   0.03  -0.02    -0.17  -0.05  -0.02     0.11   0.05   0.01
  16   6     0.07  -0.06  -0.07    -0.18   0.03  -0.03     0.14  -0.02   0.09
  17   6     0.03  -0.02  -0.01    -0.16  -0.09  -0.00     0.17   0.03   0.02
  18   6    -0.02  -0.00   0.15    -0.04   0.01  -0.04     0.07  -0.04  -0.10
  19   6    -0.04  -0.00   0.15     0.00   0.00  -0.07     0.03  -0.04  -0.08
  20   5    -0.05  -0.00   0.18     0.02   0.01  -0.07     0.02  -0.06  -0.11
  21   6    -0.04  -0.00   0.15     0.03  -0.01  -0.05    -0.00  -0.07  -0.09
  22   6    -0.01  -0.01   0.15     0.05  -0.00  -0.08    -0.06  -0.06  -0.07
  23   6     0.02  -0.01   0.01     0.06  -0.04  -0.02    -0.09  -0.02  -0.02
  24   6     0.07  -0.01  -0.02     0.09  -0.05   0.02    -0.19  -0.00  -0.03
  25   6     0.10   0.04  -0.06     0.10  -0.03   0.07    -0.25  -0.09  -0.06
  26   6     0.11  -0.06  -0.01     0.08  -0.04   0.02    -0.22   0.04  -0.03
  27   6     0.05  -0.03  -0.01     0.11  -0.10   0.01    -0.22   0.06  -0.02
  28   6     0.00  -0.01  -0.11     0.05  -0.06   0.03    -0.06   0.00   0.01
  29   6    -0.03  -0.00  -0.09     0.02  -0.05   0.05    -0.01  -0.01   0.00
  30   6    -0.04  -0.00   0.05     0.02  -0.03   0.03     0.01  -0.05  -0.05
  31   7    -0.05  -0.00   0.05     0.01  -0.04   0.08     0.02  -0.05  -0.07
  32   6    -0.05   0.00   0.03     0.00  -0.05   0.07     0.02  -0.05  -0.06
  33   6    -0.17  -0.13   0.03    -0.08  -0.13   0.06     0.00  -0.10  -0.04
  34   6    -0.16  -0.11   0.01    -0.08  -0.12   0.03     0.01  -0.09  -0.03
  35   6    -0.03   0.03  -0.00     0.01  -0.04   0.01     0.04  -0.04  -0.02
  36   6    -0.04   0.02  -0.02     0.02  -0.03  -0.03     0.04  -0.04  -0.00
  37   6     0.02   0.12  -0.03     0.04   0.05  -0.04     0.08  -0.03   0.01
  38   6    -0.13  -0.02  -0.12     0.02  -0.07  -0.09     0.01  -0.05  -0.02
  39   6    -0.04  -0.07   0.09     0.02  -0.06   0.02     0.03  -0.06   0.03
  40   6     0.07   0.15  -0.00     0.08   0.01   0.02     0.05   0.00  -0.03
  41   6     0.07   0.15   0.01     0.08   0.01   0.05     0.05  -0.00  -0.05
  42   6    -0.05   0.00   0.02     0.01  -0.01   0.05     0.01  -0.05  -0.04
  43   6    -0.03   0.00  -0.06    -0.00  -0.01   0.11    -0.01  -0.04   0.01
  44   6    -0.03  -0.00  -0.11     0.00  -0.00   0.04    -0.03  -0.03   0.03
  45   7    -0.02  -0.00  -0.17    -0.01  -0.00   0.05    -0.03  -0.03   0.02
  46   6     0.02   0.01  -0.07    -0.03   0.03   0.03    -0.03  -0.02   0.03
  47   6    -0.03   0.02  -0.02    -0.06   0.04   0.06    -0.10   0.03   0.01
  48   6     0.00   0.04   0.06    -0.13   0.12   0.03    -0.13   0.08   0.01
  49   6     0.10   0.06   0.09    -0.17   0.20  -0.02    -0.08   0.08   0.03
  50   6     0.17   0.05   0.04    -0.13   0.19  -0.03     0.00   0.03   0.05
  51   6     0.13   0.02  -0.04    -0.06   0.10  -0.01     0.03  -0.02   0.05
  52   6     0.03   0.00  -0.08    -0.00   0.03   0.01    -0.02   0.01  -0.00
  53   6     0.14   0.01  -0.03     0.02   0.13   0.06     0.04   0.12   0.06
  54   6     0.21   0.03   0.06     0.08   0.23   0.05     0.13   0.22   0.09
  55   6     0.19   0.04   0.09     0.12   0.22  -0.01     0.16   0.20   0.04
  56   6     0.07   0.02   0.03     0.08   0.11  -0.07     0.06   0.08  -0.06
  57   6    -0.01  -0.00  -0.05     0.01   0.01  -0.06    -0.03  -0.02  -0.07
  58   6    -0.03  -0.01  -0.09     0.01  -0.00  -0.06    -0.03  -0.02   0.04
  59   6    -0.05  -0.01  -0.00     0.02  -0.00  -0.06    -0.01  -0.03   0.00
  60   6    -0.05  -0.00   0.07     0.02   0.00  -0.03     0.01  -0.05  -0.06
  61   6    -0.10   0.06   0.01     0.11  -0.12  -0.07    -0.07   0.11   0.04
  62   6    -0.10   0.04   0.00     0.11  -0.11  -0.04    -0.07   0.10   0.02
  63   1    -0.01  -0.02   0.00     0.02   0.02   0.01    -0.01  -0.02  -0.00
  64   1    -0.00  -0.01  -0.01     0.00   0.01   0.02     0.02  -0.01  -0.01
  65   1    -0.01  -0.02  -0.00    -0.00   0.03   0.02     0.02  -0.03  -0.01
  66   1    -0.05   0.01  -0.02     0.02  -0.03   0.03    -0.00   0.01  -0.01
  67   1    -0.03  -0.01  -0.03     0.01  -0.01   0.04     0.01   0.01  -0.02
  68   1    -0.03   0.00  -0.01     0.01  -0.01   0.02     0.01  -0.00  -0.01
  69   1    -0.02   0.01   0.01     0.00  -0.02   0.01     0.00  -0.01  -0.01
  70   1    -0.01   0.02   0.02    -0.00  -0.04  -0.01     0.00   0.01   0.01
  71   1    -0.01   0.00   0.03     0.00  -0.01  -0.02    -0.01  -0.01   0.01
  72   1     0.01  -0.04  -0.00    -0.03   0.03  -0.00     0.03  -0.03   0.00
  73   1     0.01  -0.05  -0.00    -0.04   0.04  -0.02     0.03  -0.03   0.01
  74   1    -0.01  -0.00  -0.05     0.00  -0.02   0.02     0.00   0.02   0.06
  75   1     0.00  -0.00  -0.05    -0.02  -0.02   0.03     0.02   0.03   0.07
  76   1     0.02   0.01  -0.02    -0.06  -0.02  -0.01     0.06   0.02   0.01
  77   1     0.03   0.01   0.01    -0.05  -0.03  -0.00     0.02   0.03  -0.01
  78   1     0.04   0.02  -0.01    -0.05  -0.01  -0.00     0.01  -0.00   0.01
  79   1     0.02  -0.01  -0.02    -0.05   0.02  -0.01     0.04  -0.02   0.03
  80   1     0.01  -0.04  -0.01    -0.05   0.02  -0.01     0.04   0.00   0.02
  81   1     0.03  -0.02  -0.04    -0.07   0.01  -0.01     0.05  -0.00   0.04
  82   1     0.04  -0.01  -0.02    -0.06  -0.03  -0.01     0.04   0.01   0.01
  83   1    -0.01  -0.03   0.00    -0.04  -0.02   0.00     0.06   0.02   0.01
  84   1    -0.00   0.02   0.01    -0.04  -0.04   0.00     0.05  -0.00  -0.01
  85   1    -0.00  -0.00   0.07    -0.02   0.01  -0.01     0.02  -0.03  -0.06
  86   1     0.00  -0.00   0.07     0.02   0.01  -0.04    -0.03  -0.03  -0.03
  87   1     0.03   0.00  -0.02     0.03   0.01   0.02    -0.07  -0.03  -0.02
  88   1     0.03   0.03  -0.01     0.03  -0.02   0.02    -0.07  -0.04  -0.02
  89   1     0.04   0.01  -0.03     0.03  -0.01   0.03    -0.09  -0.02  -0.02
  90   1     0.03  -0.02   0.01     0.02  -0.02  -0.01    -0.06   0.03  -0.00
  91   1     0.03  -0.01  -0.01     0.04  -0.02   0.02    -0.08   0.02  -0.01
  92   1     0.04  -0.03  -0.01     0.02   0.00   0.01    -0.06   0.00  -0.01
  93   1    -0.00   0.02   0.00     0.04  -0.05  -0.00    -0.06   0.01  -0.01
  94   1    -0.00  -0.04   0.01     0.04  -0.02  -0.01    -0.05   0.04   0.00
  95   1     0.04  -0.01  -0.01     0.03  -0.03   0.02    -0.09   0.02  -0.01
  96   1     0.00  -0.00  -0.06     0.01  -0.02   0.02    -0.02   0.01   0.02
  97   1    -0.01   0.00  -0.06     0.00  -0.02   0.02     0.00   0.01   0.01
  98   1    -0.08  -0.07   0.01    -0.04  -0.05   0.02    -0.00  -0.04  -0.01
  99   1    -0.07  -0.06   0.00    -0.04  -0.05   0.01     0.00  -0.04  -0.01
 100   1     0.02   0.05  -0.01     0.02   0.03  -0.02     0.03  -0.00   0.01
 101   1    -0.01   0.05   0.01    -0.01   0.03  -0.00     0.02  -0.01   0.00
 102   1     0.02   0.02  -0.02     0.02   0.00  -0.02     0.03  -0.01  -0.00
 103   1    -0.04  -0.01  -0.02     0.01  -0.01  -0.02     0.00  -0.01   0.00
 104   1    -0.07  -0.02  -0.04    -0.01  -0.03  -0.03    -0.01  -0.01  -0.01
 105   1    -0.03   0.00  -0.07     0.01  -0.02  -0.04     0.01  -0.01  -0.02
 106   1    -0.02  -0.03   0.01     0.01  -0.01  -0.01     0.01  -0.02   0.01
 107   1    -0.00  -0.01   0.06     0.00  -0.01   0.02     0.01  -0.01   0.02
 108   1    -0.01  -0.05   0.03     0.01  -0.04   0.01     0.00  -0.02   0.01
 109   1     0.05   0.07  -0.00     0.04   0.02   0.00     0.02   0.01  -0.01
 110   1     0.05   0.07   0.00     0.04   0.02   0.02     0.02   0.01  -0.02
 111   1    -0.01   0.00  -0.02    -0.00  -0.00   0.06    -0.01  -0.02   0.01
 112   1    -0.03   0.00  -0.01    -0.01  -0.01   0.03    -0.04   0.01  -0.00
 113   1    -0.01   0.01   0.03    -0.04   0.04   0.01    -0.06   0.03  -0.00
 114   1     0.04   0.02   0.04    -0.07   0.08  -0.01    -0.03   0.03   0.01
 115   1     0.07   0.02   0.02    -0.04   0.07  -0.02     0.01   0.01   0.02
 116   1     0.05   0.00  -0.02    -0.01   0.03  -0.01     0.03  -0.02   0.02
 117   1     0.05   0.00  -0.02    -0.00   0.04   0.03     0.01   0.04   0.03
 118   1     0.09   0.01   0.03     0.03   0.09   0.03     0.06   0.09   0.04
 119   1     0.07   0.02   0.05     0.05   0.08  -0.00     0.07   0.08   0.02
 120   1     0.01   0.01   0.02     0.03   0.03  -0.04     0.02   0.02  -0.03
 121   1    -0.03  -0.01  -0.03    -0.00  -0.02  -0.03    -0.02  -0.03  -0.04
 122   1    -0.01  -0.00  -0.04     0.00   0.00  -0.03    -0.01  -0.01   0.03
 123   1    -0.04   0.03   0.00     0.05  -0.05  -0.03    -0.04   0.05   0.01
 124   1    -0.04   0.03   0.00     0.05  -0.05  -0.01    -0.03   0.04   0.01
                     19                     20                     21
                        a                      a                      a 
 Frequencies --    70.4998                80.6730                90.1089
 Red. masses --    10.2424                10.2523                10.1110
 Frc consts  --     0.0000                 0.0000                 0.0000
 IR Inten    --    13.0148                 0.6093                 6.8463
 Raman Activ --     0.0000                 0.0000                 0.0000
 Depolar     --     0.0000                 0.0000                 0.0000
 Atom AN      X      Y      Z        X      Y      Z        X      Y      Z
   1   6     0.07   0.02  -0.01    -0.08  -0.02  -0.05     0.05   0.07   0.05
   2   6     0.04   0.05  -0.01    -0.01  -0.01  -0.02     0.03  -0.01   0.02
   3   6     0.01   0.07  -0.04     0.02  -0.00  -0.03    -0.11  -0.06   0.06
   4   6     0.03   0.07   0.03     0.03   0.01  -0.07     0.07   0.06   0.04
   5   6     0.03   0.06  -0.02     0.00  -0.03   0.05     0.07  -0.08  -0.05
   6   6     0.07  -0.02  -0.03     0.02   0.02   0.07     0.05  -0.12  -0.07
   7   6     0.07  -0.02  -0.04     0.01   0.03   0.12     0.03  -0.08  -0.11
   8   6     0.01   0.07  -0.03     0.00  -0.01   0.14     0.02  -0.02  -0.13
   9   7     0.02   0.06  -0.04    -0.01   0.01   0.16     0.01   0.00  -0.14
  10   6     0.02   0.05  -0.03    -0.01  -0.01   0.01     0.00   0.01  -0.02
  11   6    -0.00   0.04   0.04    -0.00  -0.04  -0.11     0.00   0.03   0.07
  12   6    -0.04   0.04   0.06    -0.01  -0.05  -0.19     0.01   0.05   0.13
  13   6    -0.05   0.05  -0.01    -0.02  -0.03  -0.12     0.01   0.03   0.09
  14   6    -0.13   0.04  -0.01    -0.03  -0.01  -0.04     0.03   0.02   0.03
  15   6    -0.16   0.02  -0.02    -0.02  -0.11   0.03     0.03   0.10  -0.03
  16   6    -0.16   0.11  -0.02    -0.04   0.00  -0.00     0.05  -0.00  -0.00
  17   6    -0.14  -0.01  -0.01    -0.06   0.10  -0.01     0.05  -0.07   0.01
  18   6    -0.03   0.06  -0.09    -0.02  -0.01  -0.05     0.01   0.02   0.04
  19   6     0.01   0.06  -0.11    -0.01  -0.00  -0.01     0.01   0.01   0.00
  20   5     0.02   0.04  -0.14     0.00   0.01  -0.00     0.00   0.00   0.00
  21   6     0.03   0.01  -0.10     0.01  -0.00   0.00    -0.01   0.01  -0.00
  22   6     0.04   0.01  -0.10     0.02  -0.01   0.04    -0.01   0.02  -0.04
  23   6     0.03  -0.02   0.03     0.01  -0.03   0.12    -0.01   0.04  -0.09
  24   6     0.04  -0.03   0.03     0.03  -0.02   0.04    -0.04   0.02  -0.03
  25   6     0.04  -0.03   0.06     0.04  -0.00   0.00    -0.05   0.00   0.00
  26   6     0.01  -0.04  -0.01     0.01  -0.11  -0.04    -0.03   0.11   0.03
  27   6     0.08  -0.01   0.01     0.07   0.10   0.01    -0.06  -0.06  -0.01
  28   6     0.02  -0.05   0.15     0.01  -0.06   0.20    -0.00   0.05  -0.14
  29   6     0.01  -0.05   0.13     0.00  -0.04   0.12     0.00   0.03  -0.07
  30   6     0.01  -0.02   0.01     0.01  -0.01  -0.01    -0.00   0.01   0.02
  31   7     0.00  -0.02  -0.00     0.01   0.01  -0.16    -0.00   0.00   0.14
  32   6    -0.02  -0.04   0.00     0.00  -0.01  -0.13    -0.02  -0.02   0.13
  33   6    -0.09  -0.13   0.01     0.00  -0.07  -0.11    -0.06  -0.01   0.11
  34   6    -0.08  -0.12   0.00    -0.00  -0.08  -0.07    -0.09  -0.04   0.07
  35   6    -0.00  -0.03  -0.00     0.00  -0.02  -0.04    -0.07  -0.08   0.05
  36   6     0.02  -0.00  -0.01     0.01  -0.01   0.02    -0.03  -0.01  -0.02
  37   6     0.05   0.04  -0.01     0.08  -0.03   0.05    -0.04   0.07  -0.05
  38   6     0.02  -0.02  -0.04    -0.02   0.00   0.03     0.10  -0.07  -0.06
  39   6    -0.00  -0.00   0.03    -0.02   0.01   0.06    -0.06   0.06  -0.04
  40   6     0.05   0.04  -0.01    -0.01   0.03  -0.07    -0.06  -0.12   0.07
  41   6     0.05   0.04  -0.00    -0.00   0.04  -0.11    -0.04  -0.09   0.11
  42   6    -0.01   0.01  -0.03     0.01   0.01  -0.10    -0.00   0.01   0.06
  43   6    -0.03   0.01   0.02     0.01   0.01  -0.12    -0.00   0.00   0.05
  44   6    -0.04   0.02   0.03     0.00   0.01   0.00     0.00   0.01   0.00
  45   7    -0.04   0.02   0.00     0.00   0.02   0.01     0.00   0.02   0.00
  46   6    -0.01  -0.03   0.00     0.00   0.02   0.01     0.01   0.01   0.00
  47   6    -0.04   0.02  -0.09    -0.12   0.13  -0.09    -0.11   0.12  -0.11
  48   6     0.05  -0.10  -0.06    -0.17   0.17  -0.13    -0.13   0.13  -0.13
  49   6     0.18  -0.26   0.07    -0.06   0.09  -0.05     0.00   0.01  -0.02
  50   6     0.18  -0.30   0.13     0.09  -0.04   0.07     0.14  -0.11   0.10
  51   6     0.09  -0.18   0.10     0.12  -0.07   0.09     0.14  -0.10   0.10
  52   6    -0.02   0.02   0.02    -0.01   0.02  -0.01    -0.01   0.01  -0.00
  53   6     0.07   0.04   0.07    -0.14  -0.06  -0.09    -0.16  -0.09  -0.10
  54   6     0.06   0.01   0.09    -0.11  -0.04  -0.08    -0.16  -0.10  -0.10
  55   6    -0.04  -0.04   0.06     0.06   0.08   0.05    -0.00   0.01   0.02
  56   6    -0.13  -0.06   0.01     0.18   0.15   0.13     0.15   0.12   0.13
  57   6    -0.12  -0.03  -0.01     0.13   0.11   0.09     0.13   0.11   0.11
  58   6    -0.03   0.04   0.04    -0.00   0.01   0.12     0.00   0.00  -0.05
  59   6     0.00   0.04  -0.03    -0.00   0.01   0.10     0.00   0.00  -0.06
  60   6     0.01   0.03  -0.08     0.00   0.01  -0.00     0.00   0.00   0.00
  61   6    -0.04   0.17  -0.02    -0.00  -0.08   0.11     0.06  -0.02  -0.11
  62   6    -0.03   0.16  -0.02     0.00  -0.09   0.07     0.09  -0.05  -0.07
  63   1     0.01  -0.00   0.00    -0.02  -0.01  -0.01     0.04   0.03   0.01
  64   1     0.03   0.01  -0.01    -0.04  -0.02  -0.01     0.01   0.01   0.01
  65   1     0.03  -0.01  -0.00    -0.03   0.00  -0.03     0.00   0.04   0.03
  66   1    -0.01   0.02  -0.01     0.02   0.00  -0.00    -0.03  -0.03   0.01
  67   1     0.01   0.02  -0.03    -0.01  -0.01   0.00    -0.05  -0.03   0.02
  68   1     0.01   0.02  -0.00     0.00   0.00  -0.03    -0.05   0.01   0.03
  69   1     0.01   0.02   0.00     0.01   0.01  -0.03     0.01   0.04   0.03
  70   1     0.01   0.03   0.01     0.02   0.00  -0.02     0.01  -0.00   0.00
  71   1     0.01   0.01   0.02     0.01   0.00  -0.02     0.05   0.03  -0.00
  72   1     0.03  -0.03  -0.01     0.01   0.02   0.02     0.01  -0.05  -0.02
  73   1     0.03  -0.03  -0.01     0.01   0.02   0.04     0.00  -0.03  -0.04
  74   1     0.00   0.01   0.03    -0.00  -0.01  -0.04     0.00   0.01   0.02
  75   1    -0.01   0.01   0.03    -0.00  -0.02  -0.08     0.00   0.02   0.06
  76   1    -0.05   0.00  -0.01    -0.02  -0.03   0.03     0.02   0.03  -0.03
  77   1    -0.04  -0.00  -0.01    -0.00  -0.04   0.01     0.01   0.04  -0.00
  78   1    -0.05   0.01  -0.00     0.00  -0.05   0.00     0.01   0.04  -0.00
  79   1    -0.04   0.03  -0.01    -0.01  -0.01  -0.00     0.01   0.01   0.00
  80   1    -0.04   0.04  -0.01    -0.01   0.01  -0.01     0.01  -0.01   0.00
  81   1    -0.06   0.03  -0.00    -0.02   0.00   0.01     0.02  -0.00  -0.01
  82   1    -0.06  -0.01  -0.01    -0.03   0.04   0.03     0.03  -0.03  -0.02
  83   1    -0.03   0.01  -0.00    -0.02   0.06  -0.02     0.01  -0.05   0.02
  84   1    -0.03  -0.02  -0.00    -0.01   0.02  -0.01     0.01  -0.01   0.01
  85   1    -0.01   0.02  -0.04    -0.01   0.00  -0.00     0.00   0.00   0.01
  86   1     0.01   0.01  -0.06     0.01   0.00   0.00    -0.00   0.00  -0.00
  87   1     0.01   0.00   0.02     0.01  -0.01   0.00    -0.01   0.01   0.00
  88   1     0.01  -0.02   0.01     0.01   0.01   0.01    -0.01  -0.01  -0.00
  89   1     0.01  -0.01   0.03     0.01   0.00  -0.01    -0.02  -0.00   0.01
  90   1    -0.00  -0.02  -0.02    -0.00  -0.04  -0.01    -0.00   0.04   0.00
  91   1     0.02  -0.02  -0.00     0.01  -0.03  -0.04    -0.02   0.03   0.03
  92   1    -0.01  -0.01   0.00    -0.01  -0.05  -0.01    -0.00   0.05   0.00
  93   1     0.03  -0.01   0.01     0.02   0.06   0.02    -0.02  -0.04  -0.02
  94   1     0.03   0.01  -0.01     0.02   0.02   0.01    -0.01  -0.01  -0.01
  95   1     0.01   0.00   0.00     0.03   0.04  -0.03    -0.03  -0.02   0.02
  96   1     0.00  -0.02   0.07     0.00  -0.02   0.08    -0.00   0.02  -0.06
  97   1    -0.00  -0.02   0.06    -0.00  -0.01   0.04     0.00   0.01  -0.02
  98   1    -0.04  -0.06   0.00     0.00  -0.03  -0.04    -0.02   0.01   0.04
[...]
   2   6    -0.00  -0.00   0.00    -0.00  -0.00   0.00     0.00   0.00  -0.00
   3   6    -0.00   0.00   0.00    -0.00   0.00   0.00    -0.00   0.00  -0.00
   4   6    -0.00   0.00   0.00    -0.00  -0.00   0.00     0.00  -0.00  -0.00
   5   6     0.00  -0.00  -0.00    -0.00  -0.00  -0.00     0.01   0.00  -0.00
   6   6     0.00   0.00   0.00    -0.00  -0.00  -0.00     0.00   0.00   0.01
   7   6     0.00   0.00  -0.00     0.00   0.00  -0.00    -0.00  -0.00   0.00
   8   6     0.00   0.00  -0.00     0.00   0.00   0.00    -0.00  -0.00   0.00
   9   7    -0.00   0.00   0.00    -0.00  -0.00   0.00     0.00   0.00  -0.00
  10   6     0.00  -0.00   0.00    -0.00  -0.00  -0.00     0.00  -0.00  -0.00
  11   6    -0.00  -0.00   0.00    -0.01  -0.00   0.00    -0.00  -0.00   0.00
  12   6    -0.00   0.00  -0.00    -0.01   0.00  -0.00     0.00  -0.00   0.00
  13   6    -0.00   0.00  -0.00    -0.00   0.00  -0.00    -0.00  -0.00  -0.00
  14   6    -0.00   0.00   0.00    -0.00   0.00  -0.00     0.00   0.00   0.00
  15   6    -0.00   0.00   0.00    -0.00   0.00   0.00     0.00   0.00  -0.00
  16   6    -0.00   0.00   0.00    -0.00   0.00   0.00    -0.00  -0.00   0.00
  17   6    -0.00   0.00  -0.00    -0.00   0.00  -0.00     0.00   0.00   0.00
  18   6    -0.00  -0.00   0.00    -0.00  -0.00   0.00     0.00   0.00  -0.00
  19   6    -0.00   0.00  -0.00     0.00  -0.00   0.00     0.00   0.00   0.00
  20   5    -0.00  -0.00   0.00     0.00  -0.00  -0.00    -0.00  -0.00  -0.00
  21   6    -0.00  -0.00  -0.00    -0.00   0.00   0.00     0.00   0.00   0.00
  22   6     0.00  -0.00  -0.00     0.00  -0.00  -0.00    -0.00   0.00   0.00
  23   6    -0.00   0.00  -0.00     0.00   0.00   0.00    -0.00   0.00   0.00
  24   6     0.00   0.00   0.00     0.00   0.00   0.00    -0.00  -0.00  -0.00
  25   6     0.00   0.00   0.00     0.00   0.00  -0.00    -0.00  -0.00   0.00
  26   6     0.00   0.00   0.00     0.00   0.00  -0.00    -0.00  -0.00  -0.00
  27   6     0.00   0.00   0.00     0.00   0.00   0.00    -0.00  -0.00   0.00
  28   6     0.00   0.00   0.00     0.01   0.00   0.00    -0.00  -0.00  -0.00
  29   6     0.00  -0.00  -0.00     0.01  -0.00  -0.00    -0.00   0.00   0.00
  30   6     0.00   0.00   0.00     0.00  -0.00   0.00    -0.00  -0.00  -0.00
  31   7    -0.00  -0.00  -0.00     0.00  -0.00  -0.00     0.00   0.00   0.00
  32   6     0.00  -0.00  -0.00    -0.00   0.00  -0.00    -0.00   0.00   0.00
  33   6     0.00  -0.00   0.00    -0.00   0.00  -0.01    -0.00   0.00  -0.00
  34   6    -0.00   0.00   0.00    -0.00   0.00   0.00     0.01  -0.01  -0.02
  35   6     0.00  -0.00   0.00     0.00  -0.00  -0.00     0.00  -0.00  -0.00
  36   6    -0.00  -0.00   0.00     0.00  -0.00   0.00     0.00  -0.00  -0.00
  37   6    -0.00  -0.00  -0.00     0.00   0.00   0.00    -0.00   0.00  -0.00
  38   6    -0.00  -0.00   0.00     0.00   0.00  -0.00    -0.00  -0.00  -0.00
  39   6     0.00  -0.00   0.00     0.00  -0.00   0.00     0.00   0.00  -0.00
  40   6     0.00  -0.00   0.00     0.00  -0.00   0.00     0.00  -0.00   0.00
  41   6    -0.00  -0.00  -0.00    -0.00   0.00   0.01    -0.00   0.00   0.00
  42   6    -0.00  -0.00  -0.00     0.01   0.00   0.00     0.00   0.00   0.00
  43   6    -0.10   0.07  -0.01     0.20  -0.13   0.02    -0.00   0.00  -0.00
  44   6    -0.00  -0.00  -0.00     0.00  -0.01  -0.00     0.00   0.00  -0.00
  45   7     0.00   0.00   0.00     0.00   0.00  -0.00     0.00  -0.00   0.00
  46   6     0.00   0.00  -0.00     0.00   0.00  -0.00    -0.00  -0.00   0.00
  47   6    -0.00   0.00   0.00     0.00  -0.00  -0.00    -0.00   0.00   0.00
  48   6     0.00   0.00   0.00    -0.00  -0.00  -0.00     0.00   0.00   0.00
  49   6     0.00   0.00  -0.00    -0.00  -0.00   0.00     0.00   0.00  -0.00
  50   6    -0.00   0.00   0.00    -0.00   0.00   0.00     0.00  -0.00  -0.00
  51   6     0.01   0.01   0.01     0.00   0.01   0.00    -0.00  -0.00  -0.00
  52   6     0.00  -0.00  -0.00    -0.00   0.00   0.00     0.00  -0.00  -0.00
  53   6     0.00  -0.01   0.00    -0.01   0.01  -0.01     0.00  -0.00   0.00
  54   6    -0.00  -0.00   0.00     0.00   0.00  -0.00     0.00   0.00  -0.00
  55   6     0.00  -0.00  -0.00     0.00  -0.00  -0.00     0.00  -0.00  -0.00
  56   6     0.00  -0.00   0.00     0.00  -0.00   0.00    -0.00   0.00  -0.00
  57   6    -0.00  -0.00   0.00    -0.00  -0.00   0.00     0.00   0.00  -0.00
  58   6    -0.21  -0.11  -0.02    -0.11  -0.06  -0.01    -0.00  -0.00  -0.00
  59   6    -0.01   0.00  -0.00    -0.00   0.00  -0.00    -0.00   0.00  -0.00
  60   6     0.00  -0.00   0.00    -0.00   0.00  -0.00     0.00   0.00   0.00
  61   6     0.00   0.00   0.01     0.00   0.00   0.00    -0.02  -0.01  -0.04
  62   6    -0.00   0.00  -0.00     0.00   0.00  -0.00     0.09   0.07  -0.24
  63   1     0.00  -0.00  -0.00     0.00  -0.00  -0.00    -0.00   0.01   0.01
  64   1     0.00  -0.00   0.00     0.00  -0.00   0.00     0.01  -0.01   0.01
  65   1    -0.00  -0.00  -0.00     0.00   0.00   0.00     0.00   0.00   0.00
  66   1     0.00   0.00  -0.00     0.00   0.00  -0.00     0.00   0.00  -0.00
  67   1     0.00  -0.00   0.00     0.00  -0.00   0.00     0.00  -0.00   0.00
  68   1    -0.00  -0.00   0.00     0.00   0.00  -0.00    -0.00  -0.00   0.00
  69   1    -0.00  -0.00   0.00     0.00   0.00   0.00    -0.00  -0.00   0.00
  70   1     0.00   0.00  -0.00    -0.00   0.00  -0.00     0.00   0.00  -0.00
  71   1     0.00  -0.00  -0.00    -0.00  -0.00  -0.00    -0.00   0.00   0.00
  72   1    -0.01  -0.00  -0.01     0.00   0.00   0.00    -0.02  -0.01  -0.03
  73   1    -0.01  -0.00   0.01    -0.00  -0.00   0.01     0.00   0.00  -0.01
  74   1     0.01   0.01  -0.00     0.02   0.01  -0.00     0.00   0.00  -0.00
  75   1     0.01  -0.00   0.00     0.02  -0.01   0.00    -0.00   0.00  -0.00
  76   1     0.00  -0.00   0.00     0.00  -0.00   0.00     0.00   0.00  -0.00
  77   1     0.00   0.00  -0.00     0.00   0.00  -0.00    -0.00  -0.00   0.00
  78   1    -0.00   0.00  -0.00    -0.00   0.00  -0.00     0.00  -0.00   0.00
  79   1     0.00   0.00   0.00    -0.00   0.00  -0.00     0.00  -0.00   0.00
  80   1     0.00  -0.00  -0.00     0.00  -0.00  -0.00     0.00  -0.00  -0.00
  81   1     0.00  -0.00   0.00     0.00  -0.00   0.00    -0.00   0.00  -0.00
  82   1     0.00  -0.00   0.00     0.00  -0.00   0.00    -0.00   0.00  -0.00
  83   1    -0.00  -0.00   0.00    -0.00   0.00   0.00     0.00  -0.00  -0.00
  84   1     0.00   0.00  -0.00     0.00   0.00  -0.00    -0.00  -0.00   0.00
  85   1     0.00   0.00  -0.00     0.01   0.00  -0.00    -0.00  -0.00   0.00
  86   1    -0.00   0.00   0.00    -0.00   0.00   0.00     0.01  -0.00  -0.00
  87   1     0.00   0.00   0.00     0.00   0.00  -0.00     0.00  -0.00   0.00
  88   1     0.00   0.00   0.00    -0.00  -0.00   0.00     0.00   0.00  -0.00
  89   1    -0.00  -0.00  -0.00    -0.00  -0.00  -0.00     0.00   0.00   0.00
  90   1    -0.00   0.00   0.00    -0.00   0.00   0.00     0.00  -0.00   0.00
  91   1    -0.00  -0.00  -0.00    -0.00  -0.00  -0.00     0.00   0.00   0.00
  92   1     0.00   0.00   0.00     0.00   0.00   0.00     0.00  -0.00   0.00
  93   1     0.00   0.00  -0.00    -0.00  -0.00   0.00     0.00   0.00  -0.00
  94   1    -0.00   0.00   0.00    -0.00   0.00   0.00    -0.00   0.00  -0.00
  95   1    -0.00  -0.00  -0.00    -0.00  -0.00  -0.00     0.00   0.00   0.00
  96   1    -0.01  -0.00  -0.00    -0.02  -0.01  -0.00     0.00   0.00   0.00
  97   1    -0.00   0.00   0.00    -0.02   0.02   0.00     0.00  -0.00  -0.00
  98   1    -0.01   0.01  -0.01     0.01  -0.01   0.03     0.01  -0.00   0.01
  99   1     0.00  -0.00  -0.00     0.00  -0.00  -0.01    -0.03   0.03   0.08
 100   1    -0.00   0.00  -0.00    -0.00   0.00   0.00     0.00  -0.00   0.00
 101   1     0.00   0.00  -0.00    -0.00  -0.00   0.00    -0.00  -0.00   0.00
 102   1     0.00   0.00   0.00    -0.00  -0.00  -0.00     0.00   0.00   0.00
 103   1    -0.00   0.00   0.00    -0.00   0.00   0.00    -0.00   0.00   0.00
 104   1     0.00  -0.00  -0.00    -0.00   0.00   0.00     0.00  -0.00  -0.00
 105   1     0.00   0.00   0.00    -0.00  -0.00  -0.00     0.00   0.00   0.00
 106   1    -0.00   0.00   0.00    -0.00   0.00  -0.00    -0.00   0.00   0.00
 107   1     0.00   0.00   0.00    -0.00  -0.00   0.00    -0.00  -0.00   0.00
 108   1     0.00  -0.00  -0.00     0.00  -0.00  -0.00     0.00  -0.00  -0.00
 109   1    -0.01   0.00  -0.01    -0.00   0.00  -0.00    -0.00   0.00  -0.00
 110   1    -0.00   0.00   0.00     0.01  -0.01  -0.02     0.00  -0.00  -0.00
 111   1     0.38  -0.25   0.03    -0.70   0.47  -0.05     0.00  -0.00   0.00
 112   1     0.00  -0.00  -0.00    -0.00   0.00   0.01     0.00  -0.00  -0.00
 113   1    -0.00  -0.00  -0.00     0.00   0.01   0.00    -0.00  -0.00  -0.00
 114   1    -0.00  -0.00   0.00     0.00   0.00  -0.00    -0.00  -0.00   0.00
 115   1     0.00  -0.00  -0.01     0.00  -0.00  -0.01    -0.00   0.00   0.01
 116   1    -0.02  -0.05  -0.02    -0.01  -0.03  -0.01     0.00   0.00   0.00
 117   1    -0.01   0.03  -0.01     0.02  -0.05   0.02    -0.00   0.00  -0.00
 118   1     0.00   0.00  -0.00    -0.01  -0.01   0.01    -0.00  -0.00   0.00
 119   1    -0.00   0.00   0.00    -0.00   0.00   0.00    -0.00   0.00   0.00
 120   1    -0.00   0.01  -0.00    -0.00   0.00  -0.00     0.00  -0.00   0.00
 121   1     0.00   0.00  -0.00     0.00   0.00  -0.01    -0.00  -0.00   0.00
 122   1     0.75   0.39   0.05     0.40   0.21   0.03     0.00   0.00  -0.00
 123   1    -0.02  -0.01  -0.03    -0.01  -0.00  -0.01     0.07   0.03   0.12
 124   1    -0.00  -0.00   0.00    -0.00  -0.00   0.00    -0.32  -0.26   0.85
                    364                    365                    366
                        a                      a                      a 
 Frequencies --  3119.2943              3133.1566              3139.2188
 Red. masses --     1.8376                 1.8036                 1.7887
 Frc consts  --     0.0000                 0.0000                 0.0000
 IR Inten    --    33.8788                17.8376                38.4357
 Raman Activ --     0.0000                 0.0000                 0.0000
 Depolar     --     0.0000                 0.0000                 0.0000
 Atom AN      X      Y      Z        X      Y      Z        X      Y      Z
   1   6    -0.00  -0.00  -0.00     0.00   0.00   0.00    -0.00   0.00  -0.00
   2   6     0.00   0.00  -0.00     0.00   0.00  -0.00     0.00   0.00  -0.00
   3   6     0.00   0.00  -0.00     0.00  -0.00   0.00    -0.00   0.00  -0.00
   4   6     0.00   0.00  -0.00    -0.00   0.00   0.00    -0.00   0.00   0.00
   5   6     0.00   0.00  -0.00     0.00   0.00  -0.00     0.00   0.00   0.00
   6   6     0.00   0.00   0.00     0.00   0.00   0.00     0.00   0.00   0.00
   7   6    -0.00  -0.00   0.00    -0.00  -0.00   0.00    -0.00  -0.00   0.00
   8   6    -0.00  -0.00   0.00    -0.00   0.00   0.00     0.00  -0.00  -0.00
   9   7     0.00   0.00  -0.00     0.00  -0.00   0.00    -0.00   0.00  -0.00
  10   6     0.00  -0.00   0.00    -0.00   0.00  -0.00     0.00  -0.00   0.00
  11   6     0.00   0.00  -0.00    -0.00  -0.00  -0.00     0.00   0.00  -0.00
  12   6     0.00  -0.00   0.00    -0.01   0.00  -0.00     0.01  -0.00   0.00
  13   6     0.00   0.00   0.00     0.00   0.01  -0.00    -0.00  -0.01   0.00
  14   6     0.00  -0.00   0.00     0.00   0.00  -0.00    -0.00  -0.00   0.00
  15   6     0.00  -0.00   0.00     0.00   0.00   0.00     0.00  -0.00  -0.00
  16   6     0.00  -0.00   0.00     0.00  -0.00  -0.00    -0.00   0.00  -0.00
  17   6     0.00  -0.00  -0.00     0.00  -0.00  -0.00    -0.00   0.00   0.00
  18   6     0.00   0.00  -0.00     0.16   0.10  -0.02    -0.16  -0.10   0.02
  19   6     0.00   0.00  -0.00     0.01   0.00   0.00    -0.01  -0.00  -0.00
  20   5    -0.00  -0.00   0.00     0.00   0.00   0.00     0.00   0.00   0.00
  21   6    -0.00   0.00  -0.00     0.01  -0.00   0.00     0.01  -0.00   0.00
  22   6    -0.00   0.00   0.00     0.15  -0.11  -0.02     0.15  -0.11  -0.02
  23   6     0.00  -0.00   0.00     0.00  -0.01  -0.00     0.00  -0.01  -0.00
  24   6    -0.00  -0.00  -0.00     0.00  -0.00  -0.00     0.00  -0.00  -0.00
  25   6     0.00  -0.00  -0.00     0.00   0.00  -0.00     0.00   0.00   0.00
  26   6    -0.00   0.00   0.00     0.00  -0.00   0.00    -0.00  -0.00   0.00
  27   6    -0.00   0.00  -0.00     0.00   0.00  -0.00     0.00   0.00  -0.00
  28   6    -0.00  -0.00  -0.00    -0.01   0.00  -0.00    -0.01   0.00  -0.00
  29   6     0.00  -0.00  -0.00    -0.00   0.00   0.00    -0.00   0.00   0.00
  30   6    -0.00  -0.00   0.00    -0.00  -0.00  -0.00    -0.00  -0.00  -0.00
  31   7    -0.00   0.00   0.00     0.00   0.00   0.00     0.00   0.00   0.00
  32   6     0.00  -0.00  -0.00    -0.00  -0.00   0.00    -0.00  -0.00   0.00
  33   6     0.02  -0.01   0.04    -0.00   0.00  -0.00     0.00  -0.00   0.00
  34   6    -0.09   0.08   0.24     0.00  -0.00  -0.00    -0.00   0.00   0.00
  35   6    -0.01   0.01   0.00     0.00  -0.00  -0.00    -0.00   0.00  -0.00
  36   6    -0.00   0.00   0.00     0.00  -0.00  -0.00    -0.00   0.00   0.00
  37   6     0.00  -0.00   0.00     0.00   0.00   0.00     0.00   0.00   0.00
  38   6     0.00   0.00   0.00     0.00   0.00   0.00     0.00   0.00   0.00
  39   6    -0.00  -0.00   0.00    -0.00  -0.00  -0.00    -0.00   0.00   0.00
  40   6    -0.00   0.00  -0.01     0.00  -0.00   0.00    -0.00   0.00  -0.00
  41   6     0.00  -0.00  -0.00    -0.00   0.00   0.00     0.00  -0.00  -0.00
  42   6     0.00   0.00   0.00     0.00  -0.00  -0.00    -0.00   0.00  -0.00
  43   6     0.00  -0.00  -0.00     0.00  -0.00  -0.00    -0.00   0.00  -0.00
  44   6    -0.00   0.00   0.00     0.00  -0.00  -0.00     0.00   0.00   0.00
  45   7    -0.00  -0.00  -0.00     0.00   0.00   0.00    -0.00  -0.00   0.00
  46   6    -0.00  -0.00   0.00    -0.00  -0.00   0.00    -0.00  -0.00   0.00
  47   6    -0.00   0.00   0.00    -0.00   0.00   0.00    -0.00   0.00   0.00
  48   6     0.00   0.00   0.00    -0.00  -0.00   0.00     0.00   0.00   0.00
  49   6     0.00   0.00  -0.00     0.00   0.00  -0.00     0.00   0.00  -0.00
  50   6     0.00  -0.00  -0.00    -0.00   0.00   0.00     0.00  -0.00  -0.00
  51   6    -0.00  -0.00  -0.00    -0.00  -0.00  -0.00    -0.00  -0.00  -0.00
  52   6     0.00  -0.00  -0.00    -0.00   0.00  -0.00     0.00  -0.00  -0.00
  53   6     0.00  -0.00   0.00    -0.00   0.00  -0.00     0.00  -0.00   0.00
  54   6    -0.00  -0.00   0.00     0.00  -0.00  -0.00    -0.00  -0.00   0.00
  55   6    -0.00   0.00   0.00     0.00  -0.00  -0.00    -0.00   0.00   0.00
  56   6    -0.00   0.00  -0.00    -0.00   0.00  -0.00    -0.00   0.00  -0.00
  57   6     0.00   0.00  -0.00    -0.00  -0.00   0.00     0.00   0.00  -0.00
  58   6     0.00   0.00   0.00    -0.00   0.00  -0.00     0.00   0.00   0.00
  59   6     0.00   0.00  -0.00    -0.00   0.00  -0.00     0.00   0.00   0.00
  60   6    -0.00   0.00  -0.00    -0.00   0.00   0.00    -0.00  -0.00  -0.00
  61   6    -0.00  -0.00  -0.00    -0.00  -0.00  -0.00    -0.00  -0.00  -0.00
  62   6     0.01   0.01  -0.02     0.00   0.00  -0.00     0.00   0.00  -0.00
  63   1     0.00   0.00   0.00     0.00  -0.00  -0.00     0.00  -0.00  -0.00
  64   1     0.00  -0.00   0.00    -0.00   0.00  -0.00     0.00  -0.00   0.00
  65   1     0.00   0.00   0.00     0.00   0.00   0.00     0.00   0.00   0.00
  66   1     0.00   0.00  -0.00    -0.00  -0.00   0.00    -0.00   0.00   0.00
  67   1     0.00  -0.00   0.00    -0.00   0.00  -0.00     0.00  -0.00   0.00
  68   1    -0.00  -0.00   0.00     0.00   0.00   0.00    -0.00  -0.00  -0.00
  69   1    -0.00  -0.00   0.00     0.00   0.00  -0.00    -0.00   0.00   0.00
  70   1     0.00  -0.00   0.00    -0.00  -0.00   0.00     0.00   0.00   0.00
  71   1     0.00   0.00   0.00     0.00  -0.00  -0.00     0.00  -0.00  -0.00
  72   1    -0.00  -0.00  -0.00    -0.00  -0.00  -0.00    -0.00  -0.00  -0.00
  73   1     0.00   0.00  -0.00     0.00   0.00  -0.00     0.00   0.00  -0.00
  74   1    -0.00  -0.00   0.00     0.00   0.00  -0.00    -0.00  -0.00   0.00
  75   1    -0.00   0.00  -0.00     0.02  -0.01   0.00    -0.02   0.01  -0.00
  76   1    -0.00   0.00  -0.00    -0.00  -0.00   0.00    -0.00   0.00  -0.00
  77   1     0.00   0.00  -0.00     0.00   0.00  -0.00    -0.00  -0.00   0.00
  78   1    -0.00  -0.00  -0.00    -0.00   0.00  -0.00     0.00  -0.00   0.00
  79   1    -0.00  -0.00  -0.00    -0.01   0.00  -0.01     0.00  -0.00   0.01
  80   1    -0.00   0.00   0.00    -0.01   0.01   0.01     0.01  -0.00  -0.01
  81   1    -0.00   0.00  -0.00    -0.00   0.00  -0.00     0.00  -0.00   0.00
  82   1    -0.00   0.00  -0.00    -0.00  -0.00   0.00    -0.00   0.00  -0.00
  83   1    -0.00   0.00   0.00    -0.00   0.00   0.00     0.00  -0.00  -0.00
  84   1     0.00   0.00   0.00     0.00   0.00  -0.00    -0.00  -0.00   0.00
  85   1    -0.00  -0.00   0.00    -0.58  -0.36   0.07     0.57   0.36  -0.06
  86   1     0.00  -0.00  -0.00    -0.53   0.41   0.07    -0.54   0.42   0.06
  87   1    -0.00  -0.00  -0.00    -0.01  -0.00  -0.01    -0.01  -0.00  -0.01
  88   1    -0.00  -0.00   0.00    -0.01  -0.01   0.01    -0.01  -0.00   0.01
  89   1     0.00   0.00   0.00    -0.00  -0.00  -0.00    -0.00  -0.00  -0.00
  90   1     0.00  -0.00   0.00     0.00  -0.00  -0.00     0.00  -0.00  -0.00
  91   1     0.00   0.00   0.00     0.00   0.00   0.00     0.00   0.00   0.00
  92   1    -0.00  -0.00  -0.00    -0.00  -0.00  -0.00    -0.00  -0.00  -0.00
  93   1    -0.00  -0.00   0.00    -0.00  -0.00   0.00    -0.00  -0.00   0.00
  94   1     0.00  -0.00  -0.00    -0.00  -0.00  -0.00     0.00  -0.00  -0.00
  95   1     0.00   0.00   0.00     0.00   0.00   0.00     0.00   0.00   0.00
  96   1     0.00   0.00   0.00     0.02   0.00   0.00     0.02   0.00   0.00
  97   1    -0.00   0.00   0.00     0.00  -0.00  -0.00     0.00  -0.00  -0.00
  98   1    -0.06   0.04  -0.12     0.00  -0.00   0.00    -0.00   0.00  -0.00
  99   1     0.31  -0.28  -0.85    -0.00   0.00   0.00     0.00  -0.00  -0.00
 100   1    -0.00   0.00  -0.00     0.00  -0.00   0.00    -0.00   0.00   0.00
 101   1     0.00   0.01  -0.01     0.00   0.00  -0.00    -0.00  -0.00   0.00
 102   1    -0.01  -0.00  -0.01    -0.00  -0.00  -0.00    -0.00  -0.00  -0.00
 103   1     0.00  -0.00  -0.00     0.00  -0.00   0.00     0.00   0.00   0.00
 104   1    -0.00   0.00   0.00    -0.00   0.00   0.00     0.00   0.00  -0.00
 105   1    -0.00  -0.00  -0.00    -0.00  -0.00  -0.00    -0.00  -0.00  -0.00
 106   1     0.00  -0.00  -0.00     0.00  -0.00  -0.00     0.00  -0.00   0.00
 107   1     0.00   0.00  -0.00     0.00   0.00  -0.00    -0.00  -0.00   0.00
 108   1    -0.00   0.00   0.00    -0.00   0.00   0.00     0.00  -0.00  -0.00
 109   1     0.02  -0.01   0.03    -0.00   0.00  -0.00     0.00  -0.00   0.00
 110   1    -0.00   0.00   0.01     0.00   0.00  -0.00    -0.00   0.00   0.00
 111   1    -0.00   0.00   0.00    -0.00   0.00  -0.00     0.00  -0.00   0.00
 112   1     0.00  -0.00  -0.00     0.00  -0.00  -0.00     0.00  -0.00  -0.00
 113   1    -0.00  -0.00  -0.00     0.00   0.00   0.00    -0.00  -0.00  -0.00
 114   1    -0.00  -0.00   0.00    -0.00  -0.00   0.00    -0.00  -0.00   0.00
 115   1    -0.00   0.00   0.00     0.00  -0.00  -0.00    -0.00   0.00   0.00
 116   1     0.00   0.00   0.00     0.00   0.00   0.00     0.00   0.00   0.00
 117   1    -0.00   0.00  -0.00     0.00  -0.00   0.00    -0.00   0.00  -0.00
 118   1     0.00   0.00  -0.01     0.00   0.00  -0.00     0.00   0.00  -0.00
 119   1     0.00  -0.00  -0.00    -0.00   0.00   0.00     0.00  -0.00  -0.00
 120   1     0.00  -0.00   0.00     0.00  -0.00   0.00     0.00  -0.00   0.00
 121   1    -0.00  -0.00   0.00     0.00   0.00  -0.00    -0.00  -0.00   0.00
 122   1    -0.00  -0.00  -0.00     0.00   0.00   0.00    -0.00  -0.00  -0.00
 123   1     0.01   0.00   0.01     0.00  -0.00   0.00     0.00   0.00   0.00
 124   1    -0.03  -0.02   0.07    -0.00  -0.00   0.00    -0.00  -0.00   0.00
