$hessian                                                                        
        0.0743088040  -0.0222276030  -0.1283002059  -0.0817532777   0.0190860263
        0.1145093486   0.0063581627  -0.0001465714  -0.0076144655   0.0004698879
        0.0011022179   0.0000123367   0.0010575293   0.0002821027  -0.0002833212
        0.0002025131  -0.0001866315  -0.0002082214  -0.0000092688  -0.0004723652
       -0.0002911684  -0.0008385258  -0.0012343696  -0.0002156491   0.0054336231
        0.0002842651  -0.0006323090   0.0004942279   0.0003741429  -0.0001084906
       -0.0005564613  -0.0000928874  -0.0000037529  -0.0000316773  -0.0000709032
       -0.0002426418  -0.0006482682   0.0006239522   0.0001510625   0.0005374831
       -0.0004595924   0.0006682669  -0.0017755293   0.0044741997   0.0219780474
        0.0016343090  -0.0008705699   0.0022085746   0.0002191430  -0.0013750380
        0.0006098372   0.0019247612  -0.0009100117   0.0001703412  -0.0017832409
        0.0007014837   0.0002319900   0.0002513908  -0.0007729922   0.0004795604
       -0.0000366916   0.0002562984  -0.0000422958   0.0000833280  -0.0001453139
       -0.0000017186  -0.0001055546  -0.0000227142   0.0000249085   0.0000496829
        0.0000586748  -0.0000512062  -0.0002720239  -0.0001147862   0.0000649754
       -0.0002133548   0.0002788704  -0.0000401238   0.0000401610  -0.0000308923
        0.0000120328  -0.0002161559   0.0000399482   0.0000562381   0.0003282369
        0.0001841152  -0.0001191172  -0.0000777227  -0.0001019007   0.0000738050
       -0.0000576640  -0.0000146159   0.0000275331  -0.0000186681  -0.0000123145
       -0.0000378361   0.0000034769  -0.0000002340  -0.0000109188  -0.0000024275
       -0.0000058822   0.0000102080  -0.0000122205  -0.0000172060  -0.0000005039
       -0.0000099352   0.0000021689  -0.0000011534  -0.0000426743  -0.0000296743
       -0.0000059871  -0.0000183166   0.0000155899  -0.0000061175  -0.0000040631
        0.0000088907  -0.0000100650   0.0000027384  -0.0000032288  -0.0000037546
        0.0000030594   0.0000012095   0.0000136033  -0.0000143807   0.0000024066
        0.0000176035   0.0001904210   0.0000341131  -0.0000262234  -0.0002426001
       -0.0002280547   0.0000646684   0.0007648785   0.0004902280  -0.0005288863
       -0.0018822984  -0.0004062919   0.0000320828  -0.0033898584   0.0025531540
       -0.0014580538   0.0006403376  -0.0010600906  -0.0012375298   0.0001324890
        0.0001289332   0.0000626265   0.0000035577  -0.0000923885  -0.0000874279
       -0.0000611523  -0.0001348142  -0.0001309463   0.0000557010  -0.0003011626
       -0.0003741424  -0.0001544498   0.0000200842  -0.0002026364   0.0000073722
       -0.0000490362  -0.0000073024   0.0001287447  -0.0000209619  -0.0000200006
       -0.0000776179  -0.0000559435   0.0000451877   0.0002026093  -0.0000764822
       -0.0002279345  -0.0008408358   0.0002103186   0.0008293388   0.0000162135
        0.0000185980  -0.0000607576   0.0000178025  -0.0001044886   0.0000297989
        0.0000059757   0.0000290094  -0.0000091078  -0.0000150096   0.0000244340
       -0.0000007639  -0.0000353093   0.0000036437   0.0000022869  -0.0000248117
        0.0000184323   0.0000006305   0.0000064163   0.0000072568   0.0000069581
       -0.0000016536  -0.0000035228  -0.0000007106   0.0000010517   0.0000011494
       -0.0000028578   0.0000094513   0.0000061201   0.0000044562   0.0000164136
        0.0000007847   0.0000208144   0.0000108908  -0.0000059791  -0.0000078765
        0.0000024764   0.0000004992   0.0000042037  -0.0000003872   0.0000023360
        0.0000008593   0.0000029872   0.0000024446  -0.0000031336   0.0000120856
       -0.0000065709   0.0000034107   0.0000148893  -0.0000237777  -0.0000003381
        0.0000856274   0.0000658036  -0.0000271931  -0.0005196411   0.0000717278
        0.0001451704   0.0000128172   0.0004222300   0.0000720801
       -0.0222276030   0.0569122203   0.0871522701   0.0201697165  -0.0666218683
       -0.0778559753   0.0035895702   0.0016560447  -0.0172760878   0.0017146314
        0.0005991731  -0.0011401694   0.0011483491  -0.0002803621   0.0006284391
        0.0003943315   0.0001108122  -0.0000896638  -0.0000050769  -0.0015900028
        0.0003739421  -0.0032797482  -0.0010488621  -0.0004608123  -0.0043157935
        0.0071159115   0.0135065080  -0.0006878790   0.0014992174   0.0001162396
        0.0003120998   0.0014036264   0.0002929923   0.0000861177   0.0002821334
        0.0003487448   0.0006743229  -0.0005202152   0.0006941821   0.0002829963
       -0.0026995606   0.0006992665   0.0015460854   0.0037677765  -0.0064080686
       -0.0007660308   0.0006621143  -0.0004701995  -0.0003638394   0.0000384767
       -0.0005071976  -0.0005593962   0.0000962644   0.0000174245   0.0005599041
       -0.0000253756  -0.0000029084  -0.0000646092   0.0001707374  -0.0001168904
        0.0000005693  -0.0000647069   0.0000225097  -0.0000170096   0.0000430461
       -0.0000000523   0.0000536463   0.0000247805  -0.0000119987  -0.0000163868
       -0.0000162549   0.0000128176   0.0000698984   0.0000549038  -0.0000242248
        0.0000932369  -0.0000832058   0.0000036347  -0.0000199630   0.0000124088
        0.0000047152   0.0000508151   0.0000216428  -0.0000221752  -0.0000859600
       -0.0000978236   0.0000189697   0.0000097197   0.0000533074  -0.0000163364
        0.0000159590   0.0000086131  -0.0000098681   0.0000040891   0.0000090721
        0.0000125708  -0.0000016540   0.0000028740   0.0000021519  -0.0000015051
        0.0000059876  -0.0000017725   0.0000030101   0.0000068139   0.0000023212
       -0.0000001639  -0.0000003725   0.0000002404   0.0000125352   0.0000155668
        0.0000037105   0.0000049221  -0.0000010292   0.0000068331  -0.0000007203
        0.0000021517   0.0000037335  -0.0000021577   0.0000058395   0.0000019715
       -0.0000026999   0.0000019614  -0.0000021070   0.0000027638   0.0000038826
       -0.0000089065  -0.0000547016  -0.0000032207   0.0000057064   0.0000802018
        0.0000715255  -0.0000036741  -0.0002430248  -0.0001755759   0.0001407794
        0.0000193526  -0.0000652382  -0.0005264288   0.0019746087  -0.0003815082
        0.0000668602  -0.0002520799  -0.0003725429  -0.0005701465  -0.0001195629
       -0.0000055631   0.0000090024  -0.0001672701   0.0000676862  -0.0002451739
       -0.0001133551  -0.0004013451  -0.0001895807  -0.0001921029   0.0002993426
       -0.0003120612   0.0002694686  -0.0000807542   0.0018227427  -0.0000339254
        0.0001218198  -0.0000909057  -0.0000616598  -0.0000845664   0.0001640882
        0.0000681173  -0.0002223029   0.0002952141  -0.0001205693  -0.0001050083
        0.0004719669   0.0003661801  -0.0000455015  -0.0005487101  -0.0000523484
       -0.0000050505   0.0000296517  -0.0000391382   0.0000240974  -0.0000125987
       -0.0000178457   0.0000044721  -0.0000039733  -0.0000011347  -0.0000063419
       -0.0000003723   0.0000118849  -0.0000012979  -0.0000037836   0.0000010334
       -0.0000105072   0.0000005877  -0.0000004014  -0.0000016464  -0.0000012175
        0.0000019371   0.0000009314   0.0000015196   0.0000009577  -0.0000023475
        0.0000030735  -0.0000015470  -0.0000067884  -0.0000001430  -0.0000056064
       -0.0000041599  -0.0000071710  -0.0000012805  -0.0000022546  -0.0000001723
       -0.0000010850  -0.0000004178  -0.0000007276  -0.0000010975  -0.0000007617
       -0.0000000031  -0.0000015926  -0.0000011153   0.0000004931  -0.0000018208
       -0.0000025217   0.0000013704   0.0000095992   0.0000068377  -0.0000032647
       -0.0000110088  -0.0000414169  -0.0000039956   0.0001685080  -0.0001233980
       -0.0000737283   0.0001412164   0.0000187198   0.0000840011
       -0.1283002059   0.0871522701   0.5506814127   0.1138875922  -0.0775111686
       -0.5082787294   0.0049574553  -0.0050201394  -0.0135753780   0.0031687198
       -0.0003955188  -0.0008659643   0.0004265033   0.0001709572   0.0005190734
        0.0001956245   0.0005479953   0.0003690648   0.0007580590  -0.0007286103
       -0.0001803452  -0.0047311615  -0.0024334332  -0.0014355023   0.0046290710
       -0.0030455098  -0.0182012434  -0.0006436420  -0.0031152806  -0.0019759759
       -0.0006261716  -0.0006368644   0.0005137650   0.0001194594  -0.0005193663
        0.0004750380  -0.0010774703  -0.0001335606  -0.0007646509   0.0007491393
        0.0060835807  -0.0011986126   0.0056194629  -0.0012723005  -0.0083581984
       -0.0007122785   0.0019605029  -0.0021101420   0.0004709542   0.0001846749
        0.0004383985  -0.0017281169   0.0003688458   0.0002707606   0.0012468084
       -0.0004274790   0.0001825536  -0.0001914062   0.0005516859  -0.0004204356
        0.0000937890  -0.0001182730   0.0000881622  -0.0001002012   0.0001307792
        0.0000178902   0.0000610977   0.0000040810  -0.0000012164  -0.0000315868
       -0.0000148350   0.0000406986   0.0001894165   0.0000754466  -0.0000488650
        0.0001291019  -0.0001982223   0.0000203677  -0.0000347498   0.0000094043
        0.0000143539   0.0001448969  -0.0000185310  -0.0000374209  -0.0002239519
       -0.0001126919   0.0000012365   0.0000572070   0.0000532608  -0.0000164943
        0.0000292733   0.0000027705  -0.0000157080   0.0000130067   0.0000099476
        0.0000207171  -0.0000027061  -0.0000005582   0.0000212403  -0.0000055445
       -0.0000003842  -0.0000016148   0.0000011702   0.0000201709  -0.0000052849
        0.0000078168   0.0000055173   0.0000182724   0.0000253061   0.0000156977
        0.0000147046   0.0000113109  -0.0000044575   0.0000130921   0.0000058974
       -0.0000092218   0.0000102177   0.0000006047   0.0000004724   0.0000138439
       -0.0000077976   0.0000017079  -0.0000018104   0.0000122913  -0.0000097413
       -0.0000127878  -0.0001593364  -0.0000104071   0.0000367139   0.0001714520
        0.0001422236   0.0000422670  -0.0005483583  -0.0003598876   0.0003009221
        0.0003678877   0.0003404439  -0.0002576955   0.0030537811  -0.0025958047
        0.0008409031  -0.0009124437   0.0004055886   0.0002532356  -0.0003749657
       -0.0001295279  -0.0000356707  -0.0002183206  -0.0000349480  -0.0001099821
       -0.0002543830  -0.0005194301  -0.0003309375  -0.0004840200   0.0005439911
        0.0003700518   0.0004418386   0.0008043630   0.0006563829   0.0000330317
        0.0004244472   0.0000168792   0.0002110470   0.0002395664  -0.0001212218
       -0.0001810584   0.0004979161  -0.0005474871   0.0005054009   0.0001707049
        0.0007278787  -0.0003119009  -0.0008677006   0.0013336270   0.0002888879
       -0.0001555747   0.0001313384  -0.0000372382   0.0000120609  -0.0000843843
       -0.0000060209  -0.0000376323  -0.0000046226   0.0000015315  -0.0000155641
       -0.0000081911   0.0000187765  -0.0000060164  -0.0000087794   0.0000183464
       -0.0000116701  -0.0000086451  -0.0000042230  -0.0000085292  -0.0000081244
        0.0000003987   0.0000003610  -0.0000039997   0.0000020664   0.0000020284
       -0.0000009472  -0.0000014028  -0.0000041888   0.0000004603  -0.0000093515
       -0.0000048737  -0.0000303679  -0.0000081652   0.0000012731  -0.0000047308
       -0.0000041065  -0.0000012779  -0.0000006697  -0.0000026597  -0.0000022628
       -0.0000004620  -0.0000025998  -0.0000040375   0.0000007720  -0.0000062308
        0.0000027599  -0.0000028099  -0.0000130776   0.0000177683  -0.0000154845
       -0.0000586010  -0.0000173472  -0.0000555890   0.0003820424  -0.0000961922
       -0.0000868553  -0.0004920694  -0.0003462450   0.0007777422
       -0.0817532777   0.0201697165   0.1138875922   0.3822415628  -0.0157373415
       -0.0847657014  -0.0727493154  -0.0496088965  -0.0219976745  -0.0204447038
       -0.0161538862  -0.0056102844  -0.0043454350  -0.0014391063   0.0028655194
       -0.0018157740   0.0000205987   0.0007719596   0.0028134652   0.0014887844
        0.0022521873   0.0060193146   0.0007499731  -0.0048069991  -0.0398740420
        0.0120665945  -0.0061786299  -0.0006266805   0.0012847228   0.0013824286
        0.0061294539  -0.0003201421  -0.0000590320  -0.0000820506  -0.0000153076
       -0.0002374819   0.0060547617  -0.0007327319  -0.0015762465  -0.0015949360
        0.0020813903  -0.0027144044  -0.1436223038   0.0299646660   0.0032709251
       -0.0201788695   0.0121845669  -0.0122702509   0.0035243573   0.0033019666
       -0.0028127556  -0.0081290839   0.0032724749   0.0002705033   0.0072899801
       -0.0028545838  -0.0007829192  -0.0009620504   0.0029073589  -0.0019004541
        0.0001710806  -0.0009177211   0.0001544547  -0.0003632316   0.0005692699
        0.0000099398   0.0003898333   0.0001289281  -0.0001005243  -0.0002327047
       -0.0002058260   0.0002050095   0.0010478964   0.0005000867  -0.0002688502
        0.0007796461  -0.0011119859   0.0001603136  -0.0001581875   0.0001372693
       -0.0000777916   0.0007662747  -0.0001311043  -0.0001796921  -0.0012014999
       -0.0007098968   0.0004089257   0.0002630509   0.0003547005  -0.0002419287
        0.0002319263   0.0000518810  -0.0000887984   0.0000574296   0.0000318174
        0.0001379595  -0.0000130715   0.0000026099   0.0000301461   0.0000076602
        0.0000160513  -0.0000357297   0.0000330099   0.0000515250  -0.0000074551
        0.0000529923   0.0000282958  -0.0000110203   0.0001778750   0.0001200254
        0.0000202697   0.0000612381  -0.0000596582   0.0000358418   0.0000034585
       -0.0000288799   0.0000377899  -0.0000157894   0.0000194954   0.0000057698
       -0.0000137074  -0.0000096394  -0.0000495227   0.0000443463  -0.0000031084
       -0.0000822384  -0.0007569116  -0.0001072037   0.0000766214   0.0007982107
        0.0008385006  -0.0003085659  -0.0028169974  -0.0018347821   0.0021905842
        0.0044397869  -0.0014414491   0.0040627808  -0.0155415008   0.0006107510
        0.0126654284  -0.0014015448   0.0008859467   0.0010937564  -0.0005361692
       -0.0006732016  -0.0004511767   0.0000412588   0.0005105044  -0.0000020006
        0.0002115594   0.0006416811   0.0007765613  -0.0006266766   0.0014314402
        0.0011559035  -0.0021045436   0.0002636286   0.0002405740   0.0000751928
       -0.0001339061  -0.0000145545  -0.0015002603  -0.0000906679   0.0002815670
        0.0001181771   0.0001433000  -0.0000400331  -0.0017914132  -0.0000238752
        0.0005208574   0.0002825500  -0.0015397649  -0.0002775473   0.0000588988
        0.0000103017   0.0003031582  -0.0000770350   0.0002535034  -0.0000815252
       -0.0000303650  -0.0001208488   0.0000350132   0.0000532629  -0.0001032092
        0.0000051651   0.0001397681  -0.0000236786   0.0000005766   0.0000892150
       -0.0000762701  -0.0000048999  -0.0000130729  -0.0000266361  -0.0000138963
        0.0000087810   0.0000074336   0.0000060950   0.0000016991  -0.0000082094
        0.0000096402  -0.0000205190  -0.0000220105  -0.0000047154  -0.0000448195
       -0.0000095646  -0.0000624927  -0.0000277522   0.0000163554   0.0000266762
       -0.0000048215  -0.0000054308  -0.0000101740   0.0000032268  -0.0000095895
        0.0000000787  -0.0000061785  -0.0000110789   0.0000117183  -0.0000285101
        0.0000155228  -0.0000049078  -0.0000287820   0.0000830573   0.0000023661
       -0.0001977178  -0.0001499835   0.0000998720   0.0002004011  -0.0000756037
       -0.0003993930   0.0010497031  -0.0006899155  -0.0009402617
        0.0190860263  -0.0666218683  -0.0775111686  -0.0157373415   0.3727971665
        0.0575578212  -0.0492958249  -0.0988877433  -0.0286662745  -0.0154756131
       -0.0053733576   0.0028638371  -0.0020696921   0.0045290899  -0.0011571018
       -0.0006032471  -0.0008955132  -0.0005950080   0.0015574184   0.0029533337
       -0.0047300546  -0.0017914927  -0.0130900482  -0.0111841217   0.0158066432
       -0.1172750700   0.0490106498   0.0020150603  -0.0298917565   0.0056797554
       -0.0007552677  -0.0041352563  -0.0031524259  -0.0001626288  -0.0020138870
       -0.0007614246  -0.0007119767   0.0043276811  -0.0006665910   0.0003898024
        0.0022057797   0.0114486251   0.0318390342  -0.0455579869  -0.0021644460
        0.0124443097  -0.0064552247   0.0026269340   0.0021659089   0.0029204508
        0.0035509641   0.0025790505  -0.0006605768   0.0010237151  -0.0026698467
       -0.0005388081  -0.0003402650   0.0003709977  -0.0007396275   0.0004670254
        0.0000152090   0.0002669900  -0.0001000903   0.0001112084  -0.0001798229
        0.0000117357  -0.0001863622  -0.0000724947   0.0000479163   0.0000763338
        0.0000917916  -0.0000655790  -0.0002446271  -0.0002380421   0.0001270932
       -0.0003564735   0.0003313619   0.0000062144   0.0000733121  -0.0000197896
        0.0000149352  -0.0001994498  -0.0000488228   0.0000672841   0.0003216928
        0.0003157681  -0.0001193148  -0.0000355779  -0.0001638807   0.0000719481
       -0.0000615588  -0.0000269942   0.0000311475  -0.0000160719  -0.0000151720
       -0.0000455213   0.0000068054  -0.0000073012  -0.0000105237  -0.0000040481
       -0.0000093671   0.0000053074  -0.0000019991  -0.0000160477  -0.0000063016
       -0.0000044788  -0.0000093386   0.0000028423  -0.0000481361  -0.0000513106
       -0.0000136192  -0.0000150417   0.0000101861  -0.0000208259   0.0000060198
       -0.0000057988  -0.0000084966   0.0000047279  -0.0000096651   0.0000024626
        0.0000059234  -0.0000051691   0.0000060609  -0.0000045162  -0.0000108056
        0.0000298598   0.0002195456   0.0000166825  -0.0000052050  -0.0002790599
       -0.0002260949   0.0000667545   0.0008308139   0.0006961329  -0.0007267118
       -0.0001424627   0.0050059796   0.0018084722  -0.0008259165   0.0001834449
       -0.0041276648   0.0014370777  -0.0011100573   0.0008544759   0.0005645013
        0.0001984844  -0.0001290123   0.0007082439  -0.0004346008   0.0009494444
       -0.0002845722   0.0001366370   0.0002092845   0.0006105619  -0.0001822055
        0.0015698705   0.0003858174  -0.0004534148  -0.0012693781   0.0000803529
       -0.0004439083   0.0005977794   0.0000953638   0.0004285615  -0.0003844780
       -0.0000290848   0.0003615862  -0.0009747360  -0.0000985350   0.0002544015
       -0.0020731725  -0.0008621396  -0.0012409520   0.0000680286   0.0004542764
       -0.0000636231  -0.0000477251   0.0000624637  -0.0000555981   0.0000505099
        0.0000336316   0.0000011529   0.0000115366  -0.0000108487   0.0000285476
        0.0000051081  -0.0000435322   0.0000118675   0.0000101984  -0.0000179992
        0.0000272177   0.0000039116   0.0000005148   0.0000109372   0.0000045359
       -0.0000072372  -0.0000007154  -0.0000076294  -0.0000026953   0.0000083188
       -0.0000094180   0.0000053075   0.0000171673  -0.0000029067   0.0000144176
        0.0000177489   0.0000182488   0.0000061532  -0.0000017179   0.0000001841
        0.0000019956   0.0000023324   0.0000026366   0.0000024233   0.0000002721
       -0.0000004382   0.0000048332   0.0000049760  -0.0000012035   0.0000050882
        0.0000050901  -0.0000037541  -0.0000315335  -0.0000303606   0.0000142772
        0.0000433315   0.0000806799  -0.0000275789  -0.0003549420   0.0003232483
        0.0002379843  -0.0010003681  -0.0013012707  -0.0000272092
        0.1145093486  -0.0778559753  -0.5082787294  -0.0847657014   0.0575578212
        0.7034098815  -0.0295652204  -0.0331008330  -0.0561890787  -0.0061510709
        0.0037472898   0.0043992479   0.0031184863  -0.0015287669   0.0027588464
        0.0000880141  -0.0009558054  -0.0010264823   0.0023949150  -0.0043805030
        0.0005366630  -0.0045542368  -0.0124221342  -0.0093145543  -0.0070656462
        0.0569074093  -0.0712495602   0.0022492043   0.0056365465   0.0092611550
       -0.0005005215  -0.0028729172   0.0008493139  -0.0002392330   0.0003468158
       -0.0017342509  -0.0013623679  -0.0008114862  -0.0038966086  -0.0039655815
        0.0129276912  -0.0174661170   0.0102812383  -0.0067291306  -0.0385205464
       -0.0126041658   0.0015535244   0.0041681754  -0.0025786441   0.0038265297
       -0.0018699747   0.0017343311   0.0004206933  -0.0015098576  -0.0014048408
       -0.0000792220  -0.0004408212   0.0002442795  -0.0005477889   0.0003684251
       -0.0001056382   0.0001108290  -0.0000853649   0.0001224801  -0.0001563570
       -0.0000076649  -0.0000640393   0.0000004217  -0.0000021036   0.0000359701
        0.0000106674  -0.0000361035  -0.0001498417  -0.0000876143   0.0000601209
       -0.0001486066   0.0001821021  -0.0000001450   0.0000374693   0.0000164343
       -0.0000176873  -0.0001335403  -0.0000106194   0.0000354635   0.0002513664
        0.0001055126   0.0000407205  -0.0000679691  -0.0000549587   0.0000008162
       -0.0000376521  -0.0000028669   0.0000089003  -0.0000096251  -0.0000027008
       -0.0000239427   0.0000023162  -0.0000000183  -0.0000196381   0.0000105827
        0.0000044231  -0.0000009470   0.0000048947  -0.0000200770   0.0000099947
       -0.0000050375  -0.0000167423  -0.0000192489  -0.0000344818  -0.0000150191
       -0.0000225217  -0.0000066002   0.0000010175  -0.0000111648  -0.0000060971
        0.0000087533  -0.0000106782   0.0000033698  -0.0000008073  -0.0000151020
        0.0000094894  -0.0000025245  -0.0000016047  -0.0000110603   0.0000116765
        0.0000165472   0.0001586667  -0.0000082225  -0.0000199698  -0.0000966185
       -0.0001282971  -0.0000438261   0.0004194439   0.0003808246  -0.0003442977
        0.0035807157   0.0019554076  -0.0016833773   0.0143706854  -0.0029605232
       -0.0019517374   0.0019938843   0.0006313225  -0.0017971048   0.0009687239
        0.0004899293   0.0002526716  -0.0000099037   0.0008250210  -0.0006448696
       -0.0002461377  -0.0001961264  -0.0000335807   0.0003461495   0.0007796577
       -0.0011963547  -0.0002437717  -0.0024718086  -0.0017613450  -0.0000181354
       -0.0013762153   0.0002093594   0.0001427850  -0.0004599461   0.0001076234
        0.0000131302   0.0004743157  -0.0001157452   0.0001943102  -0.0007968934
       -0.0005257867  -0.0009249491   0.0009544927  -0.0028804610  -0.0011705676
        0.0005675422  -0.0001597407   0.0000262370  -0.0000127038   0.0000973647
        0.0000012941   0.0000465418   0.0000088092  -0.0000051987   0.0000190199
        0.0000062623  -0.0000206499   0.0000080141   0.0000146450  -0.0000235544
        0.0000088161   0.0000119521   0.0000055884   0.0000074394   0.0000051035
       -0.0000013875  -0.0000011413   0.0000024164  -0.0000036720  -0.0000041762
       -0.0000022695  -0.0000008479   0.0000050695  -0.0000048550   0.0000070540
        0.0000064610   0.0000321361   0.0000050257   0.0000031856   0.0000034758
        0.0000036069   0.0000009006  -0.0000018034   0.0000007793   0.0000037856
       -0.0000016559   0.0000001984   0.0000068361  -0.0000040450   0.0000051292
       -0.0000014477  -0.0000014584   0.0000150721  -0.0000138376   0.0000213795
        0.0000360151  -0.0000326094   0.0000713222   0.0007183769  -0.0002262655
       -0.0002004748   0.0001921857  -0.0002056593  -0.0016235353
        0.0063581627   0.0035895702   0.0049574553  -0.0727493154  -0.0492958249
       -0.0295652204   0.5259921134   0.0606932093  -0.1474499602  -0.2838061501
       -0.0120336429   0.1038376169  -0.0465590023  -0.0590787284  -0.0329857582
       -0.0330471573   0.0163546313   0.0286002429   0.0469015625   0.0159214931
       -0.0042751773  -0.1130224418   0.0200286862   0.0520492078   0.0038074344
        0.0008293515   0.0010169266  -0.0000355907   0.0004903469  -0.0008611524
       -0.0003807559   0.0002301804  -0.0000434646   0.0000302832   0.0000957029
        0.0001089722  -0.0003541426  -0.0002030500   0.0001523925  -0.0000321841
        0.0000702070  -0.0003058013  -0.0081169662  -0.0088372725  -0.0029593372
       -0.0005630278  -0.0008663620   0.0015692412  -0.0002694211   0.0009518272
        0.0005640248   0.0015226861  -0.0005466007   0.0001454264  -0.0013215448
        0.0001166114  -0.0000305716   0.0002289188  -0.0005037760   0.0002912753
       -0.0000605377   0.0001555862  -0.0000178271   0.0000668804  -0.0001018601
        0.0000031135  -0.0000754369  -0.0000266551   0.0000167261   0.0000443467
        0.0000447948  -0.0000378364  -0.0001511958  -0.0001028955   0.0000516509
       -0.0001374786   0.0001810202  -0.0000153446   0.0000302207  -0.0000133113
        0.0000135395  -0.0001294916   0.0000168249   0.0000277151   0.0001852555
        0.0001080037  -0.0000572135  -0.0000387723  -0.0000487569   0.0000279130
       -0.0000358714  -0.0000095308   0.0000121784  -0.0000103059  -0.0000065569
       -0.0000237539   0.0000020603  -0.0000006860  -0.0000038179  -0.0000027778
       -0.0000051740   0.0000067145  -0.0000065725  -0.0000094663   0.0000015780
       -0.0000102776  -0.0000049895  -0.0000001140  -0.0000273486  -0.0000164767
       -0.0000046954  -0.0000104957   0.0000093485  -0.0000045338  -0.0000006841
        0.0000043240  -0.0000067772   0.0000023399  -0.0000033984  -0.0000016242
        0.0000026551  -0.0000003306   0.0000076420  -0.0000092766   0.0000006512
        0.0000136810   0.0001324077   0.0000216200  -0.0000069434  -0.0001422393
       -0.0001192160   0.0000450115   0.0004821230   0.0003286271  -0.0004028765
       -0.0004455275   0.0015241032   0.0002628232  -0.0003826108   0.0006142631
       -0.0018028887  -0.0106413206   0.0016260913   0.0065596472  -0.0010414168
       -0.0045277226  -0.0002425857  -0.0001919118   0.0007653486   0.0002904542
       -0.0004480583  -0.0045268670  -0.0004263217  -0.0113916017   0.0164750481
        0.0208228147   0.0001410515  -0.0000872910   0.0001697067  -0.0000426821
        0.0001586346  -0.0000241756   0.0000931235   0.0000700933  -0.0000342559
       -0.0000220253   0.0000805108  -0.0000810423   0.0001534411   0.0000467543
        0.0003493600  -0.0000899846  -0.0003672481  -0.0002055509  -0.0001123606
        0.0000726378  -0.0000487574   0.0000094288  -0.0000469321   0.0000101594
        0.0000036553   0.0000156847  -0.0000072949  -0.0000082814   0.0000137270
       -0.0000040476  -0.0000215224   0.0000021608  -0.0000009765  -0.0000140205
        0.0000099657   0.0000006161   0.0000021316   0.0000046809   0.0000025915
       -0.0000012672  -0.0000009622  -0.0000008598   0.0000000213   0.0000014374
       -0.0000005449   0.0000030487   0.0000029596   0.0000020726   0.0000072941
        0.0000008120   0.0000096077   0.0000045362  -0.0000018053  -0.0000056211
        0.0000013876   0.0000008768  -0.0000005018   0.0000001980   0.0000006309
       -0.0000013768   0.0000014567   0.0000006273  -0.0000024048   0.0000046349
       -0.0000027143   0.0000004043   0.0000008809  -0.0000102836  -0.0000011360
        0.0000345497   0.0000309552  -0.0000223167  -0.0001149913   0.0001141260
        0.0000629088  -0.0001742446  -0.0004683596  -0.0000909518
       -0.0001465714   0.0016560447  -0.0050201394  -0.0496088965  -0.0988877433
       -0.0331008330   0.0606932093   0.3517640814   0.2078096591  -0.0469110695
       -0.0704978504  -0.0034919011  -0.0203409037   0.0062867627   0.0122045377
        0.0167530423  -0.0056585102  -0.0066745864  -0.0231476482  -0.0357871832
       -0.0274437045   0.0579904133  -0.1473491983  -0.1277428351  -0.0072290212
       -0.0079680538  -0.0045394901  -0.0003780129  -0.0013657536   0.0029966071
        0.0007957714  -0.0006689103  -0.0002382055  -0.0000747757   0.0001707991
       -0.0002489926   0.0004419499   0.0000315513  -0.0004341489  -0.0003412354
       -0.0010348772  -0.0009849499   0.0021564698   0.0057134366   0.0012394777
        0.0005624808  -0.0002533834  -0.0002794933  -0.0003372354  -0.0002944191
       -0.0000501785  -0.0005876169   0.0002811470  -0.0003399820   0.0007542288
       -0.0001048230  -0.0000117616  -0.0001104384   0.0002932752  -0.0001592122
        0.0000211256  -0.0000868948   0.0000058454  -0.0000480750   0.0000581965
        0.0000004512   0.0000470688   0.0000095701  -0.0000071462  -0.0000168245
       -0.0000183245   0.0000166422   0.0000918569   0.0000512642  -0.0000261007
        0.0000844668  -0.0001041413   0.0000069345  -0.0000131490  -0.0000006933
       -0.0000056747   0.0000768092  -0.0000022993  -0.0000193374  -0.0001020701
       -0.0000772271   0.0000296076   0.0000181096   0.0000359544  -0.0000192654
        0.0000199192   0.0000054011  -0.0000088543   0.0000016628   0.0000057903
        0.0000125668  -0.0000023588   0.0000027716   0.0000009708  -0.0000022354
        0.0000053416  -0.0000030040   0.0000028564   0.0000051968  -0.0000005349
        0.0000042951   0.0000027490  -0.0000024371   0.0000160174   0.0000126242
        0.0000031542   0.0000051878  -0.0000045038   0.0000057614  -0.0000002155
       -0.0000008530   0.0000032420  -0.0000009019   0.0000025781   0.0000013944
       -0.0000013646   0.0000000137  -0.0000021072   0.0000033215   0.0000024149
       -0.0000085415  -0.0000875478  -0.0000041516   0.0000046258   0.0000736980
        0.0000739116  -0.0000324207  -0.0002817176  -0.0002006865   0.0002297632
        0.0002995719  -0.0006891655  -0.0001274796   0.0003786012  -0.0006417646
        0.0000828064   0.0159914602   0.0020466588  -0.0059049917  -0.0047374885
        0.0007946603  -0.0048277097   0.0006323153   0.0001446495   0.0003806089
       -0.0043385242   0.0005414697  -0.0052986158   0.0011270200   0.0014661402
        0.0012595738  -0.0003976763   0.0002906299   0.0000769073   0.0001005734
       -0.0003427780   0.0000931750  -0.0001383795  -0.0000779616   0.0000650727
        0.0000114023  -0.0000007483   0.0001000494  -0.0002607057   0.0001775785
        0.0003761049   0.0000704546   0.0001271622  -0.0001093426   0.0000934176
       -0.0000087475   0.0000376977   0.0000038820   0.0000187105   0.0000028803
       -0.0000026241  -0.0000143945   0.0000033187   0.0000036034  -0.0000098323
        0.0000025382   0.0000126847  -0.0000037156   0.0000009429   0.0000077592
       -0.0000075272  -0.0000000960  -0.0000018225  -0.0000016199  -0.0000016527
       -0.0000001743   0.0000024895   0.0000007671  -0.0000009909   0.0000006487
        0.0000016484  -0.0000029127  -0.0000023275   0.0000009761  -0.0000056619