$hessian                                                                        
        0.6534447009  -0.0000021485  -0.0000022925  -0.2752874481  -0.0466369833
        0.0455744009   0.0238619763  -0.0592066205   0.0618070516   0.0035653816
        0.0018865788  -0.0035139112  -0.0002056013  -0.0015766714   0.0007882241
       -0.0001154113   0.0002259867   0.0001468107  -0.0001519651  -0.0001298131
       -0.0001852283   0.0000395212  -0.0000787133   0.0000039374  -0.0001594955
        0.0000772823   0.0000141787   0.0004372582  -0.0002816867  -0.0002199198
       -0.0000651379   0.0004586032  -0.0000673359   0.0000844014  -0.0003323927
        0.0000003142   0.0001218826   0.0003086062  -0.0000218299  -0.0002615225
        0.0001330201  -0.0000145372   0.0005883127  -0.0001346003  -0.0001416469
       -0.0010561445   0.0005479956  -0.0002387582  -0.0611745193   0.0000001434
        0.0000002586   0.0238617046   0.0592065519  -0.0618073098   0.0035653849
       -0.0018865205   0.0035139263  -0.0002056115   0.0015766669  -0.0007882263
       -0.0001154160  -0.0002259837  -0.0001468064  -0.0001519626   0.0001298132
        0.0001852307   0.0000395206   0.0000787153  -0.0000039457  -0.0001594963
       -0.0000772821  -0.0000141782   0.0004372642   0.0002816874   0.0002199102
       -0.0000651421  -0.0004586010   0.0000673363   0.0000844017   0.0003323968
       -0.0000003149   0.0001218758  -0.0003086055   0.0000218300  -0.0002615244
       -0.0001330197   0.0000145402   0.0005883202   0.0001345904   0.0001416354
       -0.0010561393  -0.0005479957   0.0002387720  -0.2752877722   0.0466385678
       -0.0455722402  -0.0433557662   0.0000002305  -0.0000002089  -0.0254848297
       -0.0084748800   0.0077669065  -0.0000289139   0.0000718798   0.0001383338
       -0.0000260796   0.0000305185   0.0000015265   0.0000455674   0.0000457812
        0.0000426967   0.0000545809   0.0000030455  -0.0000399994   0.0000631802
        0.0000357892   0.0000006571   0.0000660933  -0.0000379618   0.0000152970
        0.0000168891  -0.0000606606  -0.0000213022  -0.0003083289   0.0002359535
        0.0003395231  -0.0005021570  -0.0000000114  -0.0000000086  -0.0000289143
       -0.0000718787  -0.0001383346  -0.0000260798  -0.0000305182  -0.0000015270
        0.0000455667  -0.0000457819  -0.0000426944   0.0000545809  -0.0000030457
        0.0000399983   0.0000631826  -0.0000357919  -0.0000006569   0.0000660930
        0.0000379615  -0.0000152956   0.0000168901   0.0000606609   0.0000213005
       -0.0003083312  -0.0002359507  -0.0003395145  -0.0254848202   0.0084750919
       -0.0077665734
       -0.0000021485   0.3947713470  -0.2801644550  -0.1022628662  -0.0996447999
        0.0548078073  -0.0179972078  -0.0172424435   0.0162934231  -0.0005793605
        0.0000628126   0.0060324881   0.0002360374  -0.0001744949   0.0009124832
        0.0001106279   0.0000219073  -0.0000635391  -0.0000654805  -0.0000121096
       -0.0000657010  -0.0000042339   0.0000058149   0.0000153534  -0.0000298592
       -0.0000241101  -0.0001091971  -0.0001496038   0.0000485228  -0.0001212098
       -0.0003023125  -0.0000349992  -0.0000154640   0.0000024190  -0.0000931409
       -0.0000583034   0.0000726494   0.0000823515   0.0000089277  -0.0000976646
        0.0000609759  -0.0000223961   0.0002214230  -0.0001035148  -0.0002081859
       -0.0003510725  -0.0004025997   0.0003910911   0.0000001529  -0.0002542778
       -0.0034538449   0.0179971228  -0.0172428779   0.0162935953   0.0005793871
        0.0000628327   0.0060324467  -0.0002360243  -0.0001745037   0.0009124902
       -0.0001106286   0.0000219121  -0.0000635372   0.0000654817  -0.0000121105
       -0.0000657023   0.0000042335   0.0000058090   0.0000153535   0.0000298600
       -0.0000241096  -0.0001091966   0.0001495977   0.0000485184  -0.0001212140
        0.0003023091  -0.0000349965  -0.0000154678  -0.0000024178  -0.0000931518
       -0.0000583061  -0.0000726442   0.0000823494   0.0000089254   0.0000976664
        0.0000609809  -0.0000223980  -0.0002214322  -0.0001035106  -0.0002081757
        0.0003510805  -0.0004025989   0.0003910886   0.1022645443  -0.0996458438
        0.0548071366   0.0000002542  -0.1672677791   0.1342084168   0.0084314755
        0.0035296476  -0.0030073972  -0.0000462189  -0.0000466396   0.0000948389
        0.0000025597   0.0000274306   0.0000072483   0.0000125661   0.0000084870
        0.0000131587   0.0000096763   0.0000109409  -0.0000182248   0.0000143795
        0.0000152203  -0.0000075330   0.0000312938   0.0000023703   0.0000019307
        0.0000066713  -0.0000062467  -0.0000137271  -0.0000481487   0.0001890098
        0.0001245616  -0.0000000016   0.0001913885  -0.0005745426   0.0000462198
       -0.0000466405   0.0000948396  -0.0000025597   0.0000274308   0.0000072487
       -0.0000125658   0.0000084896   0.0000131591  -0.0000096766   0.0000109415
       -0.0000182246  -0.0000143828   0.0000152273  -0.0000075288  -0.0000312944
        0.0000023719   0.0000019309  -0.0000066721  -0.0000062483  -0.0000137266
        0.0000481493   0.0001890143   0.0001245612  -0.0084313608   0.0035296433
       -0.0030073060
       -0.0000022925  -0.2801644550   0.3952813787   0.1005451993   0.0543425621
       -0.0994621272   0.0189146143   0.0167830475  -0.0180901889  -0.0019250551
        0.0065401917   0.0016553464   0.0014083377   0.0010560531  -0.0009692996
        0.0000445663  -0.0002101266   0.0000206630   0.0001080361   0.0001292985
       -0.0000250394  -0.0000956916  -0.0000086214   0.0000444086   0.0001388675
       -0.0000734179  -0.0000359279   0.0000012915   0.0005911333   0.0000554115
       -0.0002363852  -0.0001387303   0.0000320746  -0.0000185945   0.0000190752
       -0.0000357020  -0.0000471023  -0.0000647706   0.0000300250   0.0001226873
       -0.0000533073  -0.0001263991  -0.0000446946   0.0001925747   0.0000317679
        0.0003291666  -0.0007083470   0.0003287870   0.0000002638  -0.0030339378
        0.0002571473  -0.0189148852   0.0167826241  -0.0180894577   0.0019250667
        0.0065402135   0.0016552935  -0.0014083397   0.0010560474  -0.0009692814
       -0.0000445676  -0.0002101217   0.0000206649  -0.0001080341   0.0001292982
       -0.0000250394   0.0000956919  -0.0000086279   0.0000444056  -0.0001388661
       -0.0000734151  -0.0000359255  -0.0000012919   0.0005911316   0.0000554071
        0.0002363829  -0.0001387269   0.0000320709   0.0000185974   0.0000190638
       -0.0000357063   0.0000471072  -0.0000647727   0.0000300204  -0.0001226875
       -0.0000533014  -0.0001263979   0.0000446853   0.0001925789   0.0000317747
       -0.0003291560  -0.0007083377   0.0003287888  -0.1005429588   0.0543426137
       -0.0994605506  -0.0000001864   0.1340948238  -0.1696298130  -0.0086524568
       -0.0034878570   0.0034610991   0.0000393437   0.0000196343  -0.0000521637
        0.0000008401  -0.0000142363  -0.0000116452  -0.0000104414  -0.0000114103
        0.0000021083   0.0000022623   0.0000267533  -0.0000007941  -0.0000458608
       -0.0000052183   0.0000195415  -0.0000258651   0.0000035219   0.0000305381
       -0.0000259254   0.0000309781   0.0000236874   0.0001077602  -0.0001394418
       -0.0000092156   0.0000000006  -0.0005346665   0.0002551091  -0.0000393434
        0.0000196340  -0.0000521623  -0.0000008400  -0.0000142361  -0.0000116445
        0.0000104406  -0.0000114079   0.0000021102  -0.0000022627   0.0000267535
       -0.0000007942   0.0000458569  -0.0000052118   0.0000195476   0.0000258642
        0.0000035229   0.0000305392   0.0000259256   0.0000309759   0.0000236868
       -0.0001077567  -0.0001394384  -0.0000092092   0.0086526854  -0.0034879636
        0.0034610818
       -0.2752874481  -0.1022628662   0.1005451993   0.6821974207   0.0006777829
        0.0060503881  -0.0858071090   0.0335448302  -0.0338709462  -0.0109968948
       -0.0280651563   0.0241862635  -0.0018982259   0.0028771460   0.0029546718
        0.0000714525  -0.0004106364   0.0000318638   0.0002450038   0.0003902337
       -0.0001389532  -0.0001417231   0.0000431268   0.0000699473  -0.0001527784
        0.0001196523  -0.0001334975  -0.0016078260  -0.0008273970   0.0001891036
       -0.0002268041  -0.0007320477  -0.0000335974  -0.0000102401   0.0002468855
       -0.0001933667  -0.0001069105  -0.0002247005   0.0000442160   0.0004859799
       -0.0000902537  -0.0000985853  -0.0011630488  -0.0001295628   0.0001666281
        0.0021186116  -0.0022968493   0.0011728675   0.0228754006   0.0171341990
       -0.0173902917  -0.0112496171  -0.0213506426   0.0227909145  -0.0019603696
        0.0008345306  -0.0016540803   0.0001702475  -0.0009875863   0.0006710603
       -0.0000200120   0.0001513805   0.0001008338   0.0000698816  -0.0000365374
       -0.0001001134  -0.0000198131  -0.0000597237  -0.0000036722   0.0001111394
        0.0000514775  -0.0000032599  -0.0001939627  -0.0001849958  -0.0001293077
        0.0001167891   0.0002197633   0.0000181106  -0.0000645058  -0.0001954534
        0.0000005491  -0.0000426319   0.0001773421  -0.0000025809   0.0001826447
        0.0000532648   0.0000042812  -0.0002810581  -0.0000807754  -0.0001366406
        0.0008130636   0.0003088336  -0.0002377061  -0.0691363266   0.0211611908
       -0.0199985091  -0.0015452372  -0.0018439158   0.0016470329  -0.2386824392
        0.0771391062  -0.0827164890   0.0000602691  -0.0000371609  -0.0000987579
        0.0000136748  -0.0001298818  -0.0000202351  -0.0000355416  -0.0000997295
        0.0000304499  -0.0001526502  -0.0001342681   0.0000728878  -0.0001036410
       -0.0000280635   0.0000093612  -0.0000784721   0.0000572019   0.0000239730
       -0.0000218732   0.0001014664   0.0000404277   0.0000130804   0.0004780165
        0.0004239145  -0.0042767722   0.0022989719  -0.0021448446  -0.0000242210
        0.0000373646   0.0000063380   0.0000074312   0.0000328665   0.0000056654
       -0.0000205254   0.0000391853   0.0000254233  -0.0000250271   0.0000105771
       -0.0000243379  -0.0000331510   0.0000131217  -0.0000048563  -0.0000354816
       -0.0000227942   0.0000027834  -0.0000269717  -0.0000316804  -0.0000348228
       -0.0001064169   0.0001303282   0.0000427459  -0.0040163634   0.0019328330
       -0.0021584495
       -0.0466369833  -0.0996447999   0.0543425621   0.0006777829   0.3738682661
       -0.2636146107  -0.0139060698  -0.1762527578   0.1248969132  -0.0171302397
       -0.0153405469   0.0177146737  -0.0010331909   0.0020286455   0.0005259298
       -0.0001335475   0.0002189519  -0.0000243848   0.0001661216   0.0001787383
        0.0000929754  -0.0000596455   0.0001019148   0.0000043175   0.0000227674
       -0.0001511889   0.0000002688  -0.0006347763   0.0001200508   0.0000265756
        0.0000879766  -0.0005944437  -0.0002301184  -0.0000772633   0.0002431136
       -0.0001034293  -0.0000284075  -0.0001936047   0.0000477347   0.0001124437
       -0.0000484996  -0.0002594874   0.0002238477  -0.0001515351   0.0000958374
        0.0027755065  -0.0017893696   0.0002423156   0.0526332710  -0.0154957737
        0.0185904398  -0.0197315859  -0.0252440763   0.0221902548   0.0002935652
       -0.0000606938  -0.0011178511   0.0001534630  -0.0006137956  -0.0000003873
        0.0000731288   0.0001079249   0.0001040342   0.0000381682  -0.0000201474
       -0.0000829777   0.0000354061   0.0000416203   0.0000329241   0.0000384510
       -0.0001064895   0.0000233128  -0.0002348653   0.0000470557  -0.0001300413
       -0.0000109022   0.0000534222  -0.0000183931  -0.0000249853  -0.0000576367
       -0.0000120696  -0.0000756040   0.0000930661   0.0000048232   0.0001855670
        0.0000438225  -0.0000078270  -0.0001810821  -0.0000350300   0.0000001858
        0.0000483246   0.0001445570   0.0001377180  -0.0211609481   0.0294334090
       -0.0287972560  -0.0182376257  -0.0088223100   0.0094371586   0.0773416840
       -0.0690802078   0.0381287279   0.0002457655  -0.0001655059  -0.0001040635
        0.0000139864  -0.0000462156  -0.0000233471  -0.0000194866  -0.0000311714
       -0.0000570845  -0.0000445490  -0.0000548483   0.0000166485  -0.0000504504
        0.0000198005  -0.0000250235   0.0000194043   0.0000328103   0.0000352663
       -0.0000201437   0.0000545471  -0.0000267507   0.0002071485   0.0002518764
       -0.0001511601   0.0018742627   0.0033553800   0.0038768757   0.0000108194
        0.0000322748   0.0000851951   0.0000094075   0.0000234312   0.0000112347
       -0.0000182987   0.0000182992   0.0000258045  -0.0000256287   0.0000033612
        0.0000082582  -0.0000344370   0.0000148508   0.0000030317  -0.0000365600
       -0.0000018379   0.0000251995  -0.0000088001  -0.0000143549   0.0000060187
        0.0000353916   0.0001077653   0.0000839651   0.0022324154   0.0033778855
        0.0039690822
        0.0455744009   0.0548078073  -0.0994621272   0.0060503881  -0.2636146107
        0.3770364426   0.0187047402   0.1284389474  -0.1744226195   0.0129560640
        0.0164295578  -0.0127693876   0.0003149634  -0.0024357262  -0.0001567714
       -0.0000553245  -0.0000050831   0.0001440036  -0.0000858550  -0.0000672017
       -0.0000333453  -0.0000556064   0.0000089622   0.0000394747   0.0000271396
       -0.0001402214  -0.0000174952   0.0007551162   0.0004000112  -0.0001128450
       -0.0004139874   0.0003259140   0.0002870192   0.0001077082  -0.0002386255
        0.0000098791   0.0001818335   0.0001785077   0.0000145948  -0.0002582252
        0.0002246175  -0.0000703939   0.0002887065  -0.0002378574  -0.0006429104
       -0.0015129365   0.0002516281  -0.0003710078  -0.0546928473   0.0171350026
       -0.0179918548   0.0201985535   0.0203393639  -0.0267795134  -0.0005010280
        0.0000078150   0.0009794979  -0.0000478213   0.0003665381   0.0000320032
       -0.0000958372   0.0000127557  -0.0000514384  -0.0000323864  -0.0000124148
        0.0001005687  -0.0000388820  -0.0000300311  -0.0000394951  -0.0000083484
        0.0001102382  -0.0000094087   0.0001698158  -0.0000599162   0.0001155537
       -0.0000356206   0.0000152988   0.0000131921   0.0000320468   0.0000683751
        0.0000173206   0.0000638102  -0.0000679141   0.0000148700  -0.0001571533
       -0.0000397962   0.0000620971   0.0001692171   0.0000336479   0.0000511425
        0.0001286107   0.0000031120  -0.0000673227   0.0199992194  -0.0287975500
        0.0291979480   0.0185407405   0.0096866730  -0.0088154002  -0.0830281945
        0.0384532760  -0.0725936635  -0.0001368229   0.0002831960   0.0000551785
       -0.0000035921   0.0000350574   0.0000090154   0.0000135200   0.0000191254
        0.0000192229   0.0000322881   0.0000405151  -0.0000233975   0.0000212694
       -0.0000028219  -0.0000074626   0.0000619082  -0.0000013050   0.0000105995
       -0.0000033503  -0.0000084558  -0.0000170117   0.0007623299  -0.0000933064
       -0.0004747960  -0.0018570012   0.0039701950   0.0033030725  -0.0000864424
        0.0000073770  -0.0001235076  -0.0000012555  -0.0000007802  -0.0000066382
        0.0000214133   0.0000028146  -0.0000260907   0.0000173589   0.0000099216
       -0.0000009300   0.0000155621   0.0000055745   0.0000098876   0.0000217128
        0.0000085672  -0.0000181933   0.0000008560   0.0000140901   0.0000113538
        0.0000482488  -0.0001026075  -0.0000435866  -0.0021710238   0.0042617419
        0.0036146768
        0.0238619763  -0.0179972078   0.0189146143  -0.0858071090  -0.0139060698
        0.0187047402   0.6289319502  -0.0165659293  -0.0006261244  -0.1995520583
       -0.0485869211   0.0647045579  -0.0089543470  -0.0179650868   0.0064746870
        0.0005771324   0.0025581577  -0.0006095177  -0.0009046376  -0.0009912860
       -0.0000148117   0.0005537852  -0.0002316384  -0.0002581710  -0.0009867486
        0.0004264137   0.0004286096   0.0026709157  -0.0012541806  -0.0000782320
       -0.0017655692   0.0038447164   0.0021867546  -0.0006327164  -0.0016656230
        0.0009358534   0.0002990789   0.0006581776  -0.0002540200  -0.0008751895
        0.0002701088   0.0011799146   0.0014273369  -0.0016050375  -0.0009700511
       -0.0324575276   0.0003668518   0.0054262959  -0.2408155178   0.0950930855
       -0.0978250873  -0.0694887175  -0.0195689471   0.0198759643   0.0028720671
       -0.0041024258   0.0026621265  -0.0006638197   0.0029433316  -0.0009310480
        0.0002248148  -0.0010808457  -0.0000025248  -0.0002969575   0.0005888154
       -0.0001187286   0.0003772289   0.0001272821   0.0001928931  -0.0002638521
       -0.0003216975  -0.0000811576   0.0007267506   0.0004835736   0.0002429856
        0.0003515708  -0.0010415140  -0.0000405381  -0.0001225093   0.0002954227
       -0.0001657903   0.0001340148  -0.0002654081   0.0000571883  -0.0003745705
       -0.0001671484  -0.0003970228   0.0003856519   0.0006450983   0.0003385793
       -0.0037008811  -0.0016563751  -0.0002859335  -0.0112497616   0.0197316889
       -0.0201985826  -0.0037426562  -0.0021906671   0.0015626595  -0.0026334029
        0.0193836541  -0.0182260413   0.0002736063   0.0008664654   0.0003495619
       -0.0000291249   0.0005081386   0.0000946015   0.0001815831   0.0003719614
        0.0000394668   0.0003825220   0.0001387748  -0.0001866770   0.0002260802
        0.0002605417   0.0000325713   0.0002862797  -0.0001783462  -0.0003201990
        0.0002681518  -0.0004462506  -0.0001271979  -0.0000074151   0.0000297488
       -0.0004538274  -0.0006746556   0.0014284915  -0.0018067761   0.0001077780
        0.0006081444   0.0001268502   0.0000221793  -0.0001569194  -0.0000449601
        0.0000933121  -0.0001385903   0.0000383752   0.0001672236  -0.0000374486
        0.0000736829   0.0001467393  -0.0000767769   0.0000297092   0.0001087283
        0.0000630121   0.0000938426   0.0000345161   0.0001409065   0.0000182126
       -0.0001995881  -0.0000339453  -0.0000093291   0.0005063585   0.0003997226
       -0.0007529486
       -0.0592066205  -0.0172424435   0.0167830475   0.0335448302  -0.1762527578
        0.1284389474  -0.0165659293   0.4069550368  -0.2463889233  -0.0495199345
       -0.0959152474   0.0258327008  -0.0240194217  -0.0115689653   0.0127509938
       -0.0004635837   0.0007215561   0.0002307631  -0.0002779818  -0.0004038479
        0.0000671411   0.0003811896  -0.0001494421  -0.0001242798  -0.0015829277
        0.0004928856   0.0005453933  -0.0017503928  -0.0059802446   0.0001292179
        0.0041578062  -0.0010127804  -0.0021399299   0.0003771549   0.0003599591
       -0.0000015337   0.0000010523   0.0001178559  -0.0000140753  -0.0002831692
        0.0001164105   0.0005555328   0.0013963032  -0.0004134802  -0.0004841498
        0.0068158896   0.0113944801  -0.0044084744   0.0502516744  -0.1002714143
        0.0526120118   0.0195691733   0.0245678732  -0.0318082304  -0.0041597683
        0.0038768848   0.0044506436  -0.0009223711   0.0003976610   0.0001468436
        0.0001441516  -0.0001566224  -0.0000419760  -0.0000676057   0.0000213092
        0.0000027760  -0.0000244418  -0.0000726058   0.0000060338   0.0000043441
        0.0000956962  -0.0000462315  -0.0000611188   0.0000151472  -0.0000615652
        0.0001459612   0.0002514792  -0.0000717095   0.0000602920  -0.0000554581
       -0.0000445975   0.0000533377  -0.0000389511   0.0000252089  -0.0000948218
       -0.0000086084   0.0000220786   0.0002152619  -0.0000463076   0.0000894306
        0.0002322256  -0.0002045865   0.0006294470   0.0213507527  -0.0252442877
        0.0203392864  -0.0016013649   0.0040997471   0.0039083847   0.0021973168
       -0.0080524711   0.0089767908   0.0000518621  -0.0006479146  -0.0001159021
       -0.0000202594   0.0001831812   0.0000256832   0.0000882112   0.0001622539
       -0.0000293080  -0.0000401334  -0.0003145632  -0.0000432153   0.0004472094
       -0.0000493102  -0.0001863500   0.0000894158  -0.0000870458  -0.0001731449
        0.0001092264  -0.0002025783  -0.0000841753   0.0006897512  -0.0006305857
       -0.0006413976   0.0175969485  -0.0087071675   0.0100282863   0.0001620826
       -0.0000666167  -0.0000317250   0.0000279506  -0.0000335579  -0.0000050021
        0.0000051875   0.0000045085   0.0000071417   0.0000033584   0.0000118569
       -0.0000016331   0.0000401529   0.0000096523   0.0000231221   0.0000170920
        0.0000080108   0.0000052089   0.0000066419   0.0000252244   0.0000206425
       -0.0000507859  -0.0001388186  -0.0000536164   0.0004788246   0.0000800105
        0.0003483880
        0.0618070516   0.0162934231  -0.0180901889  -0.0338709462   0.1248969132
       -0.1744226195  -0.0006261244  -0.2463889233   0.3760134867   0.0646919345
        0.0268851304  -0.0653288049   0.0009246301   0.0072114258  -0.0085025732
       -0.0006787501  -0.0010227370  -0.0004743104   0.0005348275   0.0003960902
        0.0007162705  -0.0002564413   0.0001355279  -0.0000849170   0.0008146839
       -0.0002708318   0.0006916233   0.0003640565   0.0004198209   0.0024305127
        0.0014460819  -0.0018609744   0.0017572884   0.0006935191   0.0005939571
        0.0004421742  -0.0001830993  -0.0002498128  -0.0000695575   0.0006705417
       -0.0000820417   0.0001507618  -0.0008462563   0.0007832207  -0.0004274081
        0.0113633694  -0.0001030468  -0.0081471269  -0.0464773263   0.0536558803
       -0.0981744030  -0.0198752965  -0.0318079705   0.0288242611   0.0019685940
        0.0051493512   0.0016401712  -0.0004249967  -0.0009101389   0.0001588923
        0.0002291402   0.0001283410   0.0001202354   0.0001788499  -0.0001122177
       -0.0001078239   0.0000210076   0.0000779034   0.0000158365  -0.0000178500
       -0.0001182857  -0.0000560639  -0.0002931392   0.0001776385  -0.0002833620
        0.0001712279   0.0003584793   0.0000704025   0.0000577116  -0.0001124671
       -0.0000082195  -0.0001467416   0.0001082216  -0.0000347027   0.0002066896
        0.0000489119  -0.0000451499  -0.0002693896  -0.0001562377  -0.0001146737
        0.0013140547  -0.0001053306   0.0007438715  -0.0227909394   0.0221902111
       -0.0267791435   0.0015745029   0.0039803768   0.0040804147  -0.0020399096
        0.0094430049  -0.0081449486  -0.0002028870  -0.0002061036  -0.0003237758
        0.0000530338  -0.0002546833   0.0000047585  -0.0001597014  -0.0001845588
       -0.0001535441  -0.0001382956  -0.0000796207   0.0001864152  -0.0000472545
       -0.0001240058   0.0000892779  -0.0001728013   0.0000771098  -0.0000149359
       -0.0000841648   0.0001555998   0.0001013749  -0.0003010163   0.0002149663
        0.0000823699  -0.0183952464   0.0101289781  -0.0088750908  -0.0001904849
        0.0000567016   0.0001377903  -0.0000171680   0.0000478860   0.0000148718
       -0.0000315282   0.0000200134   0.0000250579  -0.0000370399   0.0000285074
       -0.0000074222  -0.0000010795   0.0000233587  -0.0000059060  -0.0000361715
       -0.0000030812   0.0000179422  -0.0000104678  -0.0000221384  -0.0000115565
        0.0000274459   0.0001303668   0.0001184311  -0.0004904408   0.0003578906
        0.0000537358
        0.0035653816  -0.0005793605  -0.0019250551  -0.0109968948  -0.0171302397
        0.0129560640  -0.1995520583  -0.0495199345   0.0646919345   0.6085041669
        0.0491122477  -0.2140222946  -0.0911518069  -0.0392205682   0.0155598370
        0.0086422388   0.0081680373  -0.0043331229   0.0029199745   0.0054345437
        0.0020478745  -0.0032133000   0.0022548801   0.0014656793  -0.0040979462
       -0.0037097913   0.0035177590  -0.0313568514  -0.0189509733   0.0145842014
       -0.0488667215  -0.0103881196   0.0222664867  -0.0030912026  -0.0016587674
        0.0027107175  -0.0030053924  -0.0029818165   0.0010898120   0.0075647504
       -0.0020075178  -0.0019773440  -0.0061930327   0.0180682733   0.0028706826
       -0.1733602262   0.0671245167   0.0687986071  -0.0525071245  -0.0064998394
        0.0116685152   0.0028720727   0.0041597789  -0.0019685705  -0.0052133431
        0.0002788955  -0.0011818088   0.0006033165  -0.0025643572   0.0005792665
       -0.0001050248   0.0006594866   0.0000281520   0.0002440581  -0.0003753770
        0.0000289877  -0.0002026859  -0.0000536653  -0.0000969448   0.0002022808
        0.0001135458   0.0000496056  -0.0006744997  -0.0002693146  -0.0003416677
       -0.0005067033   0.0006425816  -0.0001952538   0.0000744822  -0.0001680519
        0.0000317575  -0.0001451297   0.0002251340  -0.0000450021   0.0003586814
        0.0001636003   0.0001970188  -0.0003652941  -0.0004877043  -0.0003287595
        0.0017071713   0.0016893695   0.0006367662  -0.0019603748  -0.0002935475
        0.0005010433  -0.0003592007  -0.0002062672   0.0006507030   0.0011183538
        0.0001963491  -0.0007341238   0.0001368702  -0.0004920388  -0.0012264629
        0.0004068956   0.0008468241   0.0001643963  -0.0003190900  -0.0000739172
       -0.0004047592  -0.0010976760  -0.0013230109   0.0002704105  -0.0017433417
        0.0003514746   0.0005531816  -0.0003222092   0.0000437850  -0.0001262719
        0.0000904464   0.0001219616   0.0003275218   0.0001349141  -0.0001454505
       -0.0003312629   0.0017387107  -0.0006478306   0.0009130353  -0.0001435575
       -0.0002148414  -0.0000388568   0.0000109600   0.0001134129   0.0000329614
       -0.0000534085   0.0000962571  -0.0000064725  -0.0001114544   0.0000188889
       -0.0000476269  -0.0001200288   0.0000521425  -0.0000391760  -0.0000930309
       -0.0000497970  -0.0000423752  -0.0000270437  -0.0001093083  -0.0000156092
        0.0000730019   0.0001666235   0.0000952041  -0.0000130735   0.0000187972
        0.0001406389
        0.0018865788   0.0000628126   0.0065401917  -0.0280651563  -0.0153405469
        0.0164295578  -0.0485869211  -0.0959152474   0.0268851304   0.0491122477
        0.5792221662  -0.0185118778  -0.0555136002  -0.2461404481   0.0114933163
       -0.0028888512  -0.0451792875  -0.0006508875   0.0057826671   0.0036781997
       -0.0024168609  -0.0027111351  -0.0025830786   0.0010744501  -0.0002279360
        0.0028841001   0.0000431772  -0.0348469082  -0.0216398361   0.0145997321
        0.0063089309   0.0005748699  -0.0021630594  -0.0052225962   0.0014795073
        0.0018992271   0.0019656519  -0.0027327904  -0.0009469809  -0.0024239671
       -0.0031681595   0.0001282040   0.0299987370  -0.0260527753  -0.0138237690
        0.0809640994  -0.1373417821  -0.0374860678   0.0029431526   0.0077424124
       -0.0039176549   0.0041024717   0.0038768107   0.0051493392  -0.0002788623
        0.0005097204  -0.0006777483   0.0002231319  -0.0008112211   0.0002219955
       -0.0000075510   0.0002673500  -0.0000808096   0.0000965396  -0.0000933274
       -0.0000213575   0.0000036651   0.0000501171  -0.0000004696   0.0000595822
        0.0000417959   0.0000143331  -0.0002046522  -0.0000515087  -0.0000906912
       -0.0000870340   0.0001907439   0.0000008973   0.0000339713  -0.0000462498
        0.0000354499  -0.0000569381   0.0001159051  -0.0000073042   0.0001046372
        0.0000614098   0.0000667430  -0.0001192210  -0.0001539449  -0.0001125359
        0.0007247203   0.0003884777   0.0001050180  -0.0008345321  -0.0000606753
        0.0000078135  -0.0011973159  -0.0007491972   0.0007297212  -0.0003297888
       -0.0007586902  -0.0020312225  -0.0009035854   0.0013859179   0.0001120116
       -0.0004282413  -0.0015646742  -0.0000537471  -0.0001038687  -0.0001909792
        0.0000712613  -0.0005267800  -0.0007764005   0.0002741693  -0.0003727173
        0.0000379494   0.0002282051   0.0001049574  -0.0000686257   0.0000921440
        0.0013644304  -0.0010889960  -0.0007972634  -0.0000245154   0.0018573078
        0.0001216793   0.0004651226  -0.0009895155  -0.0018325446  -0.0001070726
       -0.0001760531   0.0000675482  -0.0000866898   0.0000658146   0.0000039999
       -0.0000383814   0.0000200246  -0.0000095054  -0.0000316911  -0.0000041680
       -0.0000096304  -0.0000444434   0.0000064685  -0.0000106939  -0.0000234915
       -0.0000232437  -0.0000072565   0.0000074000  -0.0000388470   0.0000036715
        0.0000359440   0.0000243448   0.0000350684   0.0000058058  -0.0008039570
       -0.0007741178
       -0.0035139112   0.0060324881   0.0016553464   0.0241862635   0.0177146737
       -0.0127693876   0.0647045579   0.0258327008  -0.0653288049  -0.2140222946
       -0.0185118778   0.1818741393   0.0206213182   0.0106248831  -0.0423307576
       -0.0048035251  -0.0068486191   0.0001054535   0.0016467257  -0.0024959287
        0.0037958047   0.0011269571  -0.0009367946  -0.0006349413   0.0031704378
        0.0015584553   0.0023297077   0.0136058536   0.0062287014  -0.0007686215
        0.0241022585   0.0040611811  -0.0053674867   0.0029124933   0.0007307043
        0.0026198417   0.0013619795   0.0013897798  -0.0006128634  -0.0016049959
        0.0001100672   0.0060334588   0.0042390220  -0.0100161517  -0.0040929073
        0.0613881157  -0.0304207190  -0.0673835019   0.0003886920  -0.0030295056
        0.0043967048  -0.0026620924   0.0044506235   0.0016402186   0.0011818454
       -0.0006777522   0.0007934264  -0.0001177635   0.0009126709  -0.0002964385
        0.0000612359  -0.0002487952   0.0000376673  -0.0000956752   0.0001260663
       -0.0000035690   0.0000733857   0.0000316676   0.0000454977  -0.0000944484
       -0.0000378834  -0.0000135807   0.0002874722   0.0001203533   0.0001395251
        0.0001135689  -0.0002969001   0.0000159172  -0.0000301128   0.0000976198
       -0.0000157437   0.0000562621  -0.0000983447   0.0000242318  -0.0001332325
       -0.0000606215  -0.0000823222   0.0001246277   0.0001632052   0.0001580166
       -0.0007163926  -0.0005130141  -0.0002142180   0.0016541018  -0.0011178601
        0.0009794779   0.0010130024   0.0003472283  -0.0007321879   0.0006747736
       -0.0023481417  -0.0000708182  -0.0011085706   0.0003859607  -0.0011200087
        0.0000832788  -0.0005791079   0.0006252805  -0.0002772613   0.0000634355
       -0.0007119789   0.0002484224   0.0004810481  -0.0004461387   0.0006636855
       -0.0001566073  -0.0006234984  -0.0002269486   0.0000378180  -0.0008545630
        0.0003936886  -0.0002050785   0.0004712657  -0.0006430619   0.0004204784