$hessian                                                                        
        0.6055122610   0.0957238850  -0.1497754895  -0.0947566832  -0.0699161149
       -0.0207406707   0.0073216943  -0.0254616205  -0.0172033204  -0.0030901641
        0.0197887275   0.0094360732  -0.0022968665  -0.0009942571   0.0005120935
        0.0005042331   0.0012197164   0.0001621082  -0.0005853499  -0.0000768265
        0.0001959639   0.0000000512   0.0000410713  -0.0000353264  -0.0000333889
       -0.0000388967  -0.0000141415   0.0000181244   0.0000187783   0.0000192964
       -0.0000193568   0.0000090154  -0.0000151032   0.0000054432  -0.0000243816
        0.0000060231   0.0000328116  -0.0000063968  -0.0000089700  -0.0000383266
       -0.0000515130   0.0000828220  -0.0000158008   0.0000185740   0.0000263995
       -0.0000045276   0.0000363141   0.0000479917   0.0000962202   0.0000251237
       -0.0000118533   0.0000176785  -0.0000306845  -0.0000296307  -0.0001091242
       -0.0000045680  -0.0000376592  -0.0000800625  -0.0000000003   0.0000417364
       -0.0000408647   0.0000084202  -0.0000521719   0.0000152133  -0.0005766181
       -0.0000430727  -0.0004944808   0.0004860158  -0.0000648478   0.0009445150
        0.0000966332  -0.0003130497  -0.0001757661  -0.0001212171  -0.0001940221
       -0.0001430235  -0.0001015184   0.0001134613  -0.0000704135   0.0000008194
        0.0001051767   0.0000899510   0.0000988308  -0.0000058767  -0.0001298107
        0.0005488915   0.0000907947  -0.0001716932  -0.0001964022   0.0000014073
       -0.0000005850   0.0001023835   0.0000645702  -0.0000961628  -0.0000106041
        0.0000137366   0.0001264263  -0.0000500731  -0.0001627600   0.0001353476
       -0.0001613568  -0.0000335124   0.0000302504   0.0000121664  -0.0000427737
       -0.0000077479  -0.0000024917   0.0000043539  -0.0000223687  -0.0000037594
       -0.0000022064  -0.0000180457  -0.0000107679   0.0000065549  -0.0000054082
        0.0000135734   0.0000041235  -0.0000063530   0.0000469440   0.0000026061
        0.0000504214  -0.0000464876  -0.0000338041  -0.0001369359  -0.0001547678
        0.0000509082   0.0007407848  -0.0002653976  -0.0004968526  -0.0575965203
       -0.0190265726   0.0143808019  -0.2121737252   0.0946402595   0.1249244972
       -0.2412232407  -0.1060473920   0.0242123066   0.0018745318   0.0193597449
        0.0107748770  -0.0032873485  -0.0041676768   0.0025997016   0.0000145855
        0.0000091897   0.0000098337   0.0000000182   0.0000026227  -0.0000009725
       -0.0000009272   0.0000046966   0.0000003458  -0.0000077088   0.0000145364
        0.0000005397   0.0000275780  -0.0000001326  -0.0000029197   0.0000067085
        0.0000009187  -0.0000007297   0.0000127449  -0.0000051726   0.0000007483
        0.0000024153  -0.0000070808   0.0000903317   0.0000572287  -0.0000158458
       -0.0000732321  -0.0000545106  -0.0000407036  -0.0000296677  -0.0000277694
       -0.0000052346  -0.0000188962   0.0000241248  -0.0000544030  -0.0000398562
        0.0000029632  -0.0000236515   0.0000117015  -0.0000010323   0.0000326246
        0.0000298697  -0.0000015588   0.0000016495  -0.0000010393  -0.0000013563
       -0.0000021447  -0.0000051370  -0.0000003318  -0.0000082818  -0.0000011359
        0.0000166082  -0.0000354584   0.0000011839  -0.0033316947  -0.0038655565
        0.0027210943   0.0025761009  -0.0007500978  -0.0012553330
        0.0957238850   0.5348844568   0.2024231605  -0.0049588834  -0.2657457739
       -0.1244411709  -0.0741277229  -0.0318021193   0.0125396291   0.0197351489
       -0.0357565761  -0.0245804276  -0.0009120978  -0.0010232979  -0.0000467317
       -0.0001590826  -0.0000326846   0.0002724654   0.0000968227   0.0000723809
       -0.0001693095  -0.0000056105   0.0000007596   0.0000023104   0.0000083875
        0.0000153465   0.0000168653  -0.0000024525  -0.0000157673  -0.0000059511
       -0.0000069808  -0.0000200232  -0.0000079087   0.0000107733   0.0000143984
        0.0000137202   0.0000155600   0.0000418874  -0.0000004384  -0.0000048414
        0.0000276822   0.0000638961   0.0000281605  -0.0000730165  -0.0000672257
        0.0000210996   0.0000062736   0.0000203115   0.0000015423  -0.0000307203
       -0.0000259254  -0.0000057884   0.0000071705   0.0000093897   0.0000209480
        0.0000382819   0.0000325046   0.0000071508  -0.0000213118  -0.0000492975
       -0.0001672145  -0.0001370957   0.0000536250  -0.0000340606  -0.0000087574
        0.0001072700  -0.0001555862  -0.0001395663   0.0002374336   0.0006082486
        0.0000600355   0.0000148459   0.0002183478  -0.0000848073   0.0000791087
       -0.0002089800  -0.0000699387   0.0001270383  -0.0001370041  -0.0000592976
        0.0000375919   0.0000416328   0.0001204239   0.0000472217   0.0002779110
        0.0000538036   0.0001751893   0.0000698267   0.0000581334  -0.0001974191
       -0.0000890351  -0.0000503922  -0.0000711211  -0.0000175100  -0.0000065913
       -0.0000204126  -0.0000888260   0.0000181919   0.0000062975  -0.0001658146
        0.0002578127   0.0000643687   0.0000303440   0.0000516087   0.0000374753
       -0.0000144238  -0.0000584326  -0.0000064635  -0.0000150221   0.0000203200
        0.0000070243  -0.0000131510  -0.0000247281  -0.0000030163   0.0000193519
        0.0000241382  -0.0000020595  -0.0000357862   0.0000758775   0.0000171283
        0.0001156175  -0.0000279408  -0.0000423551  -0.0004295273  -0.0003880695
       -0.0000206328   0.0011142730  -0.0000698258  -0.0002730880   0.0297475091
        0.0461222753   0.0131963998   0.0297636789  -0.1250010691  -0.0577254206
       -0.1063871234  -0.0969412921   0.0074223497  -0.0001956144  -0.0129566217
       -0.0078993078  -0.0038611578   0.0010912512  -0.0024729832   0.0000010868
       -0.0000029649  -0.0000009145   0.0000021988  -0.0000030751   0.0000009361
       -0.0000026283   0.0000007826  -0.0000011981  -0.0000033555  -0.0000038614
       -0.0000005487   0.0000058779   0.0000003594  -0.0000040308   0.0000062642
        0.0000054203   0.0000063165   0.0000018237   0.0000026156  -0.0000069194
        0.0000014186   0.0000178452  -0.0000053173   0.0000040008  -0.0000870269
       -0.0000672814  -0.0000458207  -0.0000539344  -0.0000067246  -0.0000172220
       -0.0000263406   0.0000092380   0.0000078956  -0.0000260743  -0.0000235550
        0.0000345198   0.0000034327  -0.0000100882   0.0000169671   0.0000144381
        0.0000259718   0.0000026132  -0.0000012309  -0.0000005728   0.0000027542
        0.0000075595  -0.0000007822   0.0000097122  -0.0000020712   0.0000022076
        0.0000022305   0.0000050855   0.0000091422  -0.0042199811   0.0012560952
       -0.0024363389   0.0187127221  -0.0136238467  -0.0163854949
       -0.1497754895   0.2024231605   0.2994109120   0.0168339905  -0.0968832127
       -0.1115942190  -0.0452499936  -0.0080872492   0.0157909400   0.0100279386
       -0.0252553922  -0.0248934052   0.0002547051  -0.0001606902  -0.0005413426
       -0.0003948644  -0.0005304592   0.0001110946   0.0003130143   0.0000841444
       -0.0001388583  -0.0000005234  -0.0000132180   0.0000040174   0.0000160722
        0.0000177159   0.0000141085  -0.0000050151  -0.0000173256  -0.0000069725
       -0.0000019005  -0.0000145880  -0.0000021420   0.0000014829   0.0000179169
        0.0000077154  -0.0000066743   0.0000125641  -0.0000094935   0.0000564514
        0.0000081594   0.0000165215   0.0000285998  -0.0000305671  -0.0000301603
        0.0000050074  -0.0000095264   0.0000020655  -0.0000291545  -0.0000210609
       -0.0000124280   0.0000029006   0.0000129895   0.0000157494   0.0000408664
        0.0000331009   0.0000614814  -0.0000006713  -0.0000194751  -0.0000044444
       -0.0000765544  -0.0000819184   0.0000799229  -0.0001268255   0.0000789812
       -0.0001156806   0.0000752102   0.0003957843  -0.0003189955  -0.0002444703
       -0.0000139580   0.0001585612  -0.0002348972   0.0001317472  -0.0001182444
        0.0001565231   0.0000475834  -0.0001196443   0.0000222870  -0.0000329089
       -0.0000468617   0.0000278500  -0.0000169369  -0.0000333535   0.0000179799
        0.0000270305  -0.0001709902  -0.0000524169   0.0000234841  -0.0000677716
       -0.0000178620  -0.0000830648  -0.0000826657   0.0000205077   0.0000059813
       -0.0000003409  -0.0001058428  -0.0000289695   0.0000402795  -0.0001890641
        0.0002242856   0.0000777504   0.0000355940   0.0000337508   0.0000187775
       -0.0000096533  -0.0000206779  -0.0000037566   0.0000044420   0.0000051824
        0.0000034095   0.0000002751  -0.0000062010  -0.0000037243   0.0000160427
        0.0000107492  -0.0000022888  -0.0000182827   0.0000283053   0.0000098304
        0.0000606797  -0.0000067406  -0.0000202585  -0.0002315250  -0.0001676426
        0.0000282929   0.0004487373   0.0001122559   0.0000066725   0.0422046281
        0.0342799055   0.0028764621   0.0868339240  -0.0852157047  -0.1349509309
        0.0243550339   0.0075912363  -0.0403144998  -0.0005633879  -0.0161775932
       -0.0083174438   0.0028185907  -0.0021434253   0.0057756434  -0.0000026947
       -0.0000056501  -0.0000044427   0.0000026866  -0.0000007104   0.0000022356
       -0.0000001615   0.0000011246  -0.0000008146  -0.0000002184  -0.0000072844
        0.0000001672  -0.0000041491  -0.0000001977  -0.0000029694   0.0000025506
       -0.0000004787   0.0000020817  -0.0000004220  -0.0000023965  -0.0000104974
       -0.0000211454  -0.0000027492  -0.0000337016  -0.0000322733   0.0000006146
        0.0000415874  -0.0000036631   0.0000048461   0.0000010416  -0.0000214764
        0.0000040695   0.0000358151  -0.0000060965   0.0000311738   0.0000216501
        0.0000157113   0.0000176229  -0.0000061770   0.0000197842   0.0000067072
        0.0000112888   0.0000012049  -0.0000012738   0.0000001118   0.0000034681
        0.0000047038   0.0000013081   0.0000066662   0.0000006354   0.0000009098
       -0.0000105856   0.0000191245   0.0000062896   0.0024193662  -0.0024814760
        0.0056590796   0.0102871824  -0.0081559139  -0.0083142546
       -0.0947566832  -0.0049588834   0.0168339905   0.6021242747   0.0811084919
       -0.1615542307  -0.2753816368  -0.1408973942   0.0197976036  -0.0568494303
        0.0255846125   0.0395612487   0.0013060809   0.0027470362   0.0041874031
        0.0002361309  -0.0004953555  -0.0005767118   0.0002687408   0.0000607144
       -0.0001212801   0.0000529280   0.0000615629   0.0000075179   0.0000021672
        0.0000203676   0.0000064678  -0.0000226970  -0.0000074393  -0.0000150332
        0.0000140022  -0.0000262026   0.0000098447   0.0000140836   0.0000195085
        0.0000238407  -0.0000062478  -0.0000498742  -0.0000002118  -0.0000150984
        0.0001207356  -0.0000216722  -0.0000213181  -0.0000271529  -0.0000043553
        0.0000187438   0.0000370333  -0.0000095711   0.0000022733  -0.0000331755
       -0.0000439849   0.0000128153   0.0000206740   0.0000077284  -0.0000284327
       -0.0000035295  -0.0000368715  -0.0001604253   0.0000234816   0.0000960273
       -0.0001851065   0.0001354305  -0.0000267620   0.0002331694  -0.0004817376
       -0.0001825490  -0.0003596850   0.0004446349   0.0002514679   0.0002069468
       -0.0000564012  -0.0006169986  -0.0000450354   0.0001044077   0.0000208166
        0.0000453783   0.0000309591  -0.0000211758  -0.0000586961  -0.0001070649
       -0.0000175401  -0.0000444011  -0.0000769328   0.0000405322  -0.0002166252
        0.0001647933  -0.0002541542   0.0001095242   0.0001066357  -0.0001330470
        0.0001173452   0.0000184087  -0.0000685494  -0.0000134971   0.0000174398
       -0.0000383885  -0.0001011898  -0.0001716395  -0.0000575477  -0.0000806349
       -0.0002375182   0.0000522665   0.0000903160   0.0000292789  -0.0000187148
       -0.0000326246   0.0000360695   0.0000222896  -0.0000044821  -0.0000249388
        0.0000123282  -0.0000137479   0.0000046899   0.0000020113  -0.0000349127
        0.0000019041   0.0000129319   0.0000115425   0.0000366473   0.0000020863
       -0.0001359225  -0.0000231903  -0.0000081824   0.0001111748   0.0004234969
       -0.0002570265  -0.0021255991   0.0000947024   0.0007087026  -0.0215113494
       -0.0295902677  -0.0101150089   0.0388622989   0.0179055623  -0.0057713569
       -0.0060534933  -0.0244197763  -0.0110275978  -0.1789204625   0.0754913070
        0.1044140450  -0.0050145886  -0.0042490022   0.0000488802  -0.0000061737
       -0.0000066057  -0.0000028114   0.0000068014   0.0000035497   0.0000044768
        0.0000013188   0.0000083136  -0.0000005704  -0.0000023134  -0.0000101342
       -0.0000044083   0.0000047333   0.0000022308   0.0000045193   0.0000267157
        0.0000020930   0.0000029820   0.0000138264  -0.0000227930  -0.0000116318
       -0.0000093559   0.0000153267   0.0000482576  -0.0000213962   0.0000629474
        0.0000623677   0.0000052386   0.0000345661   0.0000204297  -0.0000099416
        0.0000161477   0.0000122878  -0.0000638460   0.0000874719   0.0000418430
       -0.0000446618   0.0000955525   0.0000693357   0.0000044662   0.0000012794
        0.0000226346   0.0000012938   0.0000032542   0.0000018576   0.0000061936
        0.0000007972  -0.0000027461   0.0000028902  -0.0000091223  -0.0000003424
        0.0000065303  -0.0000549851  -0.0000086433   0.0002182813  -0.0005031826
       -0.0003266287  -0.0017865148   0.0013601828   0.0049452821
       -0.0699161149  -0.2657457739  -0.0968832127   0.0811084919   0.5361853317
        0.2064960276  -0.0768866427  -0.1395057937  -0.0186923420  -0.0205993781
        0.0424815710   0.0314128781   0.0045877641   0.0028668343  -0.0047049428
       -0.0002189728  -0.0010820874  -0.0000456546   0.0004422924   0.0003280679
        0.0001169970   0.0000587003   0.0000108466   0.0000436257   0.0000503203
        0.0000252954   0.0000197001   0.0000060944  -0.0000098071   0.0000067817
       -0.0000032115   0.0000034783   0.0000048893  -0.0000077398   0.0000417716
        0.0000012824  -0.0000695605  -0.0000469799  -0.0000623789   0.0002203618
        0.0000532400  -0.0000720899   0.0000398900   0.0000523960  -0.0000545213
       -0.0000055589   0.0000008881  -0.0000062976  -0.0000375596  -0.0000128053
        0.0000081683   0.0000118736   0.0000150878   0.0000029243  -0.0000104360
       -0.0000573323  -0.0000449200  -0.0000158808   0.0000272956   0.0000515678
        0.0001068436   0.0001441037  -0.0000482804   0.0001489900   0.0000246474
        0.0006926455   0.0003396124  -0.0002556424   0.0000413169  -0.0005466808
        0.0002188816   0.0000647871   0.0000554124  -0.0000136418   0.0000270372
       -0.0000111302   0.0000373857   0.0000565685   0.0000377893  -0.0000064033
       -0.0000359991  -0.0000090673   0.0000108863  -0.0000059795   0.0001115522
       -0.0001199155   0.0002100349   0.0002274526  -0.0003139651   0.0002599071
       -0.0000452016  -0.0001252791   0.0000186069   0.0000607717  -0.0000019583
       -0.0000297991  -0.0002006404  -0.0000595160  -0.0000429023  -0.0000125493
       -0.0003094174  -0.0000895149  -0.0001682421  -0.0000483637  -0.0000365616
        0.0000056261   0.0000496550  -0.0000084431   0.0000202903   0.0000111826
        0.0000037176   0.0000184411   0.0000253425  -0.0000008067  -0.0000443275
       -0.0000311451   0.0000067011   0.0000154954  -0.0001182727  -0.0000188043
       -0.0001451947   0.0000902103   0.0000903569   0.0011061955   0.0004471415
        0.0003802893  -0.0019454971   0.0007301153   0.0006254360  -0.0306307650
       -0.0393342153  -0.0065106345   0.0649220837  -0.0239076885  -0.0422720759
       -0.0047378273  -0.0143817901  -0.0068512101   0.0755044526  -0.0852713487
       -0.0613105150  -0.0234903593  -0.0143256004   0.0010452211  -0.0000027476
       -0.0000050649   0.0000088856  -0.0000028114  -0.0000113094   0.0000006202
        0.0000021671  -0.0000118439   0.0000017357   0.0000085236  -0.0000239394
        0.0000030851  -0.0000031052   0.0000171961   0.0000028477   0.0000078206
        0.0000050550  -0.0000045771  -0.0000117302  -0.0000034477   0.0000106619
        0.0000222347  -0.0000119013   0.0000017373   0.0000021067  -0.0000405103
       -0.0000465621   0.0000194138   0.0000086981  -0.0000165815   0.0000408056
        0.0000036544  -0.0000202525   0.0000109937  -0.0000516590  -0.0000440824
       -0.0000018993  -0.0000084205  -0.0000008866   0.0000090067   0.0000373768
        0.0000042636  -0.0000006919  -0.0000006844  -0.0000021257  -0.0000094690
        0.0000036313   0.0000052437  -0.0000180857   0.0000153342   0.0000048765
        0.0000045063  -0.0000196314  -0.0000143453  -0.0004452787  -0.0001902607
        0.0002961042   0.0009199802   0.0014908145  -0.0040502309
       -0.0207406707  -0.1244411709  -0.1115942190  -0.1615542307   0.2064960276
        0.3059044475   0.0554175584   0.0075730058  -0.0657172243   0.0129160066
        0.0136184785   0.0029978297   0.0053951173  -0.0036644833   0.0032127951
       -0.0011396512  -0.0010648963   0.0000307453   0.0003562843   0.0001812313
       -0.0003378091   0.0000266946  -0.0000487196   0.0000636618   0.0000349670
        0.0000186458   0.0000089027   0.0000221406  -0.0000158610   0.0000122353
       -0.0000178542   0.0000019309  -0.0000081553  -0.0000057351   0.0000378374
        0.0000021546  -0.0001028145  -0.0000831253  -0.0000749070   0.0002626199
        0.0000720351  -0.0000516198   0.0000849928   0.0000091490  -0.0000508069
       -0.0000306708  -0.0000219990   0.0000021967  -0.0000209079  -0.0000064270
        0.0000116966   0.0000176496   0.0000151231   0.0000013181   0.0000001691
       -0.0000171922  -0.0000138062   0.0000391047  -0.0000017362   0.0000152815
        0.0000315710   0.0000868792  -0.0000835539  -0.0002720294   0.0003995570
       -0.0001550654   0.0002845298  -0.0001173137  -0.0004195241  -0.0006515539
        0.0003522204   0.0001219182   0.0000683992   0.0000315061  -0.0000071922
       -0.0000099686   0.0000395979   0.0000452431   0.0001204072   0.0000951306
       -0.0000280024   0.0001461531   0.0000969999  -0.0002079782  -0.0003887155
        0.0001537887  -0.0001328603  -0.0003294567   0.0002900343  -0.0001148643
       -0.0001908907  -0.0001719984  -0.0001304125   0.0000311372  -0.0000410429
        0.0000200375  -0.0002339962  -0.0000946786   0.0000227411  -0.0000359096
        0.0001908727  -0.0000273020  -0.0001956319  -0.0000524624   0.0001090304
        0.0000404032  -0.0000502682  -0.0000042210   0.0000037611   0.0000315496
        0.0000101440   0.0000085582  -0.0000072076  -0.0000024823   0.0000207142
       -0.0000146899  -0.0000059165  -0.0000172870  -0.0000602901   0.0000010993
        0.0000597310   0.0000649801  -0.0000261219   0.0002297335  -0.0001453321
       -0.0006063316   0.0008975531   0.0007005385   0.0001061841  -0.0108093925
       -0.0068003540  -0.0051280188   0.0214599687  -0.0219477837  -0.0206084174
        0.0002627798   0.0012319712   0.0017649081   0.1047145022  -0.0614437301
       -0.1139241509  -0.0105552496  -0.0069953018   0.0016943729   0.0000058515
       -0.0000008542   0.0000122763  -0.0000010124  -0.0000058467   0.0000010633
        0.0000023362  -0.0000083095   0.0000023223   0.0000074903  -0.0000193120
        0.0000069730   0.0000049877   0.0000188369   0.0000003068   0.0000056245
        0.0000006058  -0.0000079037  -0.0000043762  -0.0000010546   0.0000039916
        0.0000138466  -0.0000018577  -0.0000035654   0.0000082096  -0.0000879651
       -0.0000646499  -0.0000035517  -0.0000401373  -0.0000300020  -0.0000081122
       -0.0000318337  -0.0000169218   0.0000609310  -0.0001082980  -0.0000815614
        0.0000470698  -0.0000941415  -0.0000593784   0.0000329045   0.0000349996
       -0.0000076807   0.0000022218  -0.0000026624   0.0000017590  -0.0000085198
        0.0000007258   0.0000028308  -0.0000121087   0.0000127314   0.0000002826
       -0.0000009453   0.0000125476  -0.0000062520  -0.0004381805   0.0002247403
        0.0000795038   0.0046347425  -0.0043839411   0.0034686252
        0.0073216943  -0.0741277229  -0.0452499936  -0.2753816368  -0.0768866427
        0.0554175584   0.5911971919   0.1040349271  -0.1464907179  -0.1934447989
        0.0387026941   0.0849973757  -0.0375554365   0.0011847957   0.0168216380
       -0.0005080855   0.0044166950   0.0026577009  -0.0010650022   0.0002490381
       -0.0001907302   0.0000457750   0.0001297788  -0.0000413888  -0.0000579727
       -0.0000002737  -0.0000103066  -0.0000266516  -0.0000255470  -0.0000217176
        0.0000250060  -0.0000150987   0.0000131870  -0.0000012672  -0.0000188607
       -0.0000104622   0.0000916702   0.0000904074   0.0000592554  -0.0002914708
       -0.0001902636   0.0000151329  -0.0000762336  -0.0000097083   0.0000252018
        0.0000474417  -0.0000058037  -0.0000346079  -0.0000431353   0.0000103876
        0.0000084686  -0.0000092032   0.0000276907   0.0000129042   0.0000229647
        0.0000179603  -0.0000022868  -0.0000499223  -0.0000495220  -0.0000117112
        0.0000186276  -0.0000628338  -0.0000971787   0.0002179650   0.0007067754
       -0.0002615996   0.0000594273  -0.0003635028  -0.0001428099  -0.0000562096
       -0.0000732036   0.0000508619  -0.0000316231  -0.0001615295  -0.0000105761
        0.0000089315  -0.0000822389  -0.0000228315   0.0000214411   0.0000731938
        0.0000646816  -0.0000964832  -0.0000271174   0.0001022397   0.0001570902
        0.0001605728   0.0001018498  -0.0002925990   0.0005216422  -0.0002999783
        0.0000611018   0.0001731329  -0.0000501324  -0.0001544313  -0.0000190908
       -0.0000177394   0.0001092201   0.0001020944   0.0000532017   0.0002443446
        0.0007095911  -0.0000463436   0.0001427762   0.0001948177   0.0001447707
       -0.0001226645  -0.0001188980   0.0000412338  -0.0000449143  -0.0000106927
        0.0000349361  -0.0000275582  -0.0000505448  -0.0000008072   0.0001286108
        0.0000207828  -0.0000279402  -0.0000988181   0.0001860230   0.0000453313
        0.0001684226  -0.0004129423  -0.0002103863  -0.0037521838  -0.0009287378
        0.0001812430   0.0015574488  -0.0043697012  -0.0002545166   0.0355146795
        0.0577958761   0.0191611665  -0.0556211222  -0.0007066602   0.0211199134
        0.0016992358  -0.0020277079   0.0014306420  -0.0228956925  -0.0095401778
        0.0046226255  -0.0480311472  -0.0372301863  -0.0147888984   0.0000116724
       -0.0000070967   0.0000055300   0.0000133936   0.0000148251   0.0000112892
        0.0000028644   0.0000128762   0.0000045582  -0.0000073200  -0.0000015838
       -0.0000071922  -0.0000090484   0.0000017742   0.0000016226   0.0000141049
       -0.0000095531   0.0000013390   0.0000203113  -0.0000197410  -0.0000168815
       -0.0000008237   0.0000368403  -0.0000360919   0.0000140938   0.0000069105
        0.0000092209   0.0000242533   0.0000103256  -0.0000197877   0.0000070246
        0.0000111776  -0.0000231575   0.0000326283  -0.0000118957  -0.0000241123
        0.0000149722  -0.0000237889  -0.0000194335  -0.0000495140  -0.0000676511
       -0.0000332739   0.0000085779   0.0000122145  -0.0000000694   0.0000111705
       -0.0000071173  -0.0000041787   0.0000040935  -0.0000108889  -0.0000064695
       -0.0000231861   0.0000009563   0.0000074836   0.0013805219  -0.0021039793
        0.0010796888  -0.0005945936   0.0001617278   0.0001824568
       -0.0254616205  -0.0318021193  -0.0080872492  -0.1408973942  -0.1395057937
        0.0075730058   0.1040349271   0.5599675374   0.2021952521   0.0867157649
       -0.1259179648  -0.0788762055  -0.0030050431   0.0100089159   0.0065018482
       -0.0023401095  -0.0031056160  -0.0001155268   0.0000983014   0.0007969081
       -0.0000629653  -0.0000289344  -0.0000377103  -0.0001650233   0.0000984673
       -0.0000359315  -0.0000195669   0.0000222557   0.0000132343   0.0000243999
       -0.0000077638   0.0000007991  -0.0000218821   0.0000033077  -0.0000242499
       -0.0000003546  -0.0001808176  -0.0001292857  -0.0000246671   0.0000871666
        0.0000049412   0.0000019257   0.0000333567   0.0001202717   0.0001585393
       -0.0000138811   0.0000191398   0.0000525010   0.0000632471  -0.0000579060
       -0.0000362644   0.0000861471  -0.0000709670  -0.0000711655  -0.0000689420
        0.0000138086   0.0000252858   0.0000160926  -0.0000654511  -0.0000431358
        0.0000498383  -0.0000530275   0.0004474327   0.0001221447   0.0005325163
        0.0003895758   0.0000994174  -0.0004770476  -0.0001957345  -0.0003662829
       -0.0001044730   0.0000173545   0.0000137596  -0.0000939572  -0.0000671643
       -0.0000109949  -0.0000333514  -0.0000075314   0.0000073670   0.0000040437
        0.0000212933  -0.0000504103  -0.0000368446   0.0000277986   0.0000462508
       -0.0000227458  -0.0000172129   0.0004179402  -0.0000773907   0.0001715756
        0.0003077616  -0.0000039536   0.0000023148  -0.0000905041  -0.0001276286
       -0.0001217499  -0.0002787504  -0.0001014545   0.0002430940   0.0000962757
        0.0002041702   0.0001422101  -0.0002994782  -0.0000182233   0.0001593189
       -0.0000208944  -0.0000087755   0.0000228101   0.0000128475   0.0000223299
       -0.0000108504   0.0000215380  -0.0000055354  -0.0000084473  -0.0000229114
       -0.0000242678   0.0000108119  -0.0000101167  -0.0001924439  -0.0000116158
       -0.0003025222  -0.0001032465   0.0000100503  -0.0001514605   0.0003391446
       -0.0002579326  -0.0046066236  -0.0007529663   0.0007522852   0.0184441112
       -0.0219557096  -0.0214277808  -0.0016920420   0.0016954337   0.0048733942
       -0.0022981754  -0.0031102728  -0.0052795181   0.0097802306   0.0053985793
       -0.0014525083  -0.0367645960  -0.2483897917  -0.1026518683  -0.0000142521
        0.0000212273   0.0000280188  -0.0000142614  -0.0000201255   0.0000032704
        0.0000037192  -0.0000105758   0.0000072473   0.0000070389  -0.0000102671
        0.0000201868   0.0000065717   0.0000209252  -0.0000040073  -0.0000062304
       -0.0000054645  -0.0000262998  -0.0000207165   0.0000094985   0.0000155029
        0.0000214492  -0.0000661056  -0.0000335982   0.0000148018   0.0000252073
        0.0000407154   0.0000427355   0.0000257852  -0.0000088993   0.0000029706
        0.0000085958  -0.0000069558   0.0000138592   0.0000278745   0.0000075369
        0.0000321562  -0.0000054859   0.0000024877  -0.0000280836  -0.0000960459
        0.0000016285  -0.0000272303  -0.0000128259   0.0000072814  -0.0000229795
        0.0000087237   0.0000095257  -0.0000224783   0.0000292543   0.0000097125
        0.0000025467  -0.0000137888  -0.0000157002  -0.0018708343  -0.0032756934
       -0.0053506773   0.0001709700   0.0006436154   0.0005028666
       -0.0172033204   0.0125396291   0.0157909400   0.0197976036  -0.0186923420
       -0.0657172243  -0.1464907179   0.2021952521   0.2939136557   0.1135674971
       -0.0571981586  -0.1304874896   0.0122603337   0.0032929312  -0.0037356771
        0.0008102214  -0.0022051314  -0.0010764827  -0.0003287513  -0.0001179847
        0.0000394587  -0.0000691193  -0.0000359581  -0.0000530510   0.0000300589
       -0.0000342795  -0.0000259250   0.0000164768   0.0000343167   0.0000167052
       -0.0000085626   0.0000020181  -0.0000152956   0.0000143672  -0.0000319429
        0.0000091323  -0.0001602863  -0.0001949931  -0.0000470973   0.0001467920
        0.0000065080  -0.0000521308   0.0000458496   0.0001728378   0.0001448725
       -0.0000635064  -0.0000019106   0.0000524930   0.0000406927  -0.0000434276
       -0.0000362274   0.0000501924  -0.0000440890  -0.0000315072  -0.0000148002
        0.0000122834   0.0000568967  -0.0001203405  -0.0000435313   0.0000669044
        0.0000315951   0.0006231156  -0.0003983754  -0.0001793365   0.0003059198
       -0.0001035832  -0.0000518354  -0.0001581141   0.0000071820  -0.0000897996
       -0.0000681938  -0.0000160384   0.0000655312   0.0000127583  -0.0000028637
       -0.0000192869   0.0000053400   0.0000150322  -0.0000052455  -0.0000211690
       -0.0000006164   0.0000022186  -0.0000334292  -0.0000143883   0.0001374364
        0.0001454989  -0.0000731120  -0.0001753494   0.0003002377  -0.0001279220
        0.0001870528   0.0000824022  -0.0001114731  -0.0001157450  -0.0000303275
       -0.0002090398  -0.0002741010   0.0000242796   0.0001154481   0.0001825664
       -0.0003823360   0.0000026436  -0.0001103469  -0.0000995137  -0.0000088281
        0.0000361716   0.0000678317  -0.0000092308   0.0000259457  -0.0000066606
       -0.0000176475   0.0000180710   0.0000271185  -0.0000020983  -0.0000629838
       -0.0000127612   0.0000288115   0.0000521772  -0.0001382576  -0.0000197637
       -0.0002558424   0.0001148449  -0.0000277443   0.0013096359   0.0004819521
        0.0001642883  -0.0022600965   0.0006013827   0.0020192558  -0.0046846830
       -0.0388754450  -0.0189680829   0.0206730978   0.0042088141  -0.0121036747
        0.0012014845  -0.0055094958   0.0042258577   0.0156422896   0.0067838962
       -0.0022082797  -0.0153107883  -0.1032576704  -0.0848706356   0.0000077248
        0.0000192263   0.0000144881  -0.0000055319  -0.0000061163   0.0000018436
        0.0000058949  -0.0000005469   0.0000063764   0.0000072233  -0.0000001588
        0.0000178396   0.0000098819   0.0000016242  -0.0000020898  -0.0000076228
       -0.0000080731  -0.0000176702  -0.0000117859   0.0000040115   0.0000056501
       -0.0000032297  -0.0000718531  -0.0000150730   0.0000005430  -0.0000034803
        0.0000057533   0.0000078393   0.0000065630   0.0000011239  -0.0000081877
       -0.0000054343   0.0000019977   0.0000006806   0.0000186938   0.0000033093
       -0.0000004627  -0.0000096063  -0.0000237798  -0.0000166896  -0.0000629974
       -0.0000230569  -0.0000148175  -0.0000069856   0.0000022477  -0.0000074990
        0.0000040960   0.0000021990  -0.0000069154   0.0000077555   0.0000038507
        0.0000027141  -0.0000091930  -0.0000170684   0.0014976860  -0.0051339879
        0.0039347802   0.0002520403   0.0004524173  -0.0000007932
       -0.0030901641   0.0197351489   0.0100279386  -0.0568494303  -0.0205993781
        0.0129160066  -0.1934447989   0.0867157649   0.1135674971   0.5665255239