$hessian                                                                        
        0.1723902548  -0.2060448580   0.1100067392  -0.1469846674   0.1702971188
       -0.0931134423   0.0169230712  -0.0115807459   0.0034822151  -0.0014338485
       -0.0032118723   0.0011575975  -0.0000510852   0.0003385103   0.0009926863
       -0.0000558530  -0.0003752731   0.0005304998   0.0008252997   0.0017132393
        0.0003577144  -0.0018154651  -0.0014334827  -0.0000331982  -0.0343726620
        0.0459528034  -0.0249135100   0.0018019515   0.0040740249  -0.0010345506
        0.0002626787   0.0011294111   0.0015512597   0.0013819786   0.0004390400
        0.0002514776  -0.0002175346   0.0000762972  -0.0004017423   0.0002524969
        0.0003696818  -0.0000625361  -0.0002372861   0.0003008195  -0.0001069821
        0.0010141704  -0.0001695763   0.0000827916  -0.0011267216   0.0001553853
       -0.0000682798   0.0002407985  -0.0005284881   0.0000605876  -0.0000113291
        0.0001586621   0.0000431958   0.0000948427  -0.0000973503  -0.0000260435
       -0.0000650492  -0.0000500230  -0.0000181066   0.0000367501   0.0000554748
        0.0000003073  -0.0001490549  -0.0001245027  -0.0000447272  -0.0001170719
        0.0001634824   0.0000286176   0.0000223216  -0.0000635362   0.0000020661
       -0.0000480106   0.0000679813   0.0000105708   0.0001096147   0.0000679985
        0.0000373114  -0.0000445574  -0.0001518653  -0.0000467874   0.0003889260
        0.0004464599  -0.0000261153  -0.0002699070  -0.0001665085   0.0000841968
       -0.0000393793  -0.0004065323   0.0000373653  -0.0027928723   0.0012378784
        0.0015712389  -0.0066206668  -0.0022841164  -0.0005074216   0.0000608509
       -0.0001769272   0.0003066579  -0.0001344215  -0.0001060878   0.0002741787
        0.0001018558  -0.0002362399   0.0000060527   0.0002058815  -0.0000171856
       -0.0000687629   0.0010429302  -0.0001423816   0.0006869220   0.0002920651
        0.0001008445  -0.0004359245   0.0000668561  -0.0000805374  -0.0001201742
        0.0000414341  -0.0000216955  -0.0000634362  -0.0000769363  -0.0000281617
        0.0000231797  -0.0000118253  -0.0000347297  -0.0000101606   0.0000047025
        0.0000304401   0.0000106383  -0.0000289475   0.0000313912   0.0000066345
       -0.0000369890   0.0000034212  -0.0000067474  -0.0000356552   0.0000078040
        0.0000009828  -0.0000361569  -0.0000217541  -0.0000123771  -0.0000027662
       -0.0000321383  -0.0000108925  -0.0000032623   0.0000375448   0.0000089204
       -0.0000666002   0.0000478672  -0.0000325268   0.0000446492  -0.0000131414
        0.0000822742  -0.0007067635   0.0003087620   0.0000397484  -0.0000130348
       -0.0000126325  -0.0005701832
       -0.2060448580   0.5504695271  -0.2760832215   0.1689418092  -0.4710019883
        0.2163511016  -0.0028559388  -0.0564790843   0.0389948941  -0.0072994822
       -0.0022088190  -0.0000527299  -0.0013613772  -0.0013318180   0.0025222862
        0.0009947877   0.0008391406  -0.0001377306  -0.0000286878   0.0000967073
        0.0012610286   0.0061702304  -0.0001612634   0.0024468549   0.0420587209
       -0.0199275179   0.0168031917  -0.0056849244  -0.0053122917   0.0003044227
        0.0025171272  -0.0010921289  -0.0004246353  -0.0025960231   0.0002710610
       -0.0000524472   0.0008416464   0.0000478171   0.0002844773  -0.0004119262
       -0.0006039805   0.0001626240   0.0003197607  -0.0003238366   0.0001149940
       -0.0010668059   0.0001665137  -0.0000727934   0.0011010930  -0.0000853201
        0.0000590107  -0.0001853450   0.0004434815  -0.0000738641   0.0000111637
       -0.0001459124  -0.0000436073  -0.0000911724   0.0000858568   0.0000206258
        0.0000645889   0.0000584194   0.0000183354  -0.0000291341  -0.0000758771
       -0.0000041852   0.0001140391   0.0001290435   0.0000416361   0.0001108420
       -0.0001596896  -0.0000265072  -0.0000281356   0.0000650627  -0.0000047882
        0.0000392076  -0.0000610342  -0.0000112220  -0.0000927299  -0.0000705768
       -0.0000393839   0.0000667451   0.0001310316   0.0000363855  -0.0003857701
       -0.0004316544   0.0000409172   0.0003331211   0.0002058561  -0.0001017876
       -0.0002087439   0.0005650936  -0.0000793111   0.0031594513   0.0003560783
       -0.0012664519   0.0009595913   0.0043495387  -0.0004466939   0.0002249794
       -0.0003506527  -0.0007130872  -0.0004175262  -0.0006725477   0.0003985131
        0.0000212950  -0.0002245804  -0.0001768674  -0.0001812220  -0.0000255680
       -0.0001445846  -0.0001426592   0.0001303016  -0.0010564143   0.0006012499
        0.0016223429   0.0003827549   0.0002325196   0.0001828947  -0.0000819291
       -0.0000137412   0.0000770201   0.0000185501   0.0000756545   0.0000322880
       -0.0000193818   0.0000163441   0.0000252963   0.0000143423  -0.0000035799
       -0.0000152063  -0.0000047249   0.0000193014  -0.0000222306  -0.0000030209
        0.0000300817  -0.0000024489   0.0000087947   0.0000232989  -0.0000028148
        0.0000004906   0.0000267771   0.0000200194   0.0000135018   0.0000052880
        0.0000380632   0.0000159079  -0.0000077392  -0.0000335650  -0.0000036243
        0.0000359563  -0.0000321343   0.0000062759  -0.0000349099   0.0000195291
       -0.0000960935   0.0003093227  -0.0000831448   0.0001138710  -0.0002535617
        0.0005097024   0.0007853005
        0.1100067392  -0.2760832215   0.1647417553  -0.0933199182   0.2162871002
       -0.1664883208   0.0027391944   0.0398068306  -0.0048986780   0.0021940265
        0.0006114327   0.0020098534   0.0023601852  -0.0004008714  -0.0013382588
       -0.0006462665  -0.0004259333   0.0001000966   0.0009270192  -0.0002906798
       -0.0014626230  -0.0041661208  -0.0000178635  -0.0019720221  -0.0197076651
        0.0183774664   0.0078173546   0.0020660152   0.0018723328  -0.0003407290
       -0.0004269082   0.0004433973  -0.0006932433   0.0008924900  -0.0001042260
        0.0000118196  -0.0001942300  -0.0000319050   0.0001585235   0.0000740237
        0.0002209799  -0.0000608654  -0.0000893031   0.0000694878  -0.0000181294
        0.0003134690  -0.0000323688  -0.0000004375  -0.0003137175   0.0000180892
        0.0000018572   0.0000584037  -0.0001264886   0.0000148868  -0.0000067704
        0.0000396217   0.0000186383   0.0000273835  -0.0000254143  -0.0000021725
       -0.0000181462  -0.0000168333  -0.0000026444   0.0000075260   0.0000220529
        0.0000034548  -0.0000318929  -0.0000367738  -0.0000110291  -0.0000263693
        0.0000453951   0.0000083029   0.0000052880  -0.0000208370   0.0000022635
       -0.0000109355   0.0000183194   0.0000049485   0.0000298889   0.0000207293
        0.0000141033  -0.0000185109  -0.0000379357  -0.0000040676   0.0001078311
        0.0001208358  -0.0000217089  -0.0000995566  -0.0000762006   0.0000320620
        0.0001230425  -0.0001470332   0.0000167455  -0.0008821238   0.0009947654
       -0.0007426388  -0.0025994916  -0.0015148919   0.0018998663  -0.0002060132
        0.0003970044   0.0005950137   0.0001130574   0.0001302962  -0.0001608236
       -0.0001384954   0.0002948788   0.0002990615   0.0001683720   0.0000595550
        0.0000524028   0.0007069507   0.0003768688   0.0007178429   0.0003175191
       -0.0005377883  -0.0000428585  -0.0000504160  -0.0000979769   0.0000353063
       -0.0000080852  -0.0000505542   0.0000048386  -0.0000313233  -0.0000141457
        0.0000053868  -0.0000034330  -0.0000054999  -0.0000087595   0.0000008548
        0.0000040631  -0.0000003002  -0.0000041415   0.0000056449  -0.0000004947
       -0.0000066526   0.0000010313  -0.0000040177  -0.0000047597   0.0000010275
       -0.0000019702  -0.0000061517  -0.0000041684  -0.0000061024  -0.0000007663
       -0.0000088644  -0.0000073976   0.0000005240   0.0000108301  -0.0000042833
       -0.0000027350   0.0000006472   0.0000039372   0.0000135503  -0.0000289976
        0.0000427861  -0.0003763267   0.0001124687  -0.0001989103   0.0001438715
       -0.0002256795  -0.0001196216
       -0.1469846674   0.1689418092  -0.0933199182   0.5090179512  -0.1043125921
        0.0695543323  -0.1202345132  -0.0501198528   0.0317494932   0.0079841677
       -0.0017756147   0.0043472942   0.0038124620  -0.0002196835  -0.0034030193
       -0.0010122398  -0.0002293843  -0.0004736684  -0.0027707205  -0.0034250334
       -0.0061102182  -0.0276654768  -0.0204774480   0.0046520693  -0.1739643549
        0.0066680716  -0.0008872281  -0.0365574827  -0.0141274346  -0.0007852980
        0.0027251389  -0.0058193063  -0.0014737391  -0.0044693121   0.0001234643
       -0.0003820994   0.0012293156  -0.0002303183   0.0002883044  -0.0005735302
       -0.0012119847   0.0002063131   0.0006471704  -0.0007907376   0.0003646600
       -0.0028736028   0.0004162965  -0.0001760525   0.0030725288  -0.0004530302
        0.0001864958  -0.0006713451   0.0014765290  -0.0001820264   0.0000581240
       -0.0004256984  -0.0001100695  -0.0002417084   0.0002671812   0.0000771396
        0.0001606030   0.0001483769   0.0000511140  -0.0001207744  -0.0001470441
       -0.0000008857   0.0004291395   0.0003479345   0.0001259402   0.0003132939
       -0.0004560060  -0.0000826625  -0.0000709515   0.0001742532  -0.0000070254
        0.0001196756  -0.0001904691  -0.0000315962  -0.0002943262  -0.0001849599
       -0.0001022876   0.0001449475   0.0003955746   0.0001297716  -0.0010548554
       -0.0012191378   0.0000831084   0.0008645372   0.0005452318  -0.0002755833
       -0.0000748858   0.0013616048  -0.0002565141   0.0062899248   0.0026651819
       -0.0003395045  -0.0157238995   0.0198278350  -0.0046202317  -0.0010581966
        0.0022755937  -0.0007095961   0.0002576063   0.0008119680  -0.0007962521
       -0.0002757994   0.0009577449   0.0003012603  -0.0006815259  -0.0005426080
        0.0004890933  -0.0014016462   0.0001236656   0.0008140669   0.0004426952
        0.0013252573  -0.0000547314  -0.0003027664   0.0003442188   0.0000478220
       -0.0001034774   0.0001003290   0.0001178185   0.0001980431   0.0000786920
       -0.0000597605   0.0000237771   0.0000870443   0.0000190141  -0.0000159759
       -0.0000946137  -0.0000330315   0.0000796273  -0.0000888913  -0.0000212346
        0.0000992873  -0.0000069492   0.0000176596   0.0000982910  -0.0000223726
       -0.0000052367   0.0000972295   0.0000608075   0.0000318058   0.0000064991
        0.0000893635   0.0000274708   0.0000053477  -0.0000874229  -0.0000227021
        0.0001708311  -0.0001400160   0.0000894335  -0.0001187521  -0.0000900016
       -0.0001235094   0.0003432591  -0.0006190182   0.0001447839   0.0006253128
       -0.0021063998   0.0009294179
        0.1702971188  -0.4710019883   0.2162871002  -0.1043125921   0.6655807364
       -0.2501922686  -0.0492011927  -0.1047768743   0.0185261055  -0.0014771092
       -0.0183816459   0.0145885762   0.0010928817   0.0052402869   0.0041019794
       -0.0013191926  -0.0016146895   0.0006121314  -0.0016085146   0.0063498123
        0.0005656322  -0.0204541604  -0.0056559940  -0.0032465808  -0.0001885037
       -0.0615366628   0.0026378766  -0.0165453799   0.0081765856  -0.0028260114
       -0.0064248275  -0.0022154377  -0.0015342545   0.0021090171  -0.0015984385
       -0.0001954463  -0.0008368276  -0.0000854144   0.0001267695   0.0002392072
        0.0005092398  -0.0000971307  -0.0002263919   0.0002053068  -0.0000855208
        0.0007366851  -0.0000777642   0.0000042276  -0.0007032003   0.0000327544
       -0.0000331973   0.0001079938  -0.0002674817   0.0000537639  -0.0000154414
        0.0000929046   0.0000285589   0.0000632392  -0.0000509805  -0.0000106181
       -0.0000405749  -0.0000378008  -0.0000109384   0.0000132435   0.0000589725
        0.0000047744  -0.0000636464  -0.0000840893  -0.0000261337  -0.0000674722
        0.0001062912   0.0000174406   0.0000185265  -0.0000442333   0.0000039372
       -0.0000246231   0.0000400816   0.0000085450   0.0000557245   0.0000502294
        0.0000279902  -0.0000471573  -0.0000811523  -0.0000201498   0.0002616816
        0.0002827806  -0.0000350667  -0.0002767422  -0.0001556903   0.0000579798
        0.0002731122  -0.0004357352   0.0001153298   0.0002863708  -0.0048216856
       -0.0003968914   0.0260566091  -0.0094794543   0.0025421532   0.0000837178
       -0.0004370793  -0.0013534293  -0.0001904711   0.0003806363  -0.0001640881
        0.0008299061  -0.0007753076  -0.0007977894   0.0006059266   0.0000990896
        0.0001384943   0.0029452673  -0.0012555757   0.0000026596  -0.0023539454
       -0.0015377952   0.0003883463  -0.0015492829  -0.0002068636   0.0001472316
        0.0000385179  -0.0000599006  -0.0000241060  -0.0000489369  -0.0000195231
        0.0000070538  -0.0000107401  -0.0000101739  -0.0000109756   0.0000013226
        0.0000055592   0.0000001564  -0.0000072919   0.0000108058   0.0000000189
       -0.0000153298   0.0000020257  -0.0000072586  -0.0000090055   0.0000003620
       -0.0000010646  -0.0000123349  -0.0000108112  -0.0000098586  -0.0000018131
       -0.0000254158  -0.0000130412   0.0000141493   0.0000200459   0.0000001147
       -0.0000096680   0.0000158981   0.0000060542   0.0000037154   0.0000173840
        0.0000234780   0.0011446861  -0.0003262047  -0.0000558828   0.0007637489
       -0.0002099250   0.0001232232
       -0.0931134423   0.2163511016  -0.1664883208   0.0695543323  -0.2501922686
        0.3066691942   0.0232332009   0.0224947606  -0.0760845898   0.0108759565
        0.0196416196  -0.0140971758  -0.0044230330   0.0047192902  -0.0011042459
        0.0001365762   0.0007159313  -0.0012288621  -0.0054711757   0.0005756390
        0.0032586096   0.0015736620  -0.0070432880   0.0074467789  -0.0001493348
       -0.0047324475  -0.0648364020  -0.0038827536  -0.0019748593   0.0008338800
        0.0001669454  -0.0006072167   0.0080051155  -0.0011674608  -0.0003346082
       -0.0001223699   0.0004425806   0.0001200585  -0.0017999734   0.0002201346
       -0.0002546073   0.0000664896   0.0000458001   0.0000783166   0.0000137245
       -0.0002648226  -0.0000609730   0.0000690535   0.0002184077   0.0000006494
       -0.0000199086  -0.0000334344   0.0000785409  -0.0000133544   0.0000062245
       -0.0000274855  -0.0000132161  -0.0000194361   0.0000151953   0.0000010170
        0.0000127990   0.0000117202   0.0000021138  -0.0000029251  -0.0000204771
       -0.0000030653   0.0000175463   0.0000271226   0.0000080367   0.0000181660
       -0.0000324191  -0.0000051391  -0.0000052112   0.0000159402  -0.0000024811
        0.0000066242  -0.0000132338  -0.0000048413  -0.0000149488  -0.0000142290
       -0.0000113615   0.0000123096   0.0000274610   0.0000008014  -0.0000788086
       -0.0000888614   0.0000216161   0.0001801234   0.0001834976  -0.0000183606
       -0.0004415149   0.0001903954  -0.0000509978   0.0008449804  -0.0009178535
        0.0077097609   0.0003188386   0.0027975105  -0.0017192272   0.0013695884
       -0.0010576987  -0.0003994015   0.0006208457   0.0006529822  -0.0002711664
        0.0003651856  -0.0008671822  -0.0006210573  -0.0009188922  -0.0005824210
        0.0001918202  -0.0013041694  -0.0014926606  -0.0008861177   0.0005440715
        0.0009829685  -0.0024449876   0.0000518206   0.0001311874  -0.0000531631
        0.0000297740   0.0000344188  -0.0000343379   0.0000385354   0.0000055437
       -0.0000087546   0.0000002262   0.0000017013   0.0000082342  -0.0000005354
       -0.0000008225   0.0000026045   0.0000000770  -0.0000022618   0.0000021249
        0.0000027936  -0.0000011907   0.0000040474   0.0000000997   0.0000001108
        0.0000017240   0.0000012098   0.0000017413   0.0000044663  -0.0000005774
        0.0000059807   0.0000059764  -0.0000039575  -0.0000078621   0.0000045307
       -0.0000189502   0.0000046438  -0.0000185131  -0.0000350315   0.0000187869
       -0.0000589090   0.0003331452  -0.0000872310   0.0003128725   0.0001078344
        0.0005293430  -0.0022242918
        0.0169230712  -0.0028559388   0.0027391944  -0.1202345132  -0.0492011927
        0.0232332009   0.5325688342   0.1164575395   0.1400940671  -0.0968008899
       -0.0007512173  -0.0335221403   0.0373624668   0.0123721254   0.0141944397
       -0.0250069586   0.0126482102  -0.0303027648  -0.0471257946  -0.0517745897
        0.0289993542  -0.2467304102  -0.0214784084  -0.1232915276  -0.0268721189
       -0.0167815895   0.0074242073  -0.0045568989   0.0017570738   0.0004124524
       -0.0008617105  -0.0008557671  -0.0007627407   0.0005518351   0.0000630432
        0.0000404438  -0.0000322427   0.0000393268   0.0001910777   0.0000156315
        0.0001412707  -0.0000008717  -0.0000717758   0.0001067844  -0.0000593725
        0.0004670360  -0.0000499018   0.0000144031  -0.0005189496   0.0000977040
       -0.0000309022   0.0001284116  -0.0002669886   0.0000262022  -0.0000121006
        0.0000732322   0.0000169222   0.0000440260  -0.0000520412  -0.0000154765
       -0.0000255468  -0.0000206029  -0.0000082734   0.0000202579   0.0000189547
       -0.0000009788  -0.0000787261  -0.0000582585  -0.0000218082  -0.0000560737
        0.0000737184   0.0000135867   0.0000136630  -0.0000282173   0.0000007795
       -0.0000237059   0.0000358804   0.0000057216   0.0000526964   0.0000291560
        0.0000164412  -0.0000166507  -0.0000714912  -0.0000242336   0.0001745321
        0.0002047766  -0.0000063916  -0.0001301782  -0.0001133450   0.0000453958
        0.0000190011  -0.0001978291   0.0000545355  -0.0004214668  -0.0002759298
       -0.0008326452  -0.0011616188  -0.0020199791   0.0001207477  -0.0077603016
        0.0111601735  -0.0224163288  -0.0003967354  -0.0056746184   0.0003728621
        0.0001481404   0.0003939313  -0.0006254628  -0.0003909864  -0.0053193914
       -0.0003597751  -0.0079849446   0.0009261741  -0.0068060535   0.0002286669
        0.0002877955   0.0003018068  -0.0004161733   0.0000004005  -0.0001157881
        0.0000294492   0.0000109580  -0.0000443951  -0.0000300217  -0.0000104494
        0.0000133975  -0.0000053671  -0.0000181930  -0.0000024862   0.0000026962
        0.0000199795   0.0000072207  -0.0000154208   0.0000164210   0.0000047932
       -0.0000168818   0.0000017821  -0.0000019221  -0.0000198050   0.0000051002
        0.0000017662  -0.0000180623  -0.0000101490  -0.0000043734  -0.0000012083
       -0.0000114476  -0.0000025530  -0.0000062428   0.0000170172   0.0000059556
       -0.0000329820   0.0000288296  -0.0000235110   0.0000297874   0.0000200086
        0.0000156063  -0.0000261235   0.0000945148   0.0000242515  -0.0009206158
        0.0007956544   0.0008919432
       -0.0115807459  -0.0564790843   0.0398068306  -0.0501198528  -0.1047768743
        0.0224947606   0.1164575395   0.3796952850  -0.2060317230   0.0315463198
       -0.1187383760   0.1216084529  -0.0213275789  -0.0298791410   0.0238133214
        0.0131891945  -0.0032584473   0.0064051564  -0.0208911328  -0.0005708274
       -0.0131617859  -0.0556964481  -0.0789293312  -0.0115904063  -0.0085475839
        0.0046846136   0.0022776869   0.0024714680   0.0007069144   0.0009180103
       -0.0002440285   0.0009231880  -0.0002303722   0.0005493742  -0.0000501455
        0.0000592020  -0.0002176879   0.0000574676   0.0001347138   0.0000479718
        0.0001205308  -0.0000032881  -0.0000708802   0.0000817325  -0.0000546821
        0.0003112695  -0.0000391545   0.0000162889  -0.0003241205   0.0000627159
       -0.0000146105   0.0000821630  -0.0001730355   0.0000141941  -0.0000084649
        0.0000435086   0.0000106222   0.0000244802  -0.0000307244  -0.0000091353
       -0.0000166760  -0.0000152214  -0.0000058780   0.0000177536   0.0000116040
       -0.0000010008  -0.0000500845  -0.0000381648  -0.0000138749  -0.0000332624
        0.0000493164   0.0000088076   0.0000098030  -0.0000200363   0.0000001614
       -0.0000153183   0.0000233478   0.0000033811   0.0000335819   0.0000162952
        0.0000098728  -0.0000129171  -0.0000413631  -0.0000141826   0.0001096293
        0.0001306239  -0.0000033455  -0.0001082902  -0.0000935700   0.0000461834
        0.0000421092  -0.0001502168   0.0000280647  -0.0007097161  -0.0001376826
       -0.0006340462   0.0008568882  -0.0015589417   0.0003676479   0.0007929708
        0.0019611279  -0.0035222472  -0.0049719895   0.0013474162   0.0045456280
        0.0005599242   0.0003048958  -0.0001968432  -0.0057751259   0.0011327458
        0.0046174788   0.0120905536   0.0032633782   0.0085023319   0.0002727334
       -0.0000379884   0.0002846914   0.0001899630  -0.0000040207  -0.0001015946
        0.0000012895  -0.0000002473  -0.0000156607  -0.0000136626  -0.0000114177
        0.0000080009  -0.0000033948  -0.0000090974  -0.0000014030   0.0000019980
        0.0000120842   0.0000042638  -0.0000091092   0.0000110389   0.0000026007
       -0.0000106452   0.0000014121  -0.0000014664  -0.0000126486   0.0000030234
        0.0000007257  -0.0000105618  -0.0000067986  -0.0000026552  -0.0000012905
       -0.0000063807  -0.0000012312  -0.0000073964   0.0000095047   0.0000031011
       -0.0000103437   0.0000182722  -0.0000125099   0.0000272309   0.0000124928
        0.0000142475   0.0000038713   0.0000331834  -0.0000200597   0.0011108764
        0.0003385698  -0.0003624264
        0.0034822151   0.0389948941  -0.0048986780   0.0317494932   0.0185261055
       -0.0760845898   0.1400940671  -0.2060317230   0.4632532870  -0.0742833098
        0.0942418779  -0.2310606837   0.0515507149   0.0502807375  -0.0178581321
       -0.0295231087   0.0050413357  -0.0360138454  -0.0130915822  -0.0341173322
        0.0377769390  -0.0824133715   0.0142208968  -0.1233034217   0.0016639684
        0.0059364438   0.0120469677   0.0006244189  -0.0005432007   0.0011366452
       -0.0000033315   0.0005447672  -0.0011758925   0.0001051702   0.0000598960
        0.0000403475  -0.0001461439   0.0000104166   0.0002203204  -0.0000320882
       -0.0000095998  -0.0000000624   0.0000127774  -0.0000446230   0.0000140904
       -0.0001150084   0.0000396609  -0.0000237736   0.0001351589  -0.0000304379
        0.0000106943  -0.0000354520   0.0000736369  -0.0000058129   0.0000002239
       -0.0000187672  -0.0000052193  -0.0000104237   0.0000112800   0.0000032612
        0.0000063969   0.0000053264   0.0000019763  -0.0000087624  -0.0000021439
        0.0000008166   0.0000233409   0.0000138996   0.0000060711   0.0000148658
       -0.0000201574  -0.0000037676  -0.0000047684   0.0000062200   0.0000001099
        0.0000049675  -0.0000089633  -0.0000005934  -0.0000143814  -0.0000064333
       -0.0000033058   0.0000011891   0.0000193098   0.0000069712  -0.0000446649
       -0.0000543535   0.0000009526  -0.0000029782   0.0000012252  -0.0000064002
        0.0000793927   0.0000124490  -0.0000026892  -0.0002463589   0.0003575733
       -0.0008576975  -0.0007917207  -0.0002682849  -0.0007387480  -0.0069078600
        0.0072971803  -0.0132668502   0.0000578391   0.0046651095   0.0022773091
       -0.0002137195  -0.0006681877  -0.0006195264   0.0000389493   0.0041304170
        0.0025309028  -0.0214092890  -0.0024658800  -0.0142159948  -0.0002649625
       -0.0000553829   0.0001941831   0.0001710082   0.0000110435  -0.0000271303
       -0.0000048187   0.0000034374   0.0000089850   0.0000069542   0.0000039663
       -0.0000035887   0.0000038571   0.0000032256  -0.0000003514  -0.0000008291
       -0.0000037737  -0.0000024043   0.0000033246  -0.0000042810  -0.0000016589
        0.0000040120  -0.0000005900   0.0000002617   0.0000049327  -0.0000017468
       -0.0000001074   0.0000041267   0.0000021775   0.0000014756   0.0000001680
        0.0000006744   0.0000005268   0.0000068749  -0.0000053804  -0.0000014156
        0.0000104030  -0.0000079536   0.0000099999  -0.0000062023  -0.0000107258
        0.0000058998  -0.0000740778  -0.0000364023  -0.0000153645  -0.0002115971
       -0.0000988596   0.0006487112
       -0.0014338485  -0.0072994822   0.0021940265   0.0079841677  -0.0014771092
        0.0108759565  -0.0968008899   0.0315463198  -0.0742833098   0.5630864059
        0.1751748308   0.1319279791  -0.1836618161  -0.1407976398   0.0716721822
       -0.0486281008  -0.0196798418  -0.0138950035  -0.0017574919  -0.0090653493
        0.0139923134  -0.0029005618   0.0180233661  -0.0254817288  -0.0018787333
       -0.0014299830  -0.0001942941   0.0001285532   0.0004599790   0.0001471577
       -0.0002501825   0.0001844352   0.0000111590   0.0000378100  -0.0001294146
       -0.0000280222  -0.0000210179  -0.0000001611   0.0000218569   0.0000082822
        0.0000617973  -0.0000088332   0.0000004543   0.0000355157  -0.0000250411
        0.0001253017  -0.0000150024   0.0000143086  -0.0001123145   0.0000245330
       -0.0000214763   0.0000240829  -0.0000578858   0.0000129748   0.0000008694
        0.0000145415  -0.0000011237   0.0000113172  -0.0000036497  -0.0000033344
       -0.0000086743  -0.0000031721  -0.0000027165   0.0000036888   0.0000045765
       -0.0000017816  -0.0000148291  -0.0000145348  -0.0000054621  -0.0000139566
        0.0000176312   0.0000030709   0.0000039890  -0.0000053980   0.0000000122
       -0.0000069273   0.0000075948   0.0000003846   0.0000113365   0.0000038112
        0.0000016535  -0.0000060654  -0.0000104922  -0.0000093383   0.0000438234
        0.0000490805   0.0000014865  -0.0000529804  -0.0000194399  -0.0000009767
       -0.0000182790  -0.0001280849   0.0000349139  -0.0002333970  -0.0001899903
       -0.0000725583  -0.0013291434  -0.0004859345   0.0012089961  -0.2296447506
       -0.0422877144  -0.1087391364   0.0036014819   0.0032922977  -0.0015167764
       -0.0030726769  -0.0032207392  -0.0043295709   0.0006653527   0.0001328821
        0.0005044140  -0.0032636072  -0.0030646377  -0.0046683819   0.0001128166
        0.0000597150   0.0000432068  -0.0000412965  -0.0000152442  -0.0000375587
        0.0000116332   0.0000042706  -0.0000062410  -0.0000041169  -0.0000004927
        0.0000015472  -0.0000043817  -0.0000011575   0.0000030933   0.0000003535
        0.0000001239   0.0000006573   0.0000001549   0.0000008128   0.0000008916
       -0.0000008557   0.0000004197   0.0000009097  -0.0000016727  -0.0000001294
        0.0000015247  -0.0000011864  -0.0000017670   0.0000012517  -0.0000005027
       -0.0000026358   0.0000012733  -0.0000029450   0.0000007950   0.0000041100
       -0.0000087961   0.0000133320  -0.0000059716  -0.0000086907   0.0000576336
       -0.0000072879  -0.0000161485   0.0000481939   0.0000432333  -0.0006610373
        0.0001885948   0.0006193798
       -0.0032118723  -0.0022088190   0.0006114327  -0.0017756147  -0.0183816459
        0.0196416196  -0.0007512173  -0.1187383760   0.0942418779   0.1751748308
        0.3820730766  -0.2000290439  -0.0958980326  -0.1810184523   0.0945510497
       -0.0533394853  -0.0005043734  -0.0398859688  -0.0081413104  -0.0339686309
        0.0284991757   0.0458775412   0.0249979892   0.0075316276   0.0010611487
       -0.0011593209   0.0002418564  -0.0001461011  -0.0001084033   0.0000103180
        0.0000871970  -0.0001821758   0.0000006166  -0.0001277386  -0.0000366323
        0.0000091207   0.0000216423   0.0000214605  -0.0000213091  -0.0000174435
       -0.0000844808   0.0000233987   0.0000395396  -0.0000452173   0.0000145719
       -0.0002063755   0.0000322506  -0.0000132734   0.0002302635  -0.0000353813
        0.0000115871  -0.0000560872   0.0001152276  -0.0000122112   0.0000015685
       -0.0000335804  -0.0000097227  -0.0000197593   0.0000228927   0.0000062581
        0.0000108489   0.0000102729   0.0000037845  -0.0000104862  -0.0000105819
       -0.0000000641   0.0000341639   0.0000264371   0.0000101688   0.0000246172
       -0.0000350317  -0.0000063638  -0.0000071832   0.0000120153  -0.0000007027
        0.0000084234  -0.0000161453  -0.0000026870  -0.0000236418  -0.0000155805
       -0.0000083589   0.0000090401   0.0000311755   0.0000098580  -0.0000807901
       -0.0000945335   0.0000058748   0.0000484078   0.0000434597  -0.0000180516
       -0.0000183741   0.0000688342  -0.0000135931   0.0001460645   0.0001561782
        0.0001016694   0.0001727249   0.0001627637  -0.0001605147  -0.0429028619
       -0.0472167294  -0.0183051257  -0.0101595098  -0.0118319661   0.0085080460
       -0.0032840492   0.0043559239   0.0022686875   0.0001115871  -0.0004820197
        0.0002014937  -0.0029954965   0.0036373659   0.0020040311  -0.0000112486
        0.0000738483  -0.0000049907  -0.0000015810   0.0000567613   0.0000077008
       -0.0000013572   0.0000171593  -0.0000001853   0.0000206550   0.0000066286
       -0.0000076240   0.0000014300   0.0000063386   0.0000024707  -0.0000029874
       -0.0000094185  -0.0000028034   0.0000062778  -0.0000088433  -0.0000018617
        0.0000077997  -0.0000014550   0.0000015011   0.0000087199  -0.0000034502
       -0.0000004984   0.0000086143   0.0000044912   0.0000027396   0.0000005530
        0.0000065960   0.0000021840   0.0000022453  -0.0000077273  -0.0000016210
        0.0000140906  -0.0000110999   0.0000099144  -0.0000239155  -0.0000020189
       -0.0000049621   0.0000206996  -0.0000267286   0.0000069423   0.0000638256
        0.0003396723  -0.0000300399
        0.0011575975  -0.0000527299   0.0020098534   0.0043472942   0.0145885762
       -0.0140971758  -0.0335221403   0.1216084529  -0.2310606837   0.1319279791
       -0.2000290439   0.4833175934   0.0167311064   0.0601946789  -0.1123612412
        0.0283857821  -0.0136535763   0.0408236095   0.0131927672   0.0286465259
       -0.0313434776  -0.0613865143  -0.0156767996  -0.0275709570  -0.0014875910
       -0.0005347878  -0.0006615353  -0.0003022955   0.0000616612  -0.0000620507
       -0.0000626232   0.0000455366  -0.0000677832   0.0001054020   0.0000742772
        0.0001277277  -0.0000170610   0.0000348578   0.0000044226   0.0000342699
        0.0000598249  -0.0000240415  -0.0000010784   0.0000238617  -0.0000100767
        0.0001111620  -0.0000089626   0.0000051531  -0.0000985409   0.0000230532
       -0.0000140446   0.0000267681  -0.0000519399   0.0000112866  -0.0000037304
        0.0000121109   0.0000001928   0.0000107963  -0.0000062358  -0.0000033855