$hessian                                                                        
        0.1308643057   0.1773906542  -0.0140410362  -0.0843551662  -0.1414301733
        0.0044906453   0.0028316714   0.0051637311  -0.0010737904  -0.0027132185
        0.0014697147   0.0004218686   0.0012108862   0.0007810136  -0.0010585838
       -0.0001214424   0.0003248596   0.0000786396  -0.0001296171   0.0003090711
       -0.0021580534  -0.0001256817   0.0002457850   0.0028201410  -0.0370474298
       -0.0417590187   0.0007642091  -0.0079143781   0.0023646698   0.0033151451
        0.0081059758   0.0062945884  -0.0044498997  -0.0186478370  -0.0025281241
       -0.0003519339   0.0182977395   0.0027821346   0.0005818987  -0.0078384212
       -0.0067510225   0.0041392650   0.0073629930  -0.0029688785   0.0022809288
       -0.0071385037  -0.0005309323  -0.0000274341   0.0022760290   0.0002007262
        0.0000440084   0.0001371061  -0.0001012249  -0.0003125649   0.0003083647
        0.0001214346   0.0001545086   0.0001342156   0.0001679901  -0.0002245578
       -0.0000645041  -0.0001390786  -0.0000171612  -0.0000026009  -0.0000767236
       -0.0000117194  -0.0005414530  -0.0002049770  -0.0002392783  -0.0005644404
        0.0001117516   0.0002501142  -0.0000090546   0.0000131126   0.0000125676
       -0.0000865119   0.0001662597   0.0000130224   0.0001483042  -0.0001103010
        0.0002110110   0.0002890522  -0.0000256236  -0.0001919200   0.0000706853
        0.0000825735   0.0002719133   0.0062773644   0.0044169467  -0.0024805295
       -0.0091215647   0.0050634526  -0.0036819209   0.0092400499  -0.0063827583
        0.0029304675  -0.0094006180  -0.0042642047   0.0065631503   0.0002838700
        0.0007883605   0.0007760670   0.0001896454   0.0000603530  -0.0001451972
       -0.0004084085  -0.0001955141   0.0010563920   0.0005573231   0.0000076799
       -0.0003210658  -0.0006457083   0.0001561850   0.0006741322  -0.0009633616
       -0.0001539089   0.0001270749  -0.0000083573  -0.0003792399  -0.0010504227
       -0.0001034069   0.0004403776  -0.0000651809   0.0000183496   0.0002427641
        0.0000120487   0.0000325501  -0.0001653448  -0.0000116329   0.0001696907
        0.0000203118  -0.0000039030   0.0000231141  -0.0000394808  -0.0000143922
       -0.0002252790  -0.0001028745  -0.0000036282  -0.0001949168   0.0001133832
        0.0000040386   0.0000918124  -0.0000052335   0.0000085763  -0.0000867563
       -0.0000168961  -0.0000056171   0.0000166901   0.0001674067   0.0000012618
        0.0000278566  -0.0003385556  -0.0000311791   0.0001145762  -0.0003826419
        0.0000600937  -0.0001418397  -0.0003960383  -0.0005713790  -0.0004797432
       -0.0000185221   0.0004807917
        0.1773906542   0.4843213158  -0.0523888148  -0.1488858111  -0.3757309117
        0.0401088872   0.0073405713  -0.0747683441   0.0080906046  -0.0047807147
        0.0013204755  -0.0011661284   0.0002576521   0.0011522872  -0.0001086988
       -0.0000069130  -0.0000703589   0.0000500584   0.0009458977  -0.0010872690
       -0.0024263165   0.0033105189  -0.0016863062  -0.0015459162  -0.0288562543
       -0.0329853621   0.0052531971  -0.0075736730   0.0046225599  -0.0024027648
        0.0144837109   0.0115914891  -0.0064562220  -0.0331030773  -0.0042747968
       -0.0005580092   0.0336762669   0.0042958752  -0.0003418825  -0.0145066218
       -0.0122863973   0.0078245744   0.0137165695  -0.0049810398   0.0040780733
       -0.0121281172  -0.0011421105   0.0001048049   0.0022965743   0.0001205475
       -0.0000131660   0.0007947640  -0.0012335480  -0.0002374396   0.0007384763
        0.0007479662   0.0005650957   0.0004151259   0.0002176963  -0.0007409077
       -0.0001324574  -0.0004749979  -0.0000505111   0.0000014750  -0.0000912374
       -0.0000666437  -0.0013347286  -0.0006024116  -0.0006288586  -0.0014440289
        0.0004269138   0.0006624095   0.0000062828  -0.0000455450   0.0000568710
       -0.0001832376   0.0005658340   0.0000323060   0.0003852126  -0.0000607938
        0.0006860885   0.0008443140  -0.0005418845  -0.0006412987   0.0004311994
        0.0013468006   0.0001802185   0.0117440424   0.0083199153  -0.0045812578
       -0.0173840576   0.0083423304  -0.0072747244   0.0173079975  -0.0098427629
        0.0074377282  -0.0144196217  -0.0070289134   0.0029820450   0.0003979388
        0.0001140990   0.0006754055  -0.0002469825   0.0000735452  -0.0000770094
        0.0000239519   0.0000767955   0.0005943418   0.0002313788  -0.0004991300
        0.0000766954  -0.0002624602  -0.0000096891   0.0012545771  -0.0009433766
        0.0023612308   0.0001027605   0.0006100775   0.0000132553   0.0005625816
        0.0001373056   0.0008697546  -0.0005781794   0.0000683163   0.0005083802
       -0.0002631126   0.0001656684  -0.0005266051  -0.0000288536   0.0005319246
        0.0000852769  -0.0000225110   0.0000736520  -0.0001241792  -0.0000402109
       -0.0007198383  -0.0003369888  -0.0000285397  -0.0006222816   0.0003735760
        0.0000176093   0.0002978543  -0.0000170024   0.0000190596  -0.0002976824
       -0.0000547921  -0.0000090007   0.0001175549   0.0005326188  -0.0000030417
       -0.0000278523  -0.0005815343   0.0002742623   0.0000352701  -0.0007348029
        0.0004822328  -0.0007335398   0.0002759602   0.0004911784  -0.0001848707
       -0.0008567844   0.0000163532
       -0.0140410362  -0.0523888148   0.0210209766   0.0007025726   0.0431169259
       -0.0366484455   0.0058747088   0.0034514690   0.0064046924  -0.0029610618
        0.0010667006  -0.0016228140   0.0007824422  -0.0014677560   0.0003171558
       -0.0005623499   0.0005581528  -0.0000355599   0.0010211464  -0.0002995148
        0.0011766423  -0.0011023827   0.0023736653   0.0009969297   0.0105760423
        0.0035495061   0.0090084030  -0.0018013523  -0.0006047926  -0.0032204573
        0.0000812337  -0.0006447128   0.0007498045   0.0020357444   0.0005371225
        0.0003226295  -0.0023968449  -0.0006512556  -0.0005251944   0.0012301365
        0.0009767270  -0.0005412020  -0.0012300171   0.0005197516  -0.0003678469
        0.0012991166  -0.0000583280   0.0001069470  -0.0004507604  -0.0000358811
       -0.0000304247  -0.0000493008   0.0000575489   0.0000555743  -0.0000574639
       -0.0000109740  -0.0000314898  -0.0000098935  -0.0000225812   0.0000615976
       -0.0000240314   0.0000106309   0.0000047910  -0.0000232983   0.0000472271
        0.0000039931   0.0001095487   0.0000081052   0.0000471462   0.0000974988
        0.0000100607  -0.0000480903  -0.0000137574  -0.0000283312  -0.0000016350
       -0.0000186552  -0.0000289134   0.0000000073  -0.0000101647   0.0000145351
       -0.0000541224  -0.0000436996  -0.0000143147   0.0000538474  -0.0000067332
       -0.0000345852  -0.0000467326  -0.0009459536  -0.0005775335   0.0003430305
        0.0013152019  -0.0009230615   0.0004044199  -0.0008537955   0.0007371765
        0.0005711518  -0.0001218440   0.0008970000   0.0015222768   0.0006139481
        0.0000839879  -0.0000852789  -0.0000085362  -0.0000256486   0.0000468197
        0.0001359930   0.0001872397  -0.0002337825  -0.0000773666   0.0001706634
        0.0000287289   0.0003403253   0.0000707461  -0.0000653857   0.0007048768
       -0.0003981862  -0.0001524523   0.0000380519   0.0001996793   0.0007245864
        0.0000504075  -0.0001172794   0.0000042313  -0.0000191479  -0.0000448553
        0.0000230121  -0.0000064845   0.0000262783  -0.0000056159  -0.0000434038
       -0.0000128164   0.0000002438  -0.0000066471   0.0000079617   0.0000018211
        0.0000582448   0.0000227905   0.0000001166   0.0000507636  -0.0000258225
       -0.0000030449  -0.0000242307   0.0000019383  -0.0000029894   0.0000186402
        0.0000106025  -0.0000017887  -0.0000037107  -0.0000264371  -0.0000008485
       -0.0000130816   0.0000856342  -0.0000037749  -0.0000657809   0.0000493465
        0.0000060369  -0.0001680402  -0.0000920076  -0.0000291224   0.0000241826
       -0.0003147698  -0.0002495148
       -0.0843551662  -0.1488858111   0.0007025726   0.4615820396   0.0879266024
        0.0073524100  -0.0807595628   0.0567365620  -0.0022652347  -0.0394518811
        0.0221047499  -0.0117886771  -0.0001181112  -0.0084612787  -0.0025809497
       -0.0028435402   0.0034482138  -0.0002947180   0.0075766457  -0.0031793573
        0.0030270889   0.0017451382   0.0210783315  -0.0032629043  -0.1945976444
       -0.0238274633   0.0170521859  -0.0469014012   0.0137758494  -0.0091880832
        0.0017480199   0.0000688334   0.0028028563   0.0137251558   0.0015809943
        0.0007143865  -0.0185294090  -0.0030886316  -0.0008163298   0.0091868370
        0.0078473850  -0.0049809706  -0.0093257286   0.0041486380  -0.0031493089
        0.0103407574   0.0008868638  -0.0000029445  -0.0044150867  -0.0004896163
       -0.0000443737   0.0000327963  -0.0005155833   0.0006101451  -0.0002999781
        0.0001518519  -0.0000485328  -0.0001213819  -0.0003619070   0.0001183097
        0.0000815411  -0.0000205077   0.0000100395   0.0000061127   0.0002857853
        0.0000034160   0.0006748902   0.0001679488   0.0002096196   0.0006635459
       -0.0000245532  -0.0002269426   0.0000701553  -0.0002195347  -0.0000076848
        0.0000822417   0.0000104922  -0.0000107824  -0.0001971409   0.0003168111
       -0.0001083500  -0.0002381010  -0.0002424218   0.0000819870  -0.0000260787
        0.0005983970  -0.0005729395  -0.0079445737  -0.0058891672   0.0033958831
        0.0106620078  -0.0060947024   0.0043427722  -0.0005237416   0.0020665808
       -0.0004654603  -0.0281941718  -0.0220626101  -0.0033240699   0.0000753970
       -0.0001391841   0.0001422490  -0.0009912295   0.0005963153  -0.0000191779
        0.0005022024   0.0002954873  -0.0009903572  -0.0010800637  -0.0001695918
        0.0008208667   0.0004493853  -0.0014470608   0.0001460336   0.0025259995
       -0.0010982046   0.0001472780  -0.0007842261   0.0002636620   0.0015330227
        0.0002590024  -0.0004594087  -0.0002295982  -0.0000609453  -0.0002635538
       -0.0000881345   0.0000051791   0.0000718453   0.0000066811  -0.0001004642
        0.0000075056  -0.0000048795  -0.0000441375   0.0000444246   0.0000125278
        0.0001124186   0.0000446542   0.0000013852   0.0000961068  -0.0000593149
       -0.0000025182  -0.0000784164  -0.0000270662  -0.0000098469   0.0000535179
       -0.0000151625   0.0000102957   0.0000250401  -0.0000701555  -0.0000000396
       -0.0001103622   0.0003904657   0.0001442783  -0.0000636635   0.0004546037
        0.0002226859  -0.0011652501   0.0005923083   0.0013295031   0.0010393241
        0.0011496856  -0.0004566707
       -0.1414301733  -0.3757309117   0.0431169259   0.0879266024   0.5581122290
       -0.0517869572   0.0483980011  -0.0907510077   0.0057040200   0.0245369414
       -0.0045574161   0.0047593149  -0.0019803776   0.0061338432  -0.0005228902
        0.0018893984  -0.0026247761   0.0001345440  -0.0056645575   0.0005246453
       -0.0029673851   0.0134107000  -0.0394888268  -0.0024593656  -0.0319563387
       -0.0446527081  -0.0050326083   0.0310877346  -0.0022982231   0.0068195882
       -0.0144884029  -0.0138538099   0.0082676779   0.0352286026   0.0051087095
       -0.0002882974  -0.0357834288  -0.0038871534   0.0008953419   0.0154288372
        0.0130063445  -0.0083161332  -0.0145195602   0.0051422727  -0.0043882680
        0.0124079913   0.0014198145  -0.0002465261  -0.0018012616  -0.0000538565
        0.0000718274  -0.0010874507   0.0014754417   0.0001518786  -0.0006908496
       -0.0008717265  -0.0005694734  -0.0005658188  -0.0002029236   0.0007369941
        0.0002422080   0.0005818721   0.0000516977   0.0000057606   0.0000097399
        0.0000833650   0.0014875981   0.0008517860   0.0006452765   0.0016839245
       -0.0006284636  -0.0006852720  -0.0000277142   0.0001077104  -0.0000716987
        0.0003058000  -0.0006354123  -0.0000369055  -0.0005279987   0.0000120788
       -0.0006788932  -0.0008226018   0.0006836463   0.0006290075  -0.0007217755
       -0.0017217640  -0.0001091211  -0.0125435270  -0.0088985244   0.0049221212
        0.0185938962  -0.0083649809   0.0079981419  -0.0183062225   0.0059529148
       -0.0056863284  -0.0099521812   0.0021551644   0.0038611825  -0.0024588329
       -0.0000027210  -0.0001292523   0.0000054312  -0.0004676119   0.0001326768
       -0.0000680226  -0.0000884226  -0.0004732632   0.0005534610  -0.0006072526
       -0.0000166394   0.0003290405   0.0010363933  -0.0002338378   0.0013483389
       -0.0021885860  -0.0010846080  -0.0000844295  -0.0005097713  -0.0015259994
       -0.0001781089  -0.0007692790   0.0005308140  -0.0000303027  -0.0005211955
        0.0002003015  -0.0001798139   0.0005564830   0.0000339015  -0.0005201582
       -0.0000941938   0.0000141857  -0.0000511961   0.0001129173   0.0000357880
        0.0007345695   0.0003408981   0.0000333576   0.0006342968  -0.0003670417
       -0.0000216234  -0.0002774166   0.0000372538  -0.0000149132   0.0003017179
        0.0000766262   0.0000175871  -0.0001321306  -0.0005641089   0.0000009612
        0.0000615344   0.0005150628  -0.0002609866   0.0000248922   0.0006861285
       -0.0005078773  -0.0002121073  -0.0009014352  -0.0011869289   0.0004354813
        0.0016641282  -0.0005464254
        0.0044906453   0.0401088872  -0.0366484455   0.0073524100  -0.0517869572
        0.1130071968  -0.0090636253   0.0007170686  -0.0437002531  -0.0123386760
        0.0077745140   0.0007956101  -0.0027807265  -0.0020873708   0.0015024289
       -0.0000728801   0.0009855364  -0.0000108643  -0.0014676034  -0.0030021039
        0.0009084226   0.0063506989  -0.0069859761   0.0029466371   0.0056670173
        0.0061104958  -0.0497141867  -0.0074284146   0.0041101077   0.0100199513
        0.0013673956   0.0035525978   0.0004199234  -0.0041773192  -0.0029231321
       -0.0004884623   0.0036521632   0.0011679617   0.0013111989  -0.0016768307
       -0.0011912061   0.0005604601   0.0015541177  -0.0007411223   0.0004478443
       -0.0014762031   0.0004408377  -0.0003785986   0.0004514435   0.0000202956
        0.0001580062   0.0000672573  -0.0000676451  -0.0000209898   0.0000438718
       -0.0000185937   0.0000185447   0.0000212619  -0.0000023006  -0.0000757479
        0.0000082485  -0.0000741493  -0.0000053830   0.0000144471   0.0000529532
       -0.0000057915  -0.0000659085  -0.0000914455  -0.0000523243  -0.0000424794
        0.0000745338   0.0000490307   0.0000261175  -0.0001023853   0.0000055443
       -0.0000215233   0.0000982676   0.0000022197   0.0000155444   0.0000195035
        0.0000676170  -0.0000104217   0.0000585706  -0.0000583730  -0.0000428228
       -0.0000318590  -0.0000169438   0.0011690023   0.0003651969  -0.0002848110
       -0.0016365790   0.0018754972  -0.0001716313   0.0031443109   0.0009815626
       -0.0000612752   0.0072715613   0.0003514396   0.0055584024   0.0000681976
        0.0009772908  -0.0007668916  -0.0001499800   0.0003757126  -0.0003458338
        0.0000476331   0.0000108003  -0.0000343651   0.0004318982  -0.0005083965
       -0.0002454667   0.0001713649   0.0002795396  -0.0004914674  -0.0012164832
       -0.0002537760  -0.0010167172  -0.0004978084  -0.0006021081  -0.0024771493
       -0.0001996138   0.0001779804   0.0000698251   0.0000169227   0.0000399838
       -0.0000209176   0.0000037660  -0.0000258662   0.0000091881   0.0000454124
        0.0000267070  -0.0000005152   0.0000033669  -0.0000035795   0.0000006483
       -0.0000671328  -0.0000224650  -0.0000013818  -0.0000596405   0.0000244542
        0.0000055434   0.0000226328  -0.0000073764   0.0000007885  -0.0000167015
       -0.0000254354   0.0000009702  -0.0000032325   0.0000239925  -0.0000013190
        0.0000388217  -0.0002023904  -0.0000467523   0.0002589445  -0.0000378051
       -0.0000566390   0.0007801240   0.0000294884  -0.0008724135  -0.0000439928
       -0.0000363313   0.0002059089
        0.0028316714   0.0073405713   0.0058747088  -0.0807595628   0.0483980011
       -0.0090636253   0.4907335153  -0.0211102297   0.1757741877  -0.2256004310
       -0.0510680837  -0.1126851786  -0.0509067121   0.0571590629  -0.0050605592
       -0.0179165925  -0.0260152431  -0.0159795806   0.0272270543   0.0019204570
        0.0157349031  -0.0854074519  -0.0206278265  -0.0241846837  -0.0463074521
        0.0174081940  -0.0044827648   0.0022757505  -0.0038032017   0.0007808975
       -0.0054425085  -0.0023600130   0.0012880557   0.0065931692   0.0015237222
       -0.0001132992  -0.0053837926  -0.0006823432  -0.0000525116   0.0020346719
        0.0015908991  -0.0008862388  -0.0016268303   0.0003381083  -0.0003899057
        0.0007484414  -0.0000243594   0.0000391036   0.0005188609   0.0001122718
       -0.0000257639  -0.0002744269   0.0003928014  -0.0001142574   0.0000156542
       -0.0001454624  -0.0000973141  -0.0001752552   0.0001351940   0.0001301374
        0.0001189094   0.0003872992   0.0000137573   0.0000312073  -0.0004148091
        0.0000112780   0.0000393201   0.0004384615   0.0001082688   0.0001552117
       -0.0004391227  -0.0001064304  -0.0000793283   0.0004337662  -0.0000064102
        0.0001946230  -0.0003759119  -0.0000124688  -0.0001197034  -0.0001913469
       -0.0001165602   0.0000193365   0.0001416523   0.0001086381  -0.0001824837
       -0.0004572633   0.0001274810  -0.0014269784  -0.0006952916   0.0004287318
        0.0023444326  -0.0011383931   0.0008096328  -0.0049929375   0.0021355672
       -0.0014799722   0.0057626001   0.0053383510  -0.0013634953  -0.0074195238
       -0.0027460575  -0.0054186846  -0.0000820890   0.0043258525  -0.0031754762
        0.0000740427  -0.0010211751  -0.0003809938   0.0001121666   0.0046002246
       -0.0030110818  -0.0068495332  -0.0208842416  -0.0132072320   0.0001293862
       -0.0003024459  -0.0000502841  -0.0001844773   0.0001731538   0.0000922001
       -0.0000616256  -0.0000891319   0.0001192635   0.0000389300  -0.0000442274
        0.0000413715  -0.0000481307   0.0001077542   0.0000086263  -0.0000830346
       -0.0000550765  -0.0000004317   0.0000240527  -0.0000033916   0.0000039255
        0.0001563656   0.0000669738   0.0000080073   0.0001374117  -0.0000611707
       -0.0000052336  -0.0000209727   0.0000387833   0.0000003185   0.0000497697
        0.0000607898   0.0000062861  -0.0000489858  -0.0001111910  -0.0000061854
        0.0000531328   0.0000766317  -0.0000515158  -0.0000564383   0.0000405173
       -0.0001246560   0.0004520505   0.0000018248  -0.0001628129  -0.0014144806
        0.0001801246   0.0003058271
        0.0051637311  -0.0747683441   0.0034514690   0.0567365620  -0.0907510077
        0.0007170686  -0.0211102297   0.5441790254   0.1347560313  -0.0134915093
       -0.0871706889  -0.0106548798   0.0099609035   0.0247947682   0.0143396768
       -0.0255679129  -0.0137538883  -0.0168825177   0.0493670969  -0.0601816019
        0.0007516717  -0.0562833965  -0.2272679676  -0.1120551347   0.0226559739
       -0.0009166041   0.0051157117  -0.0062387433   0.0048963439  -0.0010159610
        0.0048457442   0.0016480453  -0.0014208732  -0.0057453096  -0.0015947160
        0.0003002845   0.0045419121   0.0005838411   0.0002368762  -0.0016741391
       -0.0012433859   0.0006756431   0.0012279692  -0.0001009702   0.0002602989
       -0.0000665688   0.0000690233  -0.0000346646  -0.0009929030  -0.0001702231
        0.0000297484   0.0003362019  -0.0004883029   0.0002043149  -0.0000599311
        0.0001685027   0.0001052962   0.0002203184  -0.0001712907  -0.0001420773
       -0.0001615317  -0.0004761384  -0.0000154179  -0.0000453796   0.0005399623
       -0.0000156400  -0.0000071712  -0.0005599507  -0.0001100610  -0.0001605672
        0.0005662375   0.0001094231   0.0000985305  -0.0005576297   0.0000126501
       -0.0002568001   0.0004494641   0.0000172127   0.0001555515   0.0002398592
        0.0001278499  -0.0000607625  -0.0001700560  -0.0001155254   0.0002332830
        0.0005779951  -0.0002150690   0.0011065280   0.0003511121  -0.0003092091
       -0.0018666576   0.0008244161  -0.0006878105   0.0038222439  -0.0012429750
        0.0002182483  -0.0058826334  -0.0053176181   0.0006387038  -0.0218941554
       -0.0050338392  -0.0145983432   0.0048490003  -0.0012799316  -0.0023624128
       -0.0011548189   0.0002306857  -0.0000121611   0.0042707251  -0.0018344547
       -0.0014343514  -0.0038622609  -0.0047565858  -0.0017150740  -0.0004833642
       -0.0001018872   0.0002679543   0.0002157157  -0.0000251081  -0.0000113002
        0.0000764727   0.0000660065  -0.0001156178  -0.0000426200   0.0000236102
       -0.0000539114   0.0000453521  -0.0001157849  -0.0000118034   0.0000862559
        0.0000713622   0.0000006532  -0.0000367573   0.0000140705  -0.0000027755
       -0.0001767685  -0.0000686765  -0.0000091999  -0.0001557994   0.0000604948
        0.0000100385   0.0000136180  -0.0000536713   0.0000015024  -0.0000487850
       -0.0000803761  -0.0000057951   0.0000422616   0.0001238753   0.0000087168
       -0.0000588826  -0.0000416581   0.0000774747   0.0000660285  -0.0000094885
        0.0001393024  -0.0001839471   0.0000199019   0.0002618715  -0.0023676742
       -0.0001937819   0.0011718940
       -0.0010737904   0.0080906046   0.0064046924  -0.0022652347   0.0057040200
       -0.0437002531   0.1757741877   0.1347560313   0.2616729808  -0.0959374919
       -0.0380769645  -0.1094230352  -0.0237571282   0.0384312992   0.0040040121
       -0.0167871802  -0.0165373973  -0.0216692482   0.0341109941  -0.0232480678
        0.0105915691  -0.0443418413  -0.0867094211  -0.1073322763  -0.0048600870
       -0.0017403639   0.0041476223   0.0014191263  -0.0007571714   0.0005035643
       -0.0007904317  -0.0002879869   0.0012796998   0.0010893887   0.0003781193
        0.0002755776  -0.0004181155  -0.0004324940  -0.0008334701   0.0001641557
        0.0000368758   0.0001162516  -0.0000843408   0.0000980039   0.0000410604
        0.0001675535  -0.0002304610   0.0001658169  -0.0001310536   0.0000029593
       -0.0000532217  -0.0000075762   0.0000260363   0.0000231144   0.0000002598
        0.0000223737   0.0000078099   0.0000374933   0.0000285687   0.0000020882
       -0.0000506702  -0.0000149926  -0.0000002424  -0.0000362004   0.0000278792
       -0.0000023796  -0.0000140744  -0.0000610468  -0.0000056553  -0.0000405605
        0.0000619643   0.0000100493  -0.0000279003  -0.0000229774   0.0000024537
       -0.0000473375  -0.0000023717   0.0000028650   0.0000423629  -0.0000205354
       -0.0000047352   0.0000206655  -0.0000295116   0.0000014598   0.0000289785
        0.0000064101  -0.0000026658   0.0000552058   0.0001935100  -0.0001489842
       -0.0000719630  -0.0003880191  -0.0001986584  -0.0017080289   0.0009545009
        0.0011850333   0.0021619963   0.0007169404  -0.0039533855  -0.0124615810
       -0.0035808004  -0.0073198257  -0.0027312550  -0.0011443022   0.0056660568
       -0.0002645101  -0.0003253350  -0.0003218646  -0.0027733947  -0.0016618579
        0.0060753428  -0.0050485362  -0.0142855062  -0.0078283946   0.0000943019
        0.0000348249  -0.0001155064   0.0002758432   0.0001209951   0.0006102793
        0.0000640956  -0.0000459224  -0.0000344646   0.0000117683  -0.0000049371
       -0.0000125646  -0.0000046630  -0.0000081736  -0.0000047156  -0.0000000670
       -0.0000079571   0.0000005922   0.0000046268  -0.0000037076  -0.0000011919
        0.0000046340   0.0000007296  -0.0000012825   0.0000050823   0.0000018874
        0.0000006624   0.0000036778   0.0000049458   0.0000024630  -0.0000029161
        0.0000084816  -0.0000002099  -0.0000070515   0.0000090397   0.0000043689
       -0.0000067413   0.0000558774   0.0000251500  -0.0001080051  -0.0000014971
        0.0000313893  -0.0000200727   0.0001343593   0.0004638963   0.0003434020
       -0.0002774586  -0.0003496905
       -0.0027132185  -0.0047807147  -0.0029610618  -0.0394518811   0.0245369414
       -0.0123386760  -0.2256004310  -0.0134915093  -0.0959374919   0.5274822248
       -0.0837414821   0.1866050394  -0.1862860812   0.0927937823  -0.0404652906
        0.0339452319   0.0493388301   0.0363590357  -0.0427275194   0.0178879192
       -0.0152388752  -0.0001975750  -0.0598207150  -0.0245502152   0.0092643842
        0.0036751513   0.0000351177  -0.0060730266   0.0033219739   0.0000944635
        0.0042995580   0.0031231513  -0.0019065356  -0.0072827310  -0.0015025418
        0.0001270916   0.0066641521   0.0008624633   0.0001019744  -0.0026405582
       -0.0022025616   0.0013523634   0.0023276757  -0.0008611907   0.0006826089
       -0.0019327571  -0.0001695637   0.0000035967   0.0003232164   0.0000116661
        0.0000136129   0.0001472222  -0.0001685756  -0.0000437499   0.0000838661
        0.0001090271   0.0000527519   0.0000799876   0.0000181216  -0.0000710283
       -0.0000543101  -0.0001006413  -0.0000056125   0.0000035143   0.0000353118
       -0.0000080426  -0.0001868292  -0.0001397011  -0.0000789825  -0.0002197259
        0.0001048378   0.0000818858   0.0000160947  -0.0000449746   0.0000060717
       -0.0000709181   0.0001043204   0.0000047479   0.0000729106   0.0000146079
        0.0000637627   0.0000773772  -0.0000824408  -0.0000616463   0.0001090738
        0.0002032687   0.0000363365   0.0020241380   0.0013415897  -0.0007514988
       -0.0030770382   0.0015922294  -0.0012665278   0.0046066672  -0.0019245204
        0.0010524617  -0.0040472824  -0.0040183464   0.0015102439  -0.0512619997
       -0.0446383959  -0.0248364497  -0.0204380316   0.0195124762  -0.0038271470
        0.0019223043  -0.0005200177  -0.0022328327  -0.0003358258   0.0004071344
       -0.0001048598   0.0016649928   0.0000836047  -0.0019719093  -0.0001081514
       -0.0001143112   0.0002489068  -0.0000362087  -0.0000752941  -0.0001575422
       -0.0000292434   0.0001110273  -0.0000417606  -0.0000172444   0.0000772561
        0.0000246047   0.0000328183  -0.0000696144  -0.0000035899   0.0000499568
        0.0000097168   0.0000021449  -0.0000090406  -0.0000026054  -0.0000013820
       -0.0000796822  -0.0000398529  -0.0000017674  -0.0000691226   0.0000393869
        0.0000010072   0.0000146983  -0.0000147612  -0.0000002580  -0.0000304887
       -0.0000119859  -0.0000053989   0.0000324296   0.0000732097   0.0000011966
       -0.0000102729  -0.0000961434  -0.0000187885   0.0000162953  -0.0000975028
        0.0000660496  -0.0000132128  -0.0000314899   0.0000322558  -0.0002603827
       -0.0006275515   0.0003295895
        0.0014697147   0.0013204755   0.0010667006   0.0221047499  -0.0045574161
        0.0077745140  -0.0510680837  -0.0871706889  -0.0380769645  -0.0837414821
        0.6241186793   0.1463767487   0.1618132988  -0.2261482939   0.0166018192
       -0.0023379026  -0.0610691413  -0.0253094300   0.0225204376  -0.0061934031
        0.0113376738  -0.0280199831   0.0102799575  -0.0105611531   0.0024388091
       -0.0004982783  -0.0010468814  -0.0011437610   0.0006559901   0.0006518951
        0.0014760417   0.0020129215  -0.0012494407  -0.0042789388  -0.0004413774
       -0.0000856419   0.0042611409   0.0006451925   0.0000525509  -0.0018015362
       -0.0016173087   0.0010440029   0.0018434935  -0.0010413123   0.0006247028
       -0.0024898096  -0.0002547533   0.0000096496   0.0014108526   0.0001851856
       -0.0000113063  -0.0001071079   0.0002439873  -0.0002679600   0.0001460877
       -0.0000247887  -0.0000557126  -0.0001156978   0.0001808917   0.0000673541
        0.0001037974   0.0003556716   0.0000070292   0.0000624769  -0.0005121665
        0.0000034204  -0.0002495769   0.0003860344   0.0000206805  -0.0001379978
       -0.0004464866  -0.0000180789  -0.0000672056   0.0005172472  -0.0000055876
        0.0001761171  -0.0003265136  -0.0000123416  -0.0000599808  -0.0002107970
       -0.0000637671   0.0001392961   0.0000561144   0.0000527899  -0.0000556808
       -0.0002827777   0.0002678993   0.0015138980   0.0013628296  -0.0006511023
       -0.0021124925   0.0012685729  -0.0009132288   0.0024144873  -0.0015334881
        0.0007128313  -0.0018876154  -0.0012940035   0.0017598586  -0.0437901344
       -0.2445487964  -0.1016217036   0.0001298100   0.0013514507   0.0002384809
       -0.0001159126  -0.0039007876  -0.0041846534   0.0002780081   0.0004921126
        0.0006043926  -0.0005844089  -0.0035140600  -0.0045542477  -0.0000175555
       -0.0000162109   0.0000281361  -0.0001370576  -0.0000643971  -0.0003035827
       -0.0001130226   0.0000696850   0.0001087792   0.0000017923   0.0000683063
        0.0001152427  -0.0000143077   0.0000358995   0.0000092711  -0.0000395830
       -0.0000593349   0.0000027594   0.0000232570  -0.0000169777   0.0000008137
        0.0000894634   0.0000275656   0.0000060639   0.0000802040  -0.0000243063
       -0.0000095438  -0.0000011889   0.0000349907  -0.0000030820   0.0000132662
        0.0000613454  -0.0000010680  -0.0000113544  -0.0000430064  -0.0000055430
        0.0000333495  -0.0000772113  -0.0001280949  -0.0000371830  -0.0000840814
       -0.0001071570   0.0000928695  -0.0000497021  -0.0001893283  -0.0001001578
        0.0002907602  -0.0001094590
        0.0004218686  -0.0011661284  -0.0016228140  -0.0117886771   0.0047593149
        0.0007956101  -0.1126851786  -0.0106548798  -0.1094230352   0.1866050394
        0.1463767487   0.2621564006  -0.0149900689  -0.0157628934  -0.0591767224
        0.0170034289   0.0005450025   0.0106955217  -0.0141235868   0.0088672854
       -0.0079291329  -0.0105452333  -0.0331303946  -0.0191472335   0.0033060709
        0.0010736827   0.0016486660  -0.0018666517   0.0004126428  -0.0004335686
        0.0013030543   0.0011362237  -0.0007272744  -0.0022839214  -0.0004138058
        0.0000163351   0.0022706161   0.0002183366   0.0000030006  -0.0009421018
       -0.0007717449   0.0004712998   0.0008801349  -0.0003873140   0.0002497858
       -0.0009958340  -0.0001148829   0.0000155742   0.0003834739   0.0000370204
       -0.0000048684   0.0000328610  -0.0000386175  -0.0000781353   0.0000574551
        0.0000352375   0.0000152825  -0.0000167435   0.0000264422  -0.0000157055