 Entering Gaussian System
 *********************************************
 Gaussian 98:
 frequency output generated by the xtb code
 *********************************************
                         Standard orientation:
 --------------------------------------------------------------------
  Center     Atomic     Atomic              Coordinates (Angstroms)
  Number     Number      Type              X           Y           Z
 --------------------------------------------------------------------
    1          8             0        2.499082    0.389746    3.936300
    2          6             0        2.440488   -0.061056    2.797325
    3          6             0        1.187756   -0.696942    2.304729
    4          6             0        1.209602   -1.854701    1.528229
    5          6             0        0.025328   -2.448668    1.139792
    6          6             0       -1.200378   -1.887347    1.492987
    7          6             0       -2.454935   -2.576864    1.084391
    8          8             0       -2.519350   -3.801324    1.089328
    9          6             0       -3.593763   -1.738548    0.690858
   10          6             0       -4.885201   -2.272475    0.770154
   11          6             0       -5.984135   -1.533902    0.405482
   12          6             0       -5.832280   -0.227885   -0.082420
   13          7             0       -6.932194    0.520674   -0.455456
   14          6             0       -8.098888   -0.103787   -0.934497
   15          6             0       -9.351988    0.351654   -0.529834
   16          6             0      -10.498450   -0.250107   -1.013819
   17          6             0      -10.411863   -1.313392   -1.897981
   18          6             0       -9.167209   -1.768877   -2.302486
   19          6             0       -8.015359   -1.167654   -1.830966
   20          6             0       -6.917552    1.924205   -0.360197
   21          6             0       -7.493051    2.699077   -1.365487
   22          6             0       -7.496870    4.077495   -1.262839
   23          6             0       -6.923500    4.700298   -0.165955
   24          6             0       -6.350586    3.933137    0.835709
   25          6             0       -6.349543    2.553869    0.745975
   26          6             0       -4.536703    0.297383   -0.190978
   27          6             0       -3.441266   -0.440580    0.191771
   28          6             0       -1.222492   -0.742195    2.287941
   29          6             0       -0.038238   -0.163735    2.698941
   30          6             0        3.584186   -0.004781    1.878870
   31          6             0        3.442841   -0.042297    0.487505
   32          6             0        4.543994    0.035808   -0.332483
   33          6             0        5.834467    0.149320    0.203974
   34          7             0        6.941035    0.213973   -0.621213
   35          6             0        8.092856    0.919181   -0.225067
   36          6             0        7.982507    2.161506    0.396882
   37          6             0        9.119528    2.854265    0.768116
   38          6             0       10.375599    2.325334    0.517670
   39          6             0       10.488756    1.092770   -0.105042
   40          6             0        9.357274    0.389105   -0.473000
   41          6             0        6.943919   -0.419434   -1.876967
   42          6             0        6.384166   -1.686503   -2.032448
   43          6             0        6.400306   -2.305196   -3.268288
   44          6             0        6.981747   -1.678227   -4.358686
   45          6             0        7.546905   -0.422433   -4.205840
   46          6             0        7.527837    0.207978   -2.975881
   47          6             0        5.974962    0.205633    1.598112
   48          6             0        4.870546    0.140182    2.411744
   49          1             0        2.153122   -2.303617    1.256541
   50          1             0        0.030249   -3.355446    0.552429
   51          1             0       -5.000655   -3.276607    1.151932
   52          1             0       -6.973827   -1.954128    0.502601
   53          1             0       -9.419321    1.176163    0.164813
   54          1             0      -11.464793    0.109079   -0.691772
   55          1             0      -11.309166   -1.783508   -2.271291
   56          1             0       -9.091083   -2.592260   -2.997396
   57          1             0       -7.045646   -1.515367   -2.156300
   58          1             0       -7.935077    2.214155   -2.223531
   59          1             0       -7.943971    4.668476   -2.048584
   60          1             0       -6.925542    5.777238   -0.090704
   61          1             0       -5.909070    4.410418    1.698318
   62          1             0       -5.914948    1.956284    1.533996
   63          1             0       -4.401349    1.289074   -0.595985
   64          1             0       -2.452660   -0.024296    0.069969
   65          1             0       -2.166713   -0.326130    2.606115
   66          1             0       -0.042781    0.714225    3.328635
   67          1             0        2.458279   -0.096226    0.048067
   68          1             0        4.416436    0.025512   -1.404577
   69          1             0        7.003580    2.579266    0.582096
   70          1             0        9.022802    3.817231    1.247722
   71          1             0       11.261211    2.871463    0.805640
   72          1             0       11.464256    0.672285   -0.300281
   73          1             0        9.445440   -0.573921   -0.954185
   74          1             0        5.943363   -2.181884   -1.179594
   75          1             0        5.964758   -3.287601   -3.377333
   76          1             0        6.995473   -2.166625   -5.321372
   77          1             0        8.000618    0.073880   -5.051078
   78          1             0        7.963497    1.189358   -2.858571
   79          1             0        6.960385    0.289846    2.030881
   80          1             0        4.977942    0.175154    3.486258
 --------------------------------------------------------------------
     1 basis functions        1 primitive gaussians
     1 alpha electrons        1 beta electrons
 
 Harmonic frequencies (cm**-1), IR intensities (km*mol⁻¹),
 Raman scattering activities (A**4/amu), Raman depolarization ratios,
 reduced masses (AMU), force constants (mDyne/A) and normal coordinates:
                      1                      2                      3
                        a                      a                      a 
 Frequencies --     7.3177                 9.4833                10.1599
 Red. masses --    11.5624                10.9568                11.1191
 Frc consts  --     0.0000                 0.0000                 0.0000
 IR Inten    --     0.4499                 0.1994                 0.2324
 Raman Activ --     0.0000                 0.0000                 0.0000
 Depolar     --     0.0000                 0.0000                 0.0000
 Atom AN      X      Y      Z        X      Y      Z        X      Y      Z
   1   8    -0.02   0.18  -0.10     0.04  -0.00   0.05     0.04   0.06   0.08
   2   6     0.00   0.12  -0.08     0.02   0.01   0.04     0.02   0.05   0.07
   3   6     0.00   0.12  -0.09     0.01   0.03   0.04     0.02   0.04   0.09
   4   6     0.01   0.12  -0.09     0.01   0.04   0.02     0.02   0.04   0.08
   5   6     0.02   0.12  -0.09     0.01   0.04   0.03     0.02   0.04   0.09
   6   6     0.01   0.11  -0.08     0.01   0.03   0.05     0.02   0.03   0.10
   7   6     0.02   0.09  -0.08     0.01   0.02   0.07     0.02   0.03   0.09
   8   8     0.05   0.10  -0.11     0.01   0.03   0.11     0.03   0.03   0.11
   9   6    -0.01   0.06  -0.05     0.00   0.02   0.06     0.03   0.03   0.06
  10   6     0.01   0.02  -0.04     0.00   0.02   0.07     0.03   0.00  -0.01
  11   6    -0.02  -0.00  -0.01     0.00   0.01   0.05     0.04  -0.01  -0.04
  12   6    -0.06   0.01   0.00     0.00  -0.01   0.01     0.04   0.01   0.00
  13   7    -0.10  -0.02   0.03     0.01  -0.02  -0.02     0.04  -0.00  -0.03
  14   6    -0.07  -0.05   0.02     0.00  -0.04   0.01     0.09  -0.01  -0.12
  15   6    -0.09  -0.09   0.02     0.01  -0.02   0.00     0.05  -0.07  -0.17
  16   6    -0.07  -0.11   0.01     0.00  -0.04   0.03     0.09  -0.08  -0.26
  17   6    -0.04  -0.10  -0.00    -0.00  -0.07   0.07     0.18  -0.04  -0.30
  18   6    -0.02  -0.06  -0.01    -0.00  -0.09   0.08     0.21   0.02  -0.25
  19   6    -0.04  -0.03   0.00    -0.00  -0.07   0.05     0.17   0.03  -0.16
  20   6    -0.14  -0.02   0.06     0.00  -0.02  -0.08    -0.00  -0.01   0.04
  21   6    -0.16  -0.01   0.09     0.01  -0.07  -0.12     0.02   0.03   0.05
  22   6    -0.21  -0.02   0.12     0.00  -0.06  -0.19    -0.03   0.02   0.12
  23   6    -0.22  -0.03   0.14     0.00  -0.01  -0.22    -0.09  -0.02   0.18
  24   6    -0.20  -0.04   0.12     0.00   0.04  -0.18    -0.10  -0.05   0.16
  25   6    -0.15  -0.03   0.08     0.00   0.04  -0.11    -0.06  -0.04   0.09
  26   6    -0.08   0.05  -0.00     0.00  -0.01   0.01     0.03   0.04   0.08
  27   6    -0.05   0.08  -0.03     0.00   0.01   0.03     0.03   0.04   0.10
  28   6     0.00   0.11  -0.09     0.01   0.03   0.05     0.02   0.02   0.12
  29   6     0.00   0.12  -0.09     0.02   0.03   0.05     0.02   0.02   0.11
  30   6     0.02   0.09  -0.06     0.01   0.01   0.03     0.00   0.05   0.05
  31   6     0.05   0.08  -0.06    -0.01   0.08   0.03    -0.03   0.05   0.05
  32   6     0.07   0.04  -0.03    -0.01   0.08   0.02    -0.05   0.04   0.03
  33   6     0.06   0.00  -0.01    -0.00   0.00   0.01    -0.03   0.02   0.00
  34   7     0.09  -0.04   0.02    -0.01   0.00  -0.00    -0.06  -0.01  -0.03
  35   6     0.10  -0.08   0.04     0.03  -0.08   0.03    -0.03  -0.03  -0.05
  36   6     0.14  -0.08   0.04     0.09  -0.11   0.10     0.01  -0.02  -0.06
  37   6     0.16  -0.12   0.06     0.13  -0.19   0.13     0.04  -0.04  -0.10
  38   6     0.14  -0.16   0.08     0.10  -0.24   0.10     0.02  -0.07  -0.12
  39   6     0.11  -0.16   0.08     0.04  -0.21   0.03    -0.02  -0.08  -0.10
  40   6     0.09  -0.12   0.06    -0.00  -0.13  -0.01    -0.04  -0.06  -0.07
  41   6     0.09  -0.04   0.02    -0.06   0.09  -0.05    -0.09  -0.01  -0.02
  42   6     0.05  -0.02   0.01    -0.12   0.13  -0.13    -0.12  -0.00  -0.00
  43   6     0.06  -0.03   0.01    -0.16   0.22  -0.18    -0.17  -0.01  -0.00
  44   6     0.09  -0.04   0.02    -0.15   0.27  -0.14    -0.18  -0.03  -0.02
  45   6     0.13  -0.06   0.03    -0.08   0.23  -0.06    -0.15  -0.04  -0.04
  46   6     0.12  -0.06   0.03    -0.04   0.14  -0.01    -0.10  -0.03  -0.04
  47   6     0.04   0.00  -0.00     0.02  -0.08   0.01    -0.00   0.02  -0.00
  48   6     0.02   0.04  -0.03     0.03  -0.07   0.02     0.02   0.03   0.02
  49   1     0.00   0.04  -0.03     0.00   0.01   0.00     0.01   0.02   0.02
  50   1     0.01   0.03  -0.03     0.00   0.01   0.01     0.01   0.01   0.02
  51   1     0.01   0.00  -0.02     0.00   0.01   0.03     0.01  -0.00  -0.01
  52   1    -0.00  -0.01  -0.00     0.00   0.00   0.02     0.01  -0.01  -0.03
  53   1    -0.03  -0.03   0.01     0.00   0.00  -0.01    -0.00  -0.03  -0.04
  54   1    -0.02  -0.04   0.01     0.00  -0.01   0.01     0.02  -0.04  -0.09
  55   1    -0.01  -0.03  -0.00    -0.00  -0.03   0.03     0.06  -0.01  -0.11
  56   1     0.00  -0.01  -0.01    -0.00  -0.03   0.03     0.08   0.01  -0.08
  57   1    -0.01   0.00  -0.00    -0.00  -0.02   0.02     0.06   0.02  -0.03
  58   1    -0.04  -0.00   0.02     0.00  -0.03  -0.03     0.02   0.02   0.00
  59   1    -0.07  -0.00   0.04     0.00  -0.03  -0.06    -0.00   0.01   0.04
  60   1    -0.08  -0.01   0.05     0.00  -0.00  -0.08    -0.04  -0.01   0.07
  61   1    -0.06  -0.01   0.04    -0.00   0.02  -0.06    -0.04  -0.02   0.06
  62   1    -0.04  -0.01   0.02     0.00   0.02  -0.02    -0.02  -0.02   0.02
  63   1    -0.03   0.02   0.00     0.00  -0.00  -0.00     0.01   0.01   0.03
  64   1    -0.02   0.03  -0.01     0.00   0.00   0.01     0.01   0.02   0.05
  65   1     0.00   0.03  -0.02     0.00   0.01   0.02     0.00   0.00   0.04
  66   1    -0.00   0.03  -0.03     0.01   0.01   0.02     0.00   0.01   0.04
  67   1     0.02   0.03  -0.02    -0.00   0.04   0.01    -0.01   0.02   0.02
  68   1     0.03   0.01  -0.01    -0.01   0.04   0.01    -0.02   0.01   0.01
  69   1     0.04  -0.01   0.01     0.03  -0.02   0.04     0.01   0.00  -0.01
  70   1     0.05  -0.03   0.02     0.05  -0.06   0.05     0.02  -0.01  -0.03
  71   1     0.05  -0.06   0.03     0.04  -0.09   0.04     0.01  -0.03  -0.04
  72   1     0.03  -0.06   0.03     0.00  -0.07   0.00    -0.01  -0.03  -0.03
  73   1     0.02  -0.04   0.02    -0.02  -0.03  -0.02    -0.02  -0.02  -0.02
  74   1     0.01  -0.00   0.00    -0.04   0.02  -0.05    -0.03   0.00   0.00
  75   1     0.01  -0.00   0.00    -0.06   0.07  -0.07    -0.05   0.00   0.00
  76   1     0.03  -0.01   0.01    -0.05   0.10  -0.05    -0.06  -0.01  -0.00
  77   1     0.04  -0.02   0.01    -0.02   0.08  -0.01    -0.05  -0.01  -0.01
  78   1     0.04  -0.02   0.01     0.00   0.03   0.02    -0.02  -0.01  -0.01
  79   1     0.01  -0.01   0.01     0.01  -0.04  -0.00     0.00   0.00  -0.01
  80   1    -0.00   0.01  -0.01     0.01  -0.03   0.01     0.01   0.01   0.01
                      4                      5                      6
                        a                      a                      a 
 Frequencies --    19.5027                27.2597                40.1696
 Red. masses --    11.6652                12.3204                10.9909
 Frc consts  --     0.0000                 0.0000                 0.0000
 IR Inten    --     0.2607                 0.5565                 1.1580
 Raman Activ --     0.0000                 0.0000                 0.0000
 Depolar     --     0.0000                 0.0000                 0.0000
 Atom AN      X      Y      Z        X      Y      Z        X      Y      Z
   1   8     0.13  -0.19  -0.00     0.10  -0.26   0.19    -0.01  -0.14  -0.02
   2   6     0.08  -0.14  -0.01     0.07  -0.12   0.13    -0.02  -0.04  -0.05
   3   6     0.04  -0.07   0.00     0.07  -0.07   0.07    -0.01  -0.06  -0.05
   4   6    -0.03  -0.08   0.02     0.07  -0.04   0.02    -0.00   0.03  -0.19
   5   6    -0.07  -0.03   0.05     0.07   0.01  -0.06    -0.00   0.02  -0.18
   6   6    -0.04   0.04   0.07     0.07   0.04  -0.10    -0.00  -0.09  -0.03
   7   6    -0.07   0.07   0.13     0.08   0.07  -0.18    -0.01  -0.07  -0.03
   8   8    -0.13   0.08   0.19     0.11   0.08  -0.34    -0.01  -0.08  -0.17
   9   6    -0.06   0.09   0.13     0.06   0.09  -0.10    -0.02  -0.03   0.08
  10   6    -0.07   0.09   0.13     0.07   0.06  -0.09    -0.03  -0.01   0.08
  11   6    -0.06   0.08   0.10     0.06   0.06  -0.05    -0.02   0.03   0.13
  12   6    -0.06   0.07   0.07     0.02   0.07  -0.03    -0.00   0.04   0.16
  13   7    -0.06   0.05   0.02    -0.00   0.04  -0.02     0.00   0.03   0.15
  14   6    -0.02   0.01  -0.02     0.00  -0.00   0.02     0.04   0.01   0.07
  15   6    -0.05  -0.03  -0.07     0.00  -0.05   0.07     0.01  -0.02   0.02
  16   6    -0.01  -0.06  -0.12     0.01  -0.09   0.12     0.05  -0.04  -0.04
  17   6     0.05  -0.06  -0.11     0.01  -0.09   0.12     0.11  -0.02  -0.06
  18   6     0.08  -0.03  -0.05     0.01  -0.04   0.06     0.14   0.01  -0.01
  19   6     0.05   0.00  -0.01     0.01   0.01   0.02     0.11   0.03   0.06
  20   6    -0.09   0.05  -0.01    -0.05   0.04  -0.04    -0.00   0.04   0.05
  21   6    -0.09   0.01  -0.04    -0.11  -0.01  -0.04     0.02  -0.03  -0.02
  22   6    -0.14   0.01  -0.07    -0.17  -0.00  -0.07     0.01  -0.02  -0.11
  23   6    -0.18   0.05  -0.07    -0.18   0.05  -0.10    -0.01   0.05  -0.14
  24   6    -0.17   0.09  -0.04    -0.12   0.09  -0.09    -0.04   0.12  -0.07
  25   6    -0.13   0.09  -0.01    -0.05   0.09  -0.07    -0.03   0.11   0.02
  26   6    -0.06   0.08   0.10     0.01   0.10  -0.02    -0.00   0.04   0.20
  27   6    -0.06   0.08   0.12     0.03   0.11  -0.05    -0.01   0.00   0.16
  28   6     0.04   0.05   0.05     0.07   0.00  -0.05    -0.01  -0.19   0.12
  29   6     0.08  -0.00   0.02     0.07  -0.05   0.03    -0.01  -0.18   0.11
  30   6     0.07  -0.16  -0.02     0.06  -0.06   0.12    -0.04   0.06  -0.07
  31   6     0.07  -0.16  -0.02     0.03   0.00   0.12    -0.05   0.16  -0.07
  32   6     0.06  -0.14  -0.03     0.01   0.03   0.10    -0.06   0.19  -0.07
  33   6     0.06  -0.11  -0.03     0.02   0.00   0.07    -0.05   0.13  -0.07
  34   7     0.06  -0.05  -0.03     0.00  -0.00   0.05    -0.05   0.12  -0.08
  35   6     0.02   0.01  -0.01     0.01   0.01  -0.00    -0.03   0.06  -0.03
  36   6    -0.05  -0.01   0.01     0.01   0.01   0.01     0.00   0.07  -0.04
  37   6    -0.09   0.05   0.02     0.01   0.03  -0.05     0.02   0.01   0.03
  38   6    -0.06   0.12   0.02     0.01   0.06  -0.11     0.00  -0.06   0.11
  39   6     0.01   0.14   0.00     0.01   0.06  -0.12    -0.02  -0.07   0.12
  40   6     0.05   0.08  -0.02     0.00   0.04  -0.06    -0.04  -0.01   0.05
  41   6     0.09  -0.01  -0.05    -0.05  -0.02   0.05    -0.02   0.04  -0.03
  42   6     0.14  -0.03  -0.09    -0.05  -0.03   0.10    -0.10   0.07   0.01
  43   6     0.18   0.01  -0.10    -0.12  -0.05   0.11    -0.06  -0.01   0.05
  44   6     0.16   0.05  -0.08    -0.17  -0.07   0.07     0.08  -0.13   0.06
  45   6     0.11   0.07  -0.04    -0.16  -0.06   0.02     0.16  -0.16   0.02
  46   6     0.08   0.04  -0.03    -0.10  -0.04   0.01     0.11  -0.08  -0.03
  47   6     0.07  -0.13  -0.03     0.05  -0.03   0.07    -0.05   0.08  -0.07
  48   6     0.07  -0.16  -0.03     0.07  -0.07   0.09    -0.04   0.04  -0.07
  49   1    -0.02  -0.04   0.00     0.02  -0.02   0.01     0.00   0.03  -0.09
  50   1    -0.04  -0.01   0.02     0.02   0.01  -0.03     0.00   0.03  -0.09
  51   1    -0.02   0.03   0.04     0.03   0.01  -0.04    -0.01  -0.01   0.01
  52   1    -0.02   0.02   0.02     0.02   0.01  -0.01    -0.01   0.01   0.03
  53   1    -0.03  -0.01  -0.02    -0.00  -0.01   0.02    -0.01  -0.01   0.01
  54   1    -0.01  -0.03  -0.05     0.00  -0.04   0.05     0.01  -0.02  -0.02
  55   1     0.02  -0.03  -0.04     0.00  -0.04   0.04     0.04  -0.01  -0.03
  56   1     0.04  -0.01  -0.01     0.00  -0.01   0.02     0.06   0.01  -0.01
  57   1     0.02   0.01   0.01     0.00   0.01  -0.01     0.04   0.02   0.03
  58   1    -0.02  -0.01  -0.01    -0.03  -0.01  -0.01     0.01  -0.03   0.00
  59   1    -0.04  -0.01  -0.03    -0.06  -0.01  -0.02     0.01  -0.02  -0.05
  60   1    -0.06   0.02  -0.03    -0.07   0.01  -0.03    -0.00   0.02  -0.06
  61   1    -0.06   0.03  -0.01    -0.04   0.04  -0.03    -0.02   0.05  -0.03
  62   1    -0.04   0.03   0.00    -0.00   0.04  -0.02    -0.01   0.05   0.02
  63   1    -0.02   0.02   0.03    -0.00   0.03   0.00     0.00   0.02   0.07
  64   1    -0.02   0.02   0.04     0.01   0.04  -0.01    -0.00   0.00   0.05
  65   1     0.02   0.03   0.02     0.02   0.01  -0.02    -0.00  -0.08   0.07
  66   1     0.04   0.00   0.00     0.02  -0.02   0.02    -0.00  -0.07   0.06
  67   1     0.02  -0.05  -0.00     0.01   0.01   0.04    -0.02   0.06  -0.02
  68   1     0.02  -0.04  -0.01    -0.00   0.02   0.03    -0.02   0.07  -0.02
  69   1    -0.02  -0.02   0.00     0.00  -0.00   0.02     0.00   0.03  -0.03
  70   1    -0.04   0.01   0.01     0.01   0.01  -0.01     0.01   0.00   0.01
  71   1    -0.03   0.05   0.01     0.00   0.02  -0.05     0.00  -0.03   0.05
  72   1     0.01   0.06  -0.00     0.00   0.02  -0.05    -0.01  -0.04   0.05
  73   1     0.03   0.03  -0.01    -0.00   0.01  -0.02    -0.02  -0.00   0.02
  74   1     0.04  -0.02  -0.03    -0.00  -0.00   0.04    -0.06   0.05   0.00
  75   1     0.06  -0.00  -0.04    -0.04  -0.01   0.04    -0.04   0.00   0.03
  76   1     0.06   0.02  -0.03    -0.06  -0.02   0.02     0.03  -0.06   0.03
  77   1     0.03   0.03  -0.01    -0.06  -0.02  -0.00     0.08  -0.07   0.01
  78   1     0.01   0.02   0.00    -0.03  -0.01  -0.01     0.05  -0.03  -0.02
  79   1     0.02  -0.03  -0.01     0.02  -0.01   0.01    -0.01   0.02  -0.02
  80   1     0.02  -0.05  -0.01     0.03  -0.03   0.03    -0.01  -0.01  -0.02
                      7                      8                      9
                        a                      a                      a 
 Frequencies --    42.3087                45.6646                48.4108
 Red. masses --    11.2442                10.3821                10.7764
 Frc consts  --     0.0000                 0.0000                 0.0000
 IR Inten    --     3.6023                 7.5482                 2.1102
 Raman Activ --     0.0000                 0.0000                 0.0000
 Depolar     --     0.0000                 0.0000                 0.0000
 Atom AN      X      Y      Z        X      Y      Z        X      Y      Z
   1   8    -0.03   0.26  -0.06    -0.10   0.00  -0.01    -0.12   0.15  -0.14
   2   6    -0.03   0.11  -0.00    -0.06  -0.03  -0.00    -0.06   0.06  -0.09
   3   6    -0.01   0.07   0.03    -0.05  -0.07   0.01    -0.04   0.04  -0.10
   4   6     0.03   0.06   0.05    -0.04  -0.13   0.11    -0.02   0.04  -0.10
   5   6     0.05   0.03   0.03    -0.04  -0.13   0.10    -0.01   0.01  -0.09
   6   6     0.03   0.02  -0.00    -0.04  -0.08   0.00    -0.02  -0.02  -0.08
   7   6     0.06   0.01  -0.05    -0.04  -0.05  -0.03    -0.02  -0.03  -0.05
   8   8     0.07   0.01  -0.10    -0.09  -0.06  -0.06    -0.01  -0.03  -0.11
   9   6     0.06   0.02  -0.05    -0.02  -0.01  -0.03    -0.04  -0.01   0.02
  10   6     0.06   0.03  -0.03    -0.04   0.05   0.05    -0.05   0.03   0.14
  11   6     0.06   0.05  -0.01    -0.02   0.09   0.07    -0.05   0.05   0.19
  12   6     0.07   0.05  -0.02     0.03   0.06   0.01    -0.04   0.02   0.12
  13   7     0.08   0.05  -0.01     0.03   0.08   0.02    -0.05   0.03   0.13
  14   6     0.08   0.01   0.01     0.05   0.03   0.01     0.00  -0.00   0.05
  15   6     0.07  -0.08   0.07     0.03  -0.08   0.06    -0.04  -0.02  -0.07
  16   6     0.09  -0.15   0.11     0.07  -0.17   0.07     0.02  -0.06  -0.14
  17   6     0.12  -0.12   0.09     0.13  -0.13   0.03     0.11  -0.09  -0.10
  18   6     0.13  -0.03   0.02     0.16  -0.01  -0.02     0.15  -0.07   0.02
  19   6     0.11   0.04  -0.02     0.12   0.07  -0.03     0.10  -0.03   0.09
  20   6     0.04   0.04   0.01     0.01   0.07   0.01    -0.01   0.02   0.07
  21   6    -0.07   0.03   0.06    -0.16   0.05   0.09    -0.02   0.01   0.07
  22   6    -0.10   0.03   0.07    -0.19   0.05   0.09     0.05   0.02   0.01
  23   6    -0.02   0.04   0.03    -0.05   0.08  -0.00     0.14   0.04  -0.05
  24   6     0.08   0.05  -0.03     0.12   0.10  -0.08     0.14   0.05  -0.03
  25   6     0.11   0.05  -0.04     0.15   0.10  -0.08     0.06   0.04   0.02
  26   6     0.08   0.03  -0.04     0.04   0.00  -0.06    -0.03  -0.01   0.02
  27   6     0.07   0.02  -0.06     0.02  -0.04  -0.08    -0.03  -0.03  -0.02
  28   6    -0.01   0.02  -0.01    -0.05  -0.03  -0.07    -0.04  -0.02  -0.08
  29   6    -0.03   0.05   0.01    -0.05  -0.02  -0.07    -0.05   0.01  -0.09
  30   6    -0.02   0.01  -0.01    -0.06  -0.00   0.00    -0.01  -0.00  -0.05
  31   6    -0.05   0.03  -0.00    -0.04  -0.16   0.00     0.03   0.01  -0.05
  32   6    -0.05  -0.04  -0.02    -0.04  -0.13   0.01     0.06  -0.01  -0.01
  33   6    -0.04  -0.14  -0.03    -0.05   0.04   0.01     0.04  -0.04   0.04
  34   7    -0.04  -0.14  -0.04    -0.06   0.05   0.02     0.07  -0.04   0.06
  35   6    -0.09  -0.06   0.01    -0.02  -0.00   0.01     0.04  -0.01   0.04
  36   6    -0.21  -0.08   0.02     0.06   0.06  -0.10     0.03  -0.09   0.21
  37   6    -0.28  -0.01   0.11     0.11   0.01  -0.15     0.02  -0.07   0.20
  38   6    -0.23   0.07   0.18     0.08  -0.11  -0.08     0.03   0.05   0.00
  39   6    -0.11   0.09   0.15    -0.01  -0.18   0.04     0.05   0.14  -0.17
  40   6    -0.05   0.03   0.07    -0.05  -0.12   0.08     0.06   0.11  -0.15
  41   6    -0.02  -0.08  -0.05    -0.02   0.05   0.01     0.02  -0.02   0.05
  42   6    -0.12  -0.03  -0.13     0.09   0.00   0.00     0.13  -0.08   0.11
  43   6    -0.11   0.01  -0.15     0.15   0.02  -0.01     0.04  -0.07   0.11
  44   6    -0.00  -0.00  -0.10     0.11   0.08   0.00    -0.17   0.00   0.04
  45   6     0.10  -0.06  -0.02    -0.00   0.12   0.02    -0.27   0.05  -0.02
  46   6     0.09  -0.10  -0.00    -0.07   0.11   0.03    -0.17   0.04  -0.02
  47   6    -0.01  -0.20  -0.04    -0.08   0.21   0.01     0.00  -0.09   0.04
  48   6    -0.01  -0.12  -0.02    -0.08   0.19  -0.00    -0.03  -0.06   0.00
  49   1     0.01   0.02   0.02    -0.01  -0.05   0.05    -0.00   0.02  -0.03
  50   1     0.02   0.01   0.01    -0.01  -0.05   0.05     0.00   0.00  -0.03
  51   1     0.02   0.01  -0.01    -0.02   0.02   0.03    -0.01   0.01   0.05
  52   1     0.02   0.02   0.00    -0.01   0.04   0.03    -0.02   0.03   0.08
  53   1     0.01  -0.03   0.03    -0.01  -0.03   0.02    -0.03   0.00  -0.03
  54   1     0.02  -0.06   0.05     0.01  -0.08   0.03    -0.01  -0.02  -0.07
  55   1     0.04  -0.05   0.04     0.05  -0.06   0.01     0.04  -0.03  -0.05
  56   1     0.05  -0.00  -0.00     0.06   0.00  -0.01     0.07  -0.03   0.01
  57   1     0.04   0.03  -0.02     0.04   0.05  -0.02     0.04  -0.01   0.05
  58   1    -0.04   0.01   0.03    -0.08   0.01   0.04    -0.02   0.00   0.03
  59   1    -0.05   0.01   0.03    -0.10   0.01   0.04     0.01   0.00   0.00
  60   1    -0.01   0.01   0.01    -0.02   0.02  -0.00     0.06   0.01  -0.03
  61   1     0.04   0.02  -0.02     0.07   0.03  -0.04     0.06   0.02  -0.02
  62   1     0.06   0.02  -0.02     0.08   0.03  -0.04     0.02   0.02   0.01
  63   1     0.02   0.01  -0.01     0.02  -0.01  -0.03    -0.01  -0.01  -0.01
  64   1     0.02   0.00  -0.02     0.01  -0.03  -0.04    -0.01  -0.02  -0.03
  65   1    -0.01   0.00  -0.01    -0.01   0.00  -0.04    -0.01  -0.01  -0.02
  66   1    -0.02   0.02  -0.00    -0.02   0.01  -0.04    -0.02   0.00  -0.03
  67   1    -0.02   0.03   0.00    -0.01  -0.09  -0.00     0.01   0.01  -0.02
  68   1    -0.02  -0.00  -0.01    -0.01  -0.07   0.00     0.03   0.00  -0.00
  69   1    -0.07  -0.04  -0.01     0.03   0.04  -0.04     0.01  -0.05   0.10
  70   1    -0.11  -0.01   0.03     0.05   0.02  -0.07    -0.00  -0.04   0.10
  71   1    -0.08   0.03   0.07     0.03  -0.04  -0.03     0.01   0.02  -0.00
  72   1    -0.02   0.05   0.06    -0.01  -0.08   0.03     0.02   0.07  -0.09
  73   1     0.01   0.01   0.01    -0.03  -0.05   0.04     0.02   0.05  -0.08
  74   1    -0.06  -0.01  -0.05     0.04  -0.01  -0.00     0.08  -0.03   0.05
  75   1    -0.06   0.02  -0.06     0.07  -0.01  -0.01     0.03  -0.03   0.04
  76   1     0.00   0.01  -0.03     0.05   0.02   0.00    -0.07   0.00   0.01
  77   1     0.05  -0.02   0.01    -0.01   0.05   0.01    -0.12   0.03  -0.02
  78   1     0.05  -0.04   0.01    -0.04   0.04   0.01    -0.07   0.02  -0.02
  79   1     0.00  -0.08  -0.01    -0.03   0.10   0.00    -0.00  -0.04   0.02
  80   1     0.00  -0.04  -0.01    -0.03   0.09  -0.00    -0.02  -0.03   0.00
                     10                     11                     12
                        a                      a                      a 
 Frequencies --    51.8347                52.3931                59.9701
 Red. masses --    11.2869                11.2679                10.5324
 Frc consts  --     0.0000                 0.0000                 0.0000
 IR Inten    --     5.7135                 2.7444                 0.2051
 Raman Activ --     0.0000                 0.0000                 0.0000
 Depolar     --     0.0000                 0.0000                 0.0000
 Atom AN      X      Y      Z        X      Y      Z        X      Y      Z
   1   8    -0.03   0.09   0.04    -0.09   0.34  -0.11     0.05   0.05  -0.00
   2   6    -0.01   0.03   0.06    -0.05   0.11  -0.03     0.01   0.01   0.01
   3   6     0.01   0.00   0.05    -0.02   0.01   0.05     0.01  -0.02   0.06
   4   6     0.03  -0.04   0.11     0.01   0.03   0.01     0.02  -0.06   0.11
   5   6     0.05  -0.02   0.05     0.03  -0.01   0.02     0.02  -0.05   0.09
   6   6     0.04   0.02  -0.06     0.01  -0.08   0.07     0.02  -0.01   0.03
   7   6     0.06   0.03  -0.15     0.03  -0.07  -0.02     0.03   0.02  -0.03
   8   8     0.12   0.03  -0.38     0.06  -0.08  -0.15     0.03   0.02  -0.11
   9   6     0.02   0.04  -0.02     0.03  -0.05   0.02     0.04   0.04  -0.02
  10   6     0.03   0.03   0.08     0.04  -0.09  -0.14     0.04   0.04  -0.03
  11   6    -0.00   0.01   0.15     0.04  -0.08  -0.12     0.05   0.04  -0.04
  12   6    -0.05   0.01   0.11     0.03  -0.01   0.05     0.05   0.04  -0.05
  13   7    -0.08  -0.02   0.13     0.04  -0.02   0.06     0.07   0.02  -0.10
  14   6    -0.04  -0.02   0.06     0.03   0.01   0.05     0.05   0.01  -0.05
  15   6    -0.06   0.08  -0.14     0.05  -0.03   0.16     0.06   0.09  -0.10
  16   6    -0.04   0.10  -0.22     0.02   0.04   0.13     0.04   0.05  -0.01
  17   6     0.01  -0.01  -0.09    -0.02   0.16  -0.01     0.01  -0.07   0.13
  18   6     0.04  -0.12   0.11    -0.04   0.19  -0.11     0.00  -0.13   0.16
  19   6     0.01  -0.12   0.18    -0.02   0.12  -0.08     0.02  -0.09   0.07
  20   6    -0.04  -0.01   0.07     0.01  -0.01   0.00     0.03   0.02  -0.05
  21   6     0.12  -0.02  -0.03     0.05  -0.08  -0.08     0.14   0.05  -0.09
  22   6     0.20  -0.02  -0.08    -0.03  -0.08  -0.14     0.07   0.04  -0.03
  23   6     0.11  -0.01  -0.03    -0.15  -0.00  -0.12    -0.10   0.01   0.08
  24   6    -0.06  -0.01   0.07    -0.18   0.07  -0.05    -0.19  -0.02   0.12
  25   6    -0.13  -0.01   0.12    -0.10   0.07   0.01    -0.12  -0.01   0.05
  26   6    -0.06   0.03   0.06     0.03   0.03   0.21     0.05   0.05  -0.01
  27   6    -0.03   0.05  -0.01     0.02   0.02   0.19     0.05   0.05   0.00
  28   6     0.01   0.04  -0.10    -0.02  -0.14   0.15     0.02   0.01   0.01
  29   6    -0.01   0.04  -0.05    -0.04  -0.09   0.13     0.01   0.00   0.02
  30   6    -0.01  -0.00   0.06    -0.03   0.02  -0.01    -0.02   0.00  -0.03
  31   6    -0.01  -0.10   0.06     0.01  -0.08  -0.01    -0.05  -0.06  -0.02
  32   6    -0.02  -0.13   0.05     0.03  -0.13   0.01    -0.08  -0.04  -0.05
  33   6    -0.02  -0.07   0.03     0.01  -0.08   0.03    -0.07   0.06  -0.09
  34   7    -0.02  -0.10   0.04     0.03  -0.10   0.06    -0.11   0.14  -0.13
  35   6    -0.03  -0.06   0.02     0.01  -0.06   0.03    -0.08   0.06  -0.07
  36   6    -0.05   0.02  -0.14     0.00  -0.06   0.03    -0.04  -0.01   0.08
  37   6    -0.05   0.06  -0.19     0.00  -0.02  -0.03    -0.03  -0.12   0.24
  38   6    -0.05   0.02  -0.09     0.01   0.02  -0.10    -0.04  -0.16   0.24
  39   6    -0.03  -0.06   0.08     0.02   0.02  -0.09    -0.07  -0.06   0.04
  40   6    -0.03  -0.10   0.13     0.02  -0.02  -0.02    -0.09   0.05  -0.11
  41   6    -0.01  -0.03   0.01     0.03  -0.04   0.02    -0.06   0.06  -0.09
  42   6    -0.04  -0.01  -0.08     0.13  -0.08  -0.01     0.12  -0.03   0.01
  43   6    -0.02   0.06  -0.12     0.14  -0.03  -0.03     0.21  -0.12   0.06
  44   6     0.03   0.10  -0.06     0.03   0.08  -0.03     0.11  -0.12   0.01
  45   6     0.07   0.08   0.03    -0.07   0.12  -0.00    -0.09  -0.01  -0.09
  46   6     0.04   0.01   0.06    -0.07   0.06   0.03    -0.17   0.07  -0.14
  47   6    -0.01   0.03   0.03    -0.02  -0.01   0.03    -0.04   0.08  -0.09
  48   6    -0.01   0.06   0.04    -0.04   0.04   0.01    -0.01   0.06  -0.06
  49   1     0.01  -0.02   0.06     0.01   0.02  -0.01     0.01  -0.02   0.04
  50   1     0.02  -0.01   0.02     0.02   0.01  -0.01     0.01  -0.02   0.04
  51   1     0.02   0.01   0.02     0.01  -0.04  -0.08     0.01   0.01  -0.01
  52   1     0.00   0.00   0.06     0.02  -0.04  -0.07     0.01   0.01  -0.01
  53   1    -0.03   0.05  -0.07     0.02  -0.03   0.07     0.02   0.05  -0.05
  54   1    -0.02   0.05  -0.11     0.01   0.00   0.06     0.02   0.03  -0.01
  55   1     0.01   0.00  -0.04    -0.01   0.06  -0.01     0.00  -0.03   0.06
  56   1     0.02  -0.06   0.06    -0.02   0.08  -0.06    -0.01  -0.06   0.08
  57   1     0.01  -0.06   0.09    -0.01   0.04  -0.05     0.00  -0.04   0.03
  58   1     0.06  -0.01  -0.02     0.04  -0.04  -0.03     0.07   0.02  -0.05
  59   1     0.10  -0.01  -0.05     0.00  -0.04  -0.06     0.04   0.02  -0.02
  60   1     0.05  -0.00  -0.02    -0.06   0.00  -0.05    -0.05   0.00   0.04
  61   1    -0.04  -0.00   0.03    -0.08   0.04  -0.01    -0.09  -0.01   0.06
  62   1    -0.07  -0.00   0.05    -0.04   0.04   0.02    -0.05  -0.01   0.02
  63   1    -0.03   0.01   0.01     0.01   0.02   0.10     0.01   0.02   0.00
  64   1    -0.01   0.02  -0.02     0.01   0.02   0.09     0.01   0.01   0.01
  65   1    -0.00   0.02  -0.05    -0.01  -0.06   0.06     0.00   0.01  -0.01
  66   1    -0.01   0.02  -0.02    -0.02  -0.03   0.05     0.00   0.01  -0.00
  67   1    -0.00  -0.04   0.02     0.00  -0.03  -0.01    -0.02  -0.04   0.00
  68   1    -0.01  -0.06   0.01     0.01  -0.06   0.00    -0.03  -0.02  -0.01
  69   1    -0.01   0.01  -0.06     0.00  -0.02   0.02    -0.01   0.01   0.03
  70   1    -0.02   0.04  -0.09    -0.00  -0.00  -0.01     0.00  -0.05   0.11
  71   1    -0.02   0.02  -0.04     0.00   0.02  -0.04    -0.01  -0.07   0.11
  72   1    -0.01  -0.03   0.05     0.01   0.01  -0.04    -0.03  -0.02   0.01
  73   1    -0.01  -0.04   0.07     0.01  -0.01  -0.01    -0.03   0.03  -0.07
  74   1    -0.02  -0.01  -0.04     0.06  -0.04  -0.00     0.06  -0.01   0.02
  75   1    -0.01   0.02  -0.05     0.06  -0.02  -0.02     0.11  -0.06   0.04
  76   1     0.01   0.05  -0.03     0.01   0.03  -0.02     0.05  -0.05   0.01
  77   1     0.03   0.03   0.02    -0.05   0.06  -0.00    -0.05  -0.00  -0.04
  78   1     0.02  -0.00   0.04    -0.05   0.03   0.02    -0.09   0.04  -0.06
  79   1    -0.00   0.02   0.01    -0.01   0.00   0.01    -0.01   0.03  -0.03
  80   1    -0.00   0.04   0.01    -0.02   0.03   0.00     0.00   0.03  -0.02
                     13                     14                     15
                        a                      a                      a 
 Frequencies --    64.8542                70.7780                75.2146
 Red. masses --    10.8240                10.6969                10.2921
 Frc consts  --     0.0000                 0.0000                 0.0000
 IR Inten    --     0.1101                 1.0711                 1.5154
 Raman Activ --     0.0000                 0.0000                 0.0000
 Depolar     --     0.0000                 0.0000                 0.0000
 Atom AN      X      Y      Z        X      Y      Z        X      Y      Z
   1   8    -0.11   0.04  -0.08    -0.02   0.04  -0.12    -0.04   0.07   0.05
   2   6    -0.07   0.01  -0.06     0.02  -0.01  -0.09    -0.03   0.04   0.06
   3   6    -0.05  -0.03  -0.05     0.04  -0.05  -0.09    -0.02   0.01   0.06
   4   6    -0.05   0.05  -0.17     0.04  -0.12   0.01     0.02   0.01   0.06
   5   6    -0.05   0.03  -0.14     0.04  -0.14   0.04     0.05  -0.03   0.04
   6   6    -0.05  -0.07   0.01     0.04  -0.09  -0.02     0.03  -0.05   0.01
   7   6    -0.07  -0.05   0.03     0.02  -0.09   0.02     0.04  -0.06  -0.01
   8   8    -0.13  -0.05   0.07    -0.02  -0.10   0.10     0.06  -0.07  -0.05
   9   6    -0.03  -0.00   0.01     0.03  -0.06   0.01     0.04  -0.05   0.00
  10   6    -0.05   0.05   0.00     0.02  -0.01   0.09     0.02  -0.00   0.12
  11   6    -0.01   0.08  -0.04     0.03   0.01   0.09     0.03   0.02   0.13
  12   6     0.05   0.06  -0.09     0.06  -0.01   0.03     0.05  -0.03   0.01
  13   7     0.10   0.08  -0.21     0.08  -0.00   0.01     0.05  -0.02   0.01
  14   6     0.07   0.04  -0.11     0.06   0.02   0.03     0.03  -0.00   0.02
  15   6     0.08   0.10  -0.14     0.07   0.11  -0.03     0.04   0.14  -0.09
  16   6     0.07  -0.02   0.03     0.05   0.19  -0.06     0.02   0.25  -0.16
  17   6     0.05  -0.18   0.22     0.00   0.17  -0.04    -0.03   0.19  -0.10
  18   6     0.04  -0.21   0.22    -0.01   0.06   0.03    -0.04   0.01   0.06
  19   6     0.05  -0.09   0.05     0.02  -0.02   0.07    -0.01  -0.08   0.12
  20   6     0.06   0.07  -0.10     0.05   0.00  -0.02     0.03  -0.02  -0.02
  21   6     0.12   0.12  -0.09    -0.01  -0.05  -0.03    -0.13  -0.05   0.04
  22   6     0.04   0.11   0.03    -0.17  -0.05  -0.00    -0.27  -0.06   0.07
  23   6    -0.10   0.05   0.14    -0.28  -0.00   0.02    -0.23  -0.02   0.03
  24   6    -0.14  -0.01   0.12    -0.18   0.05   0.01    -0.02   0.02  -0.06
  25   6    -0.06   0.00  -0.00    -0.01   0.05  -0.02     0.11   0.02  -0.08
  26   6     0.07   0.03  -0.04     0.07  -0.06  -0.03     0.06  -0.08  -0.09
  27   6     0.03  -0.01   0.02     0.06  -0.09  -0.05     0.05  -0.09  -0.09
  28   6    -0.05  -0.15   0.12     0.04  -0.02  -0.12    -0.01  -0.05   0.01
  29   6    -0.05  -0.13   0.09     0.04  -0.00  -0.15    -0.04  -0.02   0.04
  30   6    -0.04   0.00  -0.03     0.04  -0.01  -0.06    -0.03   0.02   0.05
  31   6     0.00   0.04  -0.03     0.07  -0.08  -0.06    -0.05   0.10   0.05
  32   6     0.04   0.01   0.01     0.08  -0.05  -0.04    -0.06   0.10   0.04
  33   6     0.02  -0.04   0.06     0.07   0.02  -0.02    -0.05   0.00   0.02
  34   7     0.06  -0.09   0.10     0.09  -0.01   0.00    -0.06   0.02   0.00
  35   6     0.04  -0.05   0.06     0.06   0.03   0.01    -0.04  -0.01   0.00
  36   6     0.04  -0.02  -0.01     0.01   0.06  -0.06     0.01  -0.06   0.11
  37   6     0.03   0.05  -0.14    -0.02   0.07   0.02     0.04  -0.07   0.03
  38   6     0.04   0.09  -0.18    -0.00   0.04   0.18     0.02  -0.01  -0.17
  39   6     0.04   0.03  -0.08     0.05   0.03   0.22    -0.02   0.02  -0.25
  40   6     0.05  -0.03   0.05     0.08   0.02   0.13    -0.05   0.02  -0.15
  41   6     0.04  -0.04   0.07     0.05  -0.03   0.01    -0.04   0.04  -0.00
  42   6    -0.01  -0.01   0.01    -0.05   0.01   0.05    -0.05   0.05  -0.04
  43   6    -0.05   0.05  -0.02    -0.23   0.04   0.03     0.08   0.02  -0.03
  44   6    -0.03   0.08   0.01    -0.31   0.03  -0.02     0.23  -0.03   0.03
  45   6     0.03   0.05   0.06    -0.16  -0.04  -0.04     0.20  -0.02   0.06
  46   6     0.06  -0.01   0.09     0.02  -0.07  -0.02     0.06   0.02   0.04
  47   6    -0.03  -0.04   0.06     0.03   0.10  -0.02    -0.02  -0.10   0.02
  48   6    -0.06  -0.03   0.02     0.02   0.09  -0.04    -0.01  -0.10   0.04
  49   1    -0.01   0.03  -0.08     0.01  -0.04   0.02     0.01   0.01   0.02
  50   1    -0.01   0.03  -0.07     0.01  -0.05   0.03     0.02  -0.01   0.01
  51   1    -0.03   0.02   0.01    -0.00   0.00   0.04     0.00   0.01   0.06
  52   1    -0.01   0.04  -0.01     0.01   0.02   0.04     0.00   0.02   0.06
  53   1     0.03   0.06  -0.08     0.03   0.04  -0.01     0.02   0.05  -0.04
  54   1     0.02   0.00   0.00     0.02   0.08  -0.03     0.01   0.11  -0.08
  55   1     0.01  -0.08   0.11    -0.00   0.07  -0.02    -0.01   0.08  -0.05
  56   1     0.01  -0.10   0.10    -0.01   0.01   0.02    -0.02  -0.01   0.04
  57   1     0.01  -0.04   0.02     0.00  -0.03   0.03    -0.01  -0.06   0.06
  58   1     0.06   0.05  -0.05     0.02  -0.02  -0.01    -0.05  -0.02   0.02
  59   1     0.02   0.05   0.01    -0.07  -0.03  -0.00    -0.12  -0.03   0.04
  60   1    -0.05   0.01   0.07    -0.12  -0.00   0.02    -0.10  -0.01   0.02
  61   1    -0.07  -0.02   0.06    -0.07   0.02   0.00     0.01   0.01  -0.03
  62   1    -0.03  -0.01  -0.01     0.02   0.03  -0.01     0.07   0.02  -0.04
  63   1     0.03   0.01  -0.01     0.03  -0.02  -0.02     0.02  -0.03  -0.05
  64   1     0.01  -0.01   0.02     0.02  -0.04  -0.03     0.02  -0.04  -0.05
  65   1    -0.02  -0.06   0.06     0.01   0.00  -0.05    -0.01  -0.02  -0.01
  66   1    -0.01  -0.05   0.05     0.01   0.01  -0.07    -0.02  -0.00   0.01
  67   1     0.00   0.02  -0.02     0.02  -0.04  -0.02    -0.02   0.05   0.02
  68   1     0.02   0.01   0.00     0.03  -0.03  -0.01    -0.02   0.05   0.01
  69   1     0.01  -0.01   0.00    -0.00   0.02  -0.05     0.01  -0.03   0.07
  70   1     0.01   0.03  -0.06    -0.02   0.03  -0.01     0.02  -0.03   0.03
  71   1     0.01   0.04  -0.09    -0.01   0.01   0.07     0.01  -0.00  -0.07
  72   1     0.01   0.01  -0.03     0.02   0.00   0.10    -0.01   0.02  -0.11
  73   1     0.01  -0.02   0.03     0.03   0.00   0.05    -0.02   0.01  -0.06
  74   1    -0.01  -0.01  -0.00     0.00   0.01   0.02    -0.04   0.02  -0.02
  75   1    -0.03   0.02  -0.02    -0.10   0.02   0.01     0.02   0.01  -0.01
  76   1    -0.02   0.04  -0.01    -0.14   0.02  -0.01     0.10  -0.02   0.01
  77   1     0.01   0.02   0.03    -0.06  -0.02  -0.02     0.09  -0.01   0.03
  78   1     0.03  -0.01   0.04     0.04  -0.03  -0.01     0.01   0.01   0.02
  79   1    -0.01  -0.02   0.03     0.01   0.05   0.00    -0.00  -0.05   0.00
  80   1    -0.03  -0.01   0.01    -0.00   0.05  -0.01     0.00  -0.05   0.01
                     16                     17                     18
                        a                      a                      a 
 Frequencies --    82.7851                92.6244               110.5255
 Red. masses --    10.0836                11.4042                10.8390
 Frc consts  --     0.0000                 0.0000                 0.0000
 IR Inten    --     0.5050                 5.5594                 6.9158
 Raman Activ --     0.0000                 0.0000                 0.0000
 Depolar     --     0.0000                 0.0000                 0.0000
 Atom AN      X      Y      Z        X      Y      Z        X      Y      Z
   1   8     0.09  -0.02   0.05    -0.03  -0.24   0.12    -0.04   0.27  -0.15
   2   6     0.04   0.02   0.03    -0.03   0.01   0.02     0.00  -0.00  -0.04
   3   6     0.04   0.02   0.04    -0.03   0.11  -0.11    -0.00  -0.03   0.01
   4   6     0.03   0.16  -0.16     0.02   0.13  -0.14    -0.01  -0.08   0.08
   5   6     0.03   0.18  -0.19     0.04   0.10  -0.16    -0.02  -0.09   0.11
   6   6     0.03   0.06   0.01     0.03   0.06  -0.14    -0.01  -0.04   0.05
   7   6     0.03   0.05   0.01     0.03  -0.03   0.00    -0.02  -0.02   0.00
   8   8     0.07   0.06  -0.04     0.03  -0.03   0.28    -0.03  -0.02  -0.08
   9   6     0.01   0.03   0.04     0.03  -0.06  -0.06    -0.01   0.00   0.01
  10   6     0.02   0.02   0.04     0.02  -0.02   0.05    -0.01  -0.00  -0.02
  11   6     0.01  -0.01   0.01     0.03   0.00   0.09    -0.01  -0.00  -0.02
  12   6    -0.00  -0.02  -0.03     0.05  -0.02   0.04    -0.01   0.01  -0.00
  13   7    -0.01  -0.03  -0.05     0.06  -0.00   0.09    -0.01   0.01  -0.01
  14   6    -0.02  -0.03  -0.02     0.06   0.00   0.07    -0.01   0.01  -0.01
  15   6    -0.02   0.07  -0.10     0.06  -0.03   0.10    -0.01   0.01  -0.02
  16   6    -0.03   0.12  -0.12     0.07  -0.01   0.07    -0.01  -0.00  -0.01
  17   6    -0.06   0.06  -0.05     0.08   0.05  -0.01    -0.01  -0.02   0.01
  18   6    -0.07  -0.06   0.05     0.08   0.08  -0.04    -0.01  -0.01   0.01
  19   6    -0.05  -0.10   0.06     0.07   0.06   0.01    -0.01  -0.00  -0.01
  20   6    -0.01  -0.03  -0.03     0.05  -0.00   0.04    -0.01   0.01  -0.01
  21   6    -0.16  -0.01   0.07     0.14  -0.05  -0.05    -0.02   0.02   0.00
  22   6    -0.17  -0.01   0.11     0.07  -0.05  -0.08    -0.01   0.02   0.01
  23   6     0.01  -0.03   0.02    -0.11  -0.00  -0.01     0.01   0.01   0.00
  24   6     0.17  -0.04  -0.08    -0.17   0.04   0.06     0.02   0.00  -0.01
  25   6     0.15  -0.04  -0.10    -0.08   0.04   0.08     0.00   0.00  -0.01
  26   6    -0.01  -0.01  -0.03     0.05  -0.06  -0.07    -0.01   0.01   0.03
  27   6    -0.00   0.03   0.02     0.05  -0.09  -0.14    -0.01   0.01   0.04
  28   6     0.03  -0.09   0.22    -0.01   0.09  -0.18    -0.00   0.00  -0.02
  29   6     0.04  -0.11   0.24    -0.04   0.12  -0.16    -0.00   0.01  -0.04
  30   6     0.02   0.04   0.00    -0.03   0.07   0.03     0.05  -0.18   0.00
  31   6     0.02   0.01   0.00    -0.05   0.17   0.03     0.01   0.10   0.00
  32   6     0.01  -0.06  -0.00    -0.06   0.09   0.02    -0.00   0.20  -0.01
  33   6     0.01  -0.04  -0.01    -0.05  -0.03   0.03     0.01   0.02  -0.01
  34   7     0.01  -0.07  -0.01    -0.06  -0.07   0.03    -0.02   0.16  -0.04
  35   6    -0.01  -0.03  -0.01    -0.06  -0.06   0.02     0.00   0.09  -0.01
  36   6    -0.05   0.03  -0.14    -0.07  -0.01  -0.07     0.05   0.16  -0.14
  37   6    -0.08   0.04  -0.09    -0.08   0.01  -0.11     0.09   0.13  -0.18
  38   6    -0.06  -0.02   0.10    -0.08  -0.02  -0.04     0.06  -0.01  -0.03
  39   6    -0.02  -0.06   0.21    -0.07  -0.07   0.06     0.01  -0.11   0.15
  40   6     0.00  -0.07   0.13    -0.06  -0.09   0.09    -0.02  -0.05   0.14
  41   6     0.01  -0.05  -0.02    -0.05  -0.03   0.01    -0.02   0.11  -0.01
  42   6     0.16  -0.11   0.01     0.09  -0.09   0.00     0.05   0.07   0.08
  43   6     0.14  -0.09  -0.01     0.19  -0.08  -0.00     0.07  -0.02   0.13
  44   6    -0.04   0.02  -0.04     0.10   0.02   0.00    -0.00  -0.04   0.07
  45   6    -0.19   0.09  -0.06    -0.09   0.10   0.01    -0.09   0.01  -0.02
  46   6    -0.15   0.05  -0.04    -0.15   0.07   0.02    -0.09   0.08  -0.06
  47   6     0.02   0.02  -0.01    -0.02  -0.10   0.03     0.06  -0.34  -0.00
  48   6     0.02   0.05  -0.01    -0.02  -0.07   0.04     0.07  -0.45   0.01
  49   1     0.01   0.07  -0.09     0.01   0.05  -0.04    -0.00  -0.03   0.03
  50   1     0.01   0.08  -0.10     0.02   0.03  -0.04    -0.01  -0.04   0.05
  51   1     0.01   0.01   0.02     0.01   0.00   0.03    -0.01  -0.00  -0.01
  52   1     0.00  -0.00   0.01     0.00   0.01   0.05    -0.00  -0.00  -0.01
  53   1    -0.00   0.03  -0.04     0.02  -0.02   0.04    -0.00   0.00  -0.01
  54   1    -0.01   0.06  -0.05     0.02  -0.01   0.03    -0.00  -0.00  -0.00
  55   1    -0.02   0.03  -0.02     0.02   0.02  -0.01    -0.00  -0.01   0.01
  56   1    -0.03  -0.03   0.03     0.02   0.04  -0.03    -0.00  -0.01   0.00
  57   1    -0.02  -0.05   0.03     0.02   0.02  -0.00    -0.00   0.00  -0.00
  58   1    -0.08   0.00   0.04     0.07  -0.03  -0.02    -0.01   0.01   0.00
  59   1    -0.09  -0.00   0.05     0.04  -0.02  -0.04    -0.00   0.01   0.00
  60   1     0.00  -0.01   0.01    -0.05  -0.00  -0.01     0.01   0.00   0.00
  61   1     0.09  -0.02  -0.04    -0.08   0.02   0.03     0.01  -0.00  -0.00
  62   1     0.08  -0.01  -0.05    -0.03   0.02   0.04     0.00  -0.00  -0.00
  63   1    -0.00  -0.01  -0.02     0.01  -0.02  -0.03    -0.00   0.00   0.01
  64   1    -0.00   0.01   0.02     0.02  -0.04  -0.07    -0.00   0.01   0.01
  65   1     0.01  -0.05   0.10    -0.01   0.02  -0.06    -0.00   0.01  -0.02
  66   1     0.01  -0.06   0.11    -0.02   0.03  -0.05     0.00   0.01  -0.03
  67   1     0.00   0.01   0.00    -0.02   0.08   0.01    -0.00   0.07   0.01
  68   1     0.00  -0.03  -0.00    -0.01   0.04   0.01    -0.00   0.13  -0.00
  69   1    -0.02   0.02  -0.08    -0.02  -0.00  -0.03     0.02   0.07  -0.07
  70   1    -0.03   0.03  -0.05    -0.02   0.02  -0.06     0.04   0.06  -0.09
  71   1    -0.02  -0.00   0.05    -0.02   0.00  -0.02     0.02  -0.01  -0.01
  72   1    -0.00  -0.03   0.10    -0.02  -0.03   0.04    -0.00  -0.06   0.08
  73   1     0.01  -0.03   0.06    -0.02  -0.04   0.04    -0.02  -0.03   0.07
  74   1     0.08  -0.05   0.01     0.04  -0.04  -0.00     0.03   0.03   0.04
  75   1     0.08  -0.04   0.00     0.09  -0.04  -0.00     0.04  -0.02   0.06
  76   1    -0.02   0.01  -0.02     0.05   0.01   0.00     0.00  -0.03   0.03
  77   1    -0.10   0.05  -0.03    -0.05   0.05   0.00    -0.04  -0.00  -0.02
  78   1    -0.07   0.03  -0.01    -0.08   0.04   0.01    -0.04   0.03  -0.03
  79   1     0.01   0.01  -0.01    -0.00  -0.06   0.00     0.03  -0.14  -0.01
  80   1     0.01   0.02  -0.00    -0.00  -0.04   0.01     0.03  -0.20   0.01
                     19                     20                     21
                        a                      a                      a 
 Frequencies --   113.8123               123.1299               144.1078
 Red. masses --    10.6857                12.2058                11.3328
 Frc consts  --     0.0000                 0.0000                 0.0000
 IR Inten    --     6.9617                 2.7972                 0.1400
 Raman Activ --     0.0000                 0.0000                 0.0000
 Depolar     --     0.0000                 0.0000                 0.0000
 Atom AN      X      Y      Z        X      Y      Z        X      Y      Z
   1   8    -0.02  -0.07   0.01     0.08  -0.34   0.07    -0.16   0.07  -0.02
   2   6    -0.01  -0.00  -0.01    -0.02   0.03  -0.06    -0.01  -0.02   0.01
   3   6    -0.01   0.02  -0.05    -0.07   0.14  -0.09     0.02   0.05  -0.13
   4   6    -0.01  -0.01   0.01    -0.06   0.02   0.09     0.02   0.08  -0.18
   5   6    -0.00  -0.02   0.02    -0.06  -0.07   0.22     0.02   0.12  -0.23
   6   6    -0.00   0.00  -0.02    -0.07  -0.03   0.15     0.03   0.08  -0.16
   7   6     0.00  -0.03   0.01    -0.02  -0.05   0.05     0.02   0.01   0.02
   8   8    -0.03  -0.03   0.28     0.09  -0.06  -0.35     0.11   0.00  -0.01
   9   6     0.05  -0.06  -0.16    -0.05  -0.03   0.18    -0.05  -0.01   0.20
  10   6     0.07  -0.16  -0.43    -0.05  -0.04   0.06    -0.04  -0.03   0.10
  11   6     0.06  -0.14  -0.33    -0.03  -0.03  -0.02    -0.02  -0.03   0.02
  12   6     0.00   0.01   0.02     0.01  -0.02   0.02     0.01  -0.02   0.06
  13   7    -0.03   0.03   0.16     0.07  -0.01  -0.12     0.08  -0.02  -0.12
  14   6    -0.00   0.03   0.07     0.04   0.01  -0.08     0.06  -0.01  -0.09
  15   6    -0.03   0.11  -0.11     0.07   0.03  -0.04     0.09   0.03  -0.04
  16   6     0.00   0.09  -0.16     0.04   0.03   0.03     0.05   0.03   0.04
  17   6     0.06  -0.05   0.01    -0.01   0.00   0.06    -0.01   0.01   0.06
  18   6     0.08  -0.13   0.19    -0.03  -0.02   0.01    -0.04  -0.01  -0.01
  19   6     0.05  -0.07   0.19    -0.00  -0.01  -0.07     0.00  -0.02  -0.08
  20   6    -0.02   0.03   0.10     0.06  -0.01  -0.07     0.07  -0.02  -0.08
  21   6    -0.09  -0.01   0.10    -0.00   0.01  -0.02     0.01  -0.00  -0.03
  22   6    -0.09  -0.01   0.02    -0.05   0.01   0.04    -0.05  -0.01   0.04
  23   6     0.01   0.06  -0.07    -0.02  -0.02   0.04    -0.02  -0.03   0.04
  24   6     0.08   0.11  -0.06     0.06  -0.04  -0.02     0.06  -0.06  -0.02
  25   6     0.05   0.10   0.03     0.09  -0.03  -0.07     0.09  -0.05  -0.08
  26   6    -0.01   0.08   0.21     0.01   0.00   0.19     0.00   0.03   0.26
  27   6     0.00   0.05   0.11    -0.02  -0.00   0.27    -0.03   0.03   0.31
  28   6    -0.01   0.04  -0.08    -0.06   0.10  -0.03     0.03   0.10  -0.18
  29   6    -0.01   0.06  -0.10    -0.06   0.19  -0.16     0.03   0.11  -0.20
  30   6    -0.01   0.01  -0.00    -0.05   0.15  -0.09     0.06  -0.15   0.11
  31   6    -0.01   0.02  -0.00    -0.02   0.22  -0.09     0.03  -0.25   0.11
  32   6    -0.01   0.01  -0.00     0.01   0.15  -0.06    -0.01  -0.21   0.09
  33   6    -0.01  -0.00   0.00     0.01   0.01  -0.02    -0.01  -0.04   0.06
  34   7    -0.01  -0.01   0.01     0.06  -0.10   0.04    -0.09   0.10  -0.02
  35   6    -0.01  -0.01   0.01     0.04  -0.07   0.03    -0.07   0.07  -0.03
  36   6    -0.01  -0.01   0.01    -0.01  -0.06   0.01    -0.02   0.06  -0.01
  37   6    -0.01  -0.00  -0.00    -0.03  -0.00  -0.02     0.01  -0.00   0.01
  38   6    -0.01   0.00  -0.01    -0.01   0.05  -0.02    -0.01  -0.06   0.01
  39   6    -0.01  -0.00  -0.01     0.03   0.03   0.02    -0.06  -0.05  -0.03
  40   6    -0.01  -0.01   0.00     0.06  -0.03   0.05    -0.09   0.02  -0.05
  41   6    -0.01  -0.00   0.01     0.05  -0.06   0.01    -0.09   0.07  -0.00
  42   6    -0.00  -0.01   0.00     0.08  -0.07  -0.00    -0.11   0.08   0.01
  43   6     0.00  -0.00  -0.00     0.05  -0.03  -0.02    -0.05   0.03   0.03
  44   6     0.01   0.00   0.00    -0.02   0.03  -0.03     0.04  -0.03   0.05
  45   6     0.00   0.01   0.01    -0.05   0.04  -0.01     0.05  -0.03   0.03
  46   6    -0.01   0.00   0.01    -0.01  -0.01   0.02    -0.03   0.03   0.00
  47   6    -0.01   0.00   0.00    -0.03  -0.02  -0.02     0.03   0.01   0.05
  48   6    -0.01   0.01   0.00    -0.05   0.04  -0.05     0.05  -0.05   0.09
  49   1    -0.00  -0.01   0.01    -0.02   0.00   0.04     0.01   0.01  -0.04
  50   1     0.00  -0.02   0.02    -0.02  -0.05   0.11     0.00   0.04  -0.08
  51   1     0.03  -0.07  -0.20    -0.02  -0.02  -0.00    -0.02  -0.01   0.01
  52   1     0.02  -0.07  -0.14    -0.01  -0.01  -0.04    -0.01  -0.02  -0.03
  53   1    -0.02   0.06  -0.06     0.03   0.01  -0.02     0.04   0.01  -0.01
  54   1    -0.01   0.05  -0.09     0.02   0.01   0.02     0.02   0.02   0.02
  55   1     0.02  -0.03   0.00    -0.01  -0.00   0.03    -0.01   0.00   0.04
  56   1     0.04  -0.07   0.09    -0.02  -0.01   0.01    -0.03  -0.01   0.00
  57   1     0.02  -0.03   0.08    -0.01  -0.01  -0.03    -0.01  -0.01  -0.03
  58   1    -0.04  -0.02   0.05    -0.01   0.01  -0.01    -0.00   0.01  -0.01
  59   1    -0.04  -0.02   0.01    -0.03   0.01   0.03    -0.03   0.00   0.03
  60   1     0.01   0.02  -0.04    -0.02  -0.01   0.02    -0.02  -0.01   0.03
  61   1     0.05   0.05  -0.04     0.02  -0.02  -0.01     0.03  -0.02  -0.01
  62   1     0.03   0.04   0.01     0.04  -0.01  -0.03     0.04  -0.02  -0.03
  63   1    -0.01   0.05   0.12     0.01   0.00   0.06     0.01   0.01   0.09
  64   1    -0.00   0.04   0.08    -0.01   0.00   0.10    -0.01   0.01   0.11
  65   1    -0.00   0.02  -0.03    -0.02   0.04  -0.02     0.01   0.02  -0.04
  66   1    -0.00   0.03  -0.04    -0.02   0.08  -0.08     0.01   0.03  -0.06
  67   1    -0.00   0.00  -0.00    -0.01   0.08  -0.03     0.01  -0.09   0.04
  68   1    -0.00   0.00  -0.00     0.01   0.05  -0.02    -0.01  -0.07   0.03
  69   1    -0.00  -0.00   0.00    -0.01  -0.03   0.00    -0.00   0.03  -0.00
  70   1    -0.00  -0.00  -0.00    -0.02   0.00  -0.01     0.02  -0.00   0.01
  71   1    -0.00   0.00  -0.01    -0.01   0.03  -0.01     0.00  -0.03   0.01
  72   1    -0.00   0.00  -0.00     0.01   0.02   0.01    -0.02  -0.02  -0.01
  73   1    -0.00  -0.00   0.00     0.03  -0.01   0.02    -0.04   0.01  -0.02
  74   1    -0.00  -0.00  -0.00     0.03  -0.03  -0.00    -0.04   0.03  -0.00
  75   1     0.00  -0.00  -0.00     0.02  -0.01  -0.01    -0.02   0.01   0.01
  76   1     0.00   0.00   0.00    -0.01   0.02  -0.01     0.03  -0.02   0.02
  77   1     0.00   0.00   0.00    -0.03   0.02  -0.00     0.03  -0.02   0.01
  78   1    -0.00   0.00   0.00    -0.01  -0.00   0.01    -0.01   0.01  -0.00
  79   1    -0.00  -0.00   0.00    -0.01  -0.03   0.00     0.01   0.03   0.01
  80   1    -0.01   0.00   0.00    -0.02  -0.00  -0.01     0.02   0.00   0.02
                     22                     23                     24
                        a                      a                      a 
 Frequencies --   148.3357               166.5363               190.0869
 Red. masses --    11.6609                11.3336                11.7547
 Frc consts  --     0.0000                 0.0000                 0.0000
 IR Inten    --     1.2239                 0.5876                 7.1668
 Raman Activ --     0.0000                 0.0000                 0.0000
 Depolar     --     0.0000                 0.0000                 0.0000
 Atom AN      X      Y      Z        X      Y      Z        X      Y      Z
   1   8     0.16  -0.13   0.03    -0.09   0.09   0.12     0.26   0.11  -0.05
   2   6    -0.02  -0.01  -0.01     0.03   0.05   0.11     0.09  -0.02   0.01
   3   6    -0.14   0.19   0.04     0.04   0.02   0.04     0.11  -0.12   0.13
   4   6    -0.15   0.22   0.00     0.01   0.02   0.04     0.11  -0.09   0.07
   5   6    -0.14   0.20   0.04     0.01   0.00   0.02     0.10   0.02  -0.07
   6   6    -0.14   0.14   0.13    -0.03  -0.05  -0.01     0.10   0.08  -0.14
   7   6    -0.02  -0.01  -0.00    -0.04  -0.12  -0.01     0.08   0.01  -0.02
   8   8     0.20  -0.02  -0.14     0.08  -0.15  -0.04     0.27   0.00   0.10
   9   6    -0.06  -0.12  -0.08    -0.12  -0.19   0.01    -0.05  -0.11   0.06
  10   6    -0.05  -0.11  -0.07    -0.16  -0.13  -0.01    -0.07  -0.09   0.05
  11   6    -0.04  -0.06  -0.02    -0.14  -0.07  -0.02    -0.08  -0.09   0.02
  12   6     0.00  -0.06  -0.01    -0.12  -0.06   0.00    -0.11  -0.07   0.04
  13   7     0.02   0.01   0.09    -0.06   0.07   0.02    -0.05   0.03   0.02
  14   6     0.03   0.04   0.05    -0.07   0.13  -0.06    -0.06   0.13  -0.09
  15   6     0.02   0.04   0.02    -0.10   0.09  -0.10    -0.09   0.11  -0.12
  16   6     0.04   0.01  -0.00    -0.06  -0.05  -0.02    -0.06  -0.04  -0.02
  17   6     0.08  -0.00   0.02    -0.00  -0.12   0.08    -0.02  -0.12   0.09
  18   6     0.09   0.01   0.04     0.02   0.00   0.01    -0.01   0.01  -0.01
  19   6     0.06   0.04   0.06    -0.02   0.14  -0.07    -0.04   0.15  -0.11
  20   6     0.08   0.01   0.04     0.03   0.07  -0.00     0.06   0.04  -0.01
  21   6     0.09  -0.04   0.00     0.05   0.08  -0.01     0.07   0.05  -0.02
  22   6     0.00  -0.04  -0.02     0.00   0.08  -0.01    -0.01   0.05   0.00
  23   6    -0.09   0.01   0.00    -0.06   0.10   0.02    -0.07   0.06   0.03
  24   6    -0.04   0.05   0.01    -0.03   0.10   0.00    -0.00   0.07  -0.01
  25   6     0.05   0.05   0.03     0.02   0.10  -0.01     0.07   0.06  -0.03
  26   6     0.01  -0.12  -0.12    -0.08  -0.16  -0.02    -0.09  -0.11   0.05
  27   6    -0.01  -0.15  -0.13    -0.11  -0.21  -0.03    -0.09  -0.11   0.04
  28   6    -0.15   0.12   0.16    -0.00  -0.05  -0.01     0.12   0.05  -0.09
  29   6    -0.14   0.15   0.12    -0.01  -0.03   0.00     0.12  -0.06   0.05
  30   6    -0.03  -0.17  -0.05     0.12   0.08   0.19    -0.04   0.01  -0.12
  31   6     0.00  -0.25  -0.05     0.11   0.11   0.19    -0.09   0.01  -0.11
  32   6     0.01  -0.21  -0.04     0.08   0.08   0.14    -0.09   0.03  -0.12
  33   6     0.01  -0.05  -0.04     0.12   0.02   0.06    -0.11   0.01  -0.08
  34   7     0.00   0.12  -0.04     0.06  -0.05  -0.05    -0.05   0.02   0.02
  35   6     0.01   0.08  -0.00     0.07   0.01  -0.15    -0.07  -0.04   0.15
  36   6     0.06   0.09   0.00     0.02   0.01  -0.16    -0.04  -0.05   0.19
  37   6     0.09   0.04  -0.00    -0.02  -0.01  -0.00    -0.02  -0.01   0.02
  38   6     0.07  -0.00   0.00     0.00  -0.02   0.14    -0.03   0.04  -0.15
  39   6     0.03  -0.01   0.01     0.06   0.04   0.03    -0.06  -0.03  -0.02
  40   6    -0.00   0.04   0.01     0.10   0.06  -0.13    -0.09  -0.08   0.15
  41   6     0.05   0.06  -0.01    -0.03  -0.03  -0.07     0.05   0.00   0.04
  42   6     0.02   0.07   0.04    -0.02  -0.03  -0.09     0.07  -0.01   0.07
  43   6    -0.06   0.04   0.05     0.03  -0.04  -0.09     0.00   0.01   0.06
  44   6    -0.07  -0.01   0.02     0.07  -0.05  -0.08    -0.07   0.05   0.04
  45   6     0.02  -0.04  -0.02     0.00  -0.02  -0.08    -0.01   0.02   0.04
  46   6     0.08  -0.01  -0.04    -0.05  -0.02  -0.08     0.06   0.00   0.05
  47   6    -0.02  -0.05  -0.04     0.14   0.05   0.07    -0.07  -0.00  -0.09
  48   6    -0.03  -0.13  -0.05     0.16   0.07   0.12    -0.06   0.02  -0.10
  49   1    -0.05   0.07  -0.01     0.00   0.00   0.01     0.03  -0.04   0.03
  50   1    -0.04   0.06   0.00     0.02   0.00   0.00     0.03   0.01  -0.03
  51   1    -0.02  -0.03  -0.02    -0.07  -0.04  -0.01    -0.03  -0.03   0.01
  52   1    -0.02  -0.01   0.00    -0.04  -0.02  -0.01    -0.02  -0.04  -0.00
  53   1    -0.00   0.01   0.00    -0.04   0.04  -0.04    -0.04   0.04  -0.05
  54   1     0.01   0.00  -0.01    -0.02  -0.03  -0.00    -0.02  -0.03   0.00
  55   1     0.03  -0.01   0.00     0.01  -0.07   0.05    -0.00  -0.08   0.07
  56   1     0.03   0.00   0.01     0.02  -0.01   0.01     0.01  -0.00   0.00
  57   1     0.02   0.02   0.02    -0.00   0.06  -0.03    -0.01   0.06  -0.04
  58   1     0.04  -0.02  -0.00     0.02   0.02  -0.01     0.03   0.01  -0.01
  59   1     0.00  -0.02  -0.01     0.00   0.02  -0.01    -0.01   0.01   0.00
  60   1    -0.05   0.00   0.00    -0.03   0.03   0.01    -0.05   0.02   0.02
  61   1    -0.03   0.03   0.00    -0.02   0.03   0.00    -0.00   0.02  -0.00
  62   1     0.02   0.02   0.01     0.01   0.03  -0.00     0.03   0.02  -0.01
  63   1     0.01  -0.04  -0.04    -0.01  -0.05  -0.01    -0.02  -0.03   0.01
  64   1     0.00  -0.06  -0.05    -0.03  -0.07  -0.01    -0.03  -0.03   0.00
  65   1    -0.04   0.02   0.06     0.00  -0.01  -0.00     0.04   0.03  -0.04
  66   1    -0.04   0.04   0.04    -0.02  -0.01   0.00     0.04  -0.03   0.03
  67   1     0.01  -0.09  -0.02     0.03   0.04   0.06    -0.03  -0.01  -0.03
  68   1     0.00  -0.07  -0.01     0.01   0.03   0.04    -0.02   0.01  -0.04
  69   1     0.02   0.03   0.00     0.00  -0.00  -0.07    -0.01  -0.02   0.08
  70   1     0.04   0.01  -0.00    -0.02  -0.01   0.01     0.00   0.00  -0.00
  71   1     0.03  -0.01   0.00    -0.01  -0.02   0.09    -0.00   0.03  -0.10
  72   1     0.00  -0.01   0.00     0.02   0.02   0.03    -0.02  -0.01  -0.02
  73   1    -0.01   0.01   0.00     0.04   0.03  -0.05    -0.04  -0.03   0.06
  74   1     0.01   0.03   0.02    -0.01  -0.01  -0.03     0.03  -0.00   0.03
  75   1    -0.03   0.02   0.03     0.02  -0.01  -0.03    -0.00   0.01   0.02
  76   1    -0.04  -0.01   0.01     0.04  -0.02  -0.02    -0.04   0.02   0.01
  77   1     0.01  -0.03  -0.01     0.00  -0.00  -0.02    -0.01   0.01   0.01
  78   1     0.04  -0.01  -0.02    -0.02  -0.00  -0.02     0.03  -0.00   0.02
  79   1    -0.01   0.01  -0.01     0.04   0.01   0.01    -0.02  -0.01  -0.03
  80   1    -0.01  -0.03  -0.01     0.07   0.02   0.03    -0.02   0.00  -0.03
                     25                     26                     27
                        a                      a                      a 
 Frequencies --   209.0641               222.2664               231.5833
 Red. masses --    11.1004                11.1966                11.3257
 Frc consts  --     0.0000                 0.0000                 0.0000
 IR Inten    --     0.2208                 6.1162                29.2365
 Raman Activ --     0.0000                 0.0000                 0.0000
 Depolar     --     0.0000                 0.0000                 0.0000
 Atom AN      X      Y      Z        X      Y      Z        X      Y      Z
   1   8    -0.07   0.05  -0.20     0.19  -0.04  -0.12    -0.13  -0.12   0.04
   2   6     0.04  -0.12  -0.12     0.07   0.02  -0.12     0.02   0.12  -0.06
   3   6     0.07  -0.16  -0.09     0.04   0.08  -0.09     0.06   0.15  -0.21
   4   6    -0.07  -0.15  -0.11     0.04   0.06  -0.06     0.08   0.09  -0.13
   5   6    -0.17  -0.00   0.01     0.04  -0.01   0.06     0.09  -0.08   0.08
   6   6    -0.08   0.14   0.12     0.04  -0.05   0.12     0.08  -0.17   0.19
   7   6    -0.04   0.16   0.07     0.07  -0.10   0.07     0.02  -0.02   0.11
   8   8     0.05   0.17  -0.12     0.21  -0.12   0.00    -0.21  -0.01  -0.11
   9   6    -0.05   0.09   0.05     0.04  -0.12   0.01     0.10   0.11   0.10
  10   6     0.00  -0.03  -0.03    -0.00  -0.01   0.02     0.12   0.06   0.04
  11   6    -0.02  -0.10  -0.08     0.04   0.05  -0.01     0.07  -0.06  -0.06
  12   6    -0.02  -0.09  -0.05     0.04   0.05  -0.04    -0.01  -0.06  -0.08
  13   7    -0.00  -0.03   0.11     0.01   0.04  -0.08    -0.07  -0.02   0.12
  14   6    -0.01   0.04   0.07     0.02  -0.01  -0.06    -0.09   0.10  -0.01
  15   6    -0.02   0.03   0.03     0.02  -0.00  -0.04    -0.13   0.10  -0.11
  16   6     0.01  -0.00  -0.01    -0.00   0.02  -0.00    -0.09  -0.03  -0.05
  17   6     0.06  -0.01   0.00    -0.04  -0.00   0.02    -0.04  -0.12   0.06
  18   6     0.08   0.02   0.03    -0.05  -0.01  -0.01    -0.01   0.02  -0.01
  19   6     0.04   0.05   0.06    -0.03  -0.02  -0.06    -0.05   0.15  -0.07
  20   6     0.15  -0.04   0.03    -0.19   0.05   0.04     0.05  -0.01   0.09
  21   6     0.18  -0.10  -0.02    -0.24   0.09   0.09     0.08  -0.06   0.04
  22   6     0.01  -0.10  -0.01    -0.02   0.10  -0.00     0.01  -0.06  -0.01
  23   6    -0.14  -0.06   0.04     0.17   0.10  -0.10    -0.06  -0.01  -0.01
  24   6     0.02  -0.00   0.00    -0.07   0.06   0.00     0.00   0.05  -0.00
  25   6     0.19  -0.00  -0.01    -0.26   0.05   0.08     0.08   0.04   0.05
  26   6    -0.05  -0.04  -0.13     0.08  -0.05  -0.03    -0.02  -0.05  -0.15
  27   6    -0.04   0.06  -0.03     0.05  -0.13  -0.04     0.03   0.07  -0.03
  28   6     0.06   0.15   0.10     0.05  -0.02   0.08     0.07  -0.13   0.12
  29   6     0.17  -0.01   0.01     0.05   0.05  -0.03     0.06   0.05  -0.11
  30   6     0.05  -0.08  -0.06     0.05  -0.04  -0.11     0.08   0.14   0.04
  31   6     0.04   0.01  -0.05     0.05  -0.08  -0.10     0.04  -0.02   0.05
  32   6     0.05   0.14  -0.00     0.08  -0.05  -0.03     0.01  -0.18   0.01
  33   6     0.02   0.08   0.07     0.04  -0.01   0.06     0.00  -0.11  -0.01
  34   7     0.01  -0.10   0.07     0.00  -0.05   0.06    -0.06   0.09  -0.05
  35   6     0.02  -0.08  -0.02     0.02  -0.06   0.02    -0.07   0.02   0.09
  36   6    -0.04  -0.07  -0.04    -0.03  -0.06   0.01    -0.04  -0.00   0.15
  37   6    -0.08  -0.03  -0.01    -0.05  -0.02  -0.01    -0.01   0.00   0.02
  38   6    -0.06  -0.00   0.02    -0.04   0.02  -0.02    -0.03   0.01  -0.12
  39   6    -0.00   0.01  -0.00    -0.00   0.00   0.02    -0.07  -0.05   0.00
  40   6     0.03  -0.04  -0.03     0.02  -0.05   0.03    -0.11  -0.05   0.12
  41   6    -0.16  -0.02   0.04    -0.18   0.06   0.02     0.01   0.09  -0.05
  42   6    -0.19   0.01  -0.01    -0.26   0.09   0.01     0.02   0.08   0.01
  43   6    -0.02  -0.00  -0.00    -0.07   0.03   0.05    -0.02   0.02   0.05
  44   6     0.14  -0.02   0.07     0.17  -0.06   0.13    -0.02  -0.03   0.02
  45   6    -0.02   0.05   0.09    -0.02   0.03   0.09     0.00  -0.04  -0.04
  46   6    -0.19   0.06   0.07    -0.24   0.12   0.04     0.02   0.04  -0.07
  47   6     0.02   0.11   0.07     0.04   0.02   0.05     0.07  -0.09  -0.02
  48   6    -0.00   0.04   0.02     0.00   0.02  -0.02     0.10   0.05   0.03
  49   1    -0.04  -0.07  -0.06     0.01   0.02  -0.03     0.03   0.05  -0.06
  50   1    -0.11  -0.00   0.01     0.01  -0.01   0.03     0.04  -0.03   0.04
  51   1     0.02  -0.01  -0.01    -0.03   0.00   0.02     0.05   0.02   0.02
  52   1    -0.00  -0.03  -0.03     0.01   0.02   0.00     0.03  -0.04  -0.02
  53   1    -0.02   0.01   0.01     0.01   0.00  -0.01    -0.06   0.04  -0.05
  54   1    -0.00  -0.01  -0.01     0.00   0.01   0.01    -0.03  -0.02  -0.02
  55   1     0.02  -0.01  -0.00    -0.02  -0.00   0.01    -0.00  -0.08   0.05
  56   1     0.03   0.01   0.01    -0.02  -0.01   0.00     0.02   0.01  -0.00
  57   1     0.02   0.03   0.02    -0.01  -0.01  -0.02    -0.01   0.07  -0.03
  58   1     0.08  -0.04  -0.01    -0.10   0.03   0.04     0.04  -0.03   0.01
  59   1    -0.01  -0.04  -0.01     0.01   0.03  -0.01     0.00  -0.03  -0.01
  60   1    -0.10  -0.02   0.03     0.13   0.03  -0.07    -0.04  -0.00  -0.01
  61   1    -0.00   0.01  -0.00    -0.01   0.01   0.00    -0.00   0.03  -0.01
  62   1     0.08   0.01  -0.01    -0.10   0.01   0.04     0.04   0.03   0.02
  63   1    -0.03  -0.02  -0.06     0.05  -0.02  -0.00    -0.02  -0.02  -0.07
  64   1    -0.01   0.02   0.00     0.02  -0.05  -0.02     0.00   0.04  -0.01
  65   1     0.04   0.08   0.04     0.01  -0.01   0.04     0.02  -0.06   0.06
  66   1     0.10  -0.01   0.01     0.02   0.02  -0.02     0.01   0.03  -0.05
  67   1     0.01  -0.01  -0.02     0.02  -0.03  -0.04     0.01  -0.00   0.03
  68   1     0.03   0.07  -0.00     0.04  -0.01  -0.01    -0.00  -0.08   0.00
  69   1    -0.02  -0.03  -0.02    -0.01  -0.03   0.00    -0.01  -0.00   0.06
  70   1    -0.03  -0.01  -0.00    -0.02  -0.00  -0.01     0.01   0.00   0.00
  71   1    -0.02   0.01   0.01    -0.02   0.02  -0.01    -0.00   0.01  -0.08
  72   1     0.01   0.02   0.00     0.00   0.01   0.01    -0.03  -0.02  -0.00
  73   1     0.02  -0.01  -0.01     0.01  -0.01   0.01    -0.05  -0.02   0.05
  74   1    -0.08   0.00  -0.02    -0.10   0.04  -0.01     0.01   0.03   0.01
  75   1     0.00  -0.00  -0.01    -0.01   0.00   0.01    -0.01   0.01   0.03
  76   1     0.10  -0.02   0.03     0.13  -0.05   0.05    -0.01  -0.02   0.01
  77   1     0.01   0.02   0.04     0.01   0.00   0.03     0.00  -0.03  -0.02
  78   1    -0.08   0.03   0.03    -0.10   0.05   0.01     0.01   0.01  -0.04
  79   1     0.00   0.04   0.02     0.01   0.01   0.02     0.03  -0.04  -0.02
  80   1    -0.02   0.01   0.01    -0.03   0.02  -0.00     0.04   0.03   0.01
                     28                     29                     30
                        a                      a                      a 
 Frequencies --   234.9390               236.8697               240.3888
 Red. masses --    11.2450                10.4473                10.7414
 Frc consts  --     0.0000                 0.0000                 0.0000
 IR Inten    --     2.3108                 2.1233                 2.2988
 Raman Activ --     0.0000                 0.0000                 0.0000
 Depolar     --     0.0000                 0.0000                 0.0000
 Atom AN      X      Y      Z        X      Y      Z        X      Y      Z
   1   8    -0.29   0.03  -0.04    -0.07   0.03   0.04    -0.08   0.03   0.06
   2   6     0.01  -0.08  -0.00     0.03   0.00   0.04    -0.05  -0.04   0.07
   3   6     0.08  -0.13  -0.11     0.04  -0.02  -0.01    -0.06  -0.05   0.10
   4   6    -0.04  -0.11  -0.13    -0.02  -0.01  -0.02    -0.06  -0.03   0.06
   5   6    -0.14   0.01   0.00    -0.04   0.02  -0.01    -0.06   0.04  -0.05
   6   6    -0.06   0.10   0.13    -0.04   0.01   0.02    -0.06   0.06  -0.09
   7   6    -0.01   0.03   0.10    -0.04  -0.03   0.01    -0.05   0.05  -0.06
   8   8     0.23   0.02  -0.07     0.05  -0.04  -0.02    -0.09   0.06   0.01
   9   6    -0.05  -0.05   0.07    -0.06  -0.07  -0.00    -0.03   0.04  -0.04
  10   6    -0.06  -0.04   0.01    -0.08  -0.04  -0.07    -0.01   0.01   0.04
  11   6    -0.01  -0.00  -0.08    -0.05   0.03  -0.05    -0.02  -0.01   0.05
  12   6     0.05  -0.01  -0.08    -0.01   0.04  -0.03     0.02  -0.03   0.05
  13   7     0.04   0.01  -0.04     0.00   0.04  -0.07     0.05  -0.04   0.03
  14   6     0.07  -0.02  -0.02    -0.02  -0.10   0.15     0.10   0.05  -0.14
  15   6     0.10   0.02   0.01    -0.03  -0.18   0.20     0.14   0.16  -0.14
  16   6     0.07   0.06   0.02    -0.02  -0.07   0.01     0.11   0.12   0.03
  17   6     0.04   0.05   0.03     0.00   0.10  -0.19     0.06  -0.02   0.19
  18   6     0.02  -0.01   0.03     0.02  -0.04   0.02     0.02   0.03   0.00
  19   6     0.05  -0.03  -0.01    -0.00  -0.16   0.22     0.07   0.09  -0.18
  20   6    -0.11   0.01   0.08     0.01   0.06  -0.14    -0.03  -0.08   0.13
  21   6    -0.18  -0.00   0.10     0.06   0.14  -0.11    -0.10  -0.17   0.11
  22   6    -0.02   0.00  -0.01     0.04   0.14   0.01    -0.06  -0.17  -0.01
  23   6     0.13   0.03  -0.11    -0.04   0.08   0.09     0.07  -0.12  -0.10
  24   6    -0.06   0.03   0.01    -0.00   0.01   0.01     0.00  -0.05  -0.01
  25   6    -0.19   0.02   0.11     0.04   0.02  -0.12    -0.07  -0.06   0.13
  26   6     0.06  -0.07  -0.11     0.01  -0.01   0.00    -0.01   0.03   0.03
  27   6     0.01  -0.10  -0.03    -0.03  -0.06   0.04    -0.00   0.04  -0.03
  28   6     0.06   0.13   0.09     0.01   0.02   0.01    -0.06   0.04  -0.05
  29   6     0.16   0.00  -0.03     0.04  -0.00  -0.02    -0.07  -0.03   0.05
  30   6     0.07  -0.00   0.10     0.07   0.03   0.08    -0.03  -0.03   0.05
  31   6    -0.00   0.06   0.11     0.03  -0.01   0.08    -0.00  -0.02   0.05
  32   6    -0.06   0.09   0.03    -0.01   0.00   0.02    -0.01   0.04   0.02
  33   6    -0.05   0.05  -0.03     0.01   0.01  -0.05     0.02   0.04  -0.04
  34   7    -0.06   0.06  -0.05    -0.00   0.06  -0.07     0.05   0.01  -0.05
  35   6    -0.09   0.04   0.02     0.03  -0.10   0.15     0.10  -0.10   0.09
  36   6    -0.06   0.03   0.05     0.01  -0.14   0.24     0.07  -0.12   0.15
  37   6    -0.02  -0.02   0.02    -0.02  -0.00   0.04     0.02   0.02   0.02
  38   6    -0.05  -0.05  -0.06    -0.00   0.14  -0.18     0.06   0.16  -0.09
  39   6    -0.09  -0.06  -0.05     0.02   0.02   0.08     0.10   0.07   0.10
  40   6    -0.13  -0.02   0.01     0.03  -0.12   0.26     0.14  -0.06   0.19
  41   6     0.13  -0.06   0.01    -0.01   0.11  -0.12    -0.03   0.08  -0.12
  42   6     0.21  -0.09   0.03    -0.03   0.11  -0.07    -0.07   0.09  -0.11
  43   6     0.06  -0.02  -0.02     0.01  -0.02  -0.01     0.00  -0.03  -0.04
  44   6    -0.15   0.08  -0.07     0.03  -0.12  -0.05     0.07  -0.14  -0.07
  45   6     0.03  -0.00  -0.02    -0.04  -0.07  -0.14    -0.05  -0.07  -0.15
  46   6     0.20  -0.09   0.02    -0.05   0.04  -0.18    -0.09   0.03  -0.19
  47   6     0.03   0.05  -0.03     0.05   0.03  -0.05    -0.02   0.04  -0.03
  48   6     0.09   0.02   0.05     0.09   0.08   0.01    -0.01   0.03  -0.01
  49   1    -0.03  -0.05  -0.07    -0.01  -0.01  -0.01    -0.02  -0.02   0.03
  50   1    -0.09   0.00   0.00    -0.02   0.01  -0.00    -0.02   0.02  -0.02
  51   1    -0.03  -0.01   0.01    -0.04  -0.01  -0.03     0.01   0.00   0.02
  52   1    -0.01   0.01  -0.03    -0.02   0.02  -0.01    -0.01   0.00   0.01
  53   1     0.04   0.00   0.00    -0.02  -0.07   0.08     0.06   0.06  -0.06
  54   1     0.03   0.03   0.01    -0.01  -0.02  -0.01     0.04   0.04   0.02
  55   1     0.01   0.02   0.01     0.00   0.09  -0.13     0.01  -0.04   0.12
  56   1    -0.01  -0.01   0.01     0.01  -0.00  -0.00    -0.02  -0.00   0.01
  57   1     0.01  -0.01  -0.01     0.00  -0.06   0.09     0.02   0.03  -0.07
  58   1    -0.07  -0.01   0.04     0.02   0.06  -0.04    -0.03  -0.07   0.05
  59   1     0.00  -0.00  -0.01     0.02   0.06   0.01    -0.02  -0.06  -0.01
  60   1     0.10   0.01  -0.07    -0.03   0.02   0.06     0.05  -0.03  -0.07
  61   1    -0.01   0.01  -0.00    -0.01  -0.02   0.02     0.01   0.01  -0.02
  62   1    -0.07   0.01   0.04     0.01  -0.01  -0.05    -0.03  -0.01   0.05
  63   1     0.03  -0.02  -0.04     0.02  -0.00   0.01    -0.02   0.01   0.01
  64   1     0.01  -0.04  -0.00    -0.00  -0.02   0.02     0.00   0.00  -0.02
  65   1     0.04   0.07   0.04     0.01   0.02   0.01    -0.02   0.02  -0.03
  66   1     0.09   0.00  -0.01     0.02   0.00  -0.01    -0.02  -0.01   0.02
  67   1    -0.01   0.02   0.05     0.01  -0.01   0.03     0.00  -0.02   0.01
  68   1    -0.03   0.03   0.01    -0.02  -0.00   0.01    -0.02   0.02   0.01
  69   1    -0.01   0.01   0.02    -0.00  -0.06   0.10     0.01  -0.05   0.06
  70   1     0.01  -0.01   0.01    -0.01   0.01  -0.00    -0.02   0.01  -0.01
  71   1    -0.01  -0.02  -0.03    -0.00   0.09  -0.13     0.01   0.09  -0.08
  72   1    -0.03  -0.02  -0.02     0.01   0.01   0.02     0.04   0.03   0.03
  73   1    -0.05  -0.01   0.01     0.02  -0.05   0.10     0.06  -0.02   0.07
  74   1     0.08  -0.04   0.01    -0.01   0.05  -0.01    -0.03   0.04  -0.03
  75   1     0.01  -0.00  -0.01     0.01  -0.01   0.03     0.01  -0.01   0.01
  76   1    -0.11   0.06  -0.04     0.03  -0.06   0.00     0.05  -0.07  -0.01
  77   1    -0.00   0.01  -0.01    -0.02  -0.04  -0.05    -0.02  -0.03  -0.05
  78   1     0.08  -0.04   0.01    -0.01   0.01  -0.08    -0.03   0.01  -0.08
  79   1     0.02   0.01  -0.03     0.02   0.01  -0.02    -0.01   0.01  -0.00
  80   1     0.05  -0.00   0.01     0.05   0.04   0.00     0.01   0.02  -0.00
                     31                     32                     33
                        a                      a                      a 
 Frequencies --   263.5544               275.8999               284.3620
 Red. masses --    13.2431                11.0996                11.0206
 Frc consts  --     0.0000                 0.0000                 0.0000
 IR Inten    --     0.0280                 2.2199                 0.0654
 Raman Activ --     0.0000                 0.0000                 0.0000
 Depolar     --     0.0000                 0.0000                 0.0000
 Atom AN      X      Y      Z        X      Y      Z        X      Y      Z
   1   8     0.44   0.16  -0.02    -0.03  -0.02   0.10     0.03  -0.04  -0.02
   2   6     0.16   0.03   0.04    -0.04   0.09   0.04     0.07   0.10  -0.07
   3   6     0.05   0.09   0.07     0.05  -0.10   0.08     0.09  -0.04  -0.05
   4   6    -0.00   0.11   0.02     0.06  -0.09   0.05    -0.04  -0.07  -0.01
   5   6     0.03   0.06  -0.07     0.05  -0.01  -0.06    -0.11  -0.02   0.09
   6   6    -0.05  -0.10  -0.06     0.05   0.04  -0.12    -0.10   0.06   0.02
   7   6    -0.16  -0.05  -0.01    -0.04   0.08   0.06    -0.07   0.02  -0.13
   8   8    -0.44  -0.04  -0.15    -0.03   0.09  -0.06    -0.03   0.02   0.03
   9   6    -0.14   0.02   0.08    -0.13   0.05   0.26    -0.07  -0.08  -0.29
  10   6    -0.14  -0.02  -0.01    -0.12  -0.02   0.07    -0.08  -0.05  -0.14
  11   6    -0.10  -0.04  -0.12    -0.07  -0.10  -0.23    -0.11   0.06   0.20
  12   6    -0.01  -0.04  -0.08    -0.01  -0.08  -0.19    -0.07   0.05   0.20
  13   7     0.03  -0.00  -0.02     0.03   0.01  -0.05    -0.00   0.00  -0.01
  14   6     0.05  -0.01   0.03     0.02   0.01   0.06     0.06  -0.02  -0.04
  15   6     0.09   0.01   0.07     0.04  -0.01   0.11     0.10   0.05  -0.01
  16   6     0.09   0.06   0.03     0.06   0.04   0.02     0.08   0.06   0.05
  17   6     0.10   0.08   0.01     0.10   0.08  -0.03     0.07   0.05   0.07
  18   6     0.09   0.00   0.05     0.10  -0.01   0.07     0.04   0.03  -0.00
  19   6     0.09  -0.02   0.05     0.08  -0.02   0.10     0.07  -0.00  -0.04
  20   6    -0.01  -0.02   0.04    -0.01   0.01   0.04    -0.02  -0.03  -0.09
  21   6    -0.04  -0.06   0.03    -0.06  -0.01   0.06    -0.02  -0.02  -0.09
  22   6    -0.01  -0.06  -0.01    -0.00  -0.00  -0.01    -0.03  -0.03   0.00
  23   6     0.03  -0.06  -0.04     0.05   0.02  -0.05     0.00  -0.10   0.03
  24   6    -0.01  -0.03   0.01    -0.04   0.03   0.01     0.04  -0.12  -0.01
  25   6    -0.04  -0.03   0.05    -0.06   0.02   0.06    -0.01  -0.11  -0.07
  26   6    -0.02  -0.04  -0.09    -0.02  -0.10  -0.18    -0.09   0.07   0.15
  27   6    -0.07  -0.03   0.02    -0.07  -0.03   0.09    -0.07  -0.01  -0.12
  28   6     0.00  -0.06  -0.10     0.06   0.02  -0.10     0.03   0.04   0.07
  29   6    -0.03   0.04  -0.08     0.05  -0.07   0.02     0.10  -0.08   0.05
  30   6     0.14  -0.09   0.01    -0.13   0.28  -0.06     0.07   0.29  -0.04
  31   6     0.06  -0.01   0.03    -0.07   0.08  -0.07     0.08   0.11  -0.03
  32   6     0.02   0.09  -0.00    -0.01  -0.22  -0.02     0.09  -0.16  -0.01
  33   6     0.01   0.08   0.00    -0.01  -0.22  -0.00     0.07  -0.19   0.03
  34   7    -0.03   0.02  -0.01     0.03  -0.04   0.03     0.00   0.01  -0.01
  35   6    -0.05  -0.02   0.01     0.02   0.06  -0.01    -0.06   0.04   0.00
  36   6    -0.09  -0.04   0.03     0.07   0.09  -0.05    -0.08   0.04  -0.01
  37   6    -0.09  -0.05   0.02     0.10   0.06  -0.03    -0.04  -0.01  -0.02
  38   6    -0.10  -0.05  -0.06     0.10   0.00   0.08    -0.07  -0.08  -0.02
  39   6    -0.09  -0.05  -0.05     0.06   0.03   0.03    -0.08  -0.08  -0.04
  40   6    -0.09  -0.07   0.01     0.04   0.10  -0.05    -0.10  -0.02  -0.04
  41   6     0.01  -0.03   0.04    -0.01   0.05  -0.01     0.02   0.09  -0.01
  42   6     0.03  -0.03   0.05    -0.06   0.07  -0.00     0.01   0.10   0.07
  43   6     0.01   0.01   0.03    -0.05   0.02   0.03    -0.04   0.06   0.10
  44   6    -0.03   0.06   0.04     0.05  -0.04   0.04    -0.00   0.01   0.10
  45   6     0.01   0.04   0.06    -0.00  -0.01  -0.00     0.03   0.01   0.03
  46   6     0.04  -0.00   0.07    -0.06   0.05  -0.03     0.02   0.09  -0.02
  47   6     0.10   0.12  -0.01    -0.06  -0.26  -0.00     0.12  -0.19   0.02
  48   6     0.14   0.02   0.01    -0.12   0.06  -0.05     0.08   0.14   0.00
[...]
   2   6     0.00   0.00   0.00     0.00   0.00   0.00    -0.00  -0.00  -0.00
   3   6     0.01   0.00   0.00    -0.00   0.00   0.00     0.00   0.00   0.00
   4   6     0.15  -0.07  -0.04    -0.00   0.00   0.00     0.01  -0.01  -0.00
   5   6     0.00  -0.12  -0.08    -0.00  -0.00  -0.00    -0.00  -0.00  -0.00
   6   6    -0.01  -0.00  -0.00     0.00   0.00  -0.00    -0.00   0.00   0.00
   7   6    -0.00  -0.00  -0.00    -0.00  -0.00   0.00     0.00  -0.00   0.00
   8   8     0.00   0.00   0.00     0.00   0.00   0.00    -0.00   0.00  -0.00
   9   6     0.00  -0.00   0.00     0.00   0.00  -0.00     0.00   0.00  -0.00
  10   6    -0.00   0.00  -0.00    -0.01  -0.10   0.04    -0.00  -0.01   0.00
  11   6     0.01   0.00  -0.00    -0.18  -0.08   0.02    -0.01  -0.01   0.00
  12   6     0.00  -0.00   0.00    -0.00   0.00  -0.00    -0.00   0.00  -0.00
  13   7     0.00  -0.00   0.00    -0.00  -0.00  -0.00    -0.00  -0.00  -0.00
  14   6    -0.00  -0.00  -0.00     0.00   0.00   0.00     0.00   0.00   0.00
  15   6     0.00  -0.00  -0.00     0.00  -0.00  -0.00     0.00  -0.00  -0.00
  16   6    -0.00   0.00   0.00     0.01  -0.00  -0.00     0.00  -0.00  -0.00
  17   6    -0.00  -0.00  -0.00     0.01   0.00   0.00     0.00   0.00   0.00
  18   6     0.00  -0.00  -0.00     0.00  -0.00  -0.00    -0.00   0.00   0.00
  19   6    -0.00   0.00   0.00     0.02  -0.01  -0.01     0.00  -0.00  -0.00
  20   6     0.00   0.00  -0.00     0.00   0.00   0.00     0.00   0.00   0.00
  21   6     0.00   0.00   0.00    -0.00  -0.00  -0.00     0.00   0.00   0.00
  22   6    -0.00   0.00  -0.00    -0.00   0.00  -0.00     0.00  -0.00   0.00
  23   6     0.00   0.00   0.00     0.00   0.01   0.00     0.00  -0.00  -0.00
  24   6    -0.00  -0.00  -0.00    -0.00  -0.00  -0.00    -0.00  -0.00  -0.00
  25   6    -0.00   0.00  -0.00    -0.00   0.01  -0.01    -0.00   0.00  -0.00
  26   6    -0.00  -0.02   0.01    -0.01  -0.12   0.05    -0.00  -0.01   0.00
  27   6    -0.01  -0.00   0.00    -0.09  -0.04   0.01    -0.01  -0.00   0.00
  28   6    -0.11   0.05   0.04     0.01  -0.01  -0.00     0.00  -0.00  -0.00
  29   6    -0.00   0.09   0.06     0.00  -0.01  -0.00     0.00  -0.00  -0.00
  30   6    -0.00   0.00   0.00    -0.00  -0.00  -0.00     0.00   0.00   0.00
  31   6     0.00   0.00   0.00     0.01   0.00   0.00    -0.08  -0.00  -0.04
  32   6     0.00   0.00   0.04     0.00   0.00   0.01    -0.01  -0.00  -0.10
  33   6    -0.00  -0.00   0.00     0.00   0.00  -0.00    -0.00  -0.00   0.00
  34   7    -0.00   0.00   0.00     0.00   0.00   0.00    -0.00  -0.00  -0.00
  35   6     0.00   0.00   0.00    -0.00  -0.00  -0.00     0.00   0.00   0.00
  36   6    -0.00   0.00   0.00    -0.00   0.00   0.00     0.01  -0.01  -0.00
  37   6    -0.00   0.00   0.00    -0.00   0.00   0.00    -0.00   0.00   0.00
  38   6     0.00   0.00   0.00    -0.00  -0.00  -0.00     0.01   0.01   0.00
  39   6    -0.00   0.00   0.00    -0.00   0.00   0.00     0.01  -0.01  -0.00
  40   6    -0.00   0.00   0.00    -0.00   0.00   0.00     0.00  -0.01  -0.00
  41   6    -0.00  -0.00  -0.00    -0.00  -0.00   0.00     0.00   0.00   0.00
  42   6     0.00   0.00  -0.00     0.00   0.00  -0.00    -0.00  -0.00   0.01
  43   6     0.00   0.00   0.00    -0.00  -0.00  -0.00    -0.00  -0.00  -0.00
  44   6    -0.00  -0.00  -0.00     0.00  -0.00  -0.00     0.00   0.00   0.00
  45   6     0.00   0.00  -0.00     0.00   0.00  -0.00    -0.00  -0.00   0.00
  46   6     0.00   0.00   0.00     0.00   0.00   0.00    -0.00  -0.00  -0.00
  47   6    -0.01  -0.00  -0.00     0.01   0.00   0.01    -0.20  -0.02  -0.08
  48   6     0.00  -0.00  -0.00     0.00   0.00   0.01    -0.01  -0.00  -0.12
  49   1    -0.52   0.25   0.15     0.00  -0.00  -0.00    -0.04   0.02   0.01
  50   1    -0.01   0.40   0.26    -0.00   0.00   0.00    -0.00   0.01   0.01
  51   1    -0.00  -0.00   0.00     0.04   0.32  -0.12     0.00   0.02  -0.01
  52   1    -0.03  -0.01   0.00     0.63   0.27  -0.06     0.05   0.02  -0.00
  53   1    -0.00   0.00   0.00    -0.00   0.01   0.01    -0.00   0.00   0.00
  54   1     0.00  -0.00  -0.00    -0.03   0.01   0.01    -0.00   0.00   0.00
  55   1     0.00   0.00   0.00    -0.03  -0.02  -0.01    -0.00  -0.00  -0.00
  56   1    -0.00   0.00   0.00    -0.00   0.00   0.00     0.00  -0.00  -0.00
  57   1     0.00  -0.00  -0.00    -0.06   0.02   0.02    -0.00   0.00   0.00
  58   1    -0.00  -0.00  -0.00     0.00   0.00   0.01    -0.00  -0.00  -0.00
  59   1     0.00  -0.00   0.00     0.01  -0.01   0.01    -0.00   0.00  -0.00
  60   1    -0.00  -0.00  -0.00    -0.00  -0.02  -0.00    -0.00   0.00   0.00
  61   1     0.00   0.00   0.00     0.00   0.00   0.00     0.00   0.00   0.00
  62   1     0.00  -0.00   0.01     0.02  -0.02   0.03     0.00  -0.00   0.00
  63   1     0.01   0.09  -0.04     0.06   0.40  -0.16     0.00   0.03  -0.01
  64   1     0.02   0.01  -0.00     0.32   0.13  -0.04     0.02   0.01  -0.00
  65   1     0.37  -0.17  -0.12    -0.05   0.02   0.02    -0.01   0.00   0.00
  66   1     0.00  -0.30  -0.21    -0.00   0.02   0.01    -0.00   0.01   0.01
  67   1    -0.01  -0.00  -0.01    -0.02  -0.00  -0.01     0.28   0.02   0.12
  68   1    -0.02  -0.00  -0.13    -0.00  -0.00  -0.03     0.04   0.00   0.33
  69   1     0.00  -0.00  -0.00     0.01  -0.00  -0.00    -0.05   0.02   0.01
  70   1     0.00  -0.00  -0.00     0.00  -0.00  -0.00     0.00  -0.01  -0.01
  71   1    -0.00  -0.00  -0.00     0.00   0.00   0.00    -0.05  -0.03  -0.02
  72   1     0.00  -0.00  -0.00     0.00  -0.00  -0.00    -0.04   0.02   0.01
  73   1     0.00  -0.00  -0.00     0.00  -0.00  -0.00    -0.00   0.03   0.01
  74   1    -0.01  -0.01   0.02    -0.00  -0.00   0.00     0.01   0.02  -0.03
  75   1    -0.00  -0.01  -0.00     0.00   0.00   0.00     0.00   0.01   0.00
  76   1    -0.00   0.00   0.00    -0.00   0.00   0.00     0.00  -0.00  -0.01
  77   1    -0.00  -0.00   0.01    -0.00  -0.00   0.00     0.00   0.00  -0.01
  78   1    -0.00  -0.01  -0.00    -0.00  -0.00  -0.00     0.00   0.01   0.00
  79   1     0.02   0.00   0.01    -0.05  -0.00  -0.02     0.68   0.06   0.30
  80   1     0.00  -0.00   0.00    -0.00  -0.00  -0.03     0.04   0.01   0.38
                    229                    230                    231
                        a                      a                      a 
 Frequencies --  3096.1180              3096.4065              3096.5638
 Red. masses --     1.8875                 1.9125                 1.9103
 Frc consts  --     0.0000                 0.0000                 0.0000
 IR Inten    --     8.1616                40.9859                83.6189
 Raman Activ --     0.0000                 0.0000                 0.0000
 Depolar     --     0.0000                 0.0000                 0.0000
 Atom AN      X      Y      Z        X      Y      Z        X      Y      Z
   1   8     0.00   0.00   0.00    -0.00   0.00   0.00     0.00  -0.00  -0.00
   2   6    -0.00  -0.00  -0.00     0.00  -0.00  -0.00    -0.00   0.00   0.00
   3   6    -0.00  -0.00  -0.00    -0.00  -0.00  -0.00     0.00   0.00   0.00
   4   6    -0.01   0.00   0.00    -0.01   0.01   0.00     0.01  -0.01  -0.00
   5   6    -0.00   0.01   0.00    -0.00   0.00   0.00     0.00  -0.01  -0.00
   6   6     0.00   0.00   0.00     0.00   0.00   0.00    -0.00  -0.00  -0.00
   7   6    -0.00   0.00  -0.00     0.00   0.00   0.00    -0.00  -0.00  -0.00
   8   8     0.00  -0.00   0.00    -0.00  -0.00  -0.00     0.00   0.00   0.00
   9   6    -0.00   0.00  -0.00    -0.00   0.00  -0.00     0.00   0.00   0.00
  10   6     0.01   0.07  -0.03     0.00   0.00  -0.00    -0.00   0.00  -0.00
  11   6     0.11   0.05  -0.01     0.00   0.00  -0.00     0.00   0.00  -0.00
  12   6     0.01  -0.01   0.00     0.00  -0.00   0.00     0.00  -0.00  -0.00
  13   7    -0.00   0.00  -0.00    -0.00   0.00  -0.00     0.00  -0.00  -0.00
  14   6     0.00   0.00   0.00    -0.00  -0.00  -0.00     0.00   0.00   0.00
  15   6    -0.00   0.01   0.01     0.00  -0.00  -0.00    -0.00   0.00   0.00
  16   6    -0.02   0.01   0.01     0.00  -0.00  -0.00    -0.00   0.00   0.00
  17   6    -0.02  -0.01  -0.01     0.00   0.00   0.00    -0.01  -0.00  -0.00
  18   6     0.00  -0.01  -0.01    -0.00   0.00   0.00     0.00  -0.00  -0.00
  19   6     0.00  -0.00  -0.00    -0.00   0.00   0.00     0.00  -0.00  -0.00
  20   6     0.00  -0.00  -0.00     0.00  -0.00  -0.00    -0.00   0.00   0.00
  21   6    -0.02  -0.02  -0.03    -0.00  -0.00  -0.00     0.01   0.01   0.01
  22   6    -0.03   0.03  -0.05    -0.00   0.00  -0.00     0.01  -0.01   0.01
  23   6    -0.00   0.10   0.01    -0.00   0.01   0.00     0.00  -0.03  -0.00
  24   6     0.02   0.02   0.04     0.00   0.00   0.00    -0.01  -0.01  -0.01
  25   6     0.01  -0.02   0.02     0.00  -0.00   0.00    -0.00   0.01  -0.01
  26   6    -0.02  -0.14   0.06    -0.00  -0.00   0.00    -0.00  -0.00   0.00
  27   6    -0.11  -0.05   0.01    -0.00  -0.00   0.00    -0.00  -0.00   0.00
  28   6     0.02  -0.01  -0.01     0.00  -0.00  -0.00    -0.00   0.00   0.00
  29   6     0.00  -0.01  -0.01     0.00  -0.00  -0.00    -0.00   0.00   0.00
  30   6    -0.00  -0.00   0.00     0.00   0.00  -0.00    -0.00  -0.00   0.00
  31   6    -0.01  -0.00  -0.00     0.07   0.00   0.03    -0.08  -0.00  -0.04
  32   6    -0.00  -0.00  -0.01     0.01   0.00   0.08    -0.01  -0.00  -0.10
  33   6     0.00   0.00  -0.00    -0.00  -0.00   0.00     0.01   0.00  -0.00
  34   7    -0.00  -0.00  -0.00     0.00  -0.00  -0.00    -0.00  -0.00  -0.00
  35   6     0.00   0.00   0.00     0.00   0.00   0.00     0.01   0.00   0.00
  36   6     0.00  -0.00  -0.00     0.01  -0.01  -0.00     0.05  -0.02  -0.01
  37   6     0.00  -0.00  -0.00     0.00  -0.02  -0.01     0.01  -0.09  -0.05
  38   6    -0.00  -0.00  -0.00    -0.03  -0.02  -0.01    -0.13  -0.08  -0.04
  39   6    -0.00   0.00   0.00    -0.02   0.01   0.00    -0.10   0.04   0.02
  40   6    -0.00   0.00   0.00    -0.00   0.01   0.01    -0.01   0.07   0.03
  41   6     0.00  -0.00   0.00    -0.00   0.00   0.01    -0.00   0.00   0.00
  42   6     0.00   0.00  -0.00    -0.03  -0.03   0.05    -0.01  -0.01   0.01
  43   6     0.00   0.00   0.00    -0.04  -0.09  -0.01    -0.01  -0.02  -0.00
  44   6    -0.00   0.00   0.00     0.00  -0.08  -0.15     0.00  -0.01  -0.03
  45   6    -0.00  -0.00   0.00     0.05   0.05  -0.09     0.01   0.01  -0.01
  46   6    -0.00  -0.00  -0.00     0.03   0.07   0.01     0.00   0.01   0.00
  47   6     0.00   0.00   0.00    -0.05  -0.00  -0.02     0.05   0.00   0.02
  48   6     0.00   0.00   0.00    -0.00  -0.00  -0.03     0.00   0.00   0.03
  49   1     0.02  -0.01  -0.01     0.04  -0.02  -0.01    -0.05   0.02   0.01
  50   1     0.00  -0.02  -0.01     0.00  -0.02  -0.01    -0.00   0.02   0.01
  51   1    -0.03  -0.22   0.08    -0.00  -0.00   0.00    -0.00  -0.00   0.00
  52   1    -0.40  -0.17   0.04    -0.01  -0.00   0.00    -0.00  -0.00   0.00
  53   1     0.00  -0.03  -0.02    -0.00   0.00   0.00     0.00  -0.01  -0.01
  54   1     0.05  -0.02  -0.02    -0.00   0.00   0.00     0.01  -0.01  -0.00
  55   1     0.08   0.04   0.03    -0.01  -0.00  -0.00     0.02   0.01   0.01
  56   1    -0.00   0.04   0.03     0.00  -0.00  -0.00    -0.00   0.01   0.01
  57   1    -0.00   0.00   0.00     0.00  -0.00  -0.00    -0.01   0.00   0.00
  58   1     0.05   0.06   0.11     0.01   0.01   0.01    -0.02  -0.02  -0.03
  59   1     0.08  -0.11   0.15     0.01  -0.01   0.01    -0.02   0.03  -0.04
  60   1     0.00  -0.32  -0.02     0.00  -0.03  -0.00    -0.00   0.09   0.01
  61   1    -0.07  -0.08  -0.14    -0.01  -0.01  -0.01     0.02   0.02   0.04
  62   1    -0.04   0.05  -0.06    -0.00   0.01  -0.01     0.02  -0.02   0.03
  63   1     0.07   0.48  -0.19     0.00   0.00  -0.00     0.00   0.01  -0.00
  64   1     0.39   0.16  -0.05     0.00   0.00  -0.00     0.01   0.00  -0.00
  65   1    -0.06   0.03   0.02    -0.01   0.01   0.00     0.01  -0.01  -0.00
  66   1    -0.00   0.03   0.02    -0.00   0.01   0.01     0.00  -0.01  -0.01
  67   1     0.03   0.00   0.01    -0.24  -0.01  -0.11     0.29   0.02   0.13
  68   1     0.00   0.00   0.04    -0.04  -0.00  -0.28     0.04   0.00   0.35
  69   1    -0.00   0.00   0.00    -0.05   0.02   0.01    -0.18   0.08   0.03
  70   1    -0.00   0.01   0.00    -0.01   0.06   0.03    -0.03   0.30   0.15
  71   1     0.01   0.01   0.00     0.08   0.05   0.03     0.43   0.26   0.14
  72   1     0.01  -0.00  -0.00     0.06  -0.02  -0.01     0.32  -0.14  -0.06
  73   1     0.00  -0.01  -0.00     0.00  -0.04  -0.02     0.02  -0.22  -0.11
  74   1    -0.00  -0.00   0.00     0.09   0.10  -0.17     0.03   0.03  -0.05
  75   1    -0.00  -0.00  -0.00     0.13   0.30   0.03     0.02   0.06   0.01
  76   1     0.00  -0.00  -0.01    -0.01   0.26   0.51    -0.00   0.04   0.08
  77   1     0.00   0.00  -0.00    -0.15  -0.17   0.29    -0.02  -0.03   0.04
  78   1     0.00   0.00   0.00    -0.11  -0.24  -0.03    -0.02  -0.04  -0.00
  79   1    -0.01  -0.00  -0.01     0.17   0.02   0.08    -0.16  -0.01  -0.07
  80   1    -0.00  -0.00  -0.01     0.01   0.00   0.11    -0.01  -0.00  -0.10
                    232                    233                    234
                        a                      a                      a 
 Frequencies --  3096.6858              3097.3463              3097.5226
 Red. masses --     1.9158                 1.9029                 1.9194
 Frc consts  --     0.0000                 0.0000                 0.0000
 IR Inten    --    66.8978                32.0798                62.9308
 Raman Activ --     0.0000                 0.0000                 0.0000
 Depolar     --     0.0000                 0.0000                 0.0000
 Atom AN      X      Y      Z        X      Y      Z        X      Y      Z
   1   8     0.00   0.00   0.00     0.00  -0.00  -0.00     0.00   0.00  -0.00
   2   6    -0.00  -0.00  -0.00    -0.00   0.00   0.00    -0.00  -0.00   0.00
   3   6    -0.00  -0.00  -0.00     0.00   0.00   0.00    -0.00  -0.00   0.00
   4   6    -0.01   0.00   0.00     0.02  -0.01  -0.00    -0.00   0.00   0.00
   5   6    -0.00   0.00   0.00     0.00  -0.01  -0.00    -0.00   0.00   0.00
   6   6     0.00   0.00   0.00    -0.00  -0.00  -0.00     0.00   0.00   0.00
   7   6    -0.00   0.00  -0.00    -0.00  -0.00  -0.00    -0.00   0.00  -0.00
   8   8     0.00  -0.00   0.00     0.00   0.00   0.00     0.00  -0.00   0.00
   9   6    -0.00   0.00  -0.00     0.00  -0.00   0.00    -0.00   0.00  -0.00
  10   6     0.00   0.03  -0.01    -0.00  -0.00   0.00     0.00   0.03  -0.01
  11   6     0.05   0.02  -0.00    -0.00  -0.00   0.00     0.04   0.02  -0.00
  12   6     0.00  -0.00   0.00    -0.00   0.00  -0.00     0.00  -0.00   0.00
  13   7    -0.00  -0.00  -0.00     0.00  -0.00   0.00     0.00   0.00   0.00
  14   6     0.00   0.00   0.00     0.00   0.00   0.00    -0.01  -0.00  -0.00
  15   6    -0.00   0.02   0.02    -0.00   0.00   0.00     0.00  -0.06  -0.05
  16   6    -0.05   0.02   0.02    -0.01   0.00   0.00     0.10  -0.04  -0.03
  17   6    -0.07  -0.04  -0.03    -0.01  -0.00  -0.00     0.14   0.08   0.06
  18   6     0.00  -0.04  -0.03     0.00  -0.00  -0.00    -0.01   0.09   0.07
  19   6     0.03  -0.01  -0.01     0.00  -0.00  -0.00    -0.07   0.02   0.02
  20   6    -0.00   0.01   0.00    -0.00  -0.00  -0.00     0.00   0.00   0.00
  21   6     0.03   0.03   0.05    -0.00  -0.00  -0.00     0.01   0.01   0.02
  22   6     0.04  -0.06   0.07    -0.00   0.00  -0.00     0.02  -0.02   0.03
  23   6     0.00  -0.16  -0.01    -0.00   0.00   0.00     0.00  -0.06  -0.00
  24   6    -0.04  -0.04  -0.08     0.00   0.00   0.00    -0.02  -0.02  -0.03
  25   6    -0.03   0.04  -0.05     0.00  -0.00   0.00    -0.01   0.02  -0.02
  26   6    -0.01  -0.06   0.03     0.00   0.01  -0.00    -0.01  -0.05   0.02
  27   6    -0.05  -0.02   0.01     0.00   0.00  -0.00    -0.04  -0.02   0.00
  28   6     0.01  -0.00  -0.00    -0.01   0.00   0.00     0.00  -0.00  -0.00
  29   6     0.00  -0.00  -0.00    -0.00   0.01   0.00     0.00  -0.00  -0.00
  30   6     0.00   0.00  -0.00    -0.00  -0.00   0.00    -0.00  -0.00   0.00
  31   6     0.01   0.00   0.01    -0.10  -0.01  -0.04    -0.01  -0.00  -0.00
  32   6     0.00   0.00   0.02    -0.01  -0.00  -0.12    -0.00  -0.00  -0.01
  33   6    -0.00  -0.00   0.00     0.01   0.00  -0.00     0.00   0.00  -0.00
  34   7     0.00   0.00  -0.00     0.00  -0.00  -0.00     0.00   0.00  -0.00
  35   6    -0.00  -0.00  -0.00    -0.00  -0.00  -0.00    -0.00  -0.00  -0.00
  36   6    -0.01   0.00   0.00    -0.04   0.02   0.01    -0.00   0.00   0.00
  37   6    -0.00   0.01   0.01    -0.01   0.06   0.03    -0.00   0.01   0.00
  38   6     0.02   0.01   0.01     0.08   0.05   0.03     0.01   0.00   0.00
  39   6     0.01  -0.01  -0.00     0.06  -0.03  -0.01     0.01  -0.00  -0.00
  40   6     0.00  -0.01  -0.00     0.00  -0.05  -0.02     0.00  -0.00  -0.00
  41   6     0.00   0.00   0.00     0.00   0.00   0.00     0.00   0.00   0.00
  42   6    -0.00  -0.00   0.00    -0.02  -0.02   0.04    -0.00  -0.00   0.00
  43   6    -0.00  -0.00  -0.00    -0.02  -0.05  -0.01    -0.00  -0.00  -0.00
  44   6     0.00  -0.00  -0.00     0.00  -0.04  -0.08     0.00  -0.00  -0.00
  45   6     0.00   0.00  -0.00     0.03   0.03  -0.05     0.00   0.00  -0.00
  46   6     0.00   0.00   0.00     0.02   0.04   0.01     0.00   0.00   0.00
  47   6    -0.01  -0.00  -0.00     0.08   0.01   0.04     0.00   0.00   0.00
  48   6    -0.00  -0.00  -0.00     0.01   0.00   0.05     0.00   0.00   0.00
  49   1     0.02  -0.01  -0.01    -0.05   0.03   0.02     0.01  -0.00  -0.00
  50   1     0.00  -0.01  -0.01    -0.00   0.03   0.02     0.00  -0.01  -0.00
  51   1    -0.01  -0.09   0.03     0.00   0.01  -0.00    -0.01  -0.08   0.03
  52   1    -0.16  -0.07   0.02     0.02   0.01  -0.00    -0.15  -0.07   0.01
  53   1     0.01  -0.08  -0.07     0.00  -0.01  -0.01    -0.02   0.19   0.16
  54   1     0.15  -0.06  -0.05     0.02  -0.01  -0.01    -0.32   0.12   0.11
  55   1     0.25   0.13   0.10     0.03   0.01   0.01    -0.48  -0.25  -0.20
  56   1    -0.01   0.14   0.11    -0.00   0.02   0.01     0.03  -0.28  -0.24
  57   1    -0.09   0.03   0.03    -0.01   0.00   0.00     0.22  -0.08  -0.07
  58   1    -0.10  -0.10  -0.18     0.00   0.00   0.01    -0.04  -0.05  -0.08
  59   1    -0.14   0.18  -0.24     0.00  -0.01   0.01    -0.06   0.07  -0.10
  60   1    -0.00   0.53   0.04     0.00  -0.02  -0.00    -0.00   0.21   0.01
  61   1     0.13   0.14   0.25    -0.00  -0.00  -0.01     0.05   0.06   0.10
  62   1     0.09  -0.13   0.17    -0.00   0.00  -0.01     0.04  -0.06   0.08
  63   1     0.03   0.21  -0.09    -0.00  -0.02   0.01     0.02   0.16  -0.06
  64   1     0.17   0.07  -0.02    -0.02  -0.01   0.00     0.13   0.05  -0.02
  65   1    -0.03   0.01   0.01     0.02  -0.01  -0.01    -0.02   0.01   0.01
  66   1    -0.00   0.02   0.01     0.00  -0.02  -0.01    -0.00   0.01   0.01
  67   1    -0.04  -0.00  -0.02     0.34   0.02   0.15     0.02   0.00   0.01
  68   1    -0.01  -0.00  -0.05     0.05   0.00   0.42     0.00   0.00   0.02
  69   1     0.03  -0.01  -0.00     0.15  -0.06  -0.03     0.01  -0.01  -0.00
  70   1     0.00  -0.04  -0.02     0.02  -0.20  -0.10     0.00  -0.02  -0.01
  71   1    -0.06  -0.04  -0.02    -0.27  -0.17  -0.09    -0.02  -0.01  -0.01
  72   1    -0.05   0.02   0.01    -0.21   0.09   0.04    -0.02   0.01   0.00
  73   1    -0.00   0.03   0.02    -0.01   0.16   0.08    -0.00   0.01   0.01
  74   1     0.00   0.00  -0.00     0.06   0.07  -0.12     0.00   0.00  -0.01
  75   1     0.00   0.01   0.00     0.07   0.17   0.02     0.00   0.01   0.00
  76   1    -0.00   0.01   0.01    -0.00   0.13   0.26    -0.00   0.01   0.02
  77   1    -0.00  -0.00   0.01    -0.08  -0.09   0.15    -0.01  -0.01   0.01
  78   1    -0.00  -0.01  -0.00    -0.06  -0.14  -0.02    -0.00  -0.01  -0.00
  79   1     0.02   0.00   0.01    -0.27  -0.02  -0.12    -0.02  -0.00  -0.01
  80   1     0.00   0.00   0.02    -0.02  -0.01  -0.17    -0.00  -0.00  -0.01
