$hessian                                                                        
        0.4658764345   0.2618594361  -0.0097014204  -0.2250658281  -0.1273124049
        0.0745430715  -0.0340401976  -0.0309381132  -0.0540428529  -0.0251340559
       -0.0116372190   0.0292506234  -0.0009591607  -0.0003545462  -0.0007022369
       -0.0000111231   0.0002778688   0.0005407810  -0.0001920594  -0.0001339512
       -0.0000228575   0.0000005000   0.0000148065   0.0000395109   0.0000010896
        0.0000001315   0.0000017015   0.0000217356  -0.0000027486  -0.0000208433
        0.0000012607  -0.0000051273  -0.0000027903  -0.0000054070   0.0000122017
        0.0000077071  -0.0000011931  -0.0000118280  -0.0000045082   0.0001094639
       -0.0000213713   0.0000175870   0.0000558490  -0.0001451130   0.0000272347
        0.0000080865  -0.0000152015  -0.0000097654  -0.0000062263  -0.0000066289
        0.0000080957   0.0000528110  -0.0000182932  -0.0000130967  -0.0000246848
        0.0000044549  -0.0000020452  -0.0000101073  -0.0000047619   0.0000108729
       -0.0000012020   0.0000031909  -0.0000029218  -0.0000034047   0.0000066792
       -0.0000041614  -0.0000173653   0.0000012564  -0.0000021293   0.0000166868
        0.0000012498  -0.0000026922   0.0000046628   0.0000056307   0.0000036546
        0.0000034653  -0.0000057202  -0.0000023542  -0.0000049862   0.0000001727
       -0.0000002455  -0.0000060693   0.0000032520  -0.0000016745   0.0000011914
       -0.0000029253   0.0000015092  -0.0000014949   0.0000003712  -0.0000004254
       -0.0000006545  -0.0000018905   0.0000010010  -0.0000012115   0.0000006759
        0.0000000671   0.0000006299   0.0000006170   0.0000001469  -0.0000002079
       -0.0000009336   0.0000007445  -0.0000020301  -0.0000000397   0.0000001255
        0.0000010007  -0.0000007862   0.0000004939   0.0000013324   0.0000003276
       -0.0000002017  -0.0000022774  -0.0000010767   0.0000001550  -0.0000017517
        0.0000002837  -0.0000007274   0.0000004495   0.0000002358  -0.0000007232
        0.0000000687  -0.0000015337   0.0000003616  -0.0000009429   0.0000011797
       -0.0000008404   0.0000021695   0.0000010418  -0.0000004410  -0.0000009724
       -0.0000004701   0.0000002840  -0.0000000255   0.0000002186  -0.0000006129
        0.0000003685  -0.0000016391  -0.0000009469  -0.0000007753   0.0000003570
        0.0000005885   0.0000001035   0.0000006862  -0.0000006905  -0.0000001989
       -0.0000010590  -0.0000005863  -0.0000008950  -0.0000006040   0.0000008726
        0.0000019707   0.0000048219   0.0000030469   0.0000046052  -0.0000056998
       -0.0000035370  -0.0000144839  -0.0000016324   0.0000027404   0.0000026083
       -0.0000035174   0.0000046570  -0.0000169876   0.0000038183  -0.0000066348
        0.0000024794  -0.0000009883   0.0000016106   0.0000075425   0.0000094332
       -0.0000121716  -0.0000011550  -0.0000113989   0.0000115778   0.0000823461
        0.0002123278  -0.0002555973   0.0354754633   0.0262225136   0.0041302452
       -0.0954885872  -0.0335372197   0.0309387676  -0.1090767864  -0.0637606851
       -0.0966330619  -0.0076183254  -0.0058421400   0.0040105249   0.0019246171
       -0.0049974945  -0.0022982453   0.0000552639   0.0000138053  -0.0001287355
        0.0000079017   0.0000074505  -0.0000030955  -0.0000036776  -0.0000020803
       -0.0000014160  -0.0000034398   0.0000055434   0.0000017016   0.0000032394
        0.0000023982   0.0000031276   0.0000032635   0.0000105316   0.0000034403
        0.0000150325   0.0000544185  -0.0000309916   0.0000081225   0.0000415606
        0.0000093813  -0.0000014522   0.0000064930  -0.0000087182  -0.0000029354
        0.0000027163  -0.0000008305  -0.0000013844  -0.0000005519  -0.0000000730
        0.0000000426  -0.0000019073   0.0000000275  -0.0000030630   0.0000000839
        0.0000004032   0.0000004305  -0.0000001261   0.0000004727  -0.0000000806
       -0.0000000976   0.0000006709   0.0000000478   0.0000003783   0.0000003579
        0.0000002027  -0.0000001325   0.0000001480   0.0000003444  -0.0000001695
       -0.0000000477   0.0000003488  -0.0000006705  -0.0000001208  -0.0000004279
       -0.0000007281  -0.0000004788  -0.0000002023  -0.0000002909  -0.0000005226
       -0.0000005292   0.0000002144   0.0000002326  -0.0000005001   0.0000003710
       -0.0000008938  -0.0000004728   0.0000001459  -0.0000009474  -0.0000001016
       -0.0000006151  -0.0000013302   0.0000002614  -0.0000007119  -0.0000009999
       -0.0000031215  -0.0000000937  -0.0000007181  -0.0000006683   0.0000021660
       -0.0000004624  -0.0000007813   0.0000011225  -0.0000010363   0.0000030040
       -0.0000010941  -0.0000002143  -0.0000018161   0.0000009535  -0.0000027669
       -0.0000063231  -0.0000048574   0.0000064466   0.0002103448  -0.0000227105
       -0.0000670877   0.0019716441  -0.0050512918  -0.0027893968  -0.0081966750
       -0.0049247023   0.0232081530
        0.2618594361   0.3151545030   0.0345915037  -0.1316730593  -0.1429250003
        0.0517829221  -0.0269179037  -0.0221879956  -0.0375672671  -0.0122145530
       -0.0135187695   0.0206313780  -0.0006376666  -0.0006197289  -0.0005359590
       -0.0000388349   0.0002656360   0.0004618525  -0.0001600995  -0.0000951835
       -0.0000617578  -0.0000042744   0.0000123088   0.0000262676   0.0000010278
        0.0000013569   0.0000026418   0.0000170144  -0.0000005122  -0.0000168107
        0.0000011773  -0.0000043241  -0.0000042130  -0.0000051755   0.0000081317
        0.0000057466  -0.0000021713  -0.0000073224  -0.0000033437   0.0001122018
       -0.0000235947   0.0000046232   0.0000790737  -0.0000865354   0.0000089129
        0.0000053046  -0.0000057117  -0.0000032432  -0.0000071718  -0.0000056409
        0.0000055157   0.0000427204  -0.0000148651  -0.0000033913  -0.0000224509
        0.0000044203  -0.0000014280  -0.0000066608  -0.0000029451   0.0000081814
        0.0000008923   0.0000022043  -0.0000007194  -0.0000070105   0.0000067056
       -0.0000059117  -0.0000150930   0.0000010879  -0.0000014622   0.0000203381
        0.0000012722  -0.0000021402   0.0000038765   0.0000045865   0.0000031663
        0.0000030268  -0.0000031659  -0.0000017475  -0.0000040140  -0.0000003118
       -0.0000003950  -0.0000028999  -0.0000001728  -0.0000003630   0.0000015335
        0.0000001061   0.0000006831  -0.0000011468   0.0000000478  -0.0000002934
       -0.0000015396  -0.0000011876   0.0000004799   0.0000005457   0.0000012606
       -0.0000002249   0.0000010342  -0.0000013952   0.0000008590  -0.0000016946
       -0.0000010600   0.0000007357  -0.0000010831   0.0000014650  -0.0000005035
        0.0000009484   0.0000001372   0.0000000494   0.0000002331  -0.0000004002
        0.0000000020  -0.0000001630  -0.0000017838   0.0000007738  -0.0000022877
       -0.0000001048  -0.0000003286   0.0000005549   0.0000015335  -0.0000010408
        0.0000006828  -0.0000006954   0.0000002616  -0.0000022083   0.0000006703
       -0.0000006787  -0.0000021676  -0.0000014508   0.0000007266   0.0000019507
        0.0000029217  -0.0000006430  -0.0000005116  -0.0000015030  -0.0000006558
       -0.0000004843  -0.0000008178   0.0000009880  -0.0000002587   0.0000007597
        0.0000007745   0.0000007587  -0.0000003951  -0.0000008769  -0.0000003413
       -0.0000013084   0.0000002130   0.0000002866   0.0000005080  -0.0000000930
        0.0000001836   0.0000031998   0.0000026363   0.0000044822  -0.0000070946
       -0.0000036184  -0.0000161047  -0.0000030353   0.0000028590   0.0000044404
       -0.0000025315   0.0000049217  -0.0000136685   0.0000035378  -0.0000045351
       -0.0000018305  -0.0000013051   0.0000036847   0.0000087719   0.0000120471
       -0.0000121870  -0.0000060860  -0.0000093248   0.0000084706   0.0000444518
        0.0002141405  -0.0002154469   0.0228533466   0.0183582779  -0.0017025588
       -0.0287610521  -0.0694986588   0.0027126112  -0.0637208563  -0.0883427825
       -0.0837687264  -0.0046387287  -0.0023355905   0.0022797506  -0.0049574030
        0.0042008262  -0.0024737347   0.0000576320   0.0000147017  -0.0000633747
        0.0000037410   0.0000058684  -0.0000026119  -0.0000034033  -0.0000026211
       -0.0000000854  -0.0000031743   0.0000046947   0.0000021555   0.0000029794
        0.0000021552   0.0000026340   0.0000031085   0.0000074709   0.0000023541
        0.0000127776   0.0000336038  -0.0000182238   0.0000020202   0.0000308839
        0.0000020587  -0.0000008175   0.0000038821  -0.0000070605  -0.0000017167
        0.0000018472  -0.0000009398  -0.0000007435  -0.0000003938  -0.0000006610
        0.0000003546  -0.0000012998   0.0000000567  -0.0000024583  -0.0000004124
        0.0000002759  -0.0000000166  -0.0000004748   0.0000004499  -0.0000001647
        0.0000005656   0.0000001672   0.0000006038   0.0000003760   0.0000001539
        0.0000000340  -0.0000004442   0.0000002051  -0.0000000188  -0.0000001013
       -0.0000001491   0.0000005936  -0.0000005010  -0.0000001825  -0.0000003757
       -0.0000008746  -0.0000003198  -0.0000004962  -0.0000001927  -0.0000006886
       -0.0000003608   0.0000000907  -0.0000004637  -0.0000008887   0.0000003465
       -0.0000007064  -0.0000006378   0.0000007364  -0.0000010914  -0.0000001768
       -0.0000005790  -0.0000014565   0.0000000682  -0.0000004460  -0.0000007986
       -0.0000032093   0.0000007174  -0.0000004383  -0.0000003772   0.0000029621
       -0.0000003354  -0.0000004031   0.0000004658  -0.0000008392   0.0000022112
       -0.0000010631  -0.0000009904  -0.0000001976   0.0000005950  -0.0000030858
       -0.0000019132  -0.0000058317   0.0000053407   0.0001498323  -0.0000531872
       -0.0000715234  -0.0049239915   0.0041506370  -0.0028692716  -0.0065120543
       -0.0027436247   0.0168715525
       -0.0097014204   0.0345915037   0.6629695899   0.0110420481   0.0038554922
       -0.1071243939  -0.0063764285  -0.0013822030   0.0480053802   0.0296019513
        0.0202778886  -0.0269754353  -0.0005099165  -0.0007425748  -0.0014273356
       -0.0001680461  -0.0003170651   0.0003024998  -0.0000978181   0.0001344148
       -0.0000640785  -0.0000277593   0.0000067771   0.0000133021   0.0000076621
        0.0000318733   0.0000153474   0.0000009506  -0.0000017252  -0.0000041078
        0.0000072435  -0.0000212401  -0.0000214692   0.0000004650  -0.0000225061
       -0.0000125057  -0.0000011921   0.0000198507   0.0000108893  -0.0000377753
        0.0000658096   0.0001053891   0.0000537874  -0.0000647402  -0.0002993656
        0.0000028384   0.0000181278   0.0000238693  -0.0000304263   0.0000007603
        0.0000010549   0.0000226753  -0.0000156647   0.0000192981  -0.0000154149
        0.0000036004   0.0000013667  -0.0000188251  -0.0000030346   0.0000092406
        0.0000157911   0.0000101262  -0.0000120015  -0.0000367535   0.0000038165
       -0.0000017879  -0.0000247481  -0.0000032680   0.0000028764   0.0000381643
        0.0000011397   0.0000001063   0.0000110739   0.0000100713   0.0000071536
        0.0000053172  -0.0000062695  -0.0000047644  -0.0000055151  -0.0000001424
       -0.0000006976  -0.0000095292   0.0000014592  -0.0000013676   0.0000017278
       -0.0000018329   0.0000013570   0.0000009440   0.0000011602  -0.0000008038
       -0.0000014252  -0.0000019877   0.0000012208   0.0000007329   0.0000001514
        0.0000005360  -0.0000010516  -0.0000003796   0.0000009854   0.0000007352
       -0.0000006564   0.0000009514  -0.0000009121  -0.0000001969   0.0000004081
        0.0000005645  -0.0000011165   0.0000007832   0.0000012383   0.0000004487
       -0.0000002637  -0.0000015515  -0.0000009651   0.0000001539  -0.0000002595
       -0.0000002662  -0.0000004064  -0.0000011132  -0.0000004211  -0.0000006222
        0.0000006333  -0.0000007823   0.0000000321  -0.0000037285   0.0000015415
       -0.0000014942   0.0000022927  -0.0000016019   0.0000002660   0.0000001418
        0.0000012640   0.0000011260   0.0000003213   0.0000004458  -0.0000029923
       -0.0000009369  -0.0000005540   0.0000017567  -0.0000001602   0.0000022377
       -0.0000001701   0.0000003864  -0.0000012023  -0.0000013519  -0.0000012343
       -0.0000018560   0.0000007111   0.0000007779   0.0000016085  -0.0000004490
        0.0000028216   0.0000057072   0.0000050917   0.0000105958  -0.0000117490
       -0.0000088401  -0.0000178357  -0.0000130341   0.0000087612   0.0000065251
       -0.0000053192   0.0000088471  -0.0000122303   0.0000067494  -0.0000093456
       -0.0000197599  -0.0000031270   0.0000057819   0.0000350702   0.0000180058
       -0.0000148343  -0.0000299476   0.0000109723  -0.0000179847   0.0007400025
        0.0002659851   0.0002515418  -0.0439492252  -0.0374441667  -0.0621016300
        0.0941678768   0.0509577270  -0.3101300281  -0.0966469347  -0.0837876371
       -0.1812734057   0.0233989079   0.0167398355  -0.0091901943  -0.0028534088
       -0.0027639829  -0.0025531295  -0.0002125317   0.0000854256   0.0001244266
       -0.0000354488  -0.0000031203   0.0000341458  -0.0000055257  -0.0000075281
        0.0000002110  -0.0000073385   0.0000016778   0.0000004232   0.0000047942
        0.0000028714  -0.0000014348   0.0000016762  -0.0000012935  -0.0000053245
       -0.0000221951  -0.0000421040   0.0000582862  -0.0000008702  -0.0000063536
       -0.0000035144   0.0000061807  -0.0000013679  -0.0000047045   0.0000077017
        0.0000024720  -0.0000029438   0.0000018984   0.0000002987   0.0000002579
        0.0000009552  -0.0000054564  -0.0000012508  -0.0000033004  -0.0000009835
        0.0000009203   0.0000002529  -0.0000001661   0.0000008155   0.0000005885
       -0.0000001131   0.0000011062   0.0000007778  -0.0000001718   0.0000006900
        0.0000006279  -0.0000004352   0.0000004181   0.0000003675  -0.0000005785
        0.0000001607   0.0000002093  -0.0000012080   0.0000000082  -0.0000002233
       -0.0000010116  -0.0000003810  -0.0000005901  -0.0000003861  -0.0000010337
       -0.0000007053   0.0000000994  -0.0000004328  -0.0000010649   0.0000003193
       -0.0000010602  -0.0000009575   0.0000012760  -0.0000016596  -0.0000003068
       -0.0000007096  -0.0000026738   0.0000000030  -0.0000012401  -0.0000014761
       -0.0000038175   0.0000014559  -0.0000012732  -0.0000005867   0.0000083166
        0.0000006631   0.0000012591  -0.0000008542   0.0000013393   0.0000030307
       -0.0000051826  -0.0000011977   0.0000035352  -0.0000033300   0.0000015549
        0.0000095725  -0.0000053345   0.0000046088  -0.0001036613  -0.0000647767
        0.0000620428  -0.0023043165  -0.0024631621  -0.0025576729   0.0040810283
        0.0020893716  -0.0082244629
       -0.2250658281  -0.1316730593   0.0110420481   0.4624751236   0.2582194941
       -0.0234466249  -0.1424751232  -0.0754753961  -0.0586914788   0.0338581476
        0.0210114698  -0.0429950792   0.0041468879  -0.0024782014   0.0038597058
       -0.0000756894  -0.0005904488  -0.0013801340   0.0004246758   0.0006184591
       -0.0001396505  -0.0000219035  -0.0000695090  -0.0000372094   0.0000094873
        0.0000131078  -0.0000069942  -0.0000116669  -0.0000048005   0.0000076499
       -0.0000069429  -0.0000049544   0.0000039010   0.0000065454  -0.0000044624
       -0.0000102716   0.0000124012  -0.0000056134  -0.0000122312  -0.0002554696
       -0.0000129868  -0.0000269903   0.0001572136   0.0004066311  -0.0000908406
        0.0000044496   0.0000299513   0.0000347692   0.0000283783  -0.0000089245
        0.0000101643   0.0000197282  -0.0000018756  -0.0000281773   0.0000053489
        0.0000049524  -0.0000131435   0.0000141125   0.0000060423  -0.0000038201
       -0.0000168729  -0.0000061864   0.0000088531   0.0000259954  -0.0000068333
       -0.0000003775   0.0000104174   0.0000013579  -0.0000018774  -0.0000311670
        0.0000015898   0.0000012151  -0.0000075074  -0.0000085145  -0.0000050417
       -0.0000028418   0.0000042334   0.0000028341   0.0000008146   0.0000000214
        0.0000005122   0.0000055224   0.0000025519  -0.0000009787  -0.0000005683
       -0.0000018302   0.0000000912  -0.0000009688  -0.0000002284   0.0000006108
       -0.0000002122  -0.0000000337   0.0000000002  -0.0000012909   0.0000001170
       -0.0000004065  -0.0000005051   0.0000007063  -0.0000008145  -0.0000004385
       -0.0000001560  -0.0000003405  -0.0000008419   0.0000002399  -0.0000003918
       -0.0000000993  -0.0000005543   0.0000000785   0.0000005872   0.0000011061
       -0.0000004513  -0.0000011139   0.0000002489  -0.0000000326  -0.0000001267
        0.0000008064  -0.0000002158  -0.0000001182   0.0000005299   0.0000000410
        0.0000001930  -0.0000001484   0.0000003356   0.0000004644   0.0000000440
       -0.0000000148   0.0000028166   0.0000020180  -0.0000015777  -0.0000033409
       -0.0000032539   0.0000013644   0.0000002466   0.0000020005   0.0000010309
        0.0000011480  -0.0000001210  -0.0000016807  -0.0000000733  -0.0000013448
        0.0000002033  -0.0000005721   0.0000016565   0.0000012527   0.0000016011
        0.0000022196  -0.0000011830  -0.0000008836  -0.0000027145   0.0000010656
       -0.0000017838  -0.0000020628  -0.0000030418  -0.0000089002   0.0000086780
        0.0000054953   0.0000135663   0.0000050373  -0.0000109969  -0.0000121199
        0.0000044697  -0.0000073979   0.0000039115  -0.0000000566   0.0000019242
        0.0000105158   0.0000038062  -0.0000059539  -0.0000057044  -0.0000057729
        0.0000066777   0.0000251116  -0.0000089451   0.0000140377  -0.0003067603
       -0.0000369117   0.0006618065  -0.0385634946  -0.0262574430  -0.0166471032
       -0.0088233171  -0.0018442396   0.0747303180  -0.0141014022  -0.0109725840
        0.0017138985  -0.0592288660  -0.0140678491   0.0663185405  -0.0147461185
       -0.0127447175  -0.0168415555  -0.0001369997  -0.0001096594   0.0001721027
       -0.0000213137  -0.0000166578   0.0000192387   0.0000017931  -0.0000014017
       -0.0000041193   0.0000043772  -0.0000057153  -0.0000018773  -0.0000003444
       -0.0000051251  -0.0000058259   0.0000009932  -0.0000005599   0.0000003925
        0.0000019508  -0.0001332320   0.0000606455  -0.0000109465   0.0000257700
        0.0000426033  -0.0000036470   0.0000092444  -0.0000087218  -0.0000117191
       -0.0000024188  -0.0000004942  -0.0000019072  -0.0000019109  -0.0000023555
       -0.0000004979   0.0000059031   0.0000006250   0.0000020355   0.0000020375
       -0.0000005250   0.0000004483   0.0000001059  -0.0000007066  -0.0000005781
        0.0000000475  -0.0000008019  -0.0000003351   0.0000005651  -0.0000006893
        0.0000002204   0.0000002164  -0.0000003502   0.0000002477   0.0000007034
       -0.0000003348   0.0000003117   0.0000004321   0.0000001037   0.0000000809
        0.0000001566   0.0000004566   0.0000004319   0.0000000210   0.0000006656
       -0.0000003840   0.0000001847   0.0000001868   0.0000004825  -0.0000006547
        0.0000001830   0.0000001135  -0.0000016477   0.0000009286  -0.0000000956
        0.0000003922   0.0000017851  -0.0000003416   0.0000005329   0.0000006770
        0.0000026347  -0.0000025399   0.0000001243   0.0000000206  -0.0000073447
       -0.0000006128   0.0000001963  -0.0000004527  -0.0000018650  -0.0000037139
        0.0000018431   0.0000031941  -0.0000044677  -0.0000020723   0.0000026252
        0.0000014781  -0.0000001434  -0.0000004706  -0.0001002930  -0.0001999821
        0.0001357889  -0.0003799933  -0.0000477622  -0.0003721543   0.0031749833
       -0.0035596880   0.0019432319
       -0.1273124049  -0.1429250003   0.0038554922   0.2582194941   0.3123388860
        0.0228119213  -0.0811598486  -0.1114873972  -0.0567305928   0.0263253700
        0.0168488402  -0.0375101153  -0.0025148721   0.0053293634   0.0017965426
        0.0005730057   0.0002135189   0.0001108569  -0.0000825736  -0.0000246855
        0.0003938898   0.0000434248   0.0000124811   0.0000256552   0.0000060722
        0.0000153321  -0.0000089789  -0.0000112251  -0.0000085830   0.0000026186
       -0.0000036888  -0.0000024376   0.0000020966   0.0000065153   0.0000084295
       -0.0000093199  -0.0000072646   0.0000044638   0.0000092394  -0.0000497178
       -0.0000646331  -0.0001621201  -0.0000394391   0.0000557384   0.0003784664
        0.0000219550   0.0000288011  -0.0000364048   0.0000084100  -0.0000095350
        0.0000137308   0.0000141957   0.0000014224  -0.0000148202   0.0000022775
       -0.0000028393  -0.0000011849   0.0000142442   0.0000040518  -0.0000033320
       -0.0000132011  -0.0000033109   0.0000068911   0.0000144161  -0.0000018314
       -0.0000010495   0.0000040698   0.0000027820  -0.0000029366  -0.0000127346
       -0.0000002528  -0.0000005974  -0.0000068519  -0.0000054949  -0.0000037577
       -0.0000010806   0.0000040682   0.0000027812   0.0000011008   0.0000000026
        0.0000003232   0.0000070359  -0.0000009957   0.0000003775  -0.0000000062
        0.0000015360   0.0000005645  -0.0000014446  -0.0000003318  -0.0000000736
       -0.0000006118   0.0000007767  -0.0000006187   0.0000003417   0.0000006026
       -0.0000004256   0.0000004950  -0.0000011032   0.0000000519  -0.0000018893
       -0.0000002142  -0.0000001890  -0.0000001056   0.0000014228  -0.0000007374
       -0.0000000990   0.0000007169  -0.0000004583  -0.0000005450  -0.0000002138
        0.0000000137   0.0000008400  -0.0000005489   0.0000005593  -0.0000011905
        0.0000003362   0.0000001105   0.0000006376   0.0000016950  -0.0000002902
        0.0000004114   0.0000004198   0.0000002602   0.0000002230  -0.0000005275
        0.0000004066  -0.0000031031  -0.0000004843  -0.0000000285   0.0000004394
        0.0000017886  -0.0000005171  -0.0000004460  -0.0000015802   0.0000009757
        0.0000003267   0.0000000384   0.0000000953   0.0000004266  -0.0000009184
        0.0000004870   0.0000004094   0.0000002989   0.0000006685   0.0000010976
        0.0000007869  -0.0000006356   0.0000001357  -0.0000011000  -0.0000001450
       -0.0000023585  -0.0000019162  -0.0000021782  -0.0000080043  -0.0000007979
        0.0000035509   0.0000017761   0.0000082864  -0.0000095194  -0.0000075559
        0.0000034818  -0.0000038487   0.0000034468  -0.0000015757   0.0000029939
        0.0000019001   0.0000012399  -0.0000014846   0.0000032723   0.0000002071
        0.0000063794  -0.0000067681  -0.0000093078   0.0000095176  -0.0008160952
       -0.0005335255  -0.0003817441  -0.0261088406  -0.0262653649  -0.0122685148
       -0.0053134068   0.0015488353   0.0562059223  -0.0124475279  -0.0085039361
        0.0014836676  -0.0138046022  -0.0429284476   0.0322886059  -0.0116551232
       -0.0087148379  -0.0125241976  -0.0000715419   0.0001037677   0.0000572633
       -0.0000140860  -0.0000162159   0.0000144465   0.0000014633  -0.0000014021
       -0.0000033535   0.0000034052  -0.0000047081  -0.0000016465  -0.0000009001
       -0.0000021710  -0.0000021671   0.0000039131   0.0000016679  -0.0000010905
        0.0000031908  -0.0000049874   0.0000035480  -0.0000075169   0.0000137976
        0.0000300787   0.0000004409   0.0000086647  -0.0000065573  -0.0000089381
       -0.0000032337   0.0000007050  -0.0000037429  -0.0000011431  -0.0000021667
        0.0000002625   0.0000052930   0.0000010286   0.0000010563   0.0000009076
       -0.0000006885   0.0000000306  -0.0000003246  -0.0000005742  -0.0000005290
        0.0000005265  -0.0000009556   0.0000000583   0.0000004593  -0.0000006255
       -0.0000002135  -0.0000000243  -0.0000002493  -0.0000002234   0.0000004993
       -0.0000003456   0.0000004100   0.0000005429  -0.0000000986   0.0000000140
        0.0000000500   0.0000002457   0.0000001356   0.0000001096   0.0000002034
       -0.0000004984   0.0000000434  -0.0000000321  -0.0000003064   0.0000002409
        0.0000005031   0.0000000913  -0.0000001743   0.0000002628   0.0000000573
        0.0000001235   0.0000011013  -0.0000001201   0.0000007580   0.0000006983
       -0.0000002409  -0.0000000039   0.0000006867   0.0000001625  -0.0000022605
       -0.0000010527  -0.0000023556   0.0000003261  -0.0000018492  -0.0000042833
        0.0000024144   0.0000004907  -0.0000016869  -0.0000006370  -0.0000001019
        0.0000035499  -0.0000066608   0.0000054964  -0.0001398479  -0.0001267606
       -0.0000974950  -0.0001715668  -0.0002690467  -0.0001756126  -0.0034727834
        0.0053626393   0.0004450064
        0.0745430715   0.0517829221  -0.1071243939  -0.0234466249   0.0228119213
        0.6709113129  -0.1212643298  -0.1036147424  -0.2243884865   0.0024528289
       -0.0025002403  -0.0601496903   0.0030992256   0.0013488532  -0.0034243541
       -0.0003488299  -0.0007787707  -0.0015096363   0.0002157460  -0.0002374119
       -0.0000849828  -0.0000250188  -0.0000863437  -0.0000964389   0.0000289913
        0.0000841974   0.0000299858   0.0000295020  -0.0000168208  -0.0000353838
       -0.0000141676  -0.0000269840  -0.0000030642   0.0000073601  -0.0000050580
       -0.0000049683  -0.0000084590  -0.0000162325  -0.0000126603  -0.0000471120
        0.0000503120   0.0000638287   0.0000002712   0.0000731098   0.0001706036
       -0.0000193771   0.0000174355   0.0000337967   0.0000529510   0.0000169107
       -0.0000177171  -0.0000788351   0.0000363503   0.0000286650   0.0000465270
       -0.0000144356   0.0000106414   0.0000000786  -0.0000241106   0.0000162673
       -0.0000265053  -0.0000067864   0.0000086672   0.0000349036  -0.0000059054
       -0.0000005320  -0.0000079622  -0.0000059281   0.0000048654  -0.0000427696
       -0.0000002233   0.0000040218   0.0000084116  -0.0000097536   0.0000005614
       -0.0000005352  -0.0000025788  -0.0000023147  -0.0000049657  -0.0000006927
       -0.0000003948  -0.0000078557   0.0000011061  -0.0000012325  -0.0000009573
       -0.0000020295  -0.0000065096   0.0000074187  -0.0000019050   0.0000038833
       -0.0000055896  -0.0000068104   0.0000032433  -0.0000000197   0.0000032966
       -0.0000024696  -0.0000031772  -0.0000009942  -0.0000003433   0.0000015405
       -0.0000025889   0.0000005497  -0.0000037195   0.0000015439  -0.0000014819
        0.0000035549  -0.0000028622   0.0000013777   0.0000027627   0.0000036765
       -0.0000019726  -0.0000016442  -0.0000012531   0.0000001615   0.0000002736
        0.0000011000  -0.0000010839  -0.0000026468   0.0000011610  -0.0000012267
        0.0000015618  -0.0000028650   0.0000014802  -0.0000095102   0.0000044847
       -0.0000042862   0.0000085480  -0.0000019227   0.0000000556  -0.0000018273
        0.0000032140   0.0000013039  -0.0000018525   0.0000024621   0.0000008224
       -0.0000004151   0.0000009654   0.0000020207  -0.0000016867   0.0000006391
        0.0000029537   0.0000007785   0.0000014421   0.0000002100   0.0000014490
        0.0000013343   0.0000013356   0.0000012719  -0.0000017300   0.0000025908
       -0.0000020539   0.0000061624   0.0000030235   0.0000088284   0.0000100204
       -0.0000010191   0.0000213487   0.0000063916  -0.0000127495  -0.0000220771
       -0.0000026600   0.0000018917  -0.0000228914   0.0000094929  -0.0000113998
        0.0000182833   0.0000111016  -0.0000108919   0.0000076482  -0.0000114088
        0.0000164358   0.0000464205  -0.0000047001  -0.0000036473  -0.0000366193
       -0.0003077951   0.0003840232  -0.0151228136  -0.0111232063  -0.0027493629
        0.0274745727   0.0204565604   0.0010305677  -0.0176337469  -0.0129592971
        0.0034614274   0.0662848940   0.0322104558  -0.2759159210   0.0022591602
        0.0021474185   0.0039585611  -0.0002306800   0.0000996461   0.0000693263
       -0.0000263400  -0.0000237192   0.0000158802  -0.0000212395  -0.0000068258
        0.0000112167  -0.0000120798   0.0000059695   0.0000085678   0.0000046081
        0.0000072203   0.0000073420   0.0000095774   0.0000009792  -0.0000082793
        0.0000072349   0.0000209779   0.0000266853   0.0000053151  -0.0000442492
       -0.0000338820  -0.0000203681   0.0000060173   0.0000118835   0.0000138587
        0.0000153447  -0.0000121989   0.0000140504   0.0000022726  -0.0000034479
       -0.0000039375   0.0000000922  -0.0000013226   0.0000038127   0.0000046699
        0.0000025578  -0.0000001914  -0.0000011030   0.0000008222  -0.0000007170
        0.0000012420  -0.0000004634   0.0000006540   0.0000015357  -0.0000005872
        0.0000011051   0.0000000873  -0.0000001898   0.0000010137   0.0000005607
       -0.0000002719   0.0000017383  -0.0000001253   0.0000000114  -0.0000000741
       -0.0000008575   0.0000000598  -0.0000003330   0.0000008338  -0.0000007936
        0.0000009141   0.0000002552  -0.0000021491   0.0000000837  -0.0000024316
       -0.0000015495  -0.0000009834  -0.0000009896  -0.0000006002   0.0000000358
        0.0000002235  -0.0000028249  -0.0000013253  -0.0000021350  -0.0000024805
        0.0000062767  -0.0000074813  -0.0000018164  -0.0000059535  -0.0000031132
        0.0000015131   0.0000110913  -0.0000017827   0.0000041829   0.0000068494
       -0.0000063934   0.0000116506  -0.0000038328  -0.0000083259   0.0000073269
        0.0000219194   0.0000082400  -0.0000074073  -0.0002393917   0.0000703967
       -0.0000648200  -0.0004430409  -0.0001975715   0.0007808161   0.0024467614
        0.0007415453  -0.0053952782
       -0.0340401976  -0.0269179037  -0.0063764285  -0.1424751232  -0.0811598486
       -0.1212643298   0.4681680259   0.2667401309  -0.0115322105  -0.0951817772
       -0.0260033351   0.0847913946   0.0065825259   0.0031349533  -0.0111810172
       -0.0012888276  -0.0013614882  -0.0021345200   0.0003527277  -0.0006328533
       -0.0000806459  -0.0001904984   0.0000128904  -0.0000289825  -0.0000328212
       -0.0000796937  -0.0000530753  -0.0000267157  -0.0000077593   0.0000451001
       -0.0000009517   0.0000009071   0.0000009759   0.0000135814   0.0000015697
        0.0000114846   0.0001050437   0.0000153708  -0.0000518503   0.0001003903
       -0.0002196037  -0.0003455215   0.0002380145  -0.0000662228   0.0006993778
        0.0001970361   0.0000243889  -0.0000329832  -0.0000152936   0.0000694879
       -0.0001091303  -0.0001796129   0.0000948319   0.0001321777   0.0000029447
        0.0000555440  -0.0000039657  -0.0000277947  -0.0000117182   0.0000063570