$hessian                                                                        
        0.4579208084   0.0362454478  -0.0170755691  -0.1421957788   0.0482024494
       -0.0209028692  -0.0010026730   0.0037495036  -0.0010972051  -0.0267152537
        0.0075225599   0.0073797717  -0.0007555284   0.0001928380  -0.0014875581
       -0.0002002478  -0.0008293284   0.0002347319   0.0000884751  -0.0001068093
       -0.0000044860  -0.0001566988  -0.0009824010   0.0004357614  -0.0001231964
        0.0018564571   0.0023534034  -0.0003505195  -0.0002090192  -0.0003865178
        0.0002795072   0.0000390309   0.0000357786  -0.0000044139  -0.0000137368
        0.0000084660   0.0000184980   0.0000134886   0.0000107225   0.0000593019
       -0.0000365507  -0.0000037993  -0.0000312291   0.0000449274  -0.0000070089
       -0.0000185645   0.0000169366  -0.0000167507  -0.0000068572  -0.0000144506
        0.0000016889   0.0000054000   0.0000021860  -0.0000010170  -0.0000065926
       -0.0000064692  -0.0000022137   0.0000270749  -0.0000291974   0.0000086823
       -0.0000163966   0.0000437714  -0.0000594955  -0.0000111843   0.0000007268
        0.0000235590  -0.0000156547   0.0000169082  -0.0000066638   0.0000094125
       -0.0000067188   0.0000020665   0.0000082580   0.0000151514  -0.0000078418
        0.0000282867  -0.0000170055  -0.0000062806  -0.0000148244   0.0000087419
       -0.0000015914   0.0000012296  -0.0000022697  -0.0000001163   0.0000025185
        0.0000056147   0.0000010248   0.0000219368  -0.0000191972  -0.0000052148
        0.0000014805  -0.0000052035   0.0000070729   0.0000077216  -0.0000069678
       -0.0000004977  -0.0000223928   0.0000143386   0.0000046176  -0.0000077222
        0.0000154254  -0.0000186078  -0.0000348169   0.0000033032   0.0000494379
        0.0000029238  -0.0000002432   0.0000026775   0.0000077451  -0.0000143744
        0.0000011390  -0.0000116407   0.0000205613   0.0000004394   0.0001030394
        0.0000277233   0.0000076806  -0.0000825328  -0.0000479715  -0.0000080527
       -0.0000191963  -0.0000120717   0.0000052463   0.0000025126  -0.0000074462
       -0.0000028783   0.0000005986   0.0000225069  -0.0000018802  -0.0000000561
       -0.0000023794   0.0000013186  -0.0000043150  -0.0000010165   0.0000123253
        0.0000068217  -0.0000004799   0.0000003777   0.0000079025   0.0000020721
        0.0000068374  -0.0000063899  -0.0000052493   0.0000100140  -0.0000081091
       -0.0000000679  -0.0000005847  -0.0000016795   0.0000019623  -0.0000035245
       -0.0000010523  -0.0000017281  -0.0000003672  -0.0000041309   0.0000041210
        0.0000000617  -0.0000020994  -0.0000057975  -0.0000006242  -0.0000021360
        0.0000022039   0.0000042111  -0.0000079227  -0.0000030252   0.0000000942
       -0.0000061759  -0.0000029199  -0.0000104715   0.0000081271   0.0000036266
       -0.0000071887   0.0000074478   0.0000002564   0.0000001575  -0.0000042260
        0.0000006502  -0.0000129501  -0.0000228553   0.0000019700  -0.0000019285
        0.0000215502  -0.0000115855  -0.0000004409   0.0000051325  -0.0000028870
       -0.0000024532  -0.0000119829   0.0000409899   0.0000083870  -0.0000056779
       -0.0000534205  -0.0000089099   0.0000114782   0.0000159876  -0.0000044121
        0.0002356955   0.0006987742  -0.0017610141  -0.0001305810  -0.0007923563
       -0.0001366730   0.0001645622  -0.0000531468   0.0000717278  -0.0002719736
       -0.0007751108  -0.0001969233  -0.0009430068   0.0006629597   0.0014296898
       -0.0175611328   0.0010878015  -0.0139567062  -0.0490568133  -0.0382248416
        0.0074745601  -0.0831836485  -0.0430459655  -0.0807836501  -0.1365168895
       -0.0140807323   0.1178370262   0.0006071343  -0.0007100902   0.0002203493
        0.0004624064  -0.0004774864   0.0000944121   0.0004675587  -0.0006285640
        0.0001690364  -0.0004343530   0.0001834763  -0.0002394357  -0.0000043081
        0.0000438584  -0.0000210981  -0.0000984349   0.0001236311  -0.0000105718
       -0.0001595666   0.0000178554   0.0000994672   0.0000261328  -0.0000435437
        0.0000014854  -0.0000253273  -0.0000033919  -0.0000041593  -0.0000200037
        0.0000105241   0.0000000082  -0.0000163734   0.0000052780  -0.0000010196
        0.0000016005   0.0000003324  -0.0000030680  -0.0000017647   0.0000025337
       -0.0000016294   0.0000028712  -0.0000021096  -0.0000031262   0.0000056323
        0.0000003835  -0.0000008772  -0.0000005807  -0.0000037463   0.0000011188
       -0.0000013752   0.0000020510   0.0000039450   0.0000011396   0.0000000368
       -0.0000008126   0.0000036359   0.0000001749  -0.0000008049   0.0000023080
        0.0000012601  -0.0000017957  -0.0000005291   0.0000001512   0.0000020285
        0.0000009847  -0.0000062538   0.0000009607   0.0000021475  -0.0000024777
        0.0000047945  -0.0000005524   0.0000017869   0.0000060655   0.0000040131
        0.0000000707   0.0000024508  -0.0000001781  -0.0000020839  -0.0000007473
       -0.0000053874   0.0000090521  -0.0000002629   0.0000006576  -0.0000002100
        0.0000027952  -0.0000037874  -0.0000008501   0.0000017570  -0.0000026876
        0.0000018587  -0.0000035212   0.0000074166   0.0000034449  -0.0000115426
        0.0000030506   0.0000007279  -0.0000020897  -0.0000017024  -0.0000033864
       -0.0000006034   0.0000032862  -0.0000017399   0.0000054342   0.0000034015
        0.0000008647  -0.0000054511   0.0000029529   0.0000023944   0.0000054483
        0.0000031114   0.0000009469  -0.0000052382  -0.0000025823   0.0000018753
        0.0000002607   0.0000030075   0.0000005656   0.0000024682   0.0000072967
       -0.0000002237   0.0000118277  -0.0000027722   0.0000007023   0.0000034643
       -0.0000039700  -0.0000007942  -0.0000023549   0.0000025729  -0.0000070891
       -0.0000003080  -0.0001006994   0.0000100877  -0.0000944934  -0.0000546891
        0.0000864633  -0.0000470934  -0.0000107133   0.0000508247  -0.0000024920
       -0.0001806581   0.0001569958   0.0003871998
        0.0362454478   0.5014820440   0.0105214882   0.0407718297  -0.0802472286
        0.0092707966   0.0248792312  -0.0210895544   0.0080243426   0.0014345129
        0.0016926171  -0.0016626120  -0.0003208880   0.0002530826  -0.0001333939
        0.0001067005   0.0000239168   0.0001278594   0.0000617663   0.0000152595
        0.0000108786  -0.0000353282  -0.0001089988  -0.0000920475  -0.0005907334
       -0.0005880978   0.0004086088   0.0000881183  -0.0000068681   0.0004811015
       -0.0000227393   0.0000791612  -0.0000147752  -0.0000398867  -0.0000282187
        0.0000018652   0.0000178430  -0.0000012265  -0.0000002218  -0.0000268678
        0.0000267633  -0.0000031750   0.0000111015  -0.0000361587  -0.0000024925
        0.0000071948   0.0000494656   0.0000135115   0.0000112613   0.0000366689
        0.0000016711  -0.0000276220  -0.0000296955   0.0000096690   0.0000065053
       -0.0000096335  -0.0000041839  -0.0000208113   0.0000621883   0.0000109874
        0.0000107011  -0.0000571273   0.0000511474   0.0000316297   0.0000007238
       -0.0000383936   0.0000361815  -0.0000348429   0.0000077215  -0.0000151475
        0.0000166484   0.0000038482  -0.0000129013   0.0000111412   0.0000057779
       -0.0000512970   0.0000328243   0.0000259113   0.0000114074  -0.0000247094
       -0.0000051177  -0.0000010046  -0.0000170561  -0.0000057635   0.0000057161
        0.0000096139   0.0000052434  -0.0000411960   0.0000459112  -0.0000165692
       -0.0000099999   0.0000142457  -0.0000011748  -0.0000142387   0.0000150943
       -0.0000014266   0.0000390337  -0.0000278554  -0.0000116653   0.0000139352
       -0.0000199254   0.0000420847   0.0000323901  -0.0000245862  -0.0000636506
       -0.0000002075   0.0000133260  -0.0000028495   0.0000021574   0.0000099236
       -0.0000007211  -0.0000058119  -0.0000213274   0.0000015453  -0.0000465552
        0.0000056987   0.0000002581   0.0000438615  -0.0000357650   0.0000035058
        0.0000007638   0.0000465899  -0.0000012618   0.0000012254  -0.0000005671
        0.0000006314  -0.0000026357  -0.0000112864   0.0000000523   0.0000207699
        0.0000054751   0.0000018250  -0.0000149643  -0.0000047487   0.0000188991
       -0.0000111349  -0.0000008261  -0.0000184997  -0.0000240402  -0.0000058451
        0.0000007747   0.0000124540   0.0000025766   0.0000007029   0.0000110053
        0.0000012754  -0.0000006553   0.0000257561   0.0000071066   0.0000133720
       -0.0000108830  -0.0000019597  -0.0000002150   0.0000010147  -0.0000038500
       -0.0000002615  -0.0000004594   0.0000040352   0.0000003216   0.0000263413
        0.0000091234  -0.0000115600   0.0000108131   0.0000021384   0.0000011189
        0.0000123023   0.0000029380   0.0000002935  -0.0000236745  -0.0000052464
       -0.0000025543  -0.0000115558  -0.0000048527   0.0000179217  -0.0000152685
       -0.0000020379  -0.0000209069   0.0000262328  -0.0000044222  -0.0000000075
       -0.0000010180   0.0000030272   0.0000001088  -0.0000093831   0.0000102051
        0.0000017892   0.0000001293  -0.0000529824  -0.0000040919   0.0000192507
        0.0000655523   0.0000048351  -0.0000204249  -0.0000189669  -0.0000034336
       -0.0004526608  -0.0008506918  -0.0019429205  -0.0001079523  -0.0004967471
        0.0002710004  -0.0000009866  -0.0000290126  -0.0000839956   0.0001704592
       -0.0001899342   0.0002094114  -0.0005536575   0.0002982161  -0.0005939374
       -0.0080544072   0.0048754979  -0.0020239908  -0.0377403919  -0.2682896419
        0.0420153509  -0.0435872272  -0.0867214592  -0.0826062816  -0.0146330795
       -0.0455345140   0.0168815098   0.0007180723   0.0009760787  -0.0004240601
        0.0004885769  -0.0065437407   0.0015419692   0.0008325910   0.0009788833
        0.0002798783   0.0005088269  -0.0001832545  -0.0003242716   0.0000021730
       -0.0000184974  -0.0000122518   0.0000118766   0.0000172992  -0.0000148251
       -0.0000466340   0.0000386545  -0.0000041246   0.0000004633   0.0000024930
       -0.0000022990   0.0000032731  -0.0000011406   0.0000001198  -0.0000126883
       -0.0000306430  -0.0000166539   0.0000057606  -0.0000067186  -0.0000086225
       -0.0000068181  -0.0000000444  -0.0000025098  -0.0000047546  -0.0000024759
        0.0000053998  -0.0000011344  -0.0000067293   0.0000062560   0.0000014863
       -0.0000079488   0.0000012766   0.0000049701  -0.0000002673  -0.0000042437
       -0.0000018202   0.0000091930   0.0000034374   0.0000021774  -0.0000033706
        0.0000037520  -0.0000016389  -0.0000059828   0.0000039403   0.0000004534
        0.0000037271   0.0000023420   0.0000015413  -0.0000028805  -0.0000061298
        0.0000027207  -0.0000052900  -0.0000037435   0.0000024176  -0.0000018214
       -0.0000082892  -0.0000020254   0.0000002996  -0.0000049136  -0.0000047696
       -0.0000018754  -0.0000012850   0.0000046431   0.0000024447   0.0000016202
        0.0000005539   0.0000023127  -0.0000002746  -0.0000018490  -0.0000026182
       -0.0000022333   0.0000007776  -0.0000006677  -0.0000000997   0.0000016816
       -0.0000009408   0.0000047930  -0.0000004889   0.0000001015   0.0000018416
       -0.0000038194  -0.0000007924   0.0000022433   0.0000010360  -0.0000007818
        0.0000000027  -0.0000015689   0.0000020386  -0.0000017171  -0.0000016686
        0.0000009657   0.0000018757  -0.0000010705  -0.0000020129  -0.0000016460
       -0.0000011600  -0.0000011407   0.0000016069   0.0000001479   0.0000015970
        0.0000001242  -0.0000038651  -0.0000007269  -0.0000023381  -0.0000004746
        0.0000011181  -0.0000018065   0.0000017304  -0.0000005439  -0.0000044347
        0.0000006571  -0.0000007939  -0.0000002160  -0.0000002522   0.0000064791
        0.0000014971  -0.0000879862   0.0000174669  -0.0001109188  -0.0000324959
        0.0000717914  -0.0000046650   0.0000083245  -0.0000248265   0.0000198229
       -0.0000359530   0.0001339748  -0.0000101613
       -0.0170755691   0.0105214882   0.5239773203  -0.0192799951   0.0101868402
       -0.0667663674  -0.0055325984   0.0052093598  -0.0005439259   0.0202784314
       -0.0073161067   0.0024898951   0.0009374206  -0.0006340969  -0.0012817181
       -0.0003848777   0.0005443665   0.0005747326   0.0002589834   0.0000430111
       -0.0001262789  -0.0000177313   0.0010715458  -0.0000059865   0.0006417956
       -0.0011477159  -0.0037822278  -0.0002672293   0.0005039443   0.0022758285
        0.0000087858  -0.0000395358   0.0000132966   0.0000360174  -0.0000149114
        0.0000179028  -0.0000214151  -0.0000144099  -0.0000070756   0.0000276362
        0.0000047060   0.0000034647  -0.0000081572   0.0000273054  -0.0000025908
        0.0000112138  -0.0000028887   0.0000264168   0.0000010615  -0.0000132534
       -0.0000016662   0.0000102453   0.0000111690   0.0000049253  -0.0000034115
        0.0000031153  -0.0000014918   0.0000083471  -0.0000276690   0.0000156255
       -0.0000110982   0.0000334078  -0.0000394144  -0.0000086881  -0.0000011127
        0.0000191988  -0.0000120260   0.0000132376  -0.0000052273   0.0000063678
       -0.0000059195   0.0000004504   0.0000042735  -0.0000018372  -0.0000042595
        0.0000235995  -0.0000160470  -0.0000079744  -0.0000065795   0.0000097674
       -0.0000019306   0.0000003557   0.0000037034   0.0000023164  -0.0000015801
       -0.0000024903   0.0000003259   0.0000135394  -0.0000155276   0.0000067967
        0.0000027607  -0.0000036152  -0.0000005411   0.0000035086  -0.0000073891
        0.0000063812  -0.0000204007   0.0000116967   0.0000010380  -0.0000077870
        0.0000052808  -0.0000159034  -0.0000068467   0.0000063253   0.0000106160
        0.0000015388  -0.0000052604   0.0000015383  -0.0000004294  -0.0000106870
        0.0000001150   0.0000001415   0.0000119092  -0.0000022206   0.0000531687
        0.0000283205  -0.0000019271  -0.0000350890  -0.0000413562  -0.0000004005
       -0.0000181202   0.0000107326  -0.0000028046   0.0000046285  -0.0000047635
        0.0000035408  -0.0000031166   0.0000105624   0.0000001041  -0.0000023793
       -0.0000019082   0.0000020551   0.0000022158   0.0000007148  -0.0000019688
        0.0000041558   0.0000010896   0.0000036582   0.0000048545   0.0000016935
        0.0000022541  -0.0000032247  -0.0000007678   0.0000021096  -0.0000028013
       -0.0000001736   0.0000000245  -0.0000064380  -0.0000011557  -0.0000024558
        0.0000020914   0.0000001746   0.0000008607  -0.0000009516   0.0000014922
        0.0000011148  -0.0000004124  -0.0000015887   0.0000013727  -0.0000048069
       -0.0000013546   0.0000040322  -0.0000042129  -0.0000011093  -0.0000006392
       -0.0000042324  -0.0000015361  -0.0000009158   0.0000060528   0.0000013812
       -0.0000017148   0.0000036956   0.0000009988  -0.0000026030  -0.0000000636
       -0.0000003597  -0.0000027978  -0.0000041531   0.0000017716   0.0000001308
        0.0000019072  -0.0000014178   0.0000002698   0.0000001777  -0.0000029372
        0.0000023866   0.0000065991   0.0000215483  -0.0000098838   0.0000022691
       -0.0000451120   0.0000126547  -0.0000190154   0.0000169481  -0.0000009143
        0.0004049950  -0.0000070775  -0.0040517837  -0.0000880544  -0.0011176868
        0.0003014790  -0.0001689957  -0.0001028218  -0.0001642703   0.0000276609
       -0.0004771840   0.0007441691  -0.0005174062   0.0000952608  -0.0011047260
       -0.0236268360   0.0057632618  -0.0093866540   0.0073534778   0.0419400600
       -0.0525675998  -0.0809306706  -0.0821087829  -0.2005710560   0.1182456796
        0.0165308352  -0.1882682438  -0.0006251481   0.0000295135   0.0001315859
       -0.0001141707   0.0014188548   0.0001957538   0.0003998591  -0.0005546364
        0.0002376011   0.0012152260  -0.0007389966  -0.0006583074  -0.0000328770
        0.0000407392  -0.0000118943   0.0001047441  -0.0001153722   0.0000370179
        0.0001608599   0.0000089744  -0.0001621126  -0.0000090939   0.0000011008
       -0.0000192629  -0.0000065789   0.0000012087  -0.0000027535   0.0000005316
        0.0000212802  -0.0000160357  -0.0000035160   0.0000048639  -0.0000069684
       -0.0000002177   0.0000008483  -0.0000015940   0.0000006506   0.0000002188
       -0.0000003159   0.0000005149   0.0000012854  -0.0000010816  -0.0000005321
        0.0000019541  -0.0000001451  -0.0000022319   0.0000003609   0.0000001709
        0.0000002733  -0.0000008419  -0.0000027833  -0.0000000118  -0.0000011691
       -0.0000003043   0.0000005188  -0.0000002855  -0.0000006098  -0.0000002472
       -0.0000010199  -0.0000008477  -0.0000007546   0.0000013826   0.0000013655
        0.0000001784  -0.0000014754   0.0000014718  -0.0000002938  -0.0000004652
        0.0000011388   0.0000012572  -0.0000004715   0.0000076316   0.0000059612
        0.0000008976  -0.0000024464  -0.0000023318  -0.0000005411  -0.0000012536
       -0.0000004856   0.0000008311  -0.0000003429   0.0000011013   0.0000014402
        0.0000000232  -0.0000005285  -0.0000003039  -0.0000006247  -0.0000005743
        0.0000002687  -0.0000010392   0.0000016333   0.0000009819  -0.0000015048
        0.0000016521   0.0000006575  -0.0000000735  -0.0000005091  -0.0000002246
       -0.0000003632   0.0000011241  -0.0000001734   0.0000019088   0.0000005968
       -0.0000001854  -0.0000006178   0.0000012829   0.0000001683   0.0000021890
        0.0000000536   0.0000007663  -0.0000002498  -0.0000003873  -0.0000000239
       -0.0000004900   0.0000009744   0.0000000484   0.0000009600   0.0000009065
       -0.0000001936   0.0000028594  -0.0000010733  -0.0000003541   0.0000023131
       -0.0000010537  -0.0000006569  -0.0000008919  -0.0000005566  -0.0000011891
       -0.0000035186  -0.0001258999  -0.0000631170  -0.0001997494  -0.0001127501
        0.0001284971  -0.0000503475   0.0000240396  -0.0000203801   0.0000008085
       -0.0011743679   0.0003854754  -0.0012665122
       -0.1421957788   0.0407718297  -0.0192799951   0.4511695941   0.0118005095
       -0.0085841890  -0.0588201024  -0.0100741147   0.0025761207  -0.1064337954
       -0.0112159169   0.0582436748   0.0055086844   0.0037230807   0.0014280338
        0.0016640490  -0.0030843717  -0.0019711371  -0.0006007513  -0.0001490364
        0.0003851130  -0.0019651775  -0.0044564981  -0.0008457666  -0.0197477888
       -0.0064758673   0.0189123801   0.0030805256   0.0032826965   0.0000181095
       -0.0004510582  -0.0003148652  -0.0000110414   0.0002307500   0.0000560066
        0.0000036583   0.0001037464   0.0000545950  -0.0000153369  -0.0001438212
        0.0001982966  -0.0000061219   0.0001353373  -0.0001486287   0.0000077929
        0.0003018544   0.0003141217  -0.0000016472  -0.0000279236   0.0001070431
        0.0000016569   0.0000477186  -0.0000512885   0.0000099867   0.0000551482
        0.0000122060   0.0000025621  -0.0000733279   0.0001118556  -0.0000069634
        0.0000480002  -0.0001171460   0.0001482503   0.0000602880  -0.0000014783
       -0.0000851564   0.0000875339  -0.0000807741   0.0000183364  -0.0000345523
        0.0000364461   0.0000120164  -0.0000186016   0.0000939623   0.0000262569
       -0.0001183643   0.0000846048   0.0000383592   0.0000525277  -0.0000482169
       -0.0000036656  -0.0000018824  -0.0000109893  -0.0000049288   0.0000149600
        0.0000223905   0.0000041733  -0.0000955246   0.0001012795  -0.0000916081
       -0.0000365468   0.0000231021  -0.0000131108  -0.0000469875   0.0000346061
       -0.0000074082   0.0000974655  -0.0000688605  -0.0000109017   0.0000161636
       -0.0000333880   0.0000867864   0.0000823076  -0.0000321960  -0.0001281870
       -0.0000032555   0.0000122881  -0.0000030471  -0.0000046426   0.0001156534
        0.0000107394   0.0000384199  -0.0002126069  -0.0000249143  -0.0003766465
        0.0000920014   0.0000210941   0.0003291773  -0.0002517554  -0.0000079321
       -0.0000527560   0.0002980345   0.0000212042  -0.0000025369  -0.0000631115
       -0.0000008798   0.0000492020  -0.0000575776  -0.0000137775   0.0001316592
        0.0000321413   0.0000029922  -0.0001148298  -0.0000344087   0.0001817321
       -0.0000437861  -0.0000157881  -0.0000979395  -0.0001070115  -0.0000246151
        0.0000263493   0.0000519270   0.0000006241   0.0000304068   0.0000294699
        0.0000111565   0.0000140797   0.0001456893   0.0000451037   0.0000542015
       -0.0000735893  -0.0000186187  -0.0000026958  -0.0000103290  -0.0000044350
       -0.0000015700  -0.0000080623  -0.0000014179  -0.0000008986   0.0001455141
        0.0000538681  -0.0000412325   0.0000307532   0.0000017814  -0.0000131398
        0.0000534613   0.0000078471  -0.0000283743  -0.0001065182  -0.0000187710
       -0.0000350489  -0.0000449589  -0.0000268339   0.0000944614  -0.0001078659
       -0.0000085043  -0.0001851319   0.0000364691   0.0000158763   0.0000007730
        0.0000558556  -0.0000017084  -0.0000007436  -0.0000072684   0.0001163161
        0.0000103688  -0.0002457976  -0.0005441786  -0.0000576033   0.0000024706
        0.0009976821   0.0000767808   0.0001720542  -0.0005223925  -0.0000361962
       -0.0133833437  -0.0130713680  -0.0196294728  -0.0027356689  -0.0040409737
        0.0017879914  -0.0003396928  -0.0001832072  -0.0004997944  -0.0000592523
       -0.0023977426   0.0038491928   0.0074254306   0.0057747976   0.0069679979
       -0.0804474611  -0.0234596647  -0.0360335386   0.0010257614   0.0018083760
       -0.0002606008  -0.0148284735   0.0046622869  -0.0062545341  -0.0213088321
        0.0086563837  -0.0008527476  -0.0039275468  -0.0175905552   0.0052763180
        0.0020028847   0.0246306446  -0.0049234867  -0.0023492615  -0.0120765768
        0.0006536270  -0.0007977648   0.0007616432  -0.0010322405   0.0002953506
       -0.0000959576  -0.0006118023  -0.0002800949   0.0005531584  -0.0002379525
       -0.0007373677  -0.0000420130   0.0007823695  -0.0000737894   0.0000024397
       -0.0000123681   0.0000002584  -0.0000191528   0.0000014461  -0.0000643963
       -0.0000182773   0.0000067803  -0.0000244036  -0.0000385546  -0.0000067645
       -0.0000025924  -0.0000020164  -0.0000070877  -0.0000225761   0.0000083861
        0.0000143431   0.0000105012  -0.0000176894  -0.0000000627   0.0000286026
       -0.0000029013  -0.0000018225   0.0000063188  -0.0000074301   0.0000044416
       -0.0000008340  -0.0000082782   0.0000095744   0.0000046906   0.0000035756
        0.0000017425   0.0000119907  -0.0000048203   0.0000021862   0.0000014598
        0.0000049800  -0.0000049097   0.0000027577  -0.0000052917  -0.0000012903
        0.0000041739  -0.0000218772   0.0000021682   0.0000189594  -0.0000101479
        0.0000022584  -0.0000159068   0.0000218393  -0.0000160385  -0.0000027026
       -0.0000023361   0.0000087611   0.0000272537   0.0000009369   0.0000068447
       -0.0000169423   0.0000613695   0.0000008829  -0.0000183376  -0.0000206759
        0.0000063777  -0.0000004675   0.0000025766   0.0000043412   0.0000022557
        0.0000059937   0.0000151662   0.0000180108   0.0000087969  -0.0000246775
       -0.0000054162  -0.0000015144  -0.0000043578   0.0000010297  -0.0000127618
       -0.0000025439   0.0000034335  -0.0000006160   0.0000074065   0.0000037117
        0.0000062847  -0.0000082394   0.0000046405   0.0000029712   0.0000066829
        0.0000047280  -0.0000022702  -0.0000077799  -0.0000050623   0.0000116043
        0.0000005937  -0.0000049660  -0.0000016183   0.0000035705   0.0000183295
       -0.0000012350   0.0000242568   0.0000035582   0.0000062165  -0.0000159829
       -0.0000002618   0.0000028585  -0.0000051256   0.0000001347  -0.0000064900
       -0.0000058568  -0.0006190845  -0.0003329462  -0.0009161496  -0.0002696994
        0.0006123201  -0.0000757173   0.0002221205   0.0002659692   0.0008981350
       -0.0007130861   0.0011619045   0.0002573280
        0.0482024494  -0.0802472286   0.0101868402   0.0118005095   0.4330496583
        0.0144174643  -0.0176175152  -0.1647384870   0.0192456507  -0.0097634414
       -0.0574483558   0.0058926989   0.0067655261   0.0010872086  -0.0075128427
       -0.0033610186   0.0040953955  -0.0032566672  -0.0000586869  -0.0000546289
        0.0004023017  -0.0044814472   0.0034410245  -0.0019634394  -0.0098977173
       -0.0005007022   0.0098504357   0.0032567035  -0.0017118043   0.0003123976
       -0.0002169326  -0.0002842267  -0.0000350496   0.0001617391   0.0001942188
        0.0000167072   0.0000916505  -0.0000481858  -0.0000098784  -0.0000529854
        0.0001291711   0.0000094691   0.0000458158  -0.0001481390   0.0000091379
        0.0000178008   0.0001632483   0.0000295559   0.0000040818   0.0000896486
       -0.0000019513  -0.0000180795  -0.0000559925   0.0000054569   0.0000376438
       -0.0000164339   0.0000010906  -0.0000230374   0.0000794956  -0.0000094515
        0.0000195275  -0.0000756294   0.0000748919   0.0000470069   0.0000001064
       -0.0000604645   0.0000546313  -0.0000499724   0.0000144319  -0.0000201861
        0.0000222608   0.0000113995  -0.0000121404   0.0000583108   0.0000054297
       -0.0000752567   0.0000532785   0.0000329990   0.0000186415  -0.0000358584
       -0.0000068585  -0.0000038187  -0.0000198083  -0.0000079734   0.0000103805
        0.0000217254   0.0000054048  -0.0000534002   0.0000632502  -0.0000565254
       -0.0000252717   0.0000158852   0.0000091201  -0.0000218293   0.0000261963
       -0.0000098646   0.0000633526  -0.0000381424  -0.0000146451   0.0000158526
       -0.0000203453   0.0000645866   0.0000272171  -0.0000296791  -0.0000544830
        0.0000032843   0.0000168848  -0.0000003866  -0.0000021978   0.0000234713
        0.0000066335  -0.0000114245  -0.0000991523  -0.0000175355  -0.0000833204
        0.0001170587   0.0000114216   0.0001075635  -0.0002701362  -0.0000141062
       -0.0000846924   0.0001965614   0.0000123128   0.0000074121  -0.0000317763
        0.0000031373  -0.0000009426  -0.0000281741  -0.0000078547   0.0000228236
        0.0000066852   0.0000022596  -0.0000175167  -0.0000014143   0.0000313844
       -0.0000162534  -0.0000078723  -0.0000237667  -0.0000275327  -0.0000045732
        0.0000021821   0.0000145298  -0.0000023871   0.0000116644   0.0000118652
        0.0000066442  -0.0000042168   0.0000341543   0.0000126626   0.0000172551
       -0.0000146909  -0.0000042982  -0.0000008681  -0.0000014479  -0.0000011141
       -0.0000006934  -0.0000018471   0.0000008760  -0.0000003022   0.0000348775
        0.0000160672  -0.0000129308   0.0000116418  -0.0000001628   0.0000039899
        0.0000148230   0.0000008255  -0.0000113448  -0.0000261344  -0.0000030128
       -0.0000055541  -0.0000160140  -0.0000094629   0.0000229521  -0.0000179675
        0.0000024726  -0.0000344296   0.0000401784   0.0000288497   0.0000024195
        0.0000284125  -0.0000106087  -0.0000006887  -0.0000290593   0.0000399812
        0.0000046912  -0.0000529959  -0.0001812890  -0.0000324975   0.0000336782
        0.0002918147   0.0000394693   0.0000173400  -0.0001463676  -0.0000116082
       -0.0094318605  -0.0054615696  -0.0103333273  -0.0040448239   0.0040933809
       -0.0004466639  -0.0002728348  -0.0002883371  -0.0002237717  -0.0021587640
        0.0055016167  -0.0002509268   0.0025818086  -0.0006154189  -0.0049095763
       -0.0247351456  -0.0789491774  -0.0442933053   0.0253424028  -0.0164775328
        0.0068530984  -0.0088464396   0.0046503827  -0.0023504695   0.0000927806
        0.0004570168  -0.0007220632  -0.0033039874  -0.0071804617   0.0037038325
        0.0011063358  -0.0174326730   0.0038289056  -0.0042418111  -0.0180392174
       -0.0002392219   0.0012183588  -0.0021155078   0.0003808291   0.0002306422
        0.0001154224  -0.0006042281   0.0006336273  -0.0011272376   0.0002594487
       -0.0002587628  -0.0003752572   0.0005237828   0.0000366807  -0.0000614194
       -0.0000022877   0.0000090243  -0.0000019591  -0.0000001691  -0.0000334510
       -0.0000914618   0.0000018928  -0.0000058226  -0.0000258312  -0.0000056472
       -0.0000075154  -0.0000006919  -0.0000055402  -0.0000139284   0.0000029382
        0.0000085033   0.0000038751  -0.0000107352   0.0000004173   0.0000158114
       -0.0000054065  -0.0000002772   0.0000075300  -0.0000056774  -0.0000004188
        0.0000013622   0.0000064124   0.0000120257   0.0000034121   0.0000017725
        0.0000017422   0.0000059152  -0.0000044149   0.0000026968   0.0000035785
        0.0000057398  -0.0000012959   0.0000021398  -0.0000043844  -0.0000039462
        0.0000036632  -0.0000161286  -0.0000016571   0.0000086841  -0.0000075792
       -0.0000030898  -0.0000109453   0.0000102920  -0.0000119260  -0.0000078352
       -0.0000034257   0.0000034808   0.0000166989   0.0000030456   0.0000022628
       -0.0000008203   0.0000325447   0.0000005792  -0.0000044924  -0.0000087208
        0.0000039486   0.0000012574   0.0000009572   0.0000023559   0.0000005940
        0.0000034294   0.0000071707   0.0000094622   0.0000047589  -0.0000128666
       -0.0000028428  -0.0000005296  -0.0000019226  -0.0000005728  -0.0000060500
       -0.0000012427   0.0000021642  -0.0000016555   0.0000038092   0.0000019857
        0.0000024667  -0.0000042228   0.0000023244   0.0000021837   0.0000037064
        0.0000020786  -0.0000007499  -0.0000040384  -0.0000022549   0.0000043215
        0.0000000640  -0.0000026910  -0.0000005882   0.0000016290   0.0000096939
       -0.0000009249   0.0000130476   0.0000007898   0.0000032500  -0.0000067578
        0.0000009732   0.0000009278  -0.0000031321   0.0000009922  -0.0000018852
       -0.0000054777  -0.0000807675  -0.0004585221  -0.0003482719   0.0005528517
       -0.0011298200   0.0003649254  -0.0000623227   0.0001699672   0.0001734006
        0.0007048805  -0.0021873912   0.0010498217
       -0.0209028692   0.0092707966  -0.0667663674  -0.0085841890   0.0144174643
        0.4964064231   0.0041281617   0.0203085270  -0.0656208859   0.0609647380
        0.0075658079  -0.1420078887   0.0135257859  -0.0010817104  -0.0306207001
       -0.0019836753  -0.0035594363  -0.0022633775   0.0002705891   0.0001256735
       -0.0002582164  -0.0003984061  -0.0017374686   0.0009747345   0.0080113522
        0.0042207984   0.0024957021   0.0001048664   0.0001621290  -0.0035022688