121
 energy: -183.510392571919 gnorm: 0.000060155181 xtb: 6.7.1 (edcfbbe)
C           -8.60276449398123       -4.02359642644160       -0.21843422528079
C           -7.24700668477511       -4.72013016547230        0.00107829757424
C           -7.45429053785531       -6.22825553192796        0.23291091907267
C           -6.39913047159942       -4.53108387765366       -1.24148876773874
C           -6.85435608656759       -5.01055209024824       -2.46188164069279
C           -6.12806206658072       -4.85523340352422       -3.62814143427569
C           -4.91249149792826       -4.19472259900514       -3.58746297243205
C           -4.43527935792413       -3.70915825699548       -2.38934460504125
C           -5.16138999746501       -3.87799611714680       -1.20524235980793
N           -4.65267435323148       -3.38394155848991       -0.01756194031442
C           -3.36009935010017       -2.78784708481482       -0.01959724294072
C           -2.22325901164873       -3.60678962482114       -0.00395032399484
C           -0.98231027915880       -3.03002253139630       -0.00191337716283
C           -0.83328319025841       -1.63317297030302       -0.01027412896223
C           -1.97645460039925       -0.79879801147017       -0.02569379836286
C           -3.23489697379494       -1.41600832400248       -0.03341995836719
C           -1.80781354056900        0.63432338594249       -0.03069343093323
C           -2.88864022108712        1.52670059504895       -0.04388775285639
C           -2.69212539850512        2.89021895919983       -0.03967183317882
N           -3.81107418297556        3.76987418760794       -0.04407129680010
C           -4.18916158309729        4.36229280565249       -1.23559280470742
C           -3.51751359728645        4.02637188664637       -2.41620179380226
C           -3.86683108494969        4.60333835400377       -3.61792242954624
C           -4.89857035614756        5.52454772338599       -3.66591637392631
C           -5.57358384564742        5.84714212469399       -2.50313237068084
C           -5.24399354463833        5.28162984974540       -1.27918639788834
C           -6.02958786401372        5.66587392746779       -0.04068262948286
C           -7.50812902016226        5.29685985932406       -0.26219513506865
C           -5.88692662326048        7.18260888548352        0.18370387022253
C           -5.52719787512627        4.94502368763414        1.19508035524281
C           -6.13596628333516        5.18105532691296        2.41995574943200
C           -5.71021793929132        4.56466675550699        3.58201794826099
C           -4.63889986569724        3.69000028794242        3.53199703178443
C           -4.01518235228613        3.43677129716669        2.32954562239756
C           -4.45225142852111        4.04902851945519        1.14978509711330
C           -1.39622750157267        3.42294444249251       -0.02831609719410
C           -0.32302408904903        2.57395576474322       -0.02143645103787
C           -0.50221724017323        1.18063282624125       -0.02028612764130
C            0.64888435193230        0.33303007593112       -0.00708404176259
N            1.87177917165851        0.85888658478055        0.00008068651083
C            2.95171072765333        0.07473526736742        0.00865204403958
C            4.24170867473803        0.60337896763261        0.01404097452096
C            5.35408788525981       -0.22713357631586        0.02499373238022
N            6.66453713266405        0.31832003502506        0.02915894686232
C            7.30992506768187        0.50878083307478       -1.17916015154940
C            6.60392932773282        0.32724403411324       -2.37311560421654
C            7.22127248166452        0.50372657816592       -3.59197866717923
C            8.55678718837020        0.86458001702876       -3.64082614545282
C            9.25542086080345        1.04663243953220       -2.46156506885886
C            8.65895346387078        0.87973206437197       -1.21967016778511
C            9.47807900991732        1.07298278694095        0.04054344454052
C           10.59991724675175        0.01785239156675        0.05407832377042
C           10.07477627518090        2.49227793213812        0.03461350971484
C            8.64426859566078        0.89647204947830        1.29357005584658
C            9.22615064761852        1.08018475600710        2.54000306778592
C            8.51379815867128        0.91374720945887        3.71335016599866
C            7.17902392092920        0.55175315793875        3.65375206719502
C            6.57597640977036        0.35881612870041        2.43023183608250
C            7.29581049146989        0.52476095237714        1.24228972528777
C            5.17496917421999       -1.60886266463445        0.03162843615586
Br           6.71255569232229       -2.73232196620109        0.04699466514831
C            3.91338935419856       -2.17486609352085        0.02698701263910
C            2.78268664802442       -1.35820969325907        0.01491102095381
N            1.55062525864639       -1.87057554588071        0.01121222021933
C            0.48301211534927       -1.07567335501236       -0.00169860783753
C           -5.33673049044228       -3.50259954513182        1.17916473408562
C           -4.76707203357799       -3.00058604544615        2.35444115789135
C           -5.42824272879049       -3.09788575911425        3.55957849087054
C           -6.67126377989725       -3.70365806100065        3.61685525165880
C           -7.23088839411056       -4.21197925443360        2.45926378354149
C           -6.58843987030584       -4.12784774023517        1.23174440674178
H           -8.44936575114518       -2.95865007227774       -0.38301755851403
H           -9.11410537000975       -4.43415944761368       -1.08455254181087
H           -9.24728442914106       -4.14747474518296        0.64728904242337
H           -8.07295528829184       -6.40484088924195        1.10832163228092
H           -6.49296103119567       -6.71448963995288        0.38821774176211
H           -7.93731518202932       -6.68944440573819       -0.62399271191337
H           -7.80392013853018       -5.52165496888409       -2.51070950283390
H           -6.51086660309195       -5.24249883051651       -4.55991268103971
H           -4.33459332922422       -4.05523934444510       -4.48867402759029
H           -3.48989778825721       -3.18962303861151       -2.36365946177915
H           -2.34358067235984       -4.67943517996487        0.00524477957935
H           -0.08580655272550       -3.63012793820400        0.01072208936615
H           -4.13846360857065       -0.82705198313382       -0.04476217609607
H           -3.90421374386589        1.16346144999294       -0.05212568274027
H           -2.71664699828381        3.30390803560159       -2.38506759783664
H           -3.33336427332701        4.33120105852686       -4.51625131575591
H           -5.17960929911046        5.98509018699703       -4.60060487179344
H           -6.38077063729893        6.56182549495707       -2.55762203666904
H           -8.10959927469853        5.57018615921930        0.60022460161147
H           -7.60213264360946        4.22411064625751       -0.42058948394157
H           -7.90945892919295        5.80833463278595       -1.13255951750063
H           -6.24973241505927        7.73769389290842       -0.67684530032957
H           -4.84017641606266        7.43679254777595        0.34002297674872
H           -6.45070299819634        7.50057473797996        1.05624183629989
H           -6.96712976013106        5.86756954120516        2.47600670139184
H           -6.20742182810579        4.77029775477262        4.51755119964690
H           -4.28555485946634        3.20486252255688        4.42945295722279
H           -3.17542119667923        2.76004378528756        2.29805766902313
H           -1.26431875852878        4.49430528185456       -0.02642396290399
H            0.68831956255276        2.94965865953547       -0.01207056016504
H            4.37099840921543        1.67404108542360        0.00867217255714
H            5.56256303005244        0.04535154232553       -2.33898794155323
H            6.65952547134301        0.35699084333599       -4.50214455803465
H            9.05249514140788        1.00073256111028       -4.58977861780517
H           10.29790894496799        1.32064014075038       -2.51754869363411
H           10.16603822803792       -0.98026240225599        0.05755386455398
H           11.22109225043313        0.12595563912694        0.93900509187949
H           11.23210939916103        0.11504404017006       -0.82428874296762
H           10.68718738663798        2.66035293150675        0.91572951696969
H           10.69600235291526        2.64932660798553       -0.84235619858557
H            9.27476914089304        3.23034380822644        0.02596391599447
H           10.26787537084499        1.35522893457466        2.60447715966361
H            8.99834210011136        1.06280624467151        4.66612265691187
H            6.60672210235457        0.41698549735751        4.55918044131773
H            5.53514194249657        0.07610835723740        2.38771130807985
H            3.78485689152978       -3.24500698674275        0.03169678216500
H           -3.79475766357064       -2.53437414887976        2.31730903020634
H           -4.97020325832313       -2.70194298181947        4.45347133227555
H           -7.19911670847466       -3.78525351704759        4.55462840599994
H           -8.19695491691083       -4.68963909208509        2.52106295915246
