$hessian                                                                        
        0.4798672863  -0.0006093701  -0.0128993750  -0.0827666356   0.0124726633
       -0.0511636247  -0.0036163653   0.0058222806  -0.0120313878   0.0047232735
        0.0025261520  -0.0020944436  -0.0002387965   0.0002116834  -0.0005033488
       -0.0002594904   0.0009812468   0.0002016505  -0.0010202892  -0.0003981295
        0.0000955398   0.0001075241   0.0001743051  -0.0000866852  -0.0001018272
        0.0000633618   0.0000167958  -0.0000046182  -0.0000459479   0.0000001447
        0.0000139000  -0.0000105429   0.0000121225  -0.0000270078   0.0000058594
        0.0000086490   0.0000887675  -0.0000026534  -0.0000054377  -0.0000759383
       -0.0000065305   0.0000073429  -0.0000001166   0.0000014252   0.0000025890
       -0.0000065025  -0.0000007240  -0.0000079702  -0.0000372279   0.0000056084
       -0.0000190671   0.0000294132  -0.0000098592  -0.0000034178   0.0062984472
        0.0007441729  -0.0011268398  -0.0003194799  -0.0004354546   0.0004069665
        0.0001121352   0.0006020690  -0.0004286058   0.0000145954  -0.0004459807
       -0.0001623103  -0.0000455986  -0.0000179413   0.0000232915   0.0001588150
        0.0000695684  -0.0000924135   0.0000121896  -0.0000043354   0.0000113561
        0.0000201220  -0.0002264823   0.0000288183   0.0000807547   0.0003938326
        0.0000408080  -0.0000025073   0.0000026439   0.0000132445  -0.0002799134
       -0.0001203533   0.0002495539   0.0000336413  -0.0000070524   0.0000171603
       -0.0000574066   0.0000275282  -0.0000356292   0.0000523134   0.0000130733
        0.0000119750  -0.0000347267  -0.0000064271  -0.0000094365   0.0000065632
        0.0000040928   0.0000173008  -0.0000214269  -0.0000044887   0.0000073661
        0.0000437940  -0.0000014794   0.0000250970  -0.0000362451   0.0000295594
       -0.0000191908  -0.0000000304  -0.0000070475  -0.0000005159  -0.0000021663
       -0.0000060599   0.0000015193  -0.0000213636  -0.0000087197  -0.0000329877
        0.0000289861   0.0000006707  -0.0000121008   0.0002046901  -0.0001381274
       -0.0003775146  -0.0000829428   0.0000301612   0.0001902584  -0.0000154817
       -0.0000019617   0.0000013707  -0.0000520710   0.0000176824  -0.0000314111
        0.0000118187  -0.0000027538   0.0000173394  -0.0000569874  -0.0000177818
        0.0000016304   0.0001062281   0.0000119719  -0.0000579922  -0.0000172937
        0.0000037276   0.0000088628   0.0000743927  -0.0000035654   0.0001688880
       -0.0000398322  -0.0000342413  -0.0000000502   0.0000548672   0.0001243256
       -0.0000043722  -0.0000218304  -0.0001176393   0.0000400494   0.0000308726
        0.0000609889  -0.0000199949  -0.0000011071  -0.0000013225   0.0000303430
        0.0000003738   0.0000030887  -0.0000017368  -0.0000166168  -0.0000215970
        0.0000199905   0.0000046062   0.0000121257  -0.0000009856  -0.0000066071
        0.0000089737   0.0000009763   0.0000090111   0.0000009152  -0.0000134215
        0.0000188955   0.0000160855  -0.0000197113   0.0000029085  -0.0000307515
       -0.0000052985  -0.0009648829  -0.0027128903  -0.0075719753  -0.0034793511
       -0.0001027473   0.0011556104  -0.2641163484   0.0401646742   0.0177878487
       -0.0858718577  -0.0841095695   0.0462822185  -0.0479763253   0.0248875563
        0.0197413376  -0.0016218853  -0.0010590610   0.0005886899   0.0000010870
       -0.0000645922  -0.0000346784  -0.0000292658   0.0001225407   0.0000117882
        0.0000471929   0.0000679608  -0.0000065637   0.0000242197  -0.0000831646
        0.0001216113  -0.0000030011   0.0001704367   0.0000638632  -0.0000051281
        0.0000008248   0.0000075428  -0.0000012371   0.0000034199   0.0000011129
       -0.0000021138  -0.0000016820   0.0000023842  -0.0000039375  -0.0000017134
        0.0000014179  -0.0000007856   0.0000036459   0.0000019994  -0.0000038783
        0.0000021286  -0.0000037063  -0.0000015642  -0.0000018882  -0.0000020232
       -0.0000040280  -0.0000042102  -0.0000013843   0.0000002506   0.0000020619
       -0.0000015064   0.0000033352  -0.0000025328  -0.0000083660  -0.0000080971
       -0.0000120120  -0.0000042404  -0.0000326234   0.0000110765   0.0000089542
        0.0000135188   0.0000130122  -0.0000006458   0.0000041048   0.0000004640
        0.0000094707   0.0000014041  -0.0000071195   0.0000002791   0.0000061682
       -0.0000051279  -0.0000031225  -0.0000350047  -0.0000206873  -0.0000249838
        0.0000009602  -0.0000038225   0.0000017854  -0.0000098850   0.0000129475
        0.0000233573  -0.0000093886  -0.0000087302  -0.0000004912  -0.0000113526
        0.0000015369   0.0000081357   0.0000151141   0.0000114696   0.0000006078
        0.0000006526   0.0000024624   0.0000019517  -0.0000016066   0.0000008898
       -0.0000007298  -0.0000020180  -0.0000032288  -0.0000036624   0.0000000408
        0.0000025601   0.0000004362  -0.0000014890   0.0000019792  -0.0000007424
       -0.0000034059  -0.0000031586   0.0000032865   0.0000024758   0.0000058804
        0.0000009935  -0.0000017066   0.0000020718  -0.0000005279  -0.0000037107
       -0.0000019496   0.0000004615   0.0000003124   0.0000007519   0.0000030499
       -0.0000082285  -0.0000127533  -0.0000038897  -0.0000628807   0.0000080268
       -0.0000164485   0.0000023172   0.0000063338   0.0000052312   0.0000023861
        0.0000032605  -0.0000041893  -0.0000053380  -0.0000038523   0.0000029937
       -0.0000018750  -0.0000023849   0.0000001449   0.0000003942  -0.0000030276
        0.0000106745  -0.0000012723  -0.0000023930  -0.0000024777  -0.0000035148
        0.0000000672  -0.0000035208   0.0000014041   0.0000052214   0.0000023166
        0.0000044277   0.0000012789   0.0000000907   0.0000002054  -0.0000054225
       -0.0000080396   0.0000001232   0.0000042996  -0.0000023624  -0.0000029583
        0.0000002364   0.0000037961   0.0000015103  -0.0000051763   0.0000023985
       -0.0000003805  -0.0000018766  -0.0000009099  -0.0000053828  -0.0000010424
        0.0000001871   0.0000029954   0.0000017038   0.0000007431   0.0000000133
       -0.0000053859   0.0000018609  -0.0000000827  -0.0000007389   0.0000060554
        0.0000008841  -0.0000015068   0.0000026939  -0.0000011766   0.0000024826
        0.0000019848  -0.0001662127   0.0001889246  -0.0000322362   0.0009432602
        0.0015782767   0.0011165923   0.0004596872  -0.0007335383   0.0003437419
       -0.0006093701   0.5222083514   0.0136495287   0.0102488420  -0.0690363267
        0.0188243205   0.0132253349  -0.0095025851   0.0249154210   0.0025025580
       -0.0038191345  -0.0004667204   0.0004733733  -0.0003798728   0.0011149708
       -0.0000077570  -0.0000146479   0.0002767754   0.0000091851   0.0001471587
       -0.0000744234  -0.0005389228   0.0000025190   0.0001086947   0.0004539146
        0.0000170048  -0.0000195587  -0.0003066696   0.0000059581   0.0000176099
        0.0001528749  -0.0000154152   0.0000935084  -0.0001097750  -0.0000010456
        0.0000961688   0.0002310023   0.0000202399  -0.0000280563  -0.0001417919
        0.0000020540   0.0000279777   0.0000064109   0.0000053263   0.0000387843
       -0.0000244349   0.0000034582  -0.0000446459  -0.0001289395  -0.0000049306
       -0.0000628960   0.0001293259   0.0000050549  -0.0001394572   0.0011861056
       -0.0015797609  -0.0027507084  -0.0005306476  -0.0005499399  -0.0006743394
        0.0000169706  -0.0001476733   0.0002228841   0.0000840015   0.0003325082
        0.0001120101  -0.0000059636  -0.0000026704  -0.0000023615  -0.0001797628
       -0.0000463605   0.0001259277  -0.0000028389   0.0000120172  -0.0000066387
        0.0000651511   0.0001719358  -0.0000938837  -0.0000064872  -0.0002099214
       -0.0000949715   0.0000230221  -0.0000081542  -0.0000118420   0.0001554314
        0.0000547989  -0.0002181801   0.0000764934   0.0000099416   0.0000164650
       -0.0000819004  -0.0000427003  -0.0000242163   0.0000988112  -0.0000088049
        0.0000444478  -0.0000536004  -0.0000108789  -0.0000205607   0.0000307667
        0.0000164323   0.0000244049  -0.0000147452  -0.0000109888   0.0000047297
        0.0000097344  -0.0000038413   0.0000004787   0.0000012535  -0.0000172950
       -0.0000010874   0.0000059686   0.0000024786   0.0000065258   0.0000177264
        0.0000119911  -0.0000104717  -0.0000119038  -0.0000052675   0.0000003398
        0.0000287181  -0.0000112577   0.0000021878  -0.0000433756   0.0002449352
        0.0000619897   0.0000001184  -0.0000798289   0.0000549970   0.0000292813
        0.0000449049   0.0000161246  -0.0000300795  -0.0000653555  -0.0000849500
        0.0000011241   0.0000178643  -0.0000107711   0.0000760437   0.0000444526
        0.0000353378   0.0000100262  -0.0000255941  -0.0000080518  -0.0000007774
       -0.0000094804   0.0000123585  -0.0000537106   0.0000582984   0.0001566889
        0.0000199280   0.0000219587  -0.0000059924  -0.0000927309  -0.0002557116
        0.0000311331   0.0000224450   0.0001507979  -0.0000471708  -0.0000255023
       -0.0000693448   0.0000306868   0.0000333718  -0.0000232944  -0.0000469859
        0.0000242545   0.0000047781  -0.0000216149  -0.0000027105  -0.0000301944
       -0.0000111769   0.0000084220   0.0000071480   0.0000067099  -0.0000240312
        0.0000254376   0.0000207474   0.0000229253  -0.0000060921  -0.0000290864
       -0.0000199495   0.0000060566   0.0000291092  -0.0000106685   0.0000466303
        0.0000322852  -0.0078446503   0.0021904682  -0.0174724530  -0.0005114919
       -0.0008370250  -0.0005818747   0.0400886667  -0.0484809923  -0.0046037442
       -0.0818986161  -0.1918100411   0.0788180138   0.0244504470  -0.1980549866
       -0.1112974433   0.0001371171   0.0005053405   0.0021807771  -0.0000376730
        0.0001536956   0.0000397635   0.0000998276  -0.0001304040   0.0000608282
        0.0000552196  -0.0002055321   0.0000736546   0.0000267434   0.0000369139
        0.0000012727   0.0000238374   0.0001153736   0.0000911073   0.0000084770
        0.0000023067  -0.0000017654  -0.0000001453   0.0000157721   0.0000156352
        0.0000096528   0.0000082888  -0.0000177708   0.0000123608   0.0000098686
       -0.0000081069   0.0000010749   0.0000097936   0.0000052824   0.0000098540
       -0.0000100439   0.0000037977   0.0000067231  -0.0000056818   0.0000112415
        0.0000098786   0.0000067125   0.0000008271  -0.0000076274  -0.0000068714
        0.0000001290  -0.0000037185   0.0000038100   0.0000163612   0.0000020749
        0.0000071611   0.0000081991   0.0000100822  -0.0000014504   0.0000039935
       -0.0000137422  -0.0000180186   0.0000055331  -0.0000110581   0.0000011072
       -0.0000051980  -0.0000123566   0.0000027997  -0.0000070406   0.0000184456
        0.0000015155  -0.0000108852   0.0000086899  -0.0000085986   0.0000143167
       -0.0000036204  -0.0000028338  -0.0000064930  -0.0000225876  -0.0000014008
        0.0000348679  -0.0000028890   0.0000025902  -0.0000092926  -0.0000366951
        0.0000181192   0.0000068065  -0.0000419961  -0.0000402142   0.0000363539
       -0.0000057491   0.0000051645   0.0000080653   0.0000008838   0.0000024519
        0.0000092162   0.0000079175  -0.0000053060   0.0000035642  -0.0000020207
       -0.0000052279  -0.0000116939  -0.0000029671  -0.0000069191   0.0000031705
        0.0000028109  -0.0000060474   0.0000030417  -0.0000027024   0.0000093033
       -0.0000056753  -0.0000025173  -0.0000074681  -0.0000022551   0.0000119963
        0.0000096588  -0.0000102214  -0.0000051502   0.0000009607   0.0000091886
        0.0000132888   0.0000023092  -0.0000120163  -0.0000187279  -0.0000274863
       -0.0000069477  -0.0000151117   0.0000036454  -0.0000124201  -0.0000100771
       -0.0000005183   0.0000019261   0.0000109972   0.0000008135  -0.0000080057
       -0.0000008557   0.0000065681   0.0000054711  -0.0000006829  -0.0000056141
        0.0000002730   0.0000043639   0.0000138783   0.0000054579   0.0000172254
        0.0000004188   0.0000082957   0.0000052510  -0.0000073583   0.0000029845
       -0.0000085752  -0.0000003794  -0.0000316537  -0.0000004275   0.0000142089
        0.0000080735  -0.0000158513   0.0000105906   0.0000061493  -0.0000083074
       -0.0000083544  -0.0000018702  -0.0000070238  -0.0000038376  -0.0000019682
        0.0000060900   0.0000039753  -0.0000147987  -0.0000094497   0.0000060717
       -0.0000053611  -0.0000082558  -0.0000024592   0.0000006780  -0.0000010742
       -0.0000080715  -0.0000018697  -0.0000018807   0.0000060855   0.0000177128
       -0.0000088979  -0.0000001022  -0.0000028678   0.0000039948  -0.0000089674
       -0.0000075310  -0.0003244925   0.0000318679  -0.0004344085  -0.0006852154
       -0.0009299324  -0.0013670391   0.0001090186  -0.0002795877  -0.0007628690
       -0.0128993750   0.0136495287   0.4715893810  -0.0552049394   0.0241907063
       -0.1826912843  -0.0080934562   0.0085444772  -0.0137548779  -0.0017178929
        0.0007452982   0.0021399171  -0.0002564695   0.0000910922  -0.0004010005
       -0.0000856990  -0.0004976917  -0.0007609533   0.0003632623   0.0001303006
        0.0000661747   0.0000721239  -0.0000558023  -0.0000191606  -0.0000116593
       -0.0000298481  -0.0000188206   0.0000150149   0.0000166881  -0.0000032465
        0.0000081900   0.0000058659   0.0000185384  -0.0000216900  -0.0000189098
        0.0000166889   0.0000719445   0.0000207523  -0.0000163680  -0.0000605460
        0.0000221674   0.0000144980   0.0000162472  -0.0000054536  -0.0000027464
       -0.0000083156   0.0000143377  -0.0000086707  -0.0000151285  -0.0000045922
       -0.0000109818   0.0000113160   0.0000005190  -0.0000116977  -0.0015813033
       -0.0028598774  -0.0001039012  -0.0004352208  -0.0003712123  -0.0009370743
        0.0000856439   0.0000296872   0.0000949250   0.0000259015   0.0002044175
        0.0001244155   0.0000282462   0.0000338811  -0.0000044337  -0.0000852481
        0.0000146450   0.0000091218   0.0000142505  -0.0000069263  -0.0000055515
        0.0000026558   0.0000819420   0.0000208741  -0.0000007485  -0.0001165139
       -0.0000859160  -0.0000159496   0.0000028974   0.0000019898   0.0000999452
        0.0000737356  -0.0000472432   0.0001060940   0.0001028598  -0.0000234780
       -0.0000199283  -0.0000169734  -0.0000061304   0.0000564272  -0.0000002468
        0.0000391261  -0.0000419062  -0.0000126136  -0.0000117459   0.0000391307
        0.0000179313   0.0000312223  -0.0000314905  -0.0000077952   0.0000137071
        0.0000781808  -0.0000115925   0.0000393334  -0.0000689657   0.0000237536
       -0.0000381328   0.0000066655  -0.0000101914   0.0000010098   0.0000173565
        0.0000090695  -0.0000096038  -0.0000409274  -0.0000001210  -0.0000225905
        0.0000558535  -0.0000092153   0.0000026087  -0.0000213393   0.0001103727
        0.0000969332   0.0001181893   0.0000730921  -0.0000741776   0.0000045064
        0.0000574530   0.0000711037   0.0000522985  -0.0000232831   0.0001198616
        0.0000006484   0.0000060746  -0.0000132913  -0.0000000807  -0.0000118801
       -0.0000350399  -0.0000297434  -0.0000784449   0.0000769603  -0.0000031609
       -0.0000116408  -0.0000046293  -0.0001922756   0.0000563339  -0.0000554153
        0.0000388992   0.0000602223  -0.0000260997  -0.0000611238  -0.0001826059
        0.0000212402   0.0000632660   0.0002397199  -0.0000926907  -0.0000613390
       -0.0001453217   0.0000439548   0.0000633318   0.0000429945  -0.0000982005
        0.0000233265  -0.0000942152  -0.0000050049   0.0000650114   0.0001944400
       -0.0000966745  -0.0000420725  -0.0001488795   0.0000587707   0.0000033402
       -0.0000140845   0.0000062517  -0.0000101340  -0.0000092850   0.0000101681
       -0.0000749543  -0.0000649659   0.0000777501  -0.0000020502   0.0001346144
        0.0000238457  -0.0100561287  -0.0034299519  -0.0265907308   0.0007240478
        0.0019015170  -0.0010797953   0.0237697410  -0.0065263327  -0.0409899167
        0.0445208544   0.0766005157  -0.0834594241   0.0197819892  -0.1109394266
       -0.1234292978   0.0012705764  -0.0014793920   0.0007989321   0.0000273943
       -0.0001037121  -0.0000252304  -0.0000794243  -0.0000387122   0.0000355348
        0.0000245622   0.0000927059  -0.0000252395  -0.0000525800  -0.0000045828
       -0.0000613444  -0.0000329184  -0.0000147613  -0.0000218583   0.0000073078
        0.0000012718   0.0000081396  -0.0000100648   0.0000074533   0.0000182421
        0.0000149446   0.0000150860  -0.0000327715   0.0000073863   0.0000132482
       -0.0000140633   0.0000053387   0.0000034069  -0.0000076794   0.0000043246
       -0.0000162622   0.0000079693   0.0000117932  -0.0000179023   0.0000218684
        0.0000191011   0.0000075160   0.0000107582  -0.0000203948  -0.0000018277
        0.0000054673   0.0000015084   0.0000104067  -0.0000235886   0.0000032586
       -0.0000127070   0.0000028038  -0.0000075241   0.0000056845   0.0000140588
       -0.0000193517  -0.0000127424   0.0000129274  -0.0000108190   0.0000005660
       -0.0000009263  -0.0000159000  -0.0000041697  -0.0000050793   0.0000209582
       -0.0000041950  -0.0000180663   0.0000141737  -0.0000083209   0.0000127990
       -0.0000040431  -0.0000039521  -0.0000009787   0.0000053562  -0.0000111084
        0.0000064144  -0.0000066384  -0.0000056242  -0.0000028955  -0.0000174582
       -0.0000442355   0.0000130838   0.0000111868  -0.0000749830  -0.0000241702
       -0.0000056595   0.0000036208   0.0000149469  -0.0000016349   0.0000026483
        0.0000107438   0.0000137672  -0.0000115015   0.0000073694  -0.0000011170
       -0.0000118246  -0.0000145210  -0.0000062305  -0.0000131714   0.0000037497
        0.0000059553  -0.0000104244   0.0000060946  -0.0000048656   0.0000076785
       -0.0000054466  -0.0000049499  -0.0000136205  -0.0000019873   0.0000082294
        0.0000117052  -0.0000112580  -0.0000060778  -0.0000007917   0.0000112350
       -0.0000090894  -0.0000158295   0.0000030615  -0.0001011811  -0.0000163710
       -0.0000310388   0.0000107097  -0.0000155954  -0.0000622879   0.0000024797
       -0.0000010238  -0.0000022129   0.0000072974  -0.0000017711  -0.0000015285
        0.0000040110   0.0000031208  -0.0000048114  -0.0000165489   0.0000241685
       -0.0000231294  -0.0000043738   0.0000056683   0.0000067553   0.0000217316
       -0.0000017433   0.0000075039  -0.0000005228  -0.0000178055  -0.0000084953
        0.0000176405  -0.0000130294  -0.0000249297  -0.0000175263   0.0000017158
       -0.0000029356  -0.0000035880  -0.0000049593  -0.0000002891   0.0000031641
       -0.0000092164  -0.0000141093  -0.0000016163  -0.0000007962   0.0000013922
        0.0000134269   0.0000033354  -0.0000220803  -0.0000101523   0.0000130964
        0.0000006321  -0.0000117635  -0.0000014495  -0.0000010841  -0.0000029139
       -0.0000078858  -0.0000038853  -0.0000068538   0.0000121828   0.0000288929
       -0.0000126739   0.0000102811   0.0000068028  -0.0000052567  -0.0000120912
        0.0000120556  -0.0004573757   0.0001783963  -0.0002340839   0.0002648880
       -0.0007041025  -0.0006600582  -0.0000060213   0.0005212223   0.0005194556
       -0.0827666356   0.0102488420  -0.0552049394   0.2238381003  -0.1027613603
        0.1555916618  -0.0715701268   0.0859755004  -0.0191945837  -0.0121473835
        0.0113212237  -0.0230322396   0.0046608188   0.0012843026  -0.0028471356
       -0.0011445446   0.0060296198   0.0042322109   0.0003070126   0.0002794217
        0.0001658583  -0.0015661279  -0.0002169238   0.0001461106   0.0013114286
       -0.0000490450  -0.0001016045  -0.0006634522   0.0001103125   0.0000713059
        0.0002535800   0.0000269839   0.0002090728  -0.0001491021  -0.0000782527
        0.0001862412   0.0002290390   0.0001028858  -0.0000261313  -0.0000959052
        0.0000963264   0.0000475784   0.0001489116  -0.0000499973   0.0000145062
       -0.0000258430   0.0000483084  -0.0000610102  -0.0002038347  -0.0000911965
       -0.0001217942   0.0001887377  -0.0000058843  -0.0003838747  -0.0029073539
       -0.0080952455  -0.0164480064   0.0013479675   0.0022125095  -0.0000549778
       -0.0001533409  -0.0034407305   0.0013900642  -0.0010346181   0.0031703676
        0.0003527348   0.0001769234   0.0000617279  -0.0002947648  -0.0007797944
       -0.0006468806   0.0014687494   0.0001325020   0.0000794009   0.0000237129
        0.0003323124   0.0016057764  -0.0002756056   0.0003949812  -0.0024592275
        0.0001196052   0.0000268099   0.0000999964   0.0000780955   0.0014393657
        0.0008760512  -0.0022725820   0.0003585391  -0.0002011878   0.0000772475
       -0.0009020492   0.0000848129  -0.0003776040   0.0008993363   0.0002102191
        0.0003303091  -0.0004613644  -0.0001363239  -0.0001133842   0.0002251661
        0.0000939296   0.0002173141  -0.0001707463  -0.0000318502   0.0000753697
        0.0002243049  -0.0000788416   0.0001284897  -0.0001383275   0.0000740554
       -0.0001046091   0.0000342354  -0.0000182610   0.0000417514   0.0001342171
        0.0001065035  -0.0000878728  -0.0001536719   0.0000404607  -0.0001192256
        0.0002788605  -0.0000411085  -0.0000044734  -0.0001241167  -0.0004119061
       -0.0025696011  -0.0007568255  -0.0005788039   0.0012487715   0.0000799545
        0.0001699628  -0.0002971131  -0.0008148052  -0.0005115971  -0.0012149472
       -0.0000133013   0.0001133163   0.0000095784   0.0008093714   0.0004585368
        0.0006219136   0.0002035186   0.0002737865  -0.0002149713  -0.0000109104
       -0.0000205506   0.0000868312   0.0007620346   0.0006831517   0.0012550748
        0.0001958292  -0.0001302389   0.0001101393  -0.0007750763  -0.0013778014
        0.0001250471   0.0001678507   0.0012683509  -0.0004594910  -0.0002930469
       -0.0006929618   0.0002463385   0.0001919394   0.0000589542  -0.0004487126
        0.0000910218  -0.0001852629  -0.0000323586   0.0002061194   0.0003623024
       -0.0003309970  -0.0000796324  -0.0003527019   0.0001470382  -0.0000159518
       -0.0000210717   0.0000433002  -0.0000139836  -0.0000466420   0.0000132974
       -0.0002599448  -0.0001894836   0.0002946460   0.0000729589   0.0004968053
        0.0001606476  -0.0524241488  -0.0232124163  -0.0285487998   0.0013302038
        0.0095918879   0.0039640081  -0.0155723237   0.0073383882  -0.0280776852
        0.0053186031   0.0006316659   0.0086994617   0.0012193738  -0.0017665458
        0.0009961778   0.0013022044  -0.0018227513   0.0001535996  -0.0000436377
       -0.0000383629  -0.0000266939  -0.0005836261   0.0011229714  -0.0007299072
        0.0004076334  -0.0006509654   0.0001643388   0.0000933166   0.0000815777
        0.0001541898  -0.0000497193  -0.0000136903   0.0001660319   0.0000689996
       -0.0000040431   0.0000045989  -0.0000198813   0.0000333087   0.0000755745
        0.0000937799   0.0000664445  -0.0001523442   0.0000612384   0.0000743158
       -0.0000886835   0.0000326650   0.0000378924  -0.0000179907   0.0000437186
       -0.0000857994   0.0000716574   0.0000796576  -0.0000946097   0.0000885572
        0.0000791279   0.0000135922   0.0000388625  -0.0000794061  -0.0000182764
        0.0000769435   0.0000316695   0.0000603213   0.0000507371   0.0000489308
        0.0000617100   0.0001205474   0.0000833489  -0.0001172936  -0.0000802557
       -0.0000365488  -0.0000749562   0.0000904250  -0.0000709205   0.0000446863
       -0.0000396780  -0.0000988440   0.0000262820  -0.0000204911   0.0001104248
       -0.0000164244  -0.0001037831  -0.0001917149   0.0000011014  -0.0001794721
        0.0000023456  -0.0000378279  -0.0000225956   0.0000090194  -0.0000981493
        0.0000784375   0.0000318734   0.0000260659  -0.0000881917   0.0000056948
       -0.0001814559   0.0001891734  -0.0003589558  -0.0000222384  -0.0001972971
       -0.0000216229   0.0000162416   0.0000395337   0.0000019165   0.0000162169
        0.0000355883   0.0000830611  -0.0000534380   0.0000512426  -0.0000039676
       -0.0000685338  -0.0001145533  -0.0000260372  -0.0000817212   0.0000154821
        0.0000438006  -0.0000466222   0.0000336522  -0.0000405489   0.0000671769
       -0.0000171839  -0.0000236077  -0.0000847208  -0.0000131536   0.0000481467
        0.0000774684  -0.0000398819  -0.0000216390  -0.0000062010   0.0001084076
        0.0000668558   0.0000740115   0.0001388075  -0.0001399789  -0.0001097416
        0.0001447257   0.0000050226   0.0000026570   0.0000239428  -0.0000235544
       -0.0000144744  -0.0000132540   0.0000930536   0.0000319981  -0.0000345974
       -0.0000107512   0.0000240559   0.0000229524   0.0000121556  -0.0000870565
        0.0000368651  -0.0000289621   0.0000242147   0.0000494378   0.0001173504
        0.0000069791   0.0000276177   0.0000232107  -0.0000868768   0.0000128127
       -0.0000624369  -0.0000039343  -0.0002019631   0.0000067475   0.0000310375
        0.0000902386  -0.0000533331  -0.0000168762   0.0000326326   0.0000090147
       -0.0000403347  -0.0000709649  -0.0000290653  -0.0000026128  -0.0000071952
        0.0000604537   0.0000403207  -0.0001303742  -0.0000873502   0.0000646105
       -0.0000048185  -0.0000829544  -0.0000150919  -0.0000045903  -0.0000095637
       -0.0000679216  -0.0000283276  -0.0000268467   0.0000630246   0.0001497003
       -0.0000844294   0.0000597549   0.0000039275  -0.0000204488  -0.0000864391
        0.0000310317  -0.0003130505   0.0028615480  -0.0003510655   0.0000881929
        0.0007694754   0.0006201278  -0.0000048672   0.0004820339  -0.0000822588
        0.0124726633  -0.0690363267   0.0241907063  -0.1027613603   0.6103723113
        0.0349859596   0.0554427188  -0.2708946491   0.0096694252   0.0252832072
       -0.0027734521   0.0765837159   0.0014269146   0.0016346966  -0.0008460050
        0.0036383332  -0.0314719348  -0.0188663019   0.0004553850  -0.0020342586
       -0.0017618939   0.0015106541   0.0011197282   0.0002000663  -0.0017374578
        0.0004147011   0.0003179976   0.0008017049  -0.0003769095  -0.0001135596
       -0.0004119169   0.0000084222  -0.0002625822   0.0002634186  -0.0000102378
       -0.0003207417  -0.0002523077   0.0000079361   0.0000677350   0.0001154601
       -0.0000830166  -0.0000686914  -0.0001442199  -0.0000312761   0.0000956089
       -0.0000466037   0.0000415400   0.0000136107   0.0002977252   0.0000965492
        0.0001986123  -0.0002555112  -0.0001406447   0.0005311938  -0.0265378737
        0.0138051539  -0.0499443424   0.0032469756   0.0099767792   0.0111973475
        0.0014660727  -0.0065457097   0.0009088157  -0.0012853578   0.0028202266
       -0.0001725266   0.0000655370   0.0001342474  -0.0001948917  -0.0005268815
       -0.0010841860   0.0015942729  -0.0000365117  -0.0000366380   0.0000802603
        0.0006370135   0.0012600057  -0.0005659400   0.0005332232  -0.0018734967
        0.0004908970   0.0000979915   0.0001065125   0.0001035381   0.0010169548
        0.0019475807  -0.0033694177  -0.0004058082  -0.0005793866   0.0002871130
        0.0000286764   0.0003408054  -0.0001509029   0.0000016773   0.0001981411
       -0.0001066196   0.0000422730  -0.0000047634   0.0000527575  -0.0000577413
       -0.0000571676  -0.0000103961   0.0000188784  -0.0000237385  -0.0000340374
       -0.0000526447  -0.0000228088  -0.0000123322   0.0000639261   0.0000695379
        0.0000265154  -0.0000140667   0.0000097435   0.0000064230  -0.0000695149
       -0.0000860562   0.0000501688  -0.0000028720  -0.0000470095  -0.0000441844
       -0.0000127590   0.0000855781  -0.0000036007  -0.0018548457  -0.0010776254
       -0.0080448052  -0.0025396332  -0.0017748078   0.0047559861   0.0002382950
       -0.0002741571  -0.0009842356  -0.0017987536  -0.0013873412  -0.0035113586
       -0.0000006627   0.0002332299   0.0000094601   0.0012784460   0.0009299808
        0.0019284729   0.0007588706   0.0008335611  -0.0012005452  -0.0000264541
        0.0000492820   0.0000612367   0.0034708532   0.0014469006   0.0030045723
        0.0000384578  -0.0005590792   0.0007201870  -0.0003120323  -0.0001878934
       -0.0001545679  -0.0001224111   0.0003209205  -0.0002012427   0.0000058708
       -0.0001289743   0.0001156700  -0.0000450007  -0.0000228785  -0.0000850285
       -0.0000046891   0.0000828307   0.0000505956   0.0000203973  -0.0001296297
       -0.0000452070   0.0000033254   0.0000670895   0.0000017111   0.0000330398
       -0.0000571869   0.0000139574  -0.0000597991   0.0000344632   0.0000501951
        0.0000091943  -0.0000233827   0.0000014890   0.0000372764  -0.0000144894
        0.0000591476   0.0082362132  -0.1880896400  -0.0732978931   0.0024753038
       -0.0342934029  -0.0157788418   0.0052511240  -0.0015720716   0.0061155789
        0.0093342418  -0.0063969511   0.0235200956  -0.0088957812   0.0019106094
       -0.0219099899   0.0077777525  -0.0242523248   0.0005677727   0.0000333179
       -0.0000065044  -0.0000815585   0.0002289986  -0.0001514434   0.0002117647
        0.0002411705  -0.0008692083   0.0005347581  -0.0001899891  -0.0004438552
       -0.0005024188  -0.0004953657   0.0020085459  -0.0001314271  -0.0000568492
       -0.0000064737   0.0000090238  -0.0000200302  -0.0000316237  -0.0000198116
       -0.0000616818   0.0000147436   0.0000490280  -0.0000021028  -0.0000192147
        0.0000538552   0.0000045041  -0.0000715485  -0.0000626420   0.0000042319
        0.0000289576  -0.0000581321  -0.0000482398   0.0000020616   0.0000108771
       -0.0000372859  -0.0000281362   0.0000236397   0.0000358286   0.0000656546
       -0.0001026933  -0.0000044733  -0.0000311593  -0.0000610664   0.0000189950
        0.0001403251   0.0000309709  -0.0000018590  -0.0002772817  -0.0001166360
        0.0000832436  -0.0001336211   0.0000878869   0.0000201689   0.0000380022
        0.0000423312   0.0000841934   0.0000074759  -0.0000194379  -0.0001054651
        0.0000359603   0.0000703293  -0.0002730580   0.0000029370  -0.0002629944
        0.0000900248  -0.0000087454   0.0000031722  -0.0000035047  -0.0000097657
       -0.0000420313   0.0000416083   0.0000321266   0.0000364333  -0.0002024428
       -0.0001566736  -0.0000069108   0.0005553610   0.0005671076  -0.0001891393