$hessian                                                                        
        0.2457587336   0.1470690220   0.1899051474  -0.0629884633  -0.0584837348
        0.0075714199  -0.0010648001  -0.0157603412   0.0058412315  -0.0039415175
        0.0088206313  -0.0013223346  -0.0007083060  -0.0013538346  -0.0005121802
        0.0000171247   0.0003855018  -0.0001060837   0.0000535724   0.0000038940
        0.0000676532   0.0000316168  -0.0000370255   0.0000352972  -0.0000234681
        0.0000376237   0.0000231268   0.0000213520   0.0000469331  -0.0000249851
       -0.0000282387  -0.0000953041   0.0000166565   0.0002298911  -0.0001342848
        0.0000833591  -0.0000646446  -0.0001367956  -0.0002494977   0.0000145303
       -0.0000347697   0.0001190309  -0.0000679559  -0.0000162789   0.0000130825
        0.0000933051   0.0000096304  -0.0000766306   0.0001477011   0.0000642695
        0.0000932359   0.0000069090  -0.0000166978  -0.0000031871  -0.0000182011
       -0.0000048243   0.0000223502   0.0000036550  -0.0000150674  -0.0000122533
       -0.0000071057   0.0000111426   0.0000093727  -0.0000083369   0.0000002877
        0.0000043281   0.0000102727   0.0000093709  -0.0000048766  -0.0000215557
        0.0000099410   0.0000117695  -0.0000110196  -0.0000098015   0.0000081016
        0.0000336939   0.0000104787  -0.0000193044  -0.0000028996   0.0000053906
       -0.0000087506   0.0000045410   0.0000024429  -0.0000035221  -0.0000046917
       -0.0000022209   0.0000027025  -0.0000012765   0.0000000379  -0.0000002943
       -0.0000036812  -0.0000004081  -0.0000000012  -0.0000005043   0.0000000898
       -0.0000018812  -0.0000010881  -0.0000011133  -0.0000009187  -0.0000012616
       -0.0000015675  -0.0000000766  -0.0000003444   0.0000015693  -0.0000006984
       -0.0000007525  -0.0000002545   0.0000007667  -0.0000009080   0.0000003509
        0.0000001496  -0.0000007344   0.0000001059  -0.0000007906   0.0000012668
        0.0000017562  -0.0000018084  -0.0000087319  -0.0000025031  -0.0000022189
        0.0000031623  -0.0000031669   0.0000019438  -0.0000007972  -0.0000009174
       -0.0000017344   0.0000005594  -0.0000005453  -0.0000011045  -0.0000003550
       -0.0000009787  -0.0000020784  -0.0000001856  -0.0000006292  -0.0000009063
       -0.0000003784   0.0000012907  -0.0000013043   0.0000045448   0.0000011343
        0.0000009674  -0.0000009606  -0.0000002544  -0.0000008155   0.0000011038
       -0.0000002120   0.0000005704  -0.0000007886   0.0000001691  -0.0000011579
        0.0000003172   0.0000014183  -0.0000025394  -0.0000009076   0.0000011922
       -0.0000014344  -0.0000030799  -0.0000010597   0.0000009399  -0.0000014640
       -0.0000006530  -0.0000035203  -0.0000010379  -0.0000006663   0.0000002543
        0.0000012342  -0.0000005489  -0.0000028056   0.0000018280  -0.0000012908
        0.0000038618   0.0000072105  -0.0000020776   0.0000084996   0.0000022620
        0.0000032095  -0.0000058320  -0.0000026598  -0.0000020740   0.0000020949
       -0.0000170186  -0.0000128308   0.0000026868   0.0000176492   0.0000023881
       -0.0000125328  -0.0000074312   0.0000056975   0.0000097270  -0.0000178833
       -0.0000252723   0.0000203347   0.0000366620   0.0000421809  -0.0000109777
       -0.0000110335   0.0000078139   0.0000082852  -0.0134393294  -0.0130708302
       -0.0218789544  -0.0843688956   0.0208064000  -0.0996079114  -0.0931457688
       -0.0878207412  -0.0700399061   0.0017429570   0.0089350426  -0.0045575113
        0.0049268423  -0.0041447738  -0.0041820585  -0.0000215180  -0.0000061659
        0.0000157330  -0.0000131037  -0.0000097385   0.0000130272  -0.0000039432
       -0.0000037280  -0.0000071828  -0.0000035830  -0.0000109894   0.0000080761
       -0.0000244068   0.0000099229   0.0000008526  -0.0000533031  -0.0000619347
       -0.0001296517   0.0000097896  -0.0000151754  -0.0000308219  -0.0000055653
        0.0000096616  -0.0000151539   0.0000008648  -0.0000004077  -0.0000020572
       -0.0000032082   0.0000106571   0.0000065657   0.0000038426  -0.0000062011
        0.0000008488  -0.0000006370  -0.0000064577   0.0000004328  -0.0000071070
       -0.0000049117  -0.0000002842   0.0000054281  -0.0000005906   0.0000010514
       -0.0000025145  -0.0000011902   0.0000050128  -0.0000006510   0.0000005464
        0.0000004349  -0.0000003504   0.0000002098   0.0000002768  -0.0000007342
        0.0000001853   0.0000000286  -0.0000007545  -0.0000003897   0.0000006012
       -0.0000007291  -0.0000000406  -0.0000001123  -0.0000003802   0.0000002486
       -0.0000006856   0.0000003325  -0.0000010917  -0.0000006716  -0.0000005073
       -0.0000013513  -0.0000018057  -0.0000004761  -0.0000009288  -0.0000021882
       -0.0000004458  -0.0000006003  -0.0000021253  -0.0000005656  -0.0000008850
       -0.0000022395  -0.0000006050  -0.0000008223  -0.0000015258   0.0000000254
       -0.0000012697  -0.0000010816  -0.0000007293  -0.0000005989  -0.0000021678
       -0.0000007265   0.0000005944  -0.0000008704  -0.0000004171  -0.0000002108
       -0.0000008905   0.0000000381  -0.0000007578  -0.0000001726   0.0000001317
       -0.0000010502   0.0000007165  -0.0000007595  -0.0000007715  -0.0000014306
        0.0000043645  -0.0000023511   0.0000007283  -0.0000074216   0.0000022586
        0.0000032266  -0.0000029860   0.0000029822   0.0000018374  -0.0000118529
        0.0000082816   0.0000007764   0.0000397740  -0.0000472586   0.0000144277
        0.0049034542  -0.0039756737  -0.0040872549   0.0020279006  -0.0009840630
        0.0029941508
        0.1470690220   0.6151510914  -0.0489357850  -0.0272547550  -0.2882259474
        0.1204678522  -0.0374939982  -0.0571377367  -0.0437243634   0.0101178963
       -0.0256262984   0.0334386904  -0.0022425379  -0.0000357167  -0.0024910551
       -0.0002966171  -0.0000601161   0.0002265929  -0.0004406510  -0.0004684789
       -0.0001334943   0.0000460402   0.0003493423  -0.0001950284   0.0001400321
       -0.0001964951  -0.0001902527  -0.0002539521  -0.0000329572   0.0002538907
        0.0001216295   0.0004852168   0.0000410366   0.0003314467  -0.0002605139
        0.0010327102   0.0000113580   0.0003447659   0.0001936006  -0.0001099702
        0.0001489924  -0.0002572539   0.0002778543   0.0000505186   0.0000423573
       -0.0001137824  -0.0000252595   0.0002309404  -0.0001006165  -0.0000538132
       -0.0004020362   0.0000100247  -0.0000137721   0.0000130126  -0.0000333155
       -0.0000314213   0.0000208220   0.0000053660   0.0000054692  -0.0000237142
       -0.0000200565   0.0000143180   0.0000140235  -0.0000084503   0.0000043242
       -0.0000022081   0.0000085120   0.0000213051  -0.0000023571  -0.0000029202
        0.0000214238   0.0000041497  -0.0000195913  -0.0000013815   0.0000179807
        0.0000405258   0.0000208581  -0.0000276051   0.0000200128   0.0000103946
        0.0000009277   0.0000041524   0.0000009865  -0.0000089400  -0.0000075489
       -0.0000005776   0.0000043722  -0.0000013219   0.0000056975   0.0000031768
       -0.0000087023  -0.0000036932   0.0000019065  -0.0000033069   0.0000008007
       -0.0000007873  -0.0000010232   0.0000002535  -0.0000016815  -0.0000044043
        0.0000012214   0.0000003632  -0.0000008625  -0.0000021568   0.0000014591
       -0.0000009550   0.0000015498   0.0000039863  -0.0000007225  -0.0000004216
        0.0000024445  -0.0000002742   0.0000023243   0.0000002472  -0.0000020721
       -0.0000079246   0.0000043931   0.0000034370   0.0000103771  -0.0000001396
        0.0000027366  -0.0000028511   0.0000006257  -0.0000017506  -0.0000004123
        0.0000005619  -0.0000010501  -0.0000013425   0.0000007775  -0.0000003422
        0.0000022385  -0.0000006948   0.0000000378  -0.0000004235  -0.0000000095
       -0.0000003706   0.0000008279   0.0000003715  -0.0000070774  -0.0000031190
       -0.0000018342   0.0000013028   0.0000013532  -0.0000003442  -0.0000023432
        0.0000000783   0.0000026909  -0.0000030828   0.0000005208  -0.0000009422
       -0.0000005108   0.0000015635   0.0000020254   0.0000013122   0.0000004953
        0.0000026350  -0.0000053353   0.0000001243   0.0000013131  -0.0000020916
        0.0000013845  -0.0000051605  -0.0000057159  -0.0000026216   0.0000001264
        0.0000045797   0.0000073389  -0.0000010722  -0.0000101471  -0.0000062779
        0.0000062716   0.0000178632  -0.0000016004   0.0000105727   0.0000001153
       -0.0000001498  -0.0000091198  -0.0000008764   0.0000015793   0.0000019559
       -0.0000250064  -0.0000190632   0.0000141926   0.0000347265  -0.0000085965
       -0.0000327052  -0.0000234666   0.0000056336   0.0000155183  -0.0000275075
       -0.0000431337   0.0000293219  -0.0000319812  -0.0000120671   0.0000370546
       -0.0000308399  -0.0000598695  -0.0000076584   0.0097386587   0.0422959319
       -0.0096997535  -0.0106750042  -0.1012651428   0.0178861231  -0.0876940045
       -0.1664948917  -0.0951318577  -0.0011018242  -0.0074315379   0.0050054889
       -0.0039653453  -0.0012396625  -0.0017149986  -0.0000847111  -0.0002326111
        0.0000046447  -0.0000411578  -0.0000319032   0.0000008771   0.0000296822
       -0.0000271671   0.0000183205  -0.0000183721  -0.0000225164   0.0000038630
       -0.0000410596   0.0000102728   0.0000231573   0.0000746608  -0.0000376143
        0.0000335132   0.0000174977   0.0000149184  -0.0000315750   0.0000154102
       -0.0000388912  -0.0000114074  -0.0000002500   0.0000075746   0.0000004474
       -0.0000060794   0.0000018341   0.0000094012   0.0000036080  -0.0000013570
        0.0000036608   0.0000014233  -0.0000048599   0.0000002930  -0.0000023060
       -0.0000049258   0.0000000593   0.0000136167  -0.0000029645  -0.0000036093
       -0.0000000895   0.0000006204   0.0000028829   0.0000005376  -0.0000015423
       -0.0000022608  -0.0000013764  -0.0000002173  -0.0000008550   0.0000013598
        0.0000022926   0.0000011588  -0.0000000452   0.0000007169  -0.0000000945
       -0.0000006301   0.0000012016   0.0000014840   0.0000000037   0.0000020329
        0.0000014205  -0.0000010144   0.0000027938   0.0000005748  -0.0000000110
        0.0000006368   0.0000016652  -0.0000003878   0.0000005879   0.0000004081
       -0.0000000421   0.0000016200   0.0000005556   0.0000002218   0.0000003349
        0.0000005025  -0.0000000381  -0.0000000687  -0.0000002909  -0.0000006325
        0.0000019096  -0.0000032799   0.0000013977  -0.0000010994   0.0000002846
        0.0000005687  -0.0000004820  -0.0000004801   0.0000015185   0.0000017768
       -0.0000006425  -0.0000004480  -0.0000005365   0.0000003290  -0.0000013972
        0.0000003665   0.0000007324  -0.0000041766  -0.0000020103  -0.0000066546
        0.0000087425  -0.0000022908  -0.0000028173   0.0000036988   0.0000102013
        0.0000000435   0.0000011382   0.0000129919  -0.0000012360  -0.0000088090
        0.0000518370   0.0000001109   0.0000407259   0.0000113442  -0.0000679269
       -0.0044523867  -0.0014584762  -0.0022094243   0.0084790471  -0.0084591877
        0.0261964531
        0.1899051474  -0.0489357850   0.5741137959  -0.0151277658   0.0510275368
       -0.1194042169   0.0226147770   0.0077859777   0.0471385059  -0.0027627303
        0.0344358953  -0.0344820755   0.0004288846  -0.0028311150   0.0002191386
        0.0001004146   0.0007429207  -0.0004210190   0.0003323569   0.0001831684
        0.0001690833   0.0000100334  -0.0002792305   0.0001569829  -0.0001226041
        0.0002200702   0.0001546526   0.0001659189   0.0001032693  -0.0001884805
       -0.0001278193  -0.0004180725   0.0000188377   0.0002769600  -0.0000053215
       -0.0004600939  -0.0000935882  -0.0004312021  -0.0005752438   0.0000929089
       -0.0001261292   0.0004022812  -0.0003334323  -0.0000770168  -0.0000182914
        0.0002527610   0.0000436628  -0.0003033368   0.0003373502   0.0001656855
        0.0004114648   0.0000194944  -0.0000286662  -0.0000226417  -0.0000333280
        0.0000054270   0.0000363892   0.0000130383  -0.0000369433  -0.0000175482
       -0.0000048809   0.0000133063   0.0000059834  -0.0000185869  -0.0000017098
        0.0000071614   0.0000172741   0.0000130953  -0.0000105815  -0.0000541557
        0.0000119306   0.0000263708  -0.0000263490  -0.0000277452   0.0000128783
        0.0000595922   0.0000103924  -0.0000328277  -0.0000220469   0.0000094181
       -0.0000257756   0.0000102296   0.0000076033  -0.0000032287  -0.0000069797
       -0.0000038929   0.0000057730  -0.0000008516  -0.0000025926  -0.0000034499
       -0.0000040454   0.0000000783   0.0000016526  -0.0000003458   0.0000013317
       -0.0000015828  -0.0000004326  -0.0000019527  -0.0000036443  -0.0000039304
       -0.0000021984   0.0000045278  -0.0000015123   0.0000019185   0.0000028961
       -0.0000005545   0.0000009386  -0.0000016692   0.0000006334   0.0000031403
       -0.0000008463  -0.0000014210  -0.0000003626   0.0000028352  -0.0000002862
        0.0000032827   0.0000004934  -0.0000016022  -0.0000040645   0.0000045194
       -0.0000011619   0.0000039941  -0.0000005077  -0.0000002355   0.0000006849
        0.0000029406  -0.0000018696   0.0000026487   0.0000017114  -0.0000001042
        0.0000002872   0.0000044653   0.0000004413   0.0000005691  -0.0000007657
        0.0000001693  -0.0000007216   0.0000008032   0.0000020492   0.0000000315
        0.0000000319   0.0000019555   0.0000012365  -0.0000002258   0.0000011331
        0.0000006611  -0.0000014723  -0.0000017736   0.0000013545   0.0000010741
        0.0000013742   0.0000019538  -0.0000024423  -0.0000017223   0.0000008682
        0.0000027853  -0.0000042243   0.0000005121  -0.0000002486  -0.0000053357
        0.0000034246  -0.0000013572  -0.0000008859   0.0000003196   0.0000035502
        0.0000020773  -0.0000026654  -0.0000059256   0.0000108695  -0.0000014976
        0.0000082744   0.0000070172  -0.0000045515   0.0000112244   0.0000077408
        0.0000044873  -0.0000098028  -0.0000054232  -0.0000025773   0.0000037708
       -0.0000276259  -0.0000354948   0.0000005463   0.0000131149  -0.0000011742
       -0.0000050771   0.0000098372   0.0000147804   0.0000212829  -0.0000516191
       -0.0000544784   0.0000448580   0.0001306256   0.0000979911  -0.0001655205
       -0.0000572319   0.0000624754   0.0000472091  -0.0401119610  -0.0602007426
       -0.0400122507  -0.0761385504   0.0870076557  -0.2852739648  -0.0702736331
       -0.0950246517  -0.1171133630   0.0026451204   0.0259010659  -0.0129564159
       -0.0040578248  -0.0023592628   0.0002520098  -0.0000614374   0.0000724359
        0.0000023264  -0.0000019524  -0.0000158186   0.0000304516  -0.0000204166
        0.0000057071  -0.0000264475   0.0000034970  -0.0000059933   0.0000096235
       -0.0000150150   0.0000174902  -0.0000125668  -0.0001437541  -0.0000224787
       -0.0002132123   0.0000091296  -0.0000420153  -0.0000285955  -0.0000207438
        0.0000388880  -0.0000246382  -0.0000028502  -0.0000030495  -0.0000073429
       -0.0000054327   0.0000235608   0.0000052767   0.0000037955  -0.0000091354
       -0.0000038582  -0.0000028915  -0.0000097944  -0.0000024861  -0.0000141455
       -0.0000077512  -0.0000019087   0.0000073265  -0.0000048641   0.0000046991
       -0.0000062595  -0.0000083304   0.0000103248  -0.0000013500   0.0000004925
        0.0000038951   0.0000012623  -0.0000003581   0.0000003666  -0.0000006706
        0.0000014310   0.0000010728  -0.0000003006   0.0000007293   0.0000032515
        0.0000001710   0.0000008157   0.0000018020  -0.0000007395  -0.0000014499
        0.0000006716   0.0000002011  -0.0000010614   0.0000023382  -0.0000011265
        0.0000008045   0.0000014536  -0.0000002014   0.0000010466   0.0000017844
        0.0000000737   0.0000001898   0.0000005399   0.0000009461   0.0000003106
        0.0000008925   0.0000005865  -0.0000000360   0.0000009271  -0.0000001721
       -0.0000019525   0.0000011062  -0.0000001406  -0.0000002849  -0.0000009092
        0.0000004889  -0.0000010076   0.0000017993  -0.0000002862  -0.0000012504
        0.0000017687   0.0000002936   0.0000000644   0.0000022596   0.0000004967
       -0.0000018798   0.0000027034  -0.0000004213   0.0000026977   0.0000021042
        0.0000042989  -0.0000020082   0.0000018680  -0.0000219019  -0.0000025937
        0.0000073498  -0.0000315472   0.0000049182   0.0000157538  -0.0000338902
       -0.0000221875  -0.0000303272   0.0000435947  -0.0000983918   0.0001279318
       -0.0038502708  -0.0017740246   0.0004681899  -0.0038191136   0.0048709024
       -0.0121391070
       -0.0629884633  -0.0272547550  -0.0151277658   0.2476264672   0.1357189325
        0.1910564692  -0.1123452056  -0.1085718182  -0.0697081897  -0.0164063864
        0.0081841789  -0.0367892331   0.0069194687   0.0016325303  -0.0011391604
        0.0003401512  -0.0008068777   0.0007819603   0.0000424449   0.0002284256
       -0.0001138092  -0.0001193637  -0.0000189487   0.0000548114   0.0000244244
        0.0000051518  -0.0000091359  -0.0000655191  -0.0001150049  -0.0000133289
        0.0000764696   0.0001216991  -0.0000811331  -0.0002581632  -0.0009136853
       -0.0015100979  -0.0001763505  -0.0002808356  -0.0001296498   0.0000957737
       -0.0000203426   0.0001210333  -0.0001576666  -0.0000342640  -0.0000088216
        0.0000106803   0.0001322226  -0.0001887990   0.0001267302   0.0000945763
        0.0001929519   0.0000002373   0.0000139655   0.0000203955   0.0000168944
        0.0000170812  -0.0000236725   0.0000260779  -0.0000008975   0.0000094020
        0.0000131009  -0.0000144573  -0.0000068065  -0.0000011093  -0.0000185468
       -0.0000011062  -0.0000180634  -0.0000114477   0.0000133206   0.0000046751
       -0.0000064246  -0.0000070538  -0.0000059508  -0.0000071893  -0.0000033402
       -0.0000219307  -0.0000090245   0.0000119791   0.0000051687  -0.0000055429
        0.0000028053   0.0000038501  -0.0000042815   0.0000067801   0.0000032346
       -0.0000005420   0.0000004786   0.0000041589  -0.0000027119   0.0000004047
        0.0000018964  -0.0000011511   0.0000010004   0.0000006971  -0.0000004300
       -0.0000010816   0.0000007997  -0.0000004751   0.0000017930   0.0000024153
        0.0000005816  -0.0000023189   0.0000013989   0.0000012461  -0.0000022606
        0.0000018051  -0.0000021868  -0.0000016626  -0.0000001366  -0.0000024429
       -0.0000005610   0.0000013097  -0.0000000127  -0.0000012979   0.0000006414
       -0.0000020882  -0.0000009520  -0.0000047719  -0.0000005692  -0.0000055383
        0.0000033644  -0.0000035478   0.0000042969   0.0000004656  -0.0000002092
       -0.0000012094   0.0000015909  -0.0000014685   0.0000002117  -0.0000000648
       -0.0000007084  -0.0000008974   0.0000009179  -0.0000004645   0.0000019274
        0.0000001930   0.0000000964  -0.0000003086   0.0000026217   0.0000019395
        0.0000036852  -0.0000002677  -0.0000014598  -0.0000000771   0.0000022715
       -0.0000010308   0.0000018486   0.0000013784  -0.0000029472  -0.0000000440
        0.0000005941  -0.0000022118  -0.0000002786   0.0000010627  -0.0000016233
       -0.0000005436   0.0000003342  -0.0000004278  -0.0000003738   0.0000033013
       -0.0000010937   0.0000009394   0.0000009035   0.0000009348  -0.0000008626
        0.0000026605  -0.0000010829   0.0000002491   0.0000070365   0.0000002383
       -0.0000031110  -0.0000030661   0.0000014859  -0.0000045569  -0.0000000324
       -0.0000003970   0.0000023453   0.0000005054  -0.0000008330  -0.0000001502
        0.0000179781   0.0000145553  -0.0000098383  -0.0000167428  -0.0000119243
        0.0000159887  -0.0000062881   0.0000001169   0.0000160715  -0.0000068656
       -0.0000123501  -0.0000057532   0.0000410931   0.0000133124  -0.0000544237
        0.0000260346   0.0000389530   0.0000130813  -0.0107354657  -0.0184071793
       -0.0002576271   0.0133293745   0.0123290623   0.0170394345  -0.0027729994
       -0.0140091365   0.0045246873  -0.0657951958   0.0176603871  -0.0821931759
       -0.0020917770  -0.0045975599  -0.0021918299  -0.0001258437  -0.0000202189
       -0.0000417451   0.0000541172   0.0000126944  -0.0000493886   0.0000227369
        0.0000417523  -0.0000156388  -0.0000008899   0.0000558266   0.0000008734
       -0.0000144678  -0.0000000845   0.0000320874  -0.0000335908  -0.0000197886
       -0.0000827540  -0.0000158481  -0.0000077404   0.0000126793   0.0000050966
        0.0000025050   0.0000218543   0.0000275235  -0.0000021953   0.0000076233
       -0.0000083811   0.0000018071  -0.0000043951  -0.0000067552   0.0000025497
       -0.0000024213  -0.0000013272   0.0000063139  -0.0000022057   0.0000045721
        0.0000031977  -0.0000046340  -0.0000167175   0.0000007217   0.0000018013
       -0.0000032343   0.0000007822  -0.0000034071  -0.0000024138  -0.0000007061
       -0.0000004837  -0.0000009467  -0.0000005842  -0.0000005149  -0.0000011625
       -0.0000011422  -0.0000011706  -0.0000007634  -0.0000010694  -0.0000012614
       -0.0000004320  -0.0000011857  -0.0000012708  -0.0000004398  -0.0000007654
       -0.0000003837  -0.0000002444  -0.0000002267  -0.0000007157  -0.0000001656
        0.0000003183  -0.0000009197  -0.0000000914   0.0000001770   0.0000001625
       -0.0000003903  -0.0000001448   0.0000005638  -0.0000009450  -0.0000001657
        0.0000000735  -0.0000006795   0.0000004030  -0.0000001560  -0.0000000822
        0.0000005760   0.0000004547  -0.0000012800   0.0000006424   0.0000002991
       -0.0000015335  -0.0000001502   0.0000000148  -0.0000009146  -0.0000005917
       -0.0000004835  -0.0000008034   0.0000003985  -0.0000009084  -0.0000009460
        0.0000011558  -0.0000013027  -0.0000006869   0.0000011589   0.0000000790
       -0.0000045082   0.0000030364  -0.0000013893   0.0000008065   0.0000044447
       -0.0000027744  -0.0000034163  -0.0000015785   0.0000019249   0.0000034956
       -0.0000120178  -0.0000055286   0.0000099141  -0.0000103003   0.0000664974
       -0.0000477270  -0.0002583959   0.0003303306   0.0053725584  -0.0008484731
       -0.0045499802
       -0.0584837348  -0.2882259474   0.0510275368   0.1357189325   0.6106519620
       -0.0642055327  -0.0794450433  -0.2086425108  -0.0532071259  -0.0147354054
        0.0422367751  -0.0609015060   0.0023367338   0.0001469463   0.0060289011
       -0.0001706293   0.0000450788  -0.0004506793   0.0007800607   0.0004230215
        0.0001571193  -0.0000803560  -0.0003454439   0.0002242347  -0.0001782903
        0.0003554392   0.0002261470   0.0003503017   0.0000791823  -0.0003501556
       -0.0001433806  -0.0004755032  -0.0001115221  -0.0001307387   0.0007997644
       -0.0009074414   0.0000702544  -0.0004654160  -0.0004192810   0.0002365945
       -0.0002447004   0.0004721174  -0.0004490161  -0.0000775778  -0.0001015911
        0.0001781264  -0.0000227082  -0.0003434023   0.0001490172   0.0000847629
        0.0006620768  -0.0000392299   0.0000315176   0.0000050517   0.0000220073
        0.0000192718  -0.0000318795   0.0000422394   0.0000062451   0.0000067240
        0.0000198849  -0.0000149027  -0.0000117050   0.0000029905  -0.0000156126
       -0.0000031184  -0.0000225357  -0.0000194273   0.0000212889   0.0000084343
       -0.0000109113  -0.0000162483   0.0000024912  -0.0000177698  -0.0000156568
       -0.0000312170  -0.0000137360   0.0000197777   0.0000060169  -0.0000072909
        0.0000127359   0.0000041977  -0.0000078533   0.0000050868   0.0000052300
        0.0000028165   0.0000021292   0.0000090861   0.0000048076  -0.0000029053
        0.0000029289  -0.0000030836   0.0000023260  -0.0000020400   0.0000002075
        0.0000002565   0.0000030855   0.0000016710   0.0000029139   0.0000055581
        0.0000029102  -0.0000041184   0.0000007410   0.0000014269  -0.0000012482
        0.0000022677   0.0000001485   0.0000015281   0.0000007496  -0.0000033246
        0.0000009085   0.0000025127   0.0000022031  -0.0000017313  -0.0000001367
       -0.0000051511   0.0000012620  -0.0000036386   0.0000057000  -0.0000066565
        0.0000062990  -0.0000053103   0.0000059975  -0.0000006713   0.0000019024
        0.0000001628   0.0000023088  -0.0000019652   0.0000015762   0.0000004280
        0.0000023376  -0.0000007402   0.0000031117   0.0000001733   0.0000028835
        0.0000001241   0.0000017168   0.0000009885   0.0000028542   0.0000033579
        0.0000039948   0.0000007399  -0.0000024550   0.0000024724   0.0000024966
        0.0000020985   0.0000011839   0.0000041029  -0.0000027531   0.0000027480
        0.0000007280  -0.0000000313   0.0000011022   0.0000007097  -0.0000012149
       -0.0000007574   0.0000029748   0.0000005727   0.0000015885   0.0000055875
       -0.0000019806   0.0000037892   0.0000010330   0.0000003229  -0.0000020499
        0.0000080750   0.0000046454   0.0000057815   0.0000075829  -0.0000032893
       -0.0000062877  -0.0000050379   0.0000028753  -0.0000062146  -0.0000018388
       -0.0000047645   0.0000053030   0.0000028277   0.0000030203   0.0000009892
        0.0000223708   0.0000228351  -0.0000172477  -0.0000268558  -0.0000241768
        0.0000217769  -0.0000086472  -0.0000021457   0.0000239835  -0.0000239825
       -0.0000098845  -0.0000246233   0.0000232865   0.0000206124  -0.0000952842
        0.0000099195   0.0000382007   0.0000230866  -0.0209941757  -0.0537928487
       -0.0084519577   0.0363524010  -0.0015126641   0.0819034947  -0.0047149051
       -0.0219006021   0.0065344056   0.0182289526  -0.0571339240   0.0546328118
       -0.0135169686  -0.0232460279  -0.0139763700  -0.0001350988   0.0001685554
       -0.0001179352   0.0000452325  -0.0000005691  -0.0000034480  -0.0000364095
        0.0000496023  -0.0000304640   0.0000103693   0.0000564501   0.0000086183
       -0.0000230773  -0.0000025361   0.0000369559  -0.0001312784   0.0000517489
       -0.0001706973  -0.0000167961  -0.0000379963   0.0000270935  -0.0000206093
        0.0000726589   0.0000212408   0.0000262207  -0.0000040168   0.0000146865
       -0.0000168477  -0.0000067930  -0.0000039582  -0.0000127127   0.0000053240
       -0.0000030075  -0.0000059246   0.0000059641  -0.0000020800   0.0000076607
        0.0000024191  -0.0000019781  -0.0000228285  -0.0000006664  -0.0000036936
       -0.0000056552   0.0000027078  -0.0000025948  -0.0000037479  -0.0000033278
        0.0000010085  -0.0000045294  -0.0000001640  -0.0000002791   0.0000012144
        0.0000004707  -0.0000009536  -0.0000012050  -0.0000005515  -0.0000026476
       -0.0000014614   0.0000005978  -0.0000004651  -0.0000001787   0.0000024778
        0.0000005366  -0.0000005686   0.0000038334  -0.0000011393   0.0000013503
        0.0000028000   0.0000005487   0.0000012807   0.0000025994   0.0000009760
        0.0000016044   0.0000025089   0.0000021102   0.0000006821   0.0000020148
        0.0000012192   0.0000009617   0.0000016136   0.0000012220   0.0000001385
        0.0000026515   0.0000019818  -0.0000005613   0.0000015920   0.0000003898
        0.0000000939  -0.0000004768   0.0000008629  -0.0000014067   0.0000006330
        0.0000002319  -0.0000030087   0.0000016401  -0.0000017516  -0.0000011663
        0.0000037583  -0.0000016863  -0.0000014419  -0.0000003413  -0.0000006825
       -0.0000100411   0.0000055164   0.0000015417   0.0000030110   0.0000069657
       -0.0000050847  -0.0000009976   0.0000036199   0.0000018348   0.0000079790
       -0.0000176076  -0.0000013377   0.0000302416  -0.0000125627   0.0001090492
       -0.0000036424  -0.0005233521  -0.0002826661  -0.0011177274   0.0014086172
        0.0020212371
        0.0075714199   0.1204678522  -0.1194042169   0.1910564692  -0.0642055327
        0.5848842555  -0.0923375623  -0.1203519207  -0.1580031342  -0.0204149428
       -0.0123807269  -0.0373612861  -0.0016563462   0.0023896003  -0.0022651055
       -0.0000312643  -0.0002207593  -0.0000125394   0.0005172302   0.0002469397
       -0.0000284421  -0.0001261906  -0.0002896951   0.0001632911  -0.0001069644
        0.0001906795   0.0001225806   0.0001572171  -0.0000124002  -0.0001096655
        0.0001311036  -0.0002096719  -0.0000804282  -0.0012433120   0.0001108741
       -0.0019022179  -0.0001374406  -0.0001562400   0.0003252090   0.0000108171
       -0.0000973666  -0.0000965546  -0.0000635123  -0.0000148634   0.0001083857
        0.0000216621  -0.0000432683  -0.0002684585   0.0002033388   0.0000405073
       -0.0000863177  -0.0000478577   0.0000227053   0.0000036464  -0.0000032554
       -0.0000201452  -0.0000123125   0.0000482620  -0.0000072468  -0.0000177623
       -0.0000022854  -0.0000059466   0.0000012968  -0.0000104820  -0.0000284673
       -0.0000018821  -0.0000136495   0.0000060223   0.0000113491  -0.0000057944
        0.0000084773   0.0000055206  -0.0000367698  -0.0000143155   0.0000175031
        0.0000175673   0.0000085276  -0.0000130415   0.0000073160   0.0000071165
       -0.0000213172   0.0000101030  -0.0000004557   0.0000069636   0.0000003756
       -0.0000011569   0.0000027400   0.0000010800  -0.0000050518   0.0000060585
       -0.0000024539  -0.0000006103   0.0000038104   0.0000026371   0.0000013986
       -0.0000007404  -0.0000011067  -0.0000005957   0.0000003157  -0.0000044239
        0.0000015533   0.0000034924   0.0000012897  -0.0000003550   0.0000022328
        0.0000021092  -0.0000005250  -0.0000027089  -0.0000004950   0.0000016479
       -0.0000008063  -0.0000001970   0.0000010159   0.0000014991  -0.0000022056
       -0.0000004266   0.0000025185   0.0000100834   0.0000000675  -0.0000003206
       -0.0000042900   0.0000059497  -0.0000013458   0.0000023759   0.0000007726
        0.0000026210  -0.0000007581   0.0000013865   0.0000005020   0.0000001766
        0.0000005584   0.0000030380   0.0000014455   0.0000012061  -0.0000008711
        0.0000015326  -0.0000021167   0.0000003839  -0.0000069976  -0.0000002120
        0.0000004255   0.0000029586   0.0000014270  -0.0000023562   0.0000011208
       -0.0000017122   0.0000002059  -0.0000001379  -0.0000021665  -0.0000017982
        0.0000015056  -0.0000017360   0.0000006869   0.0000020652  -0.0000020170
        0.0000040256  -0.0000034100   0.0000012860  -0.0000044938  -0.0000006110
        0.0000032202  -0.0000025864   0.0000001526   0.0000004810   0.0000029945