$hessian                                                                        
        0.4579448906   0.0196103534   0.0374715792  -0.1411768209   0.0202885166
        0.0451481462  -0.0077339315   0.0004846853   0.0079924944  -0.0321420745
        0.0031781771   0.0009416085  -0.0004422522   0.0010788401   0.0007932773
        0.0001556681   0.0005549183  -0.0007575409  -0.0000132845   0.0000135484
       -0.0001201143   0.0000293326   0.0004304026  -0.0011987975  -0.0017130809
       -0.0032551987  -0.0002925791  -0.0000083524   0.0009692150   0.0003769452
        0.0003314373  -0.0000652234  -0.0001707779  -0.0000431842  -0.0000229131
       -0.0000011969   0.0000555265   0.0000769826  -0.0000723360   0.0000200109
       -0.0000887682   0.0001130836  -0.0000105338   0.0000711636  -0.0000441669
       -0.0000742891  -0.0000938806   0.0001742701  -0.0001134752   0.0000870637
        0.0000051162   0.0000521297  -0.0001228242   0.0000777881  -0.0000193344
        0.0000378157  -0.0000426801  -0.0000038212  -0.0000183954   0.0000230646
        0.0000562109   0.0000294238  -0.0000397214  -0.0001063499   0.0000192272
        0.0000434577  -0.0000131268  -0.0000057260   0.0000134351  -0.0000204277
        0.0000283281  -0.0000324815  -0.0000073209  -0.0000605381   0.0000489539
        0.0000395528   0.0000107034  -0.0000339972  -0.0000149305  -0.0000370150
        0.0000204744   0.0000339941   0.0000378443   0.0000012296   0.0000449181
       -0.0000358475  -0.0000402365   0.0000637192  -0.0000110516  -0.0000474680
       -0.0000369207   0.0000265545   0.0000484568   0.0000410389   0.0000130186
       -0.0000134403  -0.0000445958  -0.0000240508   0.0000070501  -0.0000080754
       -0.0000459827  -0.0000309506  -0.0000131692  -0.0000250682  -0.0000165917
        0.0000447079   0.0000799611   0.0000676250   0.0000428976  -0.0000487703
       -0.0000563838   0.0000061218  -0.0000305885  -0.0000060864   0.0000359800
       -0.0000431967  -0.0000463089   0.0000305206   0.0000317439   0.0000013965
       -0.0000367249  -0.0000221800   0.0000477124   0.0000002156   0.0000084109
       -0.0000325878   0.0000014240  -0.0000330600   0.0000108307  -0.0000020350
       -0.0000124901   0.0000354007  -0.0000073633  -0.0000118876   0.0000005096
        0.0000339509   0.0000366142   0.0000217072  -0.0000354737  -0.0000356042
       -0.0000053972  -0.0000083974  -0.0000020971  -0.0000001799   0.0000001267
       -0.0000070999  -0.0000046804   0.0000342298   0.0000297670   0.0000062017
       -0.0000083257  -0.0000055294  -0.0000099145  -0.0000055923   0.0000035733
       -0.0000392765  -0.0000031695   0.0000052567  -0.0000362411   0.0000017508
       -0.0000070016   0.0000328068  -0.0000421247   0.0000075827  -0.0000380896
       -0.0000352284   0.0000774216   0.0000707941  -0.0000588917  -0.0000527082
       -0.0000379813  -0.0000429228   0.0000086687   0.0000345777   0.0000138446
        0.0000304977   0.0000208132  -0.0000462360  -0.0000302778  -0.0000395704
       -0.0000277065   0.0000481599   0.0000473941   0.0000557707   0.0000068466
       -0.0000057356  -0.0000517561  -0.0000118401   0.0000278591   0.0000049632
       -0.0000103965  -0.0000136685   0.0000245681   0.0000280754   0.0000218501
        0.0000057381  -0.0000153902   0.0000117768   0.0000008955   0.0000037015
       -0.0000047231   0.0000043727  -0.0000006885   0.0000021750   0.0000023324
       -0.0000081220   0.0000039985   0.0000004036  -0.0000027787   0.0000006258
        0.0000017522  -0.0000000728   0.0000010917   0.0000058532   0.0000012668
        0.0000042752  -0.0000026360  -0.0000041527   0.0000003253   0.0000000450
        0.0000018200  -0.0000007652  -0.0000024288  -0.0000022386  -0.0000015523
        0.0000033534   0.0000028450  -0.0000000400  -0.0000053033  -0.0000084683
       -0.0000233405   0.0000265975   0.0000789476  -0.0000679110  -0.0000776716
       -0.0000151983   0.0000364921   0.0000628229   0.0000982329  -0.0000916474
        0.0000495015  -0.0001045838   0.0000652530   0.0001898231  -0.0007248517
        0.0007748649   0.0000612184   0.0002917417  -0.0000737646   0.0002821911
       -0.0001685890   0.0000232239  -0.0000719703   0.0009739506  -0.0001402550
       -0.0013531752  -0.0015790757  -0.0010027364  -0.0026459619   0.0108014545
        0.0043376875  -0.0448875915  -0.0115093218   0.0178345978  -0.1849010635
       -0.0433349731  -0.1118361665  -0.0413471673   0.0024831430   0.0000318891
        0.0000400839  -0.0004849149   0.0012183240   0.0006689898   0.0001228375
       -0.0008659677   0.0002665592   0.0003903144  -0.0005240337  -0.0009082164
        0.0000895376   0.0002709131  -0.0000277524  -0.0000070538   0.0000469765
       -0.0001571302  -0.0000096626   0.0000917423  -0.0002034824  -0.0000434966
       -0.0001449343   0.0000541495   0.0000331458  -0.0000537420  -0.0000080249
        0.0000341550  -0.0000049751  -0.0000150228  -0.0000245428   0.0000222643
       -0.0000329180   0.0000264551  -0.0000043981  -0.0000050833   0.0000282489
       -0.0000281030   0.0000279033  -0.0000247479   0.0000215106   0.0000000401
        0.0000030079  -0.0000313527  -0.0000047913  -0.0000025876   0.0000001579
       -0.0000042408  -0.0000048145   0.0000221994  -0.0000007205   0.0000018858
       -0.0000003183  -0.0000028877  -0.0000005558  -0.0000267948   0.0000252229
       -0.0000245855  -0.0000235415  -0.0000034188   0.0000238610  -0.0000286181
       -0.0000277923   0.0000010610  -0.0000048059  -0.0000234620  -0.0000213331
        0.0000221517   0.0000296784   0.0000023535   0.0000265986   0.0000276721
       -0.0000027077   0.0000026741  -0.0000003419   0.0000251460  -0.0000011362
        0.0000012732   0.0000020350  -0.0000025775   0.0000015075   0.0000024053
        0.0000239374   0.0000013954  -0.0000016516   0.0000029356  -0.0000025196
       -0.0000022264  -0.0000003094   0.0000289986   0.0000010445   0.0000018625
       -0.0000238084   0.0000231035  -0.0000211814  -0.0000272273  -0.0000045278
        0.0000013251   0.0000235448  -0.0000043168   0.0000242331   0.0000013830
        0.0000236652   0.0000244197  -0.0000120989   0.0000261411  -0.0000010218
        0.0000008153  -0.0000287627  -0.0000297399  -0.0000059017  -0.0000079989
        0.0000199281  -0.0000026116   0.0000033006  -0.0000016385  -0.0000300221
       -0.0000269873  -0.0000074217  -0.0000266649   0.0000088595  -0.0000352910
        0.0000020209   0.0000067076   0.0000246411   0.0000027141   0.0000060971
       -0.0000263831   0.0000000406   0.0000012675   0.0000250333  -0.0000014194
       -0.0000248340  -0.0000013570  -0.0000017338   0.0000018371  -0.0000020472
       -0.0000024024   0.0000252004  -0.0000022282   0.0000221301  -0.0000266163
        0.0000246692  -0.0000277224   0.0000084303   0.0000505785  -0.0000025704
        0.0000002078   0.0000253389  -0.0000556179  -0.0000284643   0.0000018690
       -0.0000086497  -0.0005456716  -0.0004284718
        0.0196103534   0.5209273699  -0.0072452971   0.0242967281  -0.0661613544
       -0.0163902236  -0.0101451141   0.0028011056   0.0075455397  -0.0024198919
        0.0037090482   0.0032203177  -0.0007414420  -0.0013353444  -0.0010551059
        0.0005949870   0.0002455046   0.0004518817  -0.0002680700   0.0001971445
       -0.0000915804   0.0001280931   0.0001139483  -0.0001526308  -0.0006707635
       -0.0008541632  -0.0005310628   0.0006700822   0.0009420342   0.0006712436
       -0.0000783618   0.0000384813  -0.0000026317  -0.0000184875  -0.0000039639
        0.0000409621  -0.0000275873  -0.0000407832   0.0000579167  -0.0000336011
        0.0000538088  -0.0000527590   0.0000470010  -0.0000454602  -0.0000077022
        0.0000399430   0.0001001735  -0.0000664883   0.0000346152  -0.0000053451
       -0.0000033857  -0.0000133050   0.0000276242  -0.0000324891   0.0000273674
       -0.0000208598   0.0000206908   0.0000043313   0.0000262481  -0.0000243448
       -0.0000315604  -0.0000046092   0.0000106313   0.0000581089  -0.0000172709
       -0.0000214369  -0.0000001388   0.0000019135   0.0000072160   0.0000052320
       -0.0000241205   0.0000047720   0.0000260672   0.0000254772  -0.0000186713
       -0.0000205137  -0.0000221985   0.0000308051   0.0000043482   0.0000039722
       -0.0000010974  -0.0000234128   0.0000017663  -0.0000034288  -0.0000133824
        0.0000072402   0.0000141078  -0.0000396430   0.0000301949   0.0000428971
        0.0000467668  -0.0000116575  -0.0000358381  -0.0000498595   0.0000312180
        0.0000385966   0.0000230286  -0.0000092513  -0.0000216910  -0.0000221505
        0.0000252325   0.0000307057   0.0000067436   0.0000093524   0.0000062724
       -0.0000151187  -0.0000440446  -0.0000418812  -0.0000301842   0.0000268807
        0.0000318688   0.0000044164   0.0000269379  -0.0000036990  -0.0000424084
        0.0000227114   0.0000259873  -0.0000308763  -0.0000290834  -0.0000058966
        0.0000325543   0.0000491512  -0.0000495743   0.0000058411  -0.0000111608
        0.0000399296   0.0000104763   0.0000386829  -0.0000055968  -0.0000059439
        0.0000062790  -0.0000290999   0.0000006987   0.0000067781  -0.0000043878
       -0.0000423613  -0.0000375625  -0.0000310426   0.0000316121   0.0000321696
        0.0000087388   0.0000039084   0.0000046944   0.0000010815   0.0000008501
        0.0000060655   0.0000034542  -0.0000413152  -0.0000422875  -0.0000084712
        0.0000019028  -0.0000005787   0.0000075004  -0.0000006420  -0.0000087770
        0.0000256438   0.0000151309   0.0000049621   0.0000360846   0.0000014735
        0.0000216143  -0.0000342779   0.0000495765  -0.0000113703   0.0000612262
        0.0000180638  -0.0000553561  -0.0000418407   0.0000209517   0.0000397873
        0.0000406235   0.0000513774   0.0000074610  -0.0000265350  -0.0000013135
       -0.0000543514  -0.0000444181   0.0000200662   0.0000366516   0.0000390938
        0.0000128178  -0.0000248247  -0.0000242548  -0.0000451908   0.0000094953
        0.0000179755   0.0000686236  -0.0000041488  -0.0000370126  -0.0000080897
        0.0000032619   0.0000082629  -0.0000258240  -0.0000569692  -0.0000317172
        0.0000000892  -0.0000002848   0.0000045771  -0.0000009574   0.0000004326
        0.0000027569  -0.0000029316  -0.0000027675  -0.0000028013  -0.0000019843
       -0.0000012377   0.0000029302  -0.0000019118  -0.0000007483   0.0000019243
       -0.0000010651  -0.0000013292   0.0000013548  -0.0000026137  -0.0000012283
       -0.0000010080  -0.0000018821  -0.0000011795   0.0000014094  -0.0000011106
        0.0000004748   0.0000024021  -0.0000017698  -0.0000010998   0.0000006410
       -0.0000028790   0.0000012064   0.0000012171  -0.0000008254  -0.0000050947
        0.0000016392  -0.0000305598  -0.0000330788   0.0000352166   0.0000385755
        0.0000208850  -0.0000278807  -0.0000352267  -0.0000367202   0.0000384740
       -0.0000365487   0.0000515782  -0.0000311885  -0.0012753796  -0.0032327390
       -0.0026036256  -0.0001745651  -0.0008055645   0.0011308805   0.0000981731
       -0.0002293471   0.0000835394  -0.0001642852   0.0000516254   0.0009546512
        0.0009491052  -0.0005371752  -0.0005436665   0.0237805633  -0.0170253788
       -0.0132138782  -0.0116989762  -0.1046779466   0.1034264973  -0.0432950281
       -0.0557415984  -0.0325167919   0.0029502702  -0.2772407557  -0.0448680637
       -0.0009341483  -0.0008166055   0.0029044155  -0.0001323379   0.0002293503
       -0.0002762828  -0.0007715554   0.0006515028   0.0002550584  -0.0012148937
       -0.0004124267  -0.0001172633   0.0000078377  -0.0000137430  -0.0000098255
       -0.0000191544   0.0000171191   0.0000373791   0.0000003151  -0.0000246806
       -0.0000500999  -0.0000296833  -0.0000305721   0.0000170606   0.0000044733
       -0.0000207142   0.0000021629  -0.0000005132  -0.0000101002  -0.0000248939
        0.0000147797  -0.0000203959   0.0000028144   0.0000011899  -0.0000214187
        0.0000209230  -0.0000164103   0.0000143877  -0.0000137085   0.0000000145
       -0.0000010601   0.0000169600   0.0000029827   0.0000005545   0.0000003308
        0.0000031428   0.0000027257  -0.0000145240   0.0000024680  -0.0000004435
        0.0000001700   0.0000010982  -0.0000012532   0.0000171281  -0.0000152994
        0.0000151183   0.0000172235   0.0000030101  -0.0000161048   0.0000195618
        0.0000175324  -0.0000003628   0.0000016135   0.0000154676   0.0000153899
       -0.0000153344  -0.0000190345  -0.0000001019  -0.0000172743  -0.0000174836
        0.0000009608  -0.0000014986  -0.0000009908  -0.0000163263   0.0000012968
        0.0000000154   0.0000001684   0.0000002304  -0.0000006986   0.0000002913
       -0.0000165413  -0.0000010157   0.0000012367  -0.0000008674   0.0000004805
       -0.0000002704  -0.0000004479  -0.0000184157   0.0000003972  -0.0000006809
        0.0000158460  -0.0000153792   0.0000149155   0.0000175333   0.0000022510
       -0.0000004323  -0.0000151788   0.0000041994  -0.0000161672  -0.0000020328
       -0.0000149328  -0.0000155091   0.0000062550  -0.0000174262   0.0000017727
        0.0000002755   0.0000182863   0.0000183924   0.0000039021   0.0000072732
       -0.0000134478   0.0000008596   0.0000004574   0.0000012442   0.0000171578
        0.0000158926   0.0000028620   0.0000170583  -0.0000018927   0.0000173050
        0.0000023847   0.0000008101  -0.0000151679   0.0000002745   0.0000002013
        0.0000171103   0.0000018087   0.0000005203  -0.0000161082   0.0000019480
        0.0000175719   0.0000007530   0.0000007249  -0.0000002518  -0.0000007739
        0.0000040477  -0.0000167801   0.0000000660  -0.0000139371   0.0000152917
       -0.0000150135   0.0000245156  -0.0002659722  -0.0001105537   0.0001387438
        0.0000147853  -0.0001446411   0.0000310282   0.0000296634   0.0000008470
        0.0007097501  -0.0006136655  -0.0007282026
        0.0374715792  -0.0072452971   0.5037513222   0.0388993363  -0.0125743875
       -0.0796202724   0.0242898287  -0.0026366177  -0.0178304526  -0.0127503157
        0.0036402919   0.0059066130  -0.0012102379  -0.0005765261  -0.0001556919
        0.0006327110   0.0002279307   0.0000013344  -0.0001833968   0.0001653540
       -0.0000751051   0.0001326361   0.0003883383  -0.0006036259  -0.0017084240
       -0.0014401126  -0.0016240648   0.0005611142   0.0006279306   0.0003936397
       -0.0001342174  -0.0001206428   0.0002209147  -0.0000250206   0.0000336986
       -0.0000418275   0.0000053777  -0.0000530139   0.0000578634  -0.0000037208
        0.0000561014  -0.0000599383   0.0000205895  -0.0000401440   0.0000368261
        0.0000113798   0.0000982149  -0.0000592959   0.0001026373  -0.0000973816
        0.0000425089  -0.0000564165   0.0001343561  -0.0001058905  -0.0000356670
       -0.0000496137   0.0000530076  -0.0000278141   0.0000044425   0.0000115418
        0.0000051203  -0.0000266105   0.0000239854   0.0000339042   0.0000197315
       -0.0000294183   0.0000297855  -0.0000008814  -0.0000100109  -0.0000002944
       -0.0000143098   0.0000124669  -0.0000056664   0.0000214290  -0.0000106191
       -0.0000206739   0.0000185588   0.0000008394   0.0000185747   0.0000264277
       -0.0000213894   0.0000067796  -0.0000435576   0.0000055679  -0.0000331036
        0.0000226443   0.0000168618  -0.0000195683  -0.0000360568  -0.0000130341
       -0.0000281349  -0.0000170616   0.0000033702   0.0000231389  -0.0000701856
       -0.0000490904   0.0000257407   0.0000503419   0.0000362626   0.0000465646
        0.0000112262  -0.0000188664   0.0000111006   0.0000251810   0.0000166854
       -0.0000454772  -0.0000396260  -0.0000220367   0.0000008574   0.0000212727
        0.0000221688  -0.0000179813  -0.0000157900   0.0000113600   0.0000204703
        0.0000211060   0.0000223899   0.0000154917   0.0000135328   0.0000068124
       -0.0000122166  -0.0000395684   0.0000247766  -0.0000106989   0.0000068043
       -0.0000294785  -0.0000176290  -0.0000254429  -0.0000043168   0.0000096454
        0.0000044537   0.0000098970   0.0000065209   0.0000047256   0.0000051128
        0.0000301736   0.0000214640   0.0000256897  -0.0000150448  -0.0000139633
       -0.0000064648   0.0000016657  -0.0000029931  -0.0000011960  -0.0000035915
        0.0000012767   0.0000004795   0.0000282854   0.0000354486   0.0000057835
        0.0000057664   0.0000078148   0.0000001903   0.0000060980   0.0000102841
       -0.0000007863  -0.0000193228  -0.0000129476  -0.0000179443  -0.0000061646
       -0.0000250553   0.0000198649  -0.0000299207   0.0000092740  -0.0000446929
        0.0000058280  -0.0000179270  -0.0000299478   0.0000398671   0.0000127824
       -0.0000109766  -0.0000274068  -0.0000251550  -0.0000012357  -0.0000227523
        0.0000517520   0.0000509222   0.0000202802  -0.0000256530  -0.0000227219
        0.0000191194  -0.0000206604  -0.0000205464   0.0000087244  -0.0000269830
       -0.0000237889  -0.0000427696   0.0000233470   0.0000310433   0.0000063780
        0.0000092213   0.0000024656   0.0000054557   0.0000567482   0.0000294784
       -0.0000055016   0.0000151541  -0.0000207226   0.0000011230  -0.0000072425
       -0.0000002702  -0.0000056448  -0.0000001424  -0.0000074601  -0.0000019700
        0.0000077277  -0.0000051183  -0.0000027729   0.0000022132  -0.0000017697
        0.0000039870  -0.0000001484   0.0000019190  -0.0000023064   0.0000007816
       -0.0000032662   0.0000018070   0.0000024624  -0.0000009613   0.0000008105
       -0.0000000924  -0.0000011046   0.0000043138   0.0000039122   0.0000014696
       -0.0000010612  -0.0000053166  -0.0000027955   0.0000071241   0.0000142672
        0.0000184830   0.0000092241  -0.0000285362   0.0000125727   0.0000318445
       -0.0000154218  -0.0000002600  -0.0000334677  -0.0000437172   0.0000355212
        0.0000042779   0.0000391473  -0.0000192787  -0.0005094898  -0.0001366370
       -0.0012537107  -0.0001166570  -0.0002156463   0.0002352653   0.0000698867
       -0.0001316882   0.0000351598   0.0001105289   0.0001223592   0.0003042255
       -0.0002526683  -0.0002875172   0.0000011202   0.0066349490  -0.0063690885
       -0.0024604568   0.0181843860   0.1032077485  -0.2209610757  -0.1125842910
       -0.0325197111  -0.1300706156  -0.0000576471  -0.0443473382  -0.0521361453
        0.0018894296   0.0024894192  -0.0051121679   0.0007834796  -0.0005397908
        0.0008477532  -0.0000009366  -0.0008366573   0.0008156654  -0.0005258305
       -0.0001341292   0.0001399406   0.0000228048   0.0000096359  -0.0000043288
       -0.0000712227  -0.0000006213   0.0000799660  -0.0001318403  -0.0000156544
       -0.0000881304   0.0000055942  -0.0000047262   0.0000003593   0.0000048466
       -0.0000004444   0.0000002344   0.0000075405   0.0000206366  -0.0000262817
        0.0000065349   0.0000053622  -0.0000050699   0.0000030473   0.0000065268
       -0.0000076762   0.0000011811  -0.0000035499   0.0000001825  -0.0000005564
       -0.0000045299  -0.0000028545   0.0000009578   0.0000009087  -0.0000027323
       -0.0000016239   0.0000017631   0.0000028865  -0.0000002243  -0.0000021433
       -0.0000008267   0.0000024813   0.0000016262  -0.0000030529   0.0000012583
       -0.0000004413  -0.0000054545  -0.0000007960   0.0000030622  -0.0000033925
       -0.0000016684  -0.0000006418   0.0000027631  -0.0000033083  -0.0000054022
        0.0000044745   0.0000012486  -0.0000022373   0.0000024114   0.0000013073
        0.0000008000  -0.0000011042   0.0000019914   0.0000031227  -0.0000002445
       -0.0000016016  -0.0000015503   0.0000016004   0.0000003799  -0.0000025161
        0.0000034471  -0.0000000197  -0.0000002568  -0.0000026560  -0.0000002029
        0.0000013134   0.0000006910   0.0000010030  -0.0000012763  -0.0000013861
       -0.0000037183   0.0000034452  -0.0000050199  -0.0000022450   0.0000021905
       -0.0000011692   0.0000026069  -0.0000009014   0.0000023851   0.0000004253
        0.0000022542   0.0000022219   0.0000006260   0.0000032227  -0.0000025175
       -0.0000019397  -0.0000006997   0.0000000999   0.0000005841  -0.0000038746
        0.0000032395  -0.0000008756   0.0000000888  -0.0000017057   0.0000001084
       -0.0000005021   0.0000063421  -0.0000008985  -0.0000080198  -0.0000000933
        0.0000007581  -0.0000036476   0.0000026775   0.0000001445  -0.0000039682
       -0.0000030949  -0.0000017035  -0.0000017551   0.0000023803  -0.0000020419
       -0.0000038495  -0.0000007402   0.0000010107  -0.0000003270   0.0000025510
       -0.0000023322   0.0000036723   0.0000019828   0.0000017957   0.0000004227
        0.0000014976  -0.0000173139  -0.0000605372  -0.0000006021   0.0000453715
       -0.0000130533  -0.0000309966   0.0000039439  -0.0000059622  -0.0000323109
        0.0004447752  -0.0007526789  -0.0005781878
       -0.1411768209   0.0242967281   0.0388993363   0.4511315324   0.0124518666
        0.0268702750  -0.0589516145  -0.0106878753   0.0135993079  -0.1293227497
       -0.0208895773  -0.0612708497  -0.0060538265  -0.0107094897  -0.0061224060
        0.0043875600   0.0004516763  -0.0016073864  -0.0007773308   0.0004319656
       -0.0003196124   0.0011292678   0.0028816731  -0.0032258175  -0.0171929361
        0.0022876465  -0.0148915540   0.0004126223  -0.0034616137   0.0022753599
       -0.0005672237   0.0000040015   0.0002626092   0.0000931834  -0.0000126868
       -0.0001194481   0.0000912478  -0.0000983906   0.0001139303  -0.0000591982
        0.0001528565  -0.0000959248   0.0000541618   0.0000571375  -0.0000154348
        0.0001739811  -0.0000077117  -0.0000493798   0.0000142717  -0.0002466984
        0.0002851951  -0.0000771350   0.0001693492  -0.0001090882  -0.0001399146
       -0.0000294073   0.0000355004  -0.0000479935  -0.0000811814   0.0001002339
        0.0001309010  -0.0000255741   0.0000023053  -0.0000904093   0.0000910431
        0.0000064055   0.0000797011  -0.0000007477  -0.0000494472   0.0000395948
       -0.0000555877   0.0000571001  -0.0000884482  -0.0001113738   0.0001267655
        0.0000411283   0.0001299343  -0.0001324945  -0.0000402474   0.0000334367
       -0.0000392776   0.0001388478  -0.0001049930   0.0000381589  -0.0000502449
       -0.0000050651  -0.0000352065   0.0000099193  -0.0001748007  -0.0001671814
       -0.0001247213  -0.0000464623   0.0000991239   0.0001440557  -0.0003061905
       -0.0002571991   0.0000942447   0.0001668554   0.0001914140   0.0002014277
       -0.0000374914  -0.0001621272   0.0000133931   0.0000963568   0.0000669161
       -0.0001509314  -0.0000700009  -0.0000004218   0.0001038129   0.0000237735
        0.0000137956  -0.0000554476  -0.0001628865   0.0000478800   0.0001930635
        0.0000624271   0.0000617187   0.0001920293   0.0001813381   0.0000536852
       -0.0001804120  -0.0003280990   0.0002996901  -0.0000518681   0.0000744582
       -0.0002627279  -0.0000883781  -0.0002371909   0.0000210510   0.0000448587
       -0.0000166700   0.0001567026   0.0000100787  -0.0000162691   0.0000304254
        0.0002667715   0.0002296585   0.0001984505  -0.0001812327  -0.0001786532
       -0.0000527941  -0.0000151230  -0.0000229240  -0.0000078371  -0.0000138786
       -0.0000201097  -0.0000126110   0.0002604170   0.0002817834   0.0000596916
        0.0000030632   0.0000214306  -0.0000350654   0.0000167020   0.0000633840
       -0.0001215543  -0.0001112522  -0.0000471034  -0.0002112457  -0.0000178218
       -0.0001586633   0.0002160516  -0.0003059181   0.0000797570  -0.0004109343
       -0.0000738180   0.0000349873  -0.0000400457   0.0000961258  -0.0000251072
       -0.0001273177  -0.0002140810  -0.0000846736   0.0000808286  -0.0000926647
        0.0003059915   0.0002858851  -0.0000282599  -0.0001953804  -0.0002069143
        0.0000444727   0.0000150215   0.0000049329   0.0001739481  -0.0000992528
       -0.0001194075  -0.0002760796   0.0000922534   0.0002136428   0.0000435949
        0.0000193502  -0.0000223958   0.0000404530   0.0003124223   0.0001972054
       -0.0000215157   0.0000480525  -0.0000822686  -0.0000060617  -0.0000213117
       -0.0000293017  -0.0000030552   0.0000263494  -0.0000143358   0.0000169670
        0.0000067238  -0.0000096932  -0.0000110444   0.0000048981  -0.0000259145
        0.0000101238   0.0000167511  -0.0000052401   0.0000097376   0.0000190780
       -0.0000002681   0.0000169268   0.0000060740   0.0000059679  -0.0000036272
       -0.0000178993  -0.0000196791   0.0000104616   0.0000264960  -0.0000011529
        0.0000185759  -0.0000149215   0.0000034039   0.0000333698   0.0000593949
        0.0000377617   0.0001083201   0.0000516365  -0.0000904702  -0.0000674862
       -0.0001157708   0.0001012623   0.0000432620   0.0000926847  -0.0001115183
        0.0000905009  -0.0000981720   0.0001068670   0.0008447215   0.0181893772
        0.0021701490  -0.0003873917   0.0026407575  -0.0042882888  -0.0004268243
        0.0003606134  -0.0000623755  -0.0003590066  -0.0011582743  -0.0056886604
       -0.0004793305  -0.0193109204  -0.0038911360  -0.0603635705  -0.0040264264
       -0.0059753002  -0.0058348139   0.0002382319   0.0051488766  -0.0256371661
        0.0055258829   0.0082062593  -0.0033170368   0.0036944271   0.0017360977
       -0.0046660927  -0.0117545190   0.0226196319   0.0009592032   0.0096046751
       -0.0192340722  -0.0001212528  -0.0006339100   0.0009563653  -0.0009906056
        0.0007411071   0.0015581420   0.0000692769   0.0001764981  -0.0000419352
       -0.0005131357  -0.0000437815   0.0006881552  -0.0005935218  -0.0002056560
       -0.0004276467   0.0000094074   0.0001078896  -0.0000374755   0.0000251319
        0.0000753998  -0.0000034139  -0.0000117639  -0.0000572215   0.0000680053
       -0.0000910851   0.0000883042  -0.0000165197  -0.0000002484   0.0000961241
       -0.0001019851   0.0000881164  -0.0000882036   0.0000685264   0.0000008949
       -0.0000101954  -0.0000914412  -0.0000015975  -0.0000004850  -0.0000144934
       -0.0000208759  -0.0000052139   0.0000731758  -0.0000092101  -0.0000137596
       -0.0000132562   0.0000039858   0.0000038389  -0.0000907106   0.0000708165
       -0.0000634999  -0.0000908319  -0.0000169065   0.0000727411  -0.0000901175
       -0.0000846544   0.0000009778  -0.0000015778  -0.0000764338  -0.0000755681
        0.0000777466   0.0000891719  -0.0000004975   0.0000844204   0.0000820165
       -0.0000042654   0.0000035402   0.0000084348   0.0000796612  -0.0000056675
       -0.0000037970  -0.0000004784   0.0000002922   0.0000052313  -0.0000050943
        0.0000800362   0.0000055158  -0.0000068744  -0.0000007819  -0.0000059419
        0.0000013043   0.0000032056   0.0000869964  -0.0000028858   0.0000007688
       -0.0000767075   0.0000754912  -0.0000737362  -0.0000840265  -0.0000078576
       -0.0000013235   0.0000707456  -0.0000180188   0.0000679576   0.0000077801
        0.0000749894   0.0000749559  -0.0000347250   0.0000870721  -0.0000221880
       -0.0000055458  -0.0000827081  -0.0000850490  -0.0000152727  -0.0000435863
        0.0000646535  -0.0000068777   0.0000028984  -0.0000117796  -0.0000792392
       -0.0000781136   0.0000144135  -0.0000770939  -0.0000170973  -0.0000689937
       -0.0000076385  -0.0000139099   0.0000783193  -0.0000003095  -0.0000131219
       -0.0000829009  -0.0000098183  -0.0000056008   0.0000784469  -0.0000106159
       -0.0000896647  -0.0000047512   0.0000024225   0.0000001239   0.0000053097
       -0.0000213880   0.0000862913  -0.0000027268   0.0000723117  -0.0000764988
        0.0000727493  -0.0000948290   0.0008986188   0.0002833676  -0.0005228477
       -0.0001880814   0.0006873100  -0.0002026082  -0.0011183828  -0.0005010862
       -0.0007382809  -0.0005376494   0.0015154570
        0.0202885166  -0.0661613544  -0.0125743875   0.0124518666   0.4789007734
        0.0212329148  -0.0066759194  -0.0861099690   0.0437721279  -0.0248521815
       -0.0723899020  -0.0222540091  -0.0209478702  -0.0097949566  -0.0177697639
        0.0000687347  -0.0049417394  -0.0020234547   0.0002316127  -0.0003358895
        0.0001776888   0.0029533845  -0.0025114982   0.0009041658   0.0122578235
        0.0064958702   0.0100262631  -0.0035236170   0.0005182119  -0.0020520657
        0.0002191557  -0.0001923365  -0.0000592199  -0.0001503412   0.0000873528
       -0.0000342828  -0.0001770472   0.0000901428  -0.0000950485   0.0000197862
       -0.0001489700   0.0001138081  -0.0000250543  -0.0000472841   0.0000419048
       -0.0000479478  -0.0001220225   0.0000484641  -0.0000561871   0.0002392669
       -0.0002580611   0.0000884252  -0.0002115493   0.0001258300   0.0001525787
        0.0000281170  -0.0000525453   0.0000508738   0.0000886204  -0.0000987698
       -0.0001273141   0.0000349183  -0.0000076069   0.0001023337  -0.0001077595
       -0.0000001333  -0.0000920506   0.0000039624   0.0000421107  -0.0000336067
        0.0000724835  -0.0000341303   0.0001024825   0.0001124169  -0.0001394734
       -0.0000610344  -0.0001369792   0.0001421926   0.0000573078  -0.0000242181
        0.0000324510  -0.0001394788   0.0000871805  -0.0000372850   0.0000405921
        0.0000124921   0.0000429082  -0.0000113426   0.0001744889   0.0001701329
        0.0001249805   0.0000452263  -0.0000995614  -0.0001555723   0.0003229178
        0.0002685992  -0.0000995406  -0.0001692301  -0.0001909734  -0.0001993087
        0.0000363146   0.0001612974  -0.0000103396  -0.0000936030  -0.0000678717
        0.0001534125   0.0000677472  -0.0000008098  -0.0001091245  -0.0000259571
       -0.0000123738   0.0000546748   0.0001660052  -0.0000493025  -0.0002092422
       -0.0000676155  -0.0000636122  -0.0002005417  -0.0001932425  -0.0000565224
        0.0001899272   0.0003673714  -0.0003213752   0.0000545493  -0.0000821888
        0.0002750037   0.0000933326   0.0002480273  -0.0000257785  -0.0000472955
        0.0000183049  -0.0001617483  -0.0000091611   0.0000197887  -0.0000333126
       -0.0002804926  -0.0002420998  -0.0002078902   0.0001876982   0.0001855470
        0.0000573929   0.0000166764   0.0000245139   0.0000082619   0.0000135818
        0.0000225160   0.0000143202  -0.0002733000  -0.0002965425  -0.0000651204