 Entering Gaussian System
 *********************************************
 Gaussian 98:
 frequency output generated by the xtb code
 *********************************************
                         Standard orientation:
 --------------------------------------------------------------------
  Center     Atomic     Atomic              Coordinates (Angstroms)
  Number     Number      Type              X           Y           Z
 --------------------------------------------------------------------
    1          6             0       -1.329792    3.891408    0.695952
    2          6             0       -0.654261    4.491945   -0.530542
    3          6             0        0.140860    3.467189   -1.340470
    4          6             0        1.369603    2.950036   -0.595003
    5          6             0        2.361204    2.207281   -1.489771
    6          6             0        1.860341    0.904745   -2.118426
    7          6             0        1.676049   -0.275616   -1.135329
    8          6             0        1.501892   -1.571715   -1.961977
    9          6             0        1.583037   -2.879768   -1.169761
   10          6             0        0.443533   -3.155998   -0.188814
   11          6             0       -0.923976   -3.308231   -0.848062
   12          6             0       -2.017505   -3.578629    0.182559
   13          6             0       -3.395962   -3.665085   -0.460474
   14          6             0        2.829237   -0.381920   -0.163163
   15          6             0        4.150487   -0.593736   -0.410553
   16          6             0        5.053941   -0.654143    0.666665
   17          6             0        4.602506   -0.497639    1.990501
   18          6             0        3.284645   -0.286100    2.273558
   19          6             0        2.349031   -0.222319    1.195335
   20          6             0        0.981904   -0.029760    1.178816
   21          6             0        0.022208    0.159420    2.233812
   22          6             0       -1.290067    0.291025    1.920528
   23          6             0       -1.717935    0.256321    0.565405
   24         35             0       -3.564051    0.397764    0.182506
   25          6             0       -0.802029    0.097803   -0.501046
   26          6             0        0.511612   -0.050928   -0.206819
   27          1             0       -0.597622    3.468201    1.379212
   28          1             0       -1.893312    4.654050    1.228864
   29          1             0       -2.019469    3.105365    0.399436
   30          1             0       -1.421213    4.929387   -1.174456
   31          1             0        0.013459    5.298792   -0.218745
   32          1             0        0.466087    3.936429   -2.272853
   33          1             0       -0.516214    2.634621   -1.597053
   34          1             0        1.060124    2.301159    0.224153
   35          1             0        1.894365    3.803124   -0.156005
   36          1             0        3.259664    1.990514   -0.906659
   37          1             0        2.655379    2.875837   -2.304012
   38          1             0        2.594129    0.602260   -2.869670
   39          1             0        0.916593    1.081216   -2.635794
   40          1             0        0.553802   -1.518938   -2.498388
   41          1             0        2.297679   -1.598801   -2.710611
   42          1             0        1.619339   -3.699257   -1.893201
   43          1             0        2.524541   -2.892218   -0.614968
   44          1             0        0.677705   -4.080670    0.345977
   45          1             0        0.396681   -2.359977    0.555587
   46          1             0       -1.177337   -2.396795   -1.390537
   47          1             0       -0.892525   -4.127512   -1.570505
   48          1             0       -2.013021   -2.776265    0.924950
   49          1             0       -1.799383   -4.511778    0.707228
   50          1             0       -3.422401   -4.460660   -1.202168
   51          1             0       -3.646635   -2.728689   -0.954165
   52          1             0       -4.156902   -3.868548    0.289213
   53          1             0        4.517248   -0.715259   -1.419683
   54          1             0        6.102434   -0.821196    0.476716
   55          1             0        5.325127   -0.548440    2.792446
   56          1             0        2.938255   -0.166617    3.288497
   57          1             0        0.357294    0.187657    3.258568
   58          1             0       -2.034601    0.426298    2.690637
   59          1             0       -1.170175    0.090188   -1.516265
 --------------------------------------------------------------------
     1 basis functions        1 primitive gaussians
     1 alpha electrons        1 beta electrons
 
 Harmonic frequencies (cm**-1), IR intensities (km*mol⁻¹),
 Raman scattering activities (A**4/amu), Raman depolarization ratios,
 reduced masses (AMU), force constants (mDyne/A) and normal coordinates:
                      1                      2                      3
                        a                      a                      a 
 Frequencies --    21.1248                23.7551                37.4167
 Red. masses --    17.4689                12.7231                33.0814
 Frc consts  --     0.0000                 0.0000                 0.0000
 IR Inten    --     0.0362                 0.0212                 0.2538
 Raman Activ --     0.0000                 0.0000                 0.0000
 Depolar     --     0.0000                 0.0000                 0.0000
 Atom AN      X      Y      Z        X      Y      Z        X      Y      Z
   1   6    -0.37   0.03  -0.43     0.19  -0.00   0.11    -0.01  -0.19  -0.11
   2   6    -0.11   0.06  -0.28     0.03  -0.06  -0.00     0.22   0.08   0.15
   3   6     0.00   0.06  -0.17    -0.02  -0.08  -0.03     0.26   0.22  -0.00
   4   6    -0.11   0.05   0.01     0.05  -0.03  -0.11     0.20   0.06  -0.02
   5   6     0.00   0.03   0.14    -0.01  -0.05  -0.16     0.13   0.01  -0.06
   6   6     0.06   0.04   0.08    -0.04  -0.09  -0.05     0.03   0.04  -0.04
   7   6     0.03   0.01   0.04     0.01  -0.03   0.03    -0.01   0.06  -0.02
   8   6     0.01   0.04   0.00     0.04  -0.09   0.12    -0.05   0.05   0.01
   9   6    -0.03   0.02  -0.03    -0.04  -0.03   0.22    -0.09   0.06   0.03
  10   6    -0.06   0.01  -0.07    -0.17   0.01   0.08    -0.09   0.10   0.04
  11   6    -0.04   0.04  -0.11    -0.08  -0.01  -0.11    -0.10   0.11   0.05
  12   6    -0.07   0.02  -0.15    -0.23  -0.03  -0.27    -0.10   0.16   0.07
  13   6    -0.05   0.06  -0.19    -0.13  -0.02  -0.47    -0.10   0.13   0.08
  14   6     0.04  -0.03   0.03     0.02   0.05   0.02    -0.01   0.04  -0.01
  15   6     0.03  -0.06   0.02     0.03   0.09   0.01    -0.02  -0.00  -0.01
  16   6     0.04  -0.10   0.01     0.04   0.16  -0.00    -0.02  -0.02  -0.01
  17   6     0.05  -0.11   0.02     0.05   0.19  -0.00    -0.02   0.00  -0.01
  18   6     0.06  -0.08   0.03     0.05   0.15   0.01    -0.01   0.04  -0.01
  19   6     0.05  -0.04   0.04     0.03   0.08   0.02    -0.01   0.06  -0.02
  20   6     0.06  -0.01   0.05     0.03   0.04   0.03    -0.00   0.08  -0.02
  21   6     0.07  -0.01   0.07     0.04   0.06   0.03    -0.01   0.08  -0.02
  22   6     0.07   0.00   0.08     0.03   0.04   0.05    -0.01   0.03  -0.02
  23   6     0.05   0.01   0.09     0.02  -0.00   0.05    -0.01   0.01  -0.02
  24  35     0.11  -0.04   0.31     0.03  -0.10   0.18    -0.09  -0.57  -0.01
  25   6     0.04   0.02   0.08     0.01  -0.02   0.04    -0.00   0.07  -0.02
  26   6     0.04   0.01   0.06     0.01  -0.01   0.03    -0.00   0.09  -0.02
  27   1    -0.15  -0.02  -0.10     0.08   0.02   0.02    -0.04  -0.13  -0.04
  28   1    -0.12   0.01  -0.14     0.06   0.00   0.03    -0.00  -0.08   0.00
  29   1    -0.11   0.03  -0.17     0.06  -0.02   0.07    -0.01  -0.01  -0.12
  30   1     0.01   0.03  -0.12    -0.02  -0.04   0.02     0.10   0.09   0.04
  31   1    -0.04   0.01  -0.03     0.01  -0.01  -0.04     0.07  -0.02   0.13
  32   1     0.04   0.02  -0.03    -0.03  -0.04  -0.02     0.10   0.11   0.03
  33   1     0.01   0.02  -0.08    -0.01  -0.03   0.02     0.08   0.08  -0.06
  34   1    -0.07   0.02  -0.01     0.04   0.00  -0.02     0.04   0.01  -0.02
  35   1    -0.05   0.01   0.02     0.02  -0.00  -0.06     0.08  -0.00   0.01
  36   1    -0.02   0.01   0.08     0.01  -0.00  -0.07     0.04  -0.01  -0.03
  37   1     0.03   0.01   0.05    -0.03  -0.03  -0.06     0.04  -0.00  -0.02
  38   1     0.03   0.02   0.03    -0.02  -0.04  -0.02    -0.00  -0.00  -0.02
  39   1     0.03   0.01   0.01    -0.02  -0.04  -0.00     0.01   0.02  -0.00
  40   1     0.00   0.02   0.00     0.02  -0.03   0.01    -0.01   0.02   0.00
  41   1     0.00   0.01   0.00     0.03  -0.05   0.05    -0.02   0.00   0.00
  42   1    -0.01   0.01  -0.02     0.02  -0.02   0.08    -0.03   0.01   0.01
  43   1    -0.01  -0.00  -0.00    -0.03   0.01   0.10    -0.03   0.01   0.01
  44   1    -0.02  -0.00  -0.03    -0.07   0.01   0.04    -0.03   0.03   0.02
  45   1    -0.02  -0.00  -0.01    -0.08   0.01   0.01    -0.02   0.03   0.01
  46   1    -0.01   0.02  -0.02    -0.01  -0.00  -0.04    -0.02   0.03   0.01
  47   1    -0.01   0.02  -0.04     0.01  -0.00  -0.03    -0.03   0.03   0.02
  48   1    -0.02  -0.00  -0.03    -0.10  -0.02  -0.07    -0.03   0.06   0.01
  49   1    -0.03  -0.00  -0.05    -0.09  -0.01  -0.08    -0.03   0.05   0.03
  50   1    -0.01   0.03  -0.07    -0.01   0.00  -0.14    -0.03   0.02   0.04
  51   1    -0.01   0.02  -0.05    -0.02   0.00  -0.14    -0.03   0.03   0.01
  52   1    -0.02   0.01  -0.06    -0.07  -0.01  -0.17    -0.03   0.05   0.03
  53   1     0.01  -0.02   0.00     0.01   0.02   0.00    -0.01  -0.01  -0.00
  54   1     0.01  -0.04   0.00     0.01   0.06  -0.00    -0.01  -0.02  -0.00
  55   1     0.02  -0.04   0.00     0.02   0.07  -0.00    -0.01  -0.00  -0.00
  56   1     0.02  -0.02   0.01     0.02   0.05   0.00    -0.00   0.02  -0.00
  57   1     0.02  -0.00   0.02     0.01   0.03   0.01    -0.00   0.03  -0.01
  58   1     0.02  -0.00   0.03     0.01   0.01   0.01    -0.00  -0.00  -0.00
  59   1     0.01   0.01   0.02    -0.00  -0.02   0.01    -0.00   0.02  -0.01
                      4                      5                      6
                        a                      a                      a 
 Frequencies --    41.3432                47.6938                57.1313
 Red. masses --    12.0028                19.9100                10.8273
 Frc consts  --     0.0000                 0.0000                 0.0000
 IR Inten    --     0.0072                 0.3183                 0.1734
 Raman Activ --     0.0000                 0.0000                 0.0000
 Depolar     --     0.0000                 0.0000                 0.0000
 Atom AN      X      Y      Z        X      Y      Z        X      Y      Z
   1   6    -0.03  -0.05   0.10    -0.26  -0.34  -0.13     0.22   0.25  -0.06
   2   6    -0.19  -0.15  -0.04     0.06  -0.04   0.20     0.07   0.15  -0.19
   3   6    -0.17  -0.18   0.02     0.07   0.12   0.02     0.03   0.08  -0.14
   4   6    -0.11  -0.05   0.01     0.03  -0.06  -0.04     0.03   0.08  -0.13
   5   6    -0.06   0.00   0.01    -0.04  -0.06  -0.11     0.01   0.06  -0.12
   6   6     0.02  -0.02   0.00    -0.08  -0.08  -0.05    -0.02   0.04  -0.05
   7   6     0.04  -0.03   0.00    -0.01  -0.05  -0.00    -0.00   0.09   0.01
   8   6     0.07  -0.03  -0.01     0.04  -0.09   0.05     0.01   0.05   0.06
   9   6     0.02  -0.03  -0.01     0.05  -0.06   0.11     0.01   0.07   0.10
  10   6     0.01   0.01  -0.01     0.02  -0.06   0.07    -0.01   0.05   0.08
  11   6    -0.01   0.11   0.01     0.04  -0.03   0.04    -0.00   0.09   0.06
  12   6    -0.05   0.41   0.04     0.00  -0.00   0.01     0.01  -0.03   0.04
  13   6    -0.07   0.59   0.06     0.01   0.09  -0.02     0.00   0.01   0.04
  14   6     0.04  -0.01   0.00     0.00   0.03  -0.01    -0.00   0.09   0.01
  15   6     0.05   0.02   0.01     0.02   0.17  -0.03     0.02   0.24  -0.00
  16   6     0.04   0.04   0.01     0.04   0.23  -0.04     0.01   0.14   0.00
  17   6     0.03   0.02   0.01     0.03   0.14  -0.03    -0.03  -0.14   0.02
  18   6     0.03  -0.02   0.01     0.01  -0.01  -0.01    -0.05  -0.28   0.03
  19   6     0.03  -0.03   0.00    -0.00  -0.06  -0.01    -0.03  -0.13   0.02
  20   6     0.03  -0.05  -0.00    -0.02  -0.14   0.00    -0.04  -0.15   0.02
  21   6     0.02  -0.08  -0.01    -0.03  -0.23   0.01    -0.06  -0.36   0.04
  22   6     0.02  -0.09  -0.01    -0.02  -0.19   0.01    -0.05  -0.32   0.04
  23   6     0.03  -0.07  -0.02    -0.01  -0.07   0.00    -0.02  -0.07   0.02
  24  35     0.09  -0.14  -0.09     0.03   0.40  -0.02    -0.05  -0.09   0.04
  25   6     0.04  -0.05  -0.01    -0.01  -0.04   0.00    -0.00   0.09   0.01
  26   6     0.03  -0.05  -0.00    -0.01  -0.08   0.00    -0.01   0.05   0.01
  27   1     0.02   0.03   0.03    -0.13  -0.22  -0.05     0.09   0.13  -0.01
  28   1    -0.01  -0.01   0.01    -0.04  -0.12   0.02     0.04   0.08  -0.04
  29   1     0.01  -0.04   0.07    -0.12  -0.02  -0.15     0.09   0.03   0.03
  30   1    -0.08  -0.08  -0.01     0.07   0.08   0.06    -0.00   0.01  -0.05
  31   1    -0.07  -0.02  -0.06     0.03  -0.07   0.17     0.02   0.06  -0.10
  32   1    -0.07  -0.07  -0.01     0.04   0.09   0.04     0.01   0.01  -0.05
  33   1    -0.04  -0.07   0.04     0.02   0.05  -0.06     0.00   0.03  -0.03
  34   1    -0.01  -0.01   0.01    -0.00  -0.03  -0.03     0.01   0.03  -0.04
  35   1    -0.05   0.00  -0.01     0.03  -0.04   0.01     0.01   0.02  -0.04
  36   1    -0.02   0.01   0.01     0.00  -0.01  -0.05     0.01   0.02  -0.04
  37   1    -0.02   0.01   0.01    -0.03  -0.02  -0.04    -0.00   0.01  -0.04
  38   1     0.02   0.00   0.01    -0.04  -0.03  -0.03    -0.01  -0.00  -0.02
  39   1     0.01  -0.02  -0.01    -0.04  -0.03   0.00    -0.01   0.01  -0.01
  40   1     0.03  -0.00  -0.01     0.02  -0.04   0.00     0.00   0.01   0.02
  41   1     0.03  -0.01   0.01     0.02  -0.03   0.02     0.00   0.01   0.02
  42   1    -0.00  -0.01  -0.00     0.03  -0.02   0.04     0.02   0.02   0.04
  43   1     0.00  -0.02  -0.00     0.01  -0.00   0.04    -0.00   0.03   0.04
  44   1    -0.01  -0.00  -0.01     0.00  -0.02   0.02    -0.01   0.01   0.01
  45   1     0.02  -0.00   0.00     0.00  -0.02   0.02    -0.00   0.01   0.03
  46   1     0.03   0.02  -0.03     0.02  -0.01   0.01    -0.01   0.04   0.04
  47   1    -0.04   0.00   0.03     0.01  -0.01   0.01     0.00   0.05  -0.00
  48   1     0.03   0.14  -0.01     0.01  -0.01   0.01    -0.00  -0.03   0.03
  49   1    -0.06   0.13   0.04    -0.02  -0.01  -0.00     0.01  -0.02  -0.01
  50   1    -0.06   0.14   0.05    -0.00   0.03  -0.01     0.00   0.03  -0.01
  51   1     0.03   0.16  -0.02     0.02   0.03   0.00    -0.01   0.02   0.04
  52   1    -0.03   0.24   0.03    -0.00   0.03  -0.01     0.00  -0.02   0.01
  53   1     0.02   0.01   0.00     0.01   0.07  -0.01     0.01   0.12  -0.00
  54   1     0.01   0.02   0.00     0.02   0.10  -0.01     0.01   0.07  -0.00
  55   1     0.01   0.01   0.00     0.01   0.06  -0.01    -0.01  -0.07   0.01
  56   1     0.01  -0.01   0.00     0.00  -0.02  -0.00    -0.02  -0.14   0.01
  57   1     0.00  -0.03  -0.00    -0.01  -0.09   0.01    -0.02  -0.16   0.01
  58   1     0.00  -0.03  -0.00    -0.01  -0.07   0.00    -0.02  -0.14   0.01
  59   1     0.01  -0.01  -0.00    -0.00   0.01  -0.00     0.00   0.06   0.00
                      7                      8                      9
                        a                      a                      a 
 Frequencies --    65.0120                75.8161                80.2447
 Red. masses --    14.9556                15.9995                 7.8474
 Frc consts  --     0.0000                 0.0000                 0.0000
 IR Inten    --     0.0489                 0.0906                 0.0305
 Raman Activ --     0.0000                 0.0000                 0.0000
 Depolar     --     0.0000                 0.0000                 0.0000
 Atom AN      X      Y      Z        X      Y      Z        X      Y      Z
   1   6    -0.11  -0.30   0.08     0.04  -0.15   0.00     0.07  -0.20  -0.01
   2   6    -0.22  -0.22   0.05    -0.02  -0.04   0.02    -0.04  -0.14  -0.05
   3   6    -0.13  -0.11   0.01    -0.01   0.03  -0.07     0.03  -0.07  -0.06
   4   6    -0.02   0.05  -0.06     0.04   0.05  -0.14     0.08   0.02  -0.08
   5   6    -0.00   0.11  -0.09    -0.02   0.02  -0.19     0.07   0.00  -0.07
   6   6     0.07   0.06  -0.05    -0.07  -0.01  -0.09     0.04  -0.00  -0.03
   7   6     0.05   0.11  -0.00    -0.03   0.05  -0.02    -0.00   0.02  -0.00
   8   6    -0.02   0.07   0.07     0.07  -0.01   0.03    -0.00   0.03  -0.01
   9   6    -0.10   0.12   0.15     0.20   0.03   0.09     0.04   0.01  -0.05
  10   6    -0.14   0.18   0.13     0.20   0.00   0.08     0.06  -0.04  -0.04
  11   6    -0.12   0.15   0.10     0.25  -0.12   0.00     0.03   0.15  -0.02
  12   6    -0.11  -0.05   0.07     0.14   0.17  -0.05     0.12  -0.39  -0.06
  13   6    -0.08  -0.23   0.04     0.21   0.07  -0.20     0.02   0.32   0.05
  14   6     0.06   0.07  -0.01    -0.04   0.06  -0.00    -0.02   0.01   0.02
  15   6     0.05   0.04  -0.02    -0.05  -0.02   0.02    -0.02  -0.03   0.04
  16   6     0.04  -0.11  -0.02    -0.09  -0.21   0.04    -0.04  -0.04   0.06
  17   6     0.03  -0.24  -0.01    -0.12  -0.30   0.04    -0.05   0.00   0.05
  18   6     0.04  -0.19   0.00    -0.10  -0.17   0.02    -0.05   0.05   0.03
  19   6     0.05  -0.01   0.00    -0.06   0.01  -0.01    -0.03   0.04   0.01
  20   6     0.06   0.06   0.00    -0.05   0.07  -0.03    -0.03   0.05  -0.01
  21   6     0.04   0.02  -0.00    -0.02   0.12  -0.02    -0.02   0.06  -0.01
  22   6     0.05   0.02  -0.01    -0.02   0.12  -0.00    -0.02   0.04   0.00
  23   6     0.06   0.08  -0.02    -0.05   0.04   0.01    -0.02   0.03   0.00
  24  35     0.18   0.06  -0.19    -0.18   0.06   0.24    -0.09   0.01   0.12
  25   6     0.08   0.15  -0.01    -0.06   0.01  -0.01    -0.02   0.04  -0.00
  26   6     0.07   0.15   0.00    -0.05   0.05  -0.03    -0.02   0.04  -0.01
  27   1    -0.01  -0.08   0.00     0.02  -0.05  -0.02     0.04  -0.03  -0.01
  28   1    -0.04  -0.10   0.04     0.01  -0.06   0.02     0.00  -0.07  -0.00
  29   1    -0.02  -0.09   0.03     0.01  -0.04  -0.01     0.05  -0.08   0.01
  30   1    -0.09  -0.09   0.03    -0.01  -0.01   0.02    -0.03  -0.07  -0.01
  31   1    -0.09  -0.04   0.01    -0.01  -0.01   0.02    -0.03  -0.02  -0.02
  32   1    -0.07  -0.02  -0.00    -0.02   0.03  -0.02    -0.00  -0.01  -0.02
  33   1    -0.01  -0.06   0.02     0.00   0.01  -0.02     0.03  -0.04  -0.02
  34   1     0.03   0.02  -0.00     0.03   0.02  -0.03     0.04   0.02  -0.01
  35   1    -0.02   0.04  -0.04     0.02   0.02  -0.06     0.02   0.02  -0.04
  36   1     0.01   0.05  -0.03     0.01   0.01  -0.07     0.02   0.00  -0.02
  37   1    -0.02   0.03  -0.03    -0.03  -0.00  -0.07     0.02  -0.01  -0.03
  38   1     0.03   0.01  -0.00    -0.03  -0.01  -0.03     0.01  -0.01  -0.00
  39   1     0.03   0.00  -0.03    -0.03  -0.01  -0.01     0.02   0.00  -0.01
  40   1    -0.01   0.03   0.02     0.02  -0.03   0.01    -0.00   0.00   0.00
  41   1    -0.01  -0.00   0.02     0.02   0.01   0.01    -0.00   0.02  -0.01
  42   1    -0.03   0.02   0.06     0.08   0.00   0.03     0.01   0.01  -0.02
  43   1    -0.03   0.04   0.06     0.06   0.04   0.03     0.01   0.00  -0.02
  44   1    -0.05   0.06   0.05     0.07   0.02   0.04     0.00  -0.04  -0.05
  45   1    -0.05   0.06   0.03     0.03   0.01   0.01     0.04  -0.04   0.02
  46   1    -0.05   0.05   0.05     0.09  -0.07  -0.07    -0.02   0.11   0.12
  47   1    -0.02   0.06   0.01     0.08  -0.08   0.06     0.01   0.14  -0.11
  48   1    -0.07  -0.02   0.03     0.02   0.10  -0.07     0.10  -0.26   0.14
  49   1     0.01  -0.01   0.01     0.01   0.09   0.06     0.01  -0.23  -0.22
  50   1     0.02  -0.06   0.00     0.08  -0.04   0.00    -0.06   0.27  -0.17
  51   1    -0.06  -0.07   0.02     0.10  -0.01  -0.14     0.02   0.22   0.24
  52   1    -0.02  -0.11   0.00     0.03   0.09  -0.07     0.03  -0.05  -0.00
  53   1     0.01   0.03  -0.01    -0.01   0.01   0.01    -0.00  -0.02   0.02
  54   1     0.01  -0.04  -0.01    -0.03  -0.09   0.02    -0.01  -0.02   0.02
  55   1     0.00  -0.11  -0.00    -0.04  -0.14   0.02    -0.02   0.00   0.02
  56   1     0.01  -0.08   0.00    -0.04  -0.07   0.00    -0.02   0.02   0.00
  57   1     0.01  -0.01   0.00    -0.00   0.05  -0.01    -0.00   0.02  -0.00
  58   1     0.01  -0.01  -0.00    -0.00   0.05   0.00    -0.01   0.01   0.00
  59   1     0.03   0.05  -0.01    -0.02  -0.01   0.00    -0.01   0.01  -0.00
                     10                     11                     12
                        a                      a                      a 
 Frequencies --    87.1503               105.0935               120.2771
 Red. masses --    15.3133                10.7898                11.6252
 Frc consts  --     0.0000                 0.0000                 0.0000
 IR Inten    --     0.1067                 0.3913                 0.2516
 Raman Activ --     0.0000                 0.0000                 0.0000
 Depolar     --     0.0000                 0.0000                 0.0000
 Atom AN      X      Y      Z        X      Y      Z        X      Y      Z
   1   6    -0.16   0.28   0.07    -0.05   0.01  -0.03     0.21  -0.20   0.06
   2   6     0.05   0.25   0.16     0.05  -0.06  -0.01    -0.14   0.10   0.01
   3   6    -0.14   0.15   0.10     0.02  -0.13   0.05    -0.00   0.38  -0.20
   4   6    -0.16  -0.03   0.02     0.05  -0.08   0.05    -0.16   0.13  -0.13
   5   6    -0.21  -0.01  -0.05     0.05  -0.05   0.03    -0.14   0.05  -0.05
   6   6    -0.16  -0.04  -0.02     0.04  -0.04   0.01    -0.10  -0.01   0.04
   7   6    -0.01  -0.04   0.00     0.00  -0.05  -0.01     0.00  -0.02   0.06
   8   6     0.04  -0.10   0.09    -0.01  -0.03  -0.04    -0.03   0.01   0.01
   9   6     0.06  -0.04   0.20    -0.02  -0.05  -0.09    -0.05  -0.06  -0.10
  10   6     0.01  -0.02   0.16    -0.01  -0.06  -0.08    -0.05  -0.14  -0.12
  11   6     0.04   0.01   0.10    -0.03  -0.05  -0.06    -0.06  -0.24  -0.10
  12   6     0.00  -0.17   0.00     0.00  -0.01  -0.01    -0.03  -0.07  -0.02
  13   6     0.01   0.18  -0.06    -0.03  -0.00   0.06    -0.10   0.04   0.11
  14   6     0.02   0.01  -0.02    -0.01  -0.06   0.01     0.01  -0.01   0.05
  15   6     0.01  -0.02  -0.06     0.05   0.32  -0.00     0.02   0.04   0.05
  16   6     0.02  -0.11  -0.08     0.05   0.39   0.01     0.03   0.03   0.05
  17   6     0.04  -0.17  -0.07    -0.03  -0.03   0.03     0.03  -0.03   0.06
  18   6     0.06  -0.11  -0.04    -0.08  -0.37   0.03     0.03  -0.06   0.07
  19   6     0.04  -0.02  -0.01    -0.05  -0.23   0.01     0.02  -0.03   0.07
  20   6     0.04   0.01   0.01    -0.02  -0.06  -0.01     0.03  -0.00   0.08
  21   6     0.04   0.12  -0.00     0.02   0.23  -0.03     0.03   0.09   0.07
  22   6     0.04   0.15  -0.02     0.04   0.37  -0.04     0.03   0.09   0.06
  23   6     0.03   0.05  -0.01     0.02   0.19  -0.02     0.03  -0.01   0.06
  24  35     0.13  -0.14  -0.23    -0.03  -0.08   0.07     0.17   0.01  -0.13
  25   6     0.03  -0.03   0.01     0.00   0.04  -0.02     0.03  -0.07   0.08
  26   6     0.02  -0.04   0.02    -0.01  -0.02  -0.02     0.02  -0.04   0.09
  27   1    -0.09  -0.01   0.01    -0.03  -0.03  -0.01     0.13   0.07   0.02
  28   1     0.02   0.11   0.04     0.01   0.02  -0.01    -0.06  -0.14   0.01
  29   1    -0.11   0.15  -0.01    -0.04   0.03  -0.01     0.18  -0.17   0.03
  30   1     0.05   0.14   0.05     0.03  -0.01  -0.02    -0.10  -0.01   0.05
  31   1     0.06   0.02   0.08     0.02  -0.03   0.00    -0.09   0.07  -0.00
  32   1    -0.03   0.04   0.03    -0.00  -0.06   0.00     0.05   0.20   0.00
  33   1    -0.07   0.07   0.03     0.00  -0.04   0.04     0.01   0.13  -0.17
  34   1    -0.06  -0.02  -0.01     0.03  -0.02   0.02    -0.10   0.02  -0.07
  35   1    -0.03  -0.03   0.02     0.01  -0.01   0.01    -0.03   0.00   0.01
  36   1    -0.05   0.01  -0.03     0.02  -0.02   0.01    -0.05   0.03  -0.00
  37   1    -0.08   0.00  -0.02     0.01  -0.01   0.01    -0.03  -0.00  -0.03
  38   1    -0.06   0.00  -0.02     0.01  -0.01   0.01    -0.04   0.00   0.00
  39   1    -0.06  -0.03   0.02     0.02  -0.01  -0.00    -0.04  -0.02   0.03
  40   1     0.02  -0.05   0.02    -0.00  -0.00  -0.01    -0.01   0.02   0.01
  41   1     0.02  -0.04   0.03    -0.00  -0.00  -0.01    -0.01   0.01  -0.00
  42   1     0.04  -0.03   0.08    -0.01  -0.01  -0.03    -0.01   0.00  -0.05
  43   1     0.01   0.01   0.07    -0.00  -0.02  -0.03    -0.02  -0.03  -0.03
  44   1    -0.01  -0.01   0.05    -0.00  -0.02  -0.03     0.00  -0.04  -0.03
  45   1    -0.00  -0.01   0.05    -0.00  -0.02  -0.02    -0.03  -0.04  -0.04
  46   1     0.01   0.02   0.06    -0.01  -0.01  -0.02    -0.02  -0.09  -0.07
  47   1     0.03   0.03  -0.01    -0.02  -0.02  -0.01    -0.02  -0.10   0.01
  48   1     0.02  -0.11   0.07     0.01   0.00  -0.01     0.03  -0.01  -0.02
  49   1    -0.03  -0.10  -0.07     0.00  -0.00  -0.00    -0.03  -0.02   0.01
  50   1    -0.01   0.12  -0.10    -0.02  -0.01   0.02    -0.08  -0.01   0.05
  51   1     0.03   0.11   0.07    -0.01  -0.00   0.01    -0.01   0.01   0.01
  52   1    -0.01  -0.00  -0.04     0.00   0.01   0.03    -0.01   0.06   0.06
  53   1    -0.01   0.00  -0.02     0.03   0.17  -0.00     0.01   0.02   0.01
  54   1     0.00  -0.05  -0.03     0.03   0.20   0.00     0.01   0.02   0.01
  55   1     0.02  -0.08  -0.02    -0.01  -0.02   0.01     0.01  -0.02   0.02
  56   1     0.03  -0.04  -0.01    -0.04  -0.20   0.01     0.01  -0.03   0.02
  57   1     0.01   0.06  -0.00     0.01   0.11  -0.01     0.01   0.05   0.02
  58   1     0.01   0.07  -0.01     0.02   0.18  -0.01     0.01   0.05   0.01
  59   1     0.01  -0.02   0.00    -0.00   0.00  -0.01     0.01  -0.03   0.02
                     13                     14                     15
                        a                      a                      a 
 Frequencies --   126.5052               132.2936               150.6744
 Red. masses --    11.9729                 9.0967                15.2361
 Frc consts  --     0.0000                 0.0000                 0.0000
 IR Inten    --     0.0597                 0.1069                 0.2724
 Raman Activ --     0.0000                 0.0000                 0.0000
 Depolar     --     0.0000                 0.0000                 0.0000
 Atom AN      X      Y      Z        X      Y      Z        X      Y      Z
   1   6    -0.07   0.10   0.04    -0.13   0.10  -0.03     0.01   0.02   0.04
   2   6     0.05   0.08   0.10     0.05  -0.03   0.01    -0.02   0.05   0.04
   3   6    -0.15   0.01  -0.02    -0.04  -0.17   0.09    -0.02   0.09  -0.00
   4   6    -0.04  -0.00  -0.20     0.18   0.11  -0.06    -0.15  -0.11   0.08
   5   6    -0.11   0.02  -0.30     0.08   0.09  -0.15    -0.00   0.04   0.12
   6   6    -0.05  -0.08  -0.11     0.01   0.06  -0.03     0.19   0.05  -0.08
   7   6     0.07  -0.03  -0.02    -0.00   0.11   0.03     0.11   0.02  -0.14
   8   6     0.14  -0.02  -0.07    -0.12   0.11   0.03     0.11  -0.04  -0.04
   9   6    -0.00  -0.08  -0.17    -0.07   0.07  -0.04    -0.02   0.05   0.15
  10   6    -0.04  -0.02  -0.20    -0.06  -0.09  -0.08    -0.11   0.13   0.07
  11   6    -0.10   0.22  -0.14    -0.01  -0.49  -0.10    -0.04  -0.23  -0.00
  12   6     0.02   0.10  -0.04    -0.03  -0.17  -0.02    -0.06  -0.13   0.01
  13   6    -0.05  -0.13   0.14    -0.10   0.13   0.10    -0.11   0.05   0.08
  14   6     0.06   0.02   0.03     0.00   0.09   0.02     0.09   0.03  -0.08
  15   6     0.08  -0.04   0.17    -0.00   0.04   0.02     0.11   0.02   0.04
  16   6    -0.02  -0.06   0.26    -0.01  -0.03   0.02     0.01   0.01   0.13
  17   6    -0.10  -0.00   0.23     0.00  -0.05   0.03    -0.09  -0.02   0.10
  18   6    -0.11   0.07   0.10     0.01   0.02   0.03    -0.12   0.00  -0.03
  19   6    -0.00   0.04   0.01     0.01   0.08   0.03     0.01   0.03  -0.13
  20   6     0.00  -0.02  -0.04     0.02   0.10   0.05     0.02   0.04  -0.20
  21   6     0.02  -0.03  -0.02    -0.00  -0.03   0.05     0.04   0.00  -0.19
  22   6     0.03  -0.02  -0.02    -0.01  -0.11   0.06     0.05  -0.07  -0.20
  23   6     0.05  -0.01  -0.03     0.00  -0.05   0.05     0.04  -0.09  -0.20
  24  35     0.13  -0.02   0.16     0.09  -0.00  -0.08    -0.04   0.04   0.28
  25   6     0.04  -0.02  -0.04     0.01   0.03   0.05     0.02  -0.06  -0.22
  26   6     0.04  -0.05  -0.04     0.02   0.12   0.05     0.04   0.02  -0.21
  27   1    -0.05  -0.10  -0.04    -0.08  -0.08  -0.03     0.01   0.04   0.03
  28   1     0.09   0.06   0.08     0.06   0.08   0.03    -0.03  -0.01  -0.00
  29   1    -0.12   0.13  -0.02    -0.14   0.12  -0.02     0.03  -0.02   0.02
  30   1     0.04   0.09   0.05     0.05   0.02  -0.01    -0.01   0.02   0.02
  31   1     0.06  -0.03   0.05     0.04  -0.04   0.01    -0.01   0.02   0.01
  32   1    -0.08  -0.01  -0.02    -0.08  -0.11  -0.03     0.04   0.05   0.03
  33   1    -0.07   0.01   0.04    -0.01  -0.08   0.13    -0.01   0.05  -0.06
  34   1     0.02  -0.00  -0.04     0.13   0.06   0.03    -0.09  -0.07  -0.03
  35   1    -0.00   0.00  -0.07     0.05   0.07  -0.09    -0.06  -0.06   0.10
  36   1    -0.00   0.05  -0.12     0.05   0.04  -0.07    -0.02   0.01   0.06
  37   1    -0.09  -0.00  -0.12    -0.01   0.01  -0.07     0.02   0.04   0.07
  38   1    -0.02  -0.03  -0.04    -0.01  -0.00  -0.01     0.10   0.04   0.01
  39   1    -0.03  -0.06  -0.02     0.00   0.02  -0.00     0.08   0.01  -0.07
  40   1     0.06   0.01  -0.05    -0.05   0.05   0.04     0.04  -0.02  -0.03
  41   1     0.06  -0.00   0.00    -0.06   0.03  -0.02     0.05  -0.05   0.01
  42   1    -0.02  -0.01  -0.07     0.00   0.03  -0.03     0.02  -0.01   0.08
  43   1    -0.00  -0.06  -0.04    -0.02   0.03  -0.01    -0.02   0.04   0.08
  44   1    -0.04  -0.03  -0.09     0.04   0.01   0.02    -0.01   0.08   0.09
  45   1     0.03  -0.03  -0.03    -0.08   0.00  -0.05    -0.09   0.08  -0.03
  46   1    -0.03   0.10   0.01    -0.02  -0.21  -0.13    -0.04  -0.11  -0.07
  47   1    -0.07   0.10  -0.08     0.03  -0.22   0.06     0.04  -0.12   0.06
  48   1    -0.00   0.03  -0.02     0.06  -0.03  -0.02     0.01  -0.04   0.01
  49   1     0.06   0.04  -0.01    -0.06  -0.05   0.01    -0.04  -0.05  -0.00
  50   1    -0.01  -0.05   0.05    -0.11   0.02   0.05    -0.07   0.03   0.01
  51   1    -0.07  -0.06   0.04     0.03   0.05   0.01    -0.01   0.03   0.05
  52   1     0.02  -0.06   0.07    -0.03   0.12   0.05    -0.02   0.03   0.03
  53   1     0.05  -0.02   0.06    -0.00   0.01   0.01     0.06   0.01   0.02
  54   1    -0.00  -0.03   0.10    -0.00  -0.02   0.00     0.01   0.00   0.06
  55   1    -0.05  -0.00   0.08    -0.00  -0.03   0.01    -0.05  -0.01   0.05
  56   1    -0.06   0.03   0.02     0.01   0.00   0.01    -0.06  -0.00  -0.02
  57   1     0.01  -0.01  -0.01    -0.00  -0.02   0.02     0.01   0.00  -0.06
  58   1     0.01  -0.00  -0.01    -0.01  -0.06   0.02     0.01  -0.03  -0.06
  59   1     0.01  -0.00  -0.01     0.00  -0.01   0.02     0.00  -0.03  -0.06
                     16                     17                     18
                        a                      a                      a 
 Frequencies --   167.2809               185.8033               197.6530
 Red. masses --    11.8503                13.7883                10.4288
 Frc consts  --     0.0000                 0.0000                 0.0000
 IR Inten    --     0.1716                 0.1265                 0.0873
 Raman Activ --     0.0000                 0.0000                 0.0000
 Depolar     --     0.0000                 0.0000                 0.0000
 Atom AN      X      Y      Z        X      Y      Z        X      Y      Z
   1   6    -0.01   0.01  -0.05    -0.04   0.00  -0.01     0.21  -0.09  -0.01
   2   6     0.03  -0.01  -0.04    -0.03  -0.02  -0.02     0.14  -0.02  -0.02
   3   6     0.08  -0.04   0.05     0.05  -0.01   0.05    -0.11  -0.07  -0.18
   4   6     0.11   0.06   0.05     0.06   0.03   0.05    -0.28  -0.29  -0.05
   5   6     0.04   0.01   0.02     0.00  -0.02   0.02    -0.01  -0.01   0.06
   6   6    -0.10   0.06   0.03    -0.07  -0.00   0.03     0.19  -0.04  -0.00
   7   6     0.01   0.03   0.02     0.03  -0.01   0.04     0.01   0.06   0.07
   8   6     0.16   0.01   0.01     0.30  -0.08   0.10    -0.01   0.08   0.05
   9   6     0.03   0.03   0.05     0.18  -0.02   0.21     0.02   0.07  -0.00
  10   6    -0.06   0.06  -0.05    -0.10  -0.05  -0.13    -0.01   0.04  -0.06
  11   6    -0.06   0.12  -0.08    -0.04  -0.01  -0.29     0.01   0.01  -0.10
  12   6    -0.00   0.04  -0.04     0.08   0.01  -0.15     0.05   0.01  -0.06
  13   6    -0.06  -0.04   0.10    -0.11  -0.04   0.26     0.00  -0.00   0.06
  14   6     0.02   0.10   0.01     0.03   0.09   0.03     0.00   0.05   0.07
  15   6     0.01   0.13  -0.03     0.01   0.01  -0.05    -0.01   0.04  -0.01
  16   6     0.03   0.02  -0.05     0.05  -0.11  -0.10     0.05  -0.00  -0.08
  17   6     0.02  -0.16  -0.03     0.09  -0.05  -0.09     0.10  -0.05  -0.06
  18   6     0.04  -0.08  -0.00     0.12   0.08  -0.03     0.12  -0.02   0.02
  19   6     0.03   0.10   0.01     0.04   0.05   0.03     0.04   0.05   0.08
  20   6     0.03   0.15   0.01     0.01  -0.10   0.04     0.03   0.10   0.09
  21   6     0.03   0.27  -0.01    -0.05  -0.14  -0.00    -0.03   0.06   0.06
  22   6    -0.02  -0.10   0.01    -0.02   0.11  -0.04    -0.04  -0.04   0.05
  23   6    -0.07  -0.51   0.04    -0.02   0.27  -0.05    -0.05  -0.05   0.04
  24  35    -0.09   0.12  -0.04    -0.26  -0.02   0.00    -0.21   0.02  -0.06
  25   6    -0.06  -0.47   0.05     0.03   0.17  -0.01    -0.00   0.02   0.08
  26   6    -0.01  -0.10   0.03     0.00  -0.04   0.03     0.02   0.10   0.08
  27   1    -0.01   0.04   0.01    -0.01   0.07   0.03     0.05  -0.27  -0.15
  28   1    -0.04  -0.00  -0.04    -0.07  -0.01  -0.05     0.29   0.02   0.17
  29   1     0.03  -0.02  -0.01     0.04  -0.05   0.00    -0.14   0.16  -0.03
  30   1     0.01  -0.02  -0.03    -0.01  -0.03  -0.02     0.04   0.07   0.04
  31   1    -0.00   0.00  -0.01    -0.03   0.01  -0.01     0.10  -0.06   0.01
  32   1     0.01  -0.03   0.00     0.01  -0.01   0.01     0.01  -0.01  -0.03
  33   1     0.03  -0.02   0.04     0.02  -0.01   0.02    -0.07   0.02  -0.09
  34   1     0.04   0.03   0.03     0.03   0.02   0.03    -0.14  -0.15  -0.09
  35   1     0.03   0.03  -0.01     0.03   0.01  -0.00    -0.13  -0.12   0.10
  36   1     0.02  -0.01  -0.01     0.01  -0.02  -0.01    -0.02   0.02   0.06
  37   1     0.01   0.00   0.00    -0.00  -0.01   0.00     0.01   0.02   0.04
  38   1    -0.06   0.02  -0.02    -0.04   0.00  -0.01     0.11  -0.02   0.06
  39   1    -0.05   0.03   0.05    -0.03   0.00   0.04     0.09  -0.03  -0.07
  40   1     0.07  -0.00  -0.04     0.12  -0.06  -0.04    -0.01   0.03   0.03
  41   1     0.08   0.00   0.04     0.14  -0.02   0.09    -0.01   0.03   0.00
  42   1     0.03   0.00   0.02     0.15  -0.02   0.08     0.02   0.02  -0.01
  43   1    -0.01   0.01   0.05    -0.00   0.03   0.15     0.00   0.02   0.01
  44   1    -0.04   0.01  -0.02    -0.07  -0.02  -0.03    -0.01   0.02  -0.01
  45   1    -0.02   0.01  -0.00    -0.07  -0.02  -0.03    -0.02   0.01  -0.02
  46   1    -0.02   0.05  -0.00    -0.01  -0.00  -0.08    -0.00  -0.00  -0.03
  47   1    -0.02   0.05  -0.04    -0.01  -0.01  -0.08     0.01  -0.00  -0.02
  48   1     0.00   0.00  -0.00     0.07   0.01  -0.05     0.03   0.01  -0.02
  49   1     0.03   0.01  -0.02     0.06   0.01  -0.04     0.03   0.01  -0.02
  50   1    -0.02   0.00   0.01    -0.11  -0.05   0.12    -0.02  -0.01   0.02
  51   1    -0.06  -0.01   0.06    -0.07  -0.03   0.05    -0.01  -0.00   0.02
  52   1     0.01  -0.05   0.05     0.04   0.03   0.16     0.02   0.01   0.04
  53   1    -0.00   0.06  -0.01    -0.02   0.00  -0.02    -0.02   0.02  -0.01
  54   1     0.01   0.01  -0.02     0.01  -0.07  -0.04     0.01  -0.00  -0.04
  55   1     0.00  -0.10  -0.01     0.03  -0.02  -0.03     0.04  -0.03  -0.03
  56   1     0.02  -0.06   0.00     0.06   0.04  -0.00     0.06  -0.01   0.01
  57   1     0.02   0.18  -0.01    -0.03  -0.09   0.01    -0.02   0.03   0.02
  58   1    -0.00  -0.01   0.00    -0.00   0.04  -0.01    -0.01  -0.03   0.02
  59   1    -0.02  -0.18   0.02     0.02   0.06  -0.01     0.01   0.00   0.02
                     19                     20                     21
                        a                      a                      a 
 Frequencies --   208.1362               221.0586               227.5561
 Red. masses --    25.4537                 6.6747                 9.8990
 Frc consts  --     0.0000                 0.0000                 0.0000
 IR Inten    --     0.3068                 0.0435                 0.0569
 Raman Activ --     0.0000                 0.0000                 0.0000
 Depolar     --     0.0000                 0.0000                 0.0000
 Atom AN      X      Y      Z        X      Y      Z        X      Y      Z
   1   6    -0.06   0.04   0.08     0.08  -0.05   0.00     0.09  -0.05   0.03
   2   6    -0.11   0.07   0.06    -0.04  -0.00  -0.04    -0.09  -0.00  -0.06
   3   6    -0.08   0.12  -0.02    -0.03   0.03  -0.06    -0.02   0.06  -0.07
   4   6     0.08   0.30  -0.14     0.04   0.18  -0.06     0.03   0.24  -0.01
   5   6     0.06   0.12  -0.04     0.01   0.01   0.05     0.07   0.04   0.19
   6   6     0.21  -0.02   0.09    -0.10   0.04   0.09     0.01   0.10   0.07
   7   6     0.12  -0.04   0.06    -0.03  -0.05   0.00    -0.05   0.00  -0.05
   8   6     0.02  -0.02   0.03     0.10   0.01  -0.10     0.02  -0.05   0.03
   9   6    -0.05  -0.09  -0.06     0.00   0.09   0.01     0.08   0.02   0.17
  10   6     0.03  -0.13   0.04    -0.06   0.40   0.02    -0.01  -0.16   0.03
  11   6    -0.02  -0.01   0.12     0.05  -0.07  -0.07    -0.02   0.10  -0.01
  12   6    -0.07  -0.02   0.07     0.05   0.07  -0.03    -0.00  -0.09  -0.04
  13   6    -0.00  -0.00  -0.07     0.03   0.01   0.04    -0.04  -0.00   0.03
  14   6     0.11  -0.13   0.06    -0.04  -0.14   0.01    -0.07  -0.03  -0.05
  15   6     0.11  -0.11   0.02    -0.04  -0.15   0.01    -0.07  -0.03  -0.05
  16   6     0.17   0.01  -0.02    -0.02   0.00  -0.01    -0.10   0.01  -0.04
  17   6     0.19   0.05  -0.02     0.00   0.13  -0.01    -0.11   0.05  -0.04
  18   6     0.17  -0.08   0.02    -0.02  -0.04   0.00    -0.12   0.00  -0.05
  19   6     0.09  -0.12   0.06    -0.04  -0.18   0.02    -0.09  -0.04  -0.06
  20   6     0.09  -0.04   0.02    -0.04  -0.18   0.02    -0.07  -0.04  -0.07
  21   6    -0.02   0.02  -0.08    -0.01  -0.06   0.03    -0.01   0.01  -0.03
  22   6    -0.01  -0.00  -0.16     0.01   0.11   0.02    -0.00   0.02  -0.01
  23   6    -0.04  -0.06  -0.15     0.00   0.02   0.03     0.02  -0.05  -0.01
  24  35    -0.47   0.05   0.04     0.06  -0.02  -0.01     0.25  -0.02   0.04
  25   6     0.07  -0.05  -0.06    -0.03  -0.09   0.02    -0.04  -0.05  -0.05
  26   6     0.08  -0.02   0.02    -0.03  -0.15   0.01    -0.05  -0.04  -0.06
  27   1    -0.02  -0.05  -0.02     0.03  -0.16  -0.10     0.04  -0.22  -0.14
  28   1     0.04   0.03   0.07     0.17   0.02   0.11     0.24   0.03   0.17
  29   1    -0.07   0.06   0.02    -0.11   0.10   0.00    -0.16   0.15   0.02
  30   1    -0.04   0.02   0.03    -0.03  -0.01   0.00    -0.06  -0.02   0.00
  31   1    -0.03   0.02   0.02    -0.02   0.01  -0.02    -0.04   0.02  -0.04
  32   1    -0.08   0.04  -0.02    -0.03  -0.00  -0.03    -0.02   0.01  -0.03
  33   1    -0.00   0.01   0.03     0.01  -0.01   0.01     0.02  -0.01  -0.00
  34   1     0.06   0.13   0.01     0.03   0.09   0.02     0.02   0.12   0.04
  35   1     0.03   0.12  -0.12     0.02   0.08  -0.07     0.01   0.10  -0.06
  36   1     0.02   0.08   0.01    -0.02  -0.02   0.04    -0.03  -0.02   0.11
  37   1     0.02  -0.00  -0.04     0.04  -0.02   0.01     0.10  -0.01   0.07
  38   1     0.10  -0.01   0.06    -0.06   0.02  -0.01     0.00   0.04   0.02
  39   1     0.08  -0.03  -0.02    -0.05   0.02   0.06     0.01   0.05   0.02
  40   1     0.00   0.02   0.01     0.05  -0.00  -0.07     0.01  -0.05  -0.00
  41   1     0.00  -0.01   0.00     0.06   0.01   0.01     0.01  -0.02   0.02
  42   1    -0.05  -0.01  -0.04    -0.02  -0.01   0.04     0.09  -0.01   0.07
  43   1     0.00  -0.06  -0.04    -0.00   0.02   0.01    -0.00   0.06   0.09
  44   1     0.01  -0.05  -0.02    -0.00   0.20   0.14    -0.02  -0.09  -0.06
  45   1     0.04  -0.05   0.03    -0.07   0.21  -0.10     0.00  -0.10   0.07
  46   1     0.01   0.01   0.05    -0.02  -0.10  -0.13     0.01   0.08   0.08
  47   1    -0.03   0.01   0.02     0.08  -0.10   0.07    -0.03   0.09  -0.07
  48   1    -0.04  -0.01   0.02     0.02   0.04  -0.03     0.01  -0.05   0.02
  49   1    -0.03  -0.01   0.02     0.02   0.03   0.02     0.00  -0.05  -0.05
  50   1     0.02  -0.01  -0.02     0.08   0.15  -0.15    -0.12  -0.16   0.19
  51   1     0.02  -0.00  -0.04    -0.11   0.08   0.21     0.11  -0.08  -0.20
  52   1    -0.03   0.01  -0.05     0.05  -0.24  -0.01    -0.03   0.27   0.06
  53   1     0.02  -0.04   0.00    -0.02  -0.05   0.00    -0.02  -0.01  -0.01
  54   1     0.05   0.03  -0.02    -0.00   0.02  -0.00    -0.03   0.01  -0.00
  55   1     0.06   0.05  -0.01     0.01   0.09  -0.01    -0.03   0.03  -0.01
  56   1     0.06  -0.02   0.01    -0.00  -0.00   0.00    -0.04   0.00  -0.02
  57   1    -0.03   0.03  -0.01     0.00  -0.01   0.01     0.01   0.02  -0.01
  58   1    -0.00   0.01  -0.05     0.01   0.08   0.00    -0.00   0.02  -0.01
  59   1     0.05  -0.02  -0.03    -0.01  -0.03   0.01    -0.02  -0.01  -0.01
                     22                     23                     24
                        a                      a                      a 
 Frequencies --   238.3190               242.7871               267.9807
 Red. masses --     6.1255                 9.5645                 9.2487
 Frc consts  --     0.0000                 0.0000                 0.0000
 IR Inten    --     0.0582                 0.3113                 0.1980
 Raman Activ --     0.0000                 0.0000                 0.0000
 Depolar     --     0.0000                 0.0000                 0.0000
 Atom AN      X      Y      Z        X      Y      Z        X      Y      Z
   1   6    -0.04   0.02  -0.01     0.11  -0.07  -0.07     0.02  -0.01  -0.04
   2   6     0.04   0.01   0.03     0.02  -0.04  -0.10     0.06  -0.00  -0.01
   3   6    -0.01  -0.02   0.02     0.06  -0.06  -0.01     0.01  -0.05   0.01
   4   6    -0.01  -0.08  -0.04    -0.00  -0.02   0.10    -0.02  -0.10   0.02
   5   6    -0.03  -0.00  -0.13    -0.05  -0.02   0.08     0.04   0.20  -0.14
   6   6    -0.01  -0.05  -0.02    -0.29   0.10   0.04     0.09   0.15  -0.05
   7   6     0.01  -0.02   0.02     0.04   0.01   0.00     0.02   0.16  -0.02
   8   6    -0.01   0.06  -0.08     0.13   0.05  -0.07    -0.14   0.18   0.02
   9   6    -0.04   0.11  -0.03    -0.12  -0.05  -0.19     0.02   0.25   0.11
  10   6    -0.04   0.39   0.02     0.02   0.06   0.03     0.01  -0.14   0.01
  11   6     0.03   0.12  -0.04    -0.05  -0.04   0.20    -0.02  -0.01   0.03
  12   6     0.10  -0.21  -0.06    -0.10  -0.12   0.13    -0.04   0.04   0.02
  13   6     0.05   0.05   0.01    -0.01   0.02  -0.11    -0.03  -0.01  -0.00
  14   6     0.00  -0.12   0.03     0.10   0.19  -0.02     0.03   0.07  -0.02
  15   6     0.00  -0.14   0.04     0.11   0.22   0.03     0.02  -0.00   0.01
  16   6     0.04   0.01   0.02     0.06  -0.08   0.07    -0.01  -0.14   0.03
  17   6     0.06   0.10   0.02     0.04  -0.16   0.07     0.01   0.08   0.02
  18   6     0.03  -0.07   0.03     0.07   0.14   0.01     0.01   0.09  -0.00
  19   6     0.01  -0.15   0.04     0.09   0.16  -0.01    -0.01  -0.14  -0.00
  20   6     0.02  -0.07   0.05     0.04  -0.11   0.01    -0.04  -0.40   0.02
  21   6     0.01   0.02   0.03     0.00  -0.14  -0.02    -0.01  -0.15   0.00
  22   6     0.01   0.03   0.04     0.03   0.11  -0.07     0.04   0.31  -0.03
  23   6    -0.02  -0.06   0.04     0.02   0.14  -0.07    -0.00  -0.07  -0.00
  24  35    -0.09   0.01  -0.04    -0.13  -0.01   0.01    -0.01   0.00  -0.00
  25   6    -0.00  -0.04   0.06     0.03  -0.06  -0.02    -0.02  -0.28   0.01
  26   6     0.01  -0.03   0.04     0.02  -0.14   0.02    -0.01  -0.14   0.01
  27   1    -0.02   0.09   0.06     0.04  -0.12  -0.09     0.00   0.02   0.01
  28   1    -0.11  -0.02  -0.07     0.13  -0.00   0.06    -0.03  -0.01  -0.03
  29   1     0.07  -0.06  -0.01    -0.05   0.05  -0.02     0.03  -0.02  -0.02
  30   1     0.03   0.02   0.01    -0.01  -0.03  -0.03     0.03   0.01  -0.01
  31   1     0.02  -0.01   0.02    -0.00   0.00  -0.04     0.03  -0.01   0.00
  32   1    -0.01  -0.01   0.00     0.04  -0.03  -0.00     0.01  -0.02   0.00
  33   1    -0.02   0.00   0.01     0.02  -0.02  -0.00    -0.01  -0.01   0.00
  34   1     0.00  -0.04  -0.02    -0.01  -0.01   0.02    -0.01  -0.10  -0.05
  35   1     0.00  -0.03   0.01    -0.01  -0.01   0.04    -0.04  -0.05   0.08
  36   1     0.01   0.02  -0.07    -0.02  -0.05   0.01     0.05   0.10  -0.09
  37   1    -0.05   0.00  -0.05     0.00   0.00   0.04    -0.07   0.08  -0.05
  38   1    -0.01  -0.02  -0.01    -0.17   0.05  -0.08     0.04   0.02   0.00
  39   1    -0.01  -0.03  -0.00    -0.14   0.05   0.12     0.03   0.03  -0.03
  40   1    -0.00   0.02  -0.02     0.07   0.05  -0.07    -0.07   0.05   0.06
  41   1    -0.00   0.02  -0.02     0.08   0.01   0.02    -0.08   0.03  -0.04
  42   1    -0.05   0.01   0.01    -0.14   0.01  -0.09     0.10   0.07   0.04
  43   1    -0.00   0.02  -0.03    -0.00  -0.10  -0.11    -0.01   0.15   0.07
  44   1    -0.01   0.16   0.10     0.03   0.04   0.03     0.03  -0.09  -0.09
  45   1    -0.03   0.18  -0.07     0.03   0.04  -0.01    -0.01  -0.12   0.09
  46   1    -0.05   0.03   0.01    -0.03  -0.02   0.06     0.01   0.01   0.02
  47   1     0.07   0.06  -0.03    -0.01  -0.01   0.05    -0.03   0.01  -0.00
  48   1     0.05  -0.12   0.04    -0.04  -0.06   0.06    -0.02   0.02  -0.00
  49   1     0.03  -0.10  -0.09    -0.06  -0.05   0.02    -0.01   0.02   0.02
  50   1    -0.14  -0.20   0.24    -0.01  -0.04   0.02     0.01   0.01  -0.02
  51   1     0.20  -0.08  -0.27     0.09  -0.01  -0.11    -0.03   0.00   0.02
  52   1    -0.03   0.39   0.06    -0.06   0.11  -0.06    -0.01  -0.03  -0.01
  53   1    -0.00  -0.05   0.01     0.05   0.09   0.01     0.01   0.01   0.00
  54   1     0.01   0.02   0.00     0.01  -0.07   0.02    -0.01  -0.08   0.01
  55   1     0.02   0.08   0.00    -0.00  -0.11   0.03     0.01   0.07   0.00
  56   1     0.01  -0.02   0.01     0.02   0.06  -0.00     0.01   0.08  -0.01
  57   1     0.00   0.03   0.01    -0.01  -0.07  -0.00     0.00  -0.01  -0.00
  58   1     0.01   0.03   0.01     0.01   0.06  -0.02     0.03   0.23  -0.02
  59   1     0.00  -0.01   0.02     0.02  -0.03  -0.01    -0.00  -0.07   0.00
                     25                     26                     27
                        a                      a                      a 
 Frequencies --   277.4824               296.7280               299.1272
 Red. masses --    11.5084                17.7159                 6.7988
 Frc consts  --     0.0000                 0.0000                 0.0000
 IR Inten    --     0.1524                 0.1798                 0.4026
 Raman Activ --     0.0000                 0.0000                 0.0000
 Depolar     --     0.0000                 0.0000                 0.0000
 Atom AN      X      Y      Z        X      Y      Z        X      Y      Z
   1   6     0.05  -0.03  -0.04     0.08  -0.07  -0.09    -0.10   0.14   0.10
   2   6    -0.02  -0.02  -0.07     0.12   0.03  -0.00    -0.29  -0.12  -0.13
   3   6     0.05  -0.02   0.02    -0.07  -0.09  -0.01     0.30   0.14   0.10
   4   6     0.01  -0.02   0.09    -0.06  -0.01   0.01     0.13  -0.18   0.17
   5   6    -0.10  -0.09   0.05    -0.07   0.01   0.00    -0.02   0.05  -0.21
   6   6    -0.34   0.05  -0.02    -0.17   0.03   0.09    -0.01  -0.04  -0.06
   7   6     0.01  -0.00  -0.04    -0.00   0.04   0.12     0.01   0.02   0.04
   8   6    -0.32   0.02   0.01    -0.04   0.09   0.08     0.03   0.01   0.03
   9   6     0.04   0.13   0.13    -0.02   0.05  -0.01    -0.01  -0.02  -0.03
  10   6    -0.01  -0.06   0.00     0.00  -0.01  -0.01     0.00   0.01  -0.01
  11   6     0.04   0.04  -0.10     0.01   0.00  -0.01     0.00  -0.01  -0.00
  12   6     0.06   0.06  -0.08     0.01   0.01  -0.01     0.00  -0.00   0.00
  13   6     0.01  -0.00   0.04     0.01   0.00   0.00     0.01   0.00  -0.00
  14   6     0.13  -0.09  -0.10    -0.08   0.00   0.15    -0.04  -0.00   0.06
  15   6     0.17  -0.14   0.08    -0.13  -0.08   0.01    -0.06  -0.06   0.01
  16   6     0.12   0.03   0.17    -0.01   0.01  -0.10    -0.01  -0.00  -0.04
  17   6     0.07   0.07   0.15     0.08   0.05  -0.08     0.03   0.05  -0.04
  18   6     0.02  -0.09   0.01     0.08  -0.07   0.07     0.03  -0.05   0.03
  19   6     0.12  -0.08  -0.08    -0.06  -0.03   0.18    -0.03  -0.04   0.07
  20   6     0.14   0.07  -0.05    -0.07   0.05   0.12    -0.03   0.02   0.05
  21   6     0.13   0.07  -0.07    -0.23   0.06  -0.04    -0.07   0.06   0.01
  22   6     0.10  -0.10  -0.06    -0.16  -0.04  -0.33    -0.06  -0.03  -0.06
  23   6     0.02  -0.04  -0.04     0.04  -0.05  -0.38    -0.00  -0.06  -0.08
  24  35    -0.20   0.02  -0.04     0.26  -0.01   0.21     0.07  -0.00   0.05
  25   6     0.07   0.10  -0.01     0.11   0.01  -0.27     0.02   0.04  -0.05
  26   6     0.07   0.08   0.01     0.04   0.05   0.06     0.01   0.04   0.02
  27   1     0.02  -0.06  -0.05     0.02   0.01  -0.00    -0.01  -0.07  -0.06
  28   1     0.07   0.00   0.03    -0.04  -0.06  -0.04     0.15   0.12   0.10
  29   1    -0.03   0.03  -0.00     0.08  -0.06  -0.06    -0.18   0.14   0.11
  30   1    -0.02  -0.04  -0.03     0.05   0.06   0.02    -0.13  -0.21  -0.10
  31   1    -0.03   0.01  -0.03     0.07  -0.03   0.02    -0.20   0.10  -0.11
  32   1     0.03  -0.01   0.01    -0.04  -0.07  -0.03     0.18   0.15   0.11
  33   1     0.02  -0.01   0.00    -0.05  -0.02   0.06     0.15   0.05  -0.15
  34   1    -0.01   0.01   0.03    -0.00   0.00   0.01     0.00  -0.14  -0.04
  35   1     0.02  -0.01   0.02    -0.03   0.01  -0.01     0.05  -0.12   0.16
  36   1    -0.04  -0.09   0.01    -0.01   0.00  -0.01     0.07   0.06  -0.17
  37   1     0.00  -0.02   0.03    -0.03   0.00  -0.01    -0.14   0.04  -0.09
  38   1    -0.19   0.04  -0.11    -0.10   0.01  -0.03    -0.01  -0.02  -0.02
  39   1    -0.16   0.04   0.12    -0.08   0.01   0.09    -0.01  -0.04  -0.02
  40   1    -0.16  -0.00   0.13    -0.02   0.04   0.04     0.02   0.01  -0.00
  41   1    -0.19   0.00  -0.10    -0.02   0.04   0.01     0.02   0.01   0.02
  42   1     0.11   0.01   0.07    -0.01   0.03  -0.02    -0.03   0.00  -0.02
  43   1    -0.01   0.14   0.07    -0.00   0.00  -0.01     0.00  -0.03  -0.02
  44   1    -0.01  -0.04  -0.03     0.00  -0.01  -0.01    -0.00   0.01   0.00
  45   1    -0.02  -0.05   0.03     0.00  -0.01   0.01     0.00   0.01  -0.01
  46   1     0.02   0.02  -0.02     0.00   0.00  -0.00    -0.00  -0.00  -0.00
  47   1     0.01   0.02  -0.04    -0.00   0.00  -0.00     0.00  -0.00   0.00
  48   1     0.03   0.03  -0.03     0.00   0.00  -0.00     0.00  -0.00   0.00
  49   1     0.03   0.03  -0.01     0.00   0.00  -0.00     0.00  -0.00   0.00
  50   1    -0.00   0.01   0.01     0.00   0.00   0.00     0.00   0.00  -0.00
  51   1    -0.03  -0.00   0.03     0.00  -0.00   0.00     0.00   0.00  -0.00
  52   1     0.03  -0.02   0.03     0.00  -0.00   0.00     0.00   0.00  -0.00
  53   1     0.09  -0.06   0.04    -0.08  -0.03  -0.01    -0.04  -0.03  -0.00
  54   1     0.04   0.03   0.06    -0.01   0.01  -0.06    -0.00   0.00  -0.02
  55   1     0.01   0.05   0.06     0.04   0.04  -0.04     0.02   0.03  -0.02
  56   1    -0.03  -0.04  -0.01     0.06  -0.04   0.04     0.02  -0.02   0.01
  57   1     0.03   0.03  -0.02    -0.13   0.03   0.01    -0.03   0.04   0.01
  58   1     0.04  -0.06  -0.00    -0.09  -0.02  -0.14    -0.03  -0.01  -0.03
  59   1     0.03   0.04  -0.01     0.09  -0.00  -0.10     0.02   0.02  -0.02
                     28                     29                     30
                        a                      a                      a 
 Frequencies --   307.8911               342.8053               359.3208
 Red. masses --     9.2765                 9.3592                 7.7083
 Frc consts  --     0.0000                 0.0000                 0.0000
 IR Inten    --     0.0960                 0.9374                 0.8606
 Raman Activ --     0.0000                 0.0000                 0.0000
 Depolar     --     0.0000                 0.0000                 0.0000
 Atom AN      X      Y      Z        X      Y      Z        X      Y      Z
   1   6     0.09  -0.07  -0.10     0.00  -0.00  -0.00     0.20  -0.15  -0.24
   2   6     0.09   0.02  -0.04     0.00   0.00   0.00     0.01   0.21  -0.13
   3   6    -0.03  -0.08   0.03    -0.02  -0.01  -0.00    -0.01  -0.03   0.24
   4   6    -0.06  -0.06   0.09    -0.00   0.01  -0.01    -0.01   0.11   0.30
   5   6    -0.04   0.16  -0.05    -0.01  -0.03   0.02    -0.24   0.26  -0.08
   6   6    -0.11   0.19  -0.04    -0.02  -0.01   0.00     0.10  -0.02   0.11
   7   6     0.03   0.14  -0.04     0.00   0.00   0.00    -0.00  -0.11   0.01
   8   6     0.37   0.07  -0.00     0.02  -0.02   0.01    -0.09  -0.13   0.01
   9   6     0.04   0.00  -0.02    -0.01  -0.04  -0.01    -0.02  -0.14   0.02
  10   6     0.03  -0.14  -0.01    -0.00   0.01   0.00    -0.02   0.03   0.05
  11   6    -0.06  -0.08   0.13     0.00  -0.03  -0.00     0.04   0.03  -0.05
  12   6    -0.12  -0.04   0.11     0.01  -0.00   0.00     0.04   0.02  -0.07
  13   6    -0.07  -0.01  -0.04     0.01   0.00  -0.00     0.01  -0.00   0.02
  14   6     0.00  -0.02  -0.03    -0.01  -0.07   0.00    -0.00  -0.10  -0.01
  15   6    -0.03  -0.30   0.00     0.05   0.32  -0.02     0.02   0.05  -0.03
  16   6    -0.01   0.02   0.00    -0.04  -0.25   0.02    -0.01   0.02  -0.00
  17   6    -0.00   0.23  -0.02     0.00   0.02  -0.00    -0.04  -0.07  -0.01
  18   6    -0.07  -0.21  -0.01     0.03   0.20  -0.02    -0.02   0.06  -0.02
  19   6    -0.03  -0.16  -0.04    -0.05  -0.32   0.02     0.00   0.02  -0.04
  20   6     0.01   0.05  -0.05    -0.04  -0.26   0.01     0.01   0.04  -0.04
  21   6     0.07   0.10   0.01     0.03   0.27  -0.02     0.03   0.01  -0.01
  22   6     0.03  -0.07   0.11    -0.01  -0.11   0.00     0.02  -0.05   0.02
  23   6    -0.02  -0.04   0.12    -0.03  -0.33   0.02     0.00   0.06   0.02
  24  35    -0.06   0.01  -0.06     0.00   0.02   0.00    -0.01  -0.00  -0.01
  25   6    -0.02   0.16   0.07     0.05   0.39  -0.02    -0.01  -0.00  -0.00
  26   6     0.00   0.13  -0.04    -0.00  -0.01  -0.00    -0.02  -0.07  -0.02
  27   1     0.03  -0.01  -0.03     0.00   0.00   0.00     0.10  -0.09  -0.14
  28   1    -0.00  -0.04  -0.02    -0.00  -0.00  -0.00     0.04  -0.13   0.04
  29   1     0.05  -0.03  -0.05     0.01  -0.00  -0.00     0.08  -0.04  -0.13
  30   1     0.03   0.03  -0.01     0.00   0.01   0.00    -0.00   0.02  -0.05
  31   1     0.04  -0.01  -0.00     0.00  -0.00   0.00    -0.02   0.08  -0.04
  32   1    -0.00  -0.07  -0.01    -0.01  -0.01  -0.01     0.00  -0.13   0.01
  33   1    -0.03  -0.02   0.04    -0.01  -0.00   0.01    -0.01  -0.03   0.17
  34   1    -0.01  -0.06  -0.01     0.00   0.01   0.01     0.05   0.02   0.09
  35   1    -0.05  -0.02   0.07     0.00   0.01  -0.02     0.01   0.04   0.06
  36   1     0.01   0.05  -0.05    -0.01  -0.02   0.02     0.05   0.20  -0.17
  37   1    -0.06   0.07  -0.01     0.01  -0.01   0.01    -0.28   0.08  -0.09
  38   1    -0.07   0.07  -0.06    -0.01   0.00  -0.01     0.12   0.02   0.10
  39   1    -0.06   0.06   0.05    -0.01  -0.00   0.01     0.07  -0.07  -0.06
  40   1     0.18   0.01  -0.14     0.01  -0.01  -0.01    -0.05  -0.04   0.04
  41   1     0.22   0.01   0.12     0.02  -0.00   0.01    -0.06  -0.04  -0.03
  42   1     0.00   0.02  -0.03    -0.02  -0.01  -0.01    -0.04  -0.05   0.01
  43   1     0.00  -0.05   0.01     0.00  -0.02  -0.01     0.01  -0.05  -0.02
  44   1     0.03  -0.06  -0.05    -0.00   0.01   0.02    -0.03   0.02   0.05
  45   1     0.02  -0.08   0.03    -0.01   0.01  -0.01    -0.00   0.04  -0.02
  46   1     0.00  -0.02   0.04     0.00  -0.01  -0.01     0.01   0.01  -0.01
  47   1    -0.04  -0.02   0.03     0.00  -0.01   0.01     0.03   0.01  -0.01
  48   1    -0.05  -0.01   0.03     0.00   0.00  -0.00     0.02   0.00  -0.02
  49   1    -0.05  -0.01   0.04    -0.00   0.00   0.01     0.02   0.00  -0.02
  50   1     0.00   0.01  -0.02     0.00   0.00  -0.00    -0.01  -0.00   0.01
  51   1    -0.00   0.00  -0.01     0.00   0.00   0.00    -0.01  -0.00   0.01
  52   1    -0.04  -0.01  -0.04     0.00  -0.00  -0.00     0.02   0.00   0.02
  53   1    -0.01  -0.13   0.01     0.03   0.22  -0.02     0.01   0.03  -0.01
  54   1     0.00   0.03   0.01    -0.02  -0.16   0.01     0.00   0.01   0.00
  55   1     0.01   0.15  -0.01     0.01   0.06  -0.00    -0.02  -0.04   0.00
  56   1    -0.03  -0.10  -0.00     0.03   0.20  -0.01    -0.01   0.03  -0.01
  57   1     0.05   0.05  -0.01     0.03   0.24  -0.02     0.01  -0.01  -0.01
  58   1     0.02  -0.04   0.05     0.00   0.01  -0.00     0.01  -0.04   0.01
  59   1    -0.02   0.06   0.03     0.03   0.24  -0.01    -0.01  -0.01   0.00
                     31                     32                     33
                        a                      a                      a 
 Frequencies --   396.5039               400.4735               404.3648
 Red. masses --     8.1857                 9.4229                 9.3599
 Frc consts  --     0.0000                 0.0000                 0.0000
 IR Inten    --     0.1585                 0.3609                 0.2810
 Raman Activ --     0.0000                 0.0000                 0.0000
 Depolar     --     0.0000                 0.0000                 0.0000
 Atom AN      X      Y      Z        X      Y      Z        X      Y      Z
   1   6    -0.01   0.00   0.01    -0.01   0.01   0.02     0.00   0.00  -0.00
   2   6     0.01  -0.01   0.01     0.01  -0.03   0.01     0.00  -0.00  -0.00
   3   6    -0.01  -0.01  -0.01     0.01  -0.00  -0.03     0.00  -0.00   0.00
   4   6    -0.01   0.00  -0.01    -0.00  -0.02  -0.02     0.01   0.00  -0.00
   5   6     0.04   0.02   0.03     0.02   0.03  -0.02    -0.03  -0.02  -0.02
   6   6    -0.01   0.07  -0.06    -0.02   0.02   0.03     0.02  -0.06   0.05
   7   6     0.02   0.11   0.00     0.00  -0.02  -0.00    -0.01  -0.10  -0.01
   8   6    -0.05  -0.04   0.20     0.02   0.04  -0.09     0.01   0.04  -0.21
   9   6    -0.12  -0.24  -0.05     0.14   0.06  -0.06     0.26   0.17  -0.07
  10   6     0.13  -0.01   0.29     0.23   0.03   0.11     0.23   0.07  -0.02
  11   6     0.25   0.04  -0.04     0.16   0.03   0.11     0.07  -0.01   0.15
  12   6     0.01   0.04  -0.32    -0.17  -0.00  -0.17    -0.22  -0.03  -0.04
  13   6    -0.20  -0.04   0.09    -0.33  -0.05   0.04    -0.32  -0.04   0.01
  14   6     0.04   0.21  -0.03    -0.03  -0.20   0.02    -0.02  -0.02   0.02
  15   6    -0.00  -0.10  -0.01     0.03   0.20  -0.01    -0.03  -0.14   0.03
  16   6    -0.01   0.02  -0.00    -0.02  -0.17   0.01     0.04   0.20  -0.01
  17   6    -0.02   0.07  -0.01     0.02   0.06  -0.00     0.00  -0.18   0.02
  18   6    -0.04  -0.07  -0.01     0.01   0.04  -0.00     0.04   0.05   0.01
  19   6     0.02   0.10  -0.04    -0.05  -0.31   0.03     0.04   0.28   0.01
  20   6    -0.02  -0.16  -0.01     0.03   0.29  -0.01    -0.04  -0.19   0.03
  21   6     0.01  -0.08  -0.00    -0.01   0.02   0.00    -0.02   0.09   0.01
  22   6     0.04   0.13  -0.01    -0.02  -0.09   0.01    -0.04  -0.04   0.01
  23   6    -0.02  -0.20   0.01     0.02   0.27  -0.02    -0.02  -0.11   0.01
  24  35    -0.01   0.01  -0.01     0.00  -0.01   0.00     0.01   0.00   0.01
  25   6     0.00   0.05  -0.01    -0.03  -0.22   0.02     0.03   0.23  -0.00
  26   6     0.01   0.10  -0.01     0.01   0.07  -0.00    -0.03  -0.24   0.02
  27   1    -0.00   0.00   0.01    -0.01   0.01   0.01     0.00   0.00  -0.00
  28   1    -0.00   0.00  -0.00    -0.00   0.01  -0.01    -0.00   0.00  -0.00
  29   1    -0.00   0.00   0.00    -0.01   0.00   0.01     0.00  -0.00   0.00
  30   1     0.00   0.00   0.00     0.00  -0.00   0.00     0.00  -0.00  -0.00
  31   1     0.01  -0.01   0.00     0.01  -0.01   0.00    -0.00   0.00  -0.00
  32   1    -0.00  -0.00  -0.00     0.01   0.01   0.00     0.00  -0.00   0.00
  33   1    -0.00  -0.00  -0.00     0.00   0.00  -0.02     0.00  -0.00   0.00
  34   1    -0.01  -0.00  -0.01    -0.01  -0.02  -0.02     0.01   0.01   0.01
  35   1    -0.01   0.00   0.01    -0.01  -0.01   0.01     0.01   0.00  -0.01
  36   1    -0.01  -0.02   0.03     0.01   0.02  -0.01     0.01   0.02  -0.02
  37   1     0.05   0.02   0.03    -0.01   0.00  -0.01    -0.03  -0.02  -0.02
  38   1    -0.02   0.02  -0.03    -0.03   0.01  -0.02     0.03  -0.02   0.03
  39   1    -0.01   0.04  -0.00    -0.02   0.01   0.04     0.02  -0.03  -0.01
  40   1    -0.02   0.01   0.08     0.00  -0.00  -0.02    -0.02  -0.01  -0.02
  41   1    -0.04  -0.02   0.03     0.00   0.03  -0.03    -0.03   0.04  -0.09
  42   1    -0.26  -0.01  -0.09     0.03   0.01  -0.01     0.16   0.01   0.03
  43   1     0.05  -0.23  -0.17     0.06   0.03  -0.05     0.05   0.15   0.02
  44   1     0.01   0.01   0.12     0.09   0.00   0.02     0.11   0.02  -0.02
  45   1     0.06   0.03   0.04     0.09   0.00   0.04     0.08   0.02  -0.00
  46   1     0.13   0.02  -0.03     0.08   0.01   0.02     0.03  -0.01   0.03
  47   1     0.14   0.02  -0.02     0.08   0.02   0.02     0.03  -0.00   0.04
  48   1     0.01   0.01  -0.09    -0.07  -0.01  -0.04    -0.09  -0.01  -0.01
  49   1     0.01   0.01  -0.09    -0.06  -0.00  -0.04    -0.09  -0.01  -0.01
  50   1    -0.14  -0.02   0.04    -0.16  -0.03   0.03    -0.12  -0.02   0.01
  51   1    -0.14  -0.02   0.05    -0.16  -0.02   0.03    -0.12  -0.02   0.01
  52   1     0.05  -0.02   0.14    -0.02  -0.02   0.09    -0.05  -0.01   0.04
  53   1    -0.01  -0.08   0.00     0.02   0.17  -0.01    -0.02  -0.11   0.01
  54   1    -0.00  -0.00   0.01    -0.01  -0.09   0.00     0.02   0.13  -0.02
  55   1    -0.01   0.02  -0.00     0.02   0.09  -0.01    -0.01  -0.14   0.01
  56   1    -0.02  -0.08  -0.00     0.02   0.12  -0.01     0.01  -0.05   0.01
  57   1     0.01   0.02  -0.01    -0.02  -0.11   0.01     0.00   0.12  -0.00
  58   1     0.02   0.12  -0.01    -0.02  -0.13   0.01    -0.01   0.02  -0.00
  59   1     0.00   0.05  -0.00    -0.02  -0.16   0.01     0.02   0.15  -0.01
                     34                     35                     36
                        a                      a                      a 
 Frequencies --   431.0790               459.1248               466.1871
 Red. masses --     8.7440                13.7542                 7.9987
 Frc consts  --     0.0000                 0.0000                 0.0000
 IR Inten    --     0.2090                 0.2896                 0.4231
 Raman Activ --     0.0000                 0.0000                 0.0000
 Depolar     --     0.0000                 0.0000                 0.0000
 Atom AN      X      Y      Z        X      Y      Z        X      Y      Z
   1   6     0.06  -0.05  -0.09    -0.00   0.00   0.01    -0.02   0.02   0.04
   2   6    -0.11   0.20  -0.04     0.01  -0.02   0.00     0.08  -0.12   0.01
   3   6    -0.02   0.06   0.20     0.01  -0.00  -0.01     0.03  -0.04  -0.11
   4   6     0.05   0.02   0.09    -0.00   0.01   0.00    -0.03   0.05   0.01
   5   6    -0.19  -0.33   0.05    -0.03  -0.02   0.00     0.04   0.18   0.02
   6   6     0.03  -0.22  -0.28     0.00  -0.04   0.04    -0.01   0.11   0.08
   7   6    -0.01   0.07  -0.04    -0.03   0.00   0.06     0.05  -0.02  -0.01
   8   6     0.03   0.05  -0.01     0.01   0.02   0.04    -0.07  -0.22   0.11
   9   6     0.14   0.06  -0.07     0.06   0.01  -0.02     0.37  -0.32  -0.05
  10   6     0.08   0.05  -0.11     0.02   0.02  -0.04     0.06   0.12  -0.24
  11   6    -0.04  -0.00   0.06    -0.01   0.00   0.02    -0.13   0.03   0.03
  12   6    -0.08  -0.02   0.06    -0.03  -0.01   0.02    -0.10  -0.03   0.13
  13   6    -0.08  -0.01  -0.02    -0.02  -0.00  -0.01    -0.05  -0.00  -0.04
  14   6     0.01   0.22   0.01    -0.12   0.03   0.02     0.05   0.16  -0.02
  15   6    -0.01   0.04   0.04    -0.24   0.03  -0.19     0.04   0.04  -0.01
  16   6     0.01  -0.12   0.02    -0.39   0.04  -0.09     0.01  -0.11  -0.00
  17   6     0.08   0.16   0.01    -0.20   0.04   0.01    -0.00   0.15  -0.04
  18   6     0.04  -0.12   0.02    -0.11   0.02   0.26    -0.04  -0.11  -0.02
  19   6    -0.01  -0.05   0.04     0.10  -0.01   0.10    -0.02   0.02  -0.02
  20   6    -0.01   0.02   0.02     0.19  -0.02   0.06    -0.02   0.02   0.01
  21   6    -0.05  -0.11   0.02     0.35  -0.06   0.06    -0.05  -0.04   0.01
  22   6    -0.02   0.14   0.00     0.40  -0.03  -0.12    -0.04   0.06   0.02
  23   6    -0.02  -0.13   0.01     0.19  -0.05  -0.11    -0.02  -0.06   0.02
  24  35     0.01   0.00   0.01    -0.19   0.01  -0.05     0.01   0.00   0.00
  25   6    -0.01  -0.05   0.02     0.17  -0.02  -0.08     0.00   0.00   0.02
  26   6     0.03   0.23  -0.02     0.12   0.01   0.10     0.02   0.07  -0.01
  27   1     0.06  -0.05  -0.09    -0.00   0.00   0.01    -0.03   0.02   0.05
  28   1     0.01  -0.08   0.06     0.00   0.01  -0.00     0.00   0.04  -0.03
  29   1     0.04  -0.02  -0.06    -0.01   0.00   0.01    -0.02   0.01   0.03
  30   1    -0.05  -0.01  -0.04     0.00  -0.00   0.00     0.03   0.01   0.02
  31   1    -0.08   0.10  -0.03     0.01  -0.01   0.00     0.05  -0.06   0.02
  32   1    -0.02  -0.06   0.02     0.01   0.01   0.00     0.02   0.03  -0.01
  33   1    -0.01   0.00   0.12     0.01  -0.00  -0.01     0.02  -0.01  -0.07
  34   1     0.04   0.09   0.11    -0.00   0.01   0.01    -0.02  -0.01  -0.02
  35   1     0.11   0.01  -0.09     0.01   0.00  -0.01    -0.05   0.02   0.04
  36   1    -0.10  -0.18   0.06    -0.00   0.01  -0.01     0.04   0.09  -0.02
  37   1     0.05  -0.07   0.07    -0.02  -0.01  -0.01    -0.04   0.05  -0.01
  38   1     0.12  -0.05   0.02     0.01  -0.02   0.03    -0.03   0.05  -0.01
  39   1     0.06  -0.11  -0.19     0.01  -0.02  -0.01    -0.02   0.05   0.06
  40   1    -0.00   0.00   0.02     0.00  -0.00   0.02    -0.13  -0.12   0.23
  41   1    -0.01   0.04  -0.02    -0.00   0.03   0.01    -0.18   0.01  -0.13
  42   1     0.08   0.02  -0.02     0.03   0.01  -0.01     0.15  -0.09  -0.01
  43   1     0.02   0.04   0.01     0.01   0.00   0.00     0.07  -0.06   0.04
  44   1     0.03   0.02  -0.02     0.01   0.01  -0.00    -0.05   0.11   0.09
  45   1     0.03   0.02  -0.04     0.01   0.02  -0.02     0.05   0.15  -0.19
  46   1    -0.03  -0.01   0.02    -0.01  -0.00   0.01    -0.10  -0.00   0.02
  47   1    -0.02  -0.00   0.02    -0.01  -0.00   0.01    -0.07   0.00   0.01
  48   1    -0.04  -0.01   0.02    -0.01  -0.00   0.01    -0.04  -0.02   0.05
  49   1    -0.03  -0.01   0.01    -0.01  -0.00   0.00    -0.04  -0.02   0.02
  50   1    -0.01  -0.00  -0.01    -0.00  -0.00  -0.00     0.01  -0.00  -0.01
  51   1    -0.01  -0.00  -0.01    -0.00   0.00  -0.00     0.01  -0.00  -0.02
  52   1    -0.03  -0.00  -0.02    -0.01   0.00  -0.01    -0.05   0.00  -0.05
  53   1    -0.01   0.00   0.01    -0.07   0.01  -0.05     0.00  -0.01  -0.00
  54   1    -0.01  -0.11  -0.00    -0.11   0.01  -0.01    -0.01  -0.11   0.01
  55   1     0.03   0.09  -0.00     0.00   0.00  -0.05    -0.00   0.07  -0.01
  56   1     0.01  -0.05   0.01    -0.04   0.01   0.07    -0.02  -0.07  -0.00
  57   1    -0.02  -0.04   0.01     0.08  -0.02   0.02    -0.01  -0.01   0.00
  58   1    -0.00   0.08  -0.00     0.11  -0.00  -0.04    -0.01   0.03   0.00
  59   1    -0.00  -0.04   0.01     0.10  -0.01  -0.04    -0.01  -0.01   0.01
                     37                     38                     39
                        a                      a                      a 
 Frequencies --   481.9492               487.4401               501.0482
 Red. masses --     9.1531                 8.6918                10.8804
 Frc consts  --     0.0000                 0.0000                 0.0000
 IR Inten    --     0.5530                 1.0568                 0.3071
 Raman Activ --     0.0000                 0.0000                 0.0000
 Depolar     --     0.0000                 0.0000                 0.0000
 Atom AN      X      Y      Z        X      Y      Z        X      Y      Z
   1   6    -0.01   0.02   0.04     0.01  -0.03  -0.06    -0.00   0.01   0.02
   2   6     0.11  -0.16   0.00    -0.18   0.28  -0.00     0.06  -0.08   0.00
   3   6     0.09  -0.04  -0.11    -0.14   0.06   0.18     0.03  -0.02  -0.05
   4   6    -0.03   0.10   0.07     0.06  -0.16  -0.13    -0.02   0.07   0.05
   5   6    -0.21  -0.03   0.05     0.36   0.01  -0.06    -0.05   0.09   0.02
   6   6     0.02  -0.11   0.06     0.05   0.11  -0.08    -0.02   0.12  -0.13
   7   6    -0.02  -0.02   0.05     0.02  -0.01  -0.08    -0.15   0.01  -0.17
   8   6    -0.02   0.08  -0.01    -0.05  -0.08  -0.04    -0.05  -0.13  -0.14
   9   6    -0.10   0.11  -0.00     0.01  -0.07   0.01    -0.02  -0.07   0.02
  10   6    -0.01  -0.01   0.06    -0.01   0.01   0.01    -0.02  -0.03   0.03
  11   6     0.03  -0.01  -0.01    -0.01   0.01  -0.01     0.01   0.00  -0.01
  12   6     0.02   0.01  -0.03     0.01   0.00  -0.00     0.01   0.01  -0.01
  13   6     0.01   0.00   0.01     0.01   0.00   0.00     0.01   0.00   0.00
  14   6     0.07   0.32  -0.03    -0.03   0.16   0.02    -0.25   0.04   0.12
  15   6     0.04   0.07  -0.02    -0.07   0.04   0.02    -0.27   0.06   0.25
  16   6    -0.01  -0.17   0.01    -0.06  -0.06  -0.00    -0.02   0.01   0.08
  17   6     0.03   0.27  -0.03     0.04   0.11   0.01     0.35  -0.04   0.17
  18   6    -0.05  -0.23  -0.01     0.02  -0.10   0.07     0.31  -0.03   0.17
  19   6     0.02   0.09  -0.04     0.01   0.06   0.07     0.03   0.00   0.20
  20   6    -0.01  -0.09  -0.02    -0.00  -0.09   0.03     0.02  -0.01  -0.15
  21   6     0.05   0.20  -0.03     0.02   0.18   0.00     0.13  -0.04  -0.17
  22   6    -0.01  -0.22  -0.00    -0.02  -0.20   0.02     0.12   0.00  -0.01
  23   6     0.01   0.25  -0.02     0.05   0.23  -0.01    -0.04  -0.01   0.03
  24  35     0.01  -0.01  -0.00    -0.02  -0.00  -0.00     0.04  -0.00  -0.02
  25   6    -0.03  -0.04  -0.02     0.03  -0.05   0.02    -0.19   0.03  -0.06
  26   6    -0.08  -0.32   0.03     0.01  -0.28   0.00    -0.13   0.02  -0.19
  27   1    -0.04   0.02   0.05     0.06  -0.03  -0.09    -0.02   0.01   0.03
  28   1     0.01   0.06  -0.04    -0.03  -0.10   0.08     0.01   0.03  -0.02
  29   1    -0.03   0.02   0.04     0.04  -0.03  -0.06    -0.01   0.01   0.02
  30   1     0.04  -0.00   0.02    -0.08   0.00  -0.03     0.02   0.00   0.01
  31   1     0.06  -0.07   0.02    -0.10   0.13  -0.02     0.03  -0.04   0.01
  32   1     0.06   0.04   0.00    -0.10  -0.06  -0.01     0.02   0.01  -0.00
  33   1     0.06  -0.02  -0.09    -0.09   0.03   0.16     0.03  -0.01  -0.04
  34   1    -0.01   0.10   0.07     0.02  -0.15  -0.12    -0.01   0.03   0.02
  35   1     0.02   0.06  -0.06    -0.02  -0.09   0.08    -0.01   0.03   0.00
  36   1    -0.03   0.03  -0.02     0.04  -0.04   0.06    -0.02   0.01  -0.00
  37   1    -0.11  -0.02  -0.01     0.19   0.00   0.02    -0.01   0.05   0.02
  38   1     0.11  -0.03   0.12    -0.07  -0.01  -0.09     0.02   0.05  -0.01
  39   1     0.06  -0.09  -0.11    -0.02   0.12   0.07     0.01   0.04  -0.07
  40   1     0.00   0.05  -0.01    -0.05  -0.02   0.05    -0.01  -0.07  -0.06
  41   1     0.00   0.01   0.00    -0.06  -0.04  -0.06     0.00  -0.04  -0.02
  42   1    -0.05   0.03  -0.00     0.00  -0.03   0.01     0.01  -0.05   0.03
  43   1    -0.02   0.03  -0.02     0.00  -0.01   0.00    -0.01   0.01   0.01
  44   1     0.02  -0.02  -0.03    -0.02   0.01   0.02    -0.01  -0.00   0.02
  45   1    -0.01  -0.04   0.05    -0.00   0.02  -0.01    -0.00   0.00   0.00
  46   1     0.02  -0.00  -0.01    -0.01   0.00  -0.00     0.01   0.01   0.00
  47   1     0.02  -0.00  -0.00    -0.00   0.00  -0.00     0.00   0.01  -0.01
  48   1     0.01   0.00  -0.01     0.00   0.00  -0.00     0.01   0.00  -0.00
  49   1     0.01   0.00  -0.01     0.00   0.00  -0.00     0.01   0.00  -0.00
  50   1    -0.00  -0.00   0.00     0.00   0.00   0.00     0.00  -0.00   0.00
  51   1    -0.00   0.00   0.01     0.00   0.00  -0.00     0.00  -0.00   0.00
  52   1     0.01  -0.00   0.01     0.00   0.00  -0.00     0.01  -0.00   0.00
  53   1     0.01  -0.05   0.00    -0.03  -0.02   0.00    -0.09   0.02   0.07
  54   1    -0.02  -0.21   0.02    -0.03  -0.09  -0.01    -0.03  -0.00  -0.09
  55   1     0.01   0.10  -0.00     0.03   0.03  -0.01     0.13  -0.01   0.02
  56   1    -0.03  -0.18   0.00     0.00  -0.09   0.03     0.11  -0.01   0.06
  57   1     0.02   0.11  -0.01     0.01   0.09  -0.00     0.07  -0.02  -0.06
  58   1    -0.00  -0.11   0.01    -0.01  -0.10   0.01     0.06   0.00   0.02
  59   1    -0.00   0.03  -0.01     0.01   0.02   0.00    -0.09   0.01  -0.01
                     40                     41                     42
                        a                      a                      a 
 Frequencies --   523.8380               548.5311               565.5191
 Red. masses --    10.5330                 9.5336                10.4129
 Frc consts  --     0.0000                 0.0000                 0.0000
 IR Inten    --     2.1259                 0.4177                 0.4276
 Raman Activ --     0.0000                 0.0000                 0.0000
 Depolar     --     0.0000                 0.0000                 0.0000
 Atom AN      X      Y      Z        X      Y      Z        X      Y      Z
   1   6     0.00   0.00   0.01    -0.01   0.00  -0.00     0.00  -0.00   0.00
   2   6     0.06  -0.08  -0.00    -0.03   0.05   0.01     0.02  -0.03  -0.00
   3   6     0.04  -0.02  -0.04    -0.04   0.01   0.00     0.01  -0.00  -0.02
   4   6    -0.03   0.08   0.07     0.01  -0.05  -0.05    -0.03   0.03   0.04
   5   6    -0.08   0.10   0.02     0.13   0.03  -0.01    -0.09  -0.03   0.02
   6   6     0.02   0.15  -0.29     0.02  -0.08   0.28     0.02  -0.02  -0.07
   7   6    -0.00  -0.02  -0.28    -0.03  -0.22   0.01     0.40  -0.06  -0.07
   8   6    -0.02  -0.19  -0.29    -0.04  -0.09  -0.28     0.02   0.00  -0.08
   9   6    -0.07  -0.06   0.02    -0.12   0.08  -0.00    -0.06   0.06   0.01
  10   6    -0.04  -0.04   0.08    -0.02  -0.04   0.07    -0.03  -0.01   0.05
  11   6     0.02  -0.00  -0.01     0.04  -0.01   0.01     0.01  -0.01  -0.01
  12   6     0.03   0.01  -0.03     0.02   0.01  -0.03     0.02   0.00  -0.02
  13   6     0.02   0.00   0.01     0.01   0.00   0.01     0.01   0.00   0.00
  14   6    -0.06  -0.00  -0.17    -0.00  -0.02   0.00     0.09   0.00   0.28
  15   6    -0.04   0.01  -0.04     0.03   0.18  -0.00     0.00  -0.00  -0.07
  16   6    -0.13   0.02   0.03    -0.02  -0.16   0.01    -0.00  -0.01  -0.16
  17   6    -0.00   0.01   0.08     0.04   0.23  -0.02    -0.14   0.01  -0.17
  18   6     0.01  -0.00   0.03    -0.03  -0.20   0.00    -0.06   0.03   0.24
  19   6     0.07  -0.01  -0.01     0.02   0.20  -0.02    -0.11   0.03   0.27
  20   6     0.07   0.01   0.26     0.03   0.24  -0.01    -0.10   0.01  -0.21
  21   6    -0.22   0.04   0.16    -0.03  -0.22   0.03    -0.06  -0.01  -0.18
  22   6    -0.20   0.02   0.01     0.03   0.23  -0.01    -0.12   0.03   0.18
  23   6     0.06  -0.01  -0.03    -0.02  -0.29   0.01     0.08  -0.01   0.15
  24  35    -0.04   0.01   0.03    -0.00   0.00  -0.00    -0.06   0.01  -0.00
  25   6     0.29  -0.02   0.18     0.02   0.20  -0.02     0.13  -0.00   0.09
  26   6     0.27  -0.03   0.16    -0.00   0.01  -0.00     0.21  -0.04  -0.27
  27   1    -0.02   0.01   0.02     0.01  -0.00  -0.01    -0.00   0.00   0.01
  28   1     0.01   0.03  -0.02    -0.01  -0.01   0.01     0.01   0.01  -0.01
  29   1    -0.01   0.01   0.02     0.01  -0.00  -0.01    -0.00   0.00   0.01
  30   1     0.02   0.00   0.01    -0.01   0.00   0.00     0.01   0.00   0.00
  31   1     0.03  -0.04   0.01    -0.02   0.02  -0.00     0.01  -0.01   0.00
  32   1     0.03   0.01   0.00    -0.03  -0.00  -0.01     0.02   0.01   0.01
  33   1     0.03  -0.01  -0.04    -0.03   0.01   0.02     0.01   0.00  -0.02
  34   1    -0.01   0.04   0.03    -0.00  -0.05  -0.05    -0.00   0.05   0.05
  35   1    -0.01   0.04  -0.00    -0.03  -0.02   0.04     0.01   0.02  -0.04
  36   1    -0.04  -0.02   0.02     0.08   0.10  -0.04    -0.02  -0.02  -0.00
  37   1     0.01   0.07   0.05    -0.05  -0.04  -0.07    -0.03   0.01   0.02
  38   1     0.05   0.08  -0.05    -0.06  -0.03   0.02    -0.07   0.07  -0.13
  39   1     0.03   0.04  -0.13    -0.02   0.02   0.14    -0.07  -0.05   0.11
  40   1     0.02  -0.07  -0.12     0.03   0.00  -0.15    -0.06   0.08   0.10
  41   1     0.03  -0.09  -0.04     0.05  -0.05  -0.01    -0.09  -0.06  -0.12
  42   1     0.01  -0.07   0.07     0.04  -0.04   0.07    -0.03   0.00   0.02
  43   1    -0.03   0.04   0.02    -0.04   0.13   0.02    -0.01   0.02  -0.00
  44   1    -0.01  -0.02   0.01     0.03  -0.03  -0.03     0.01  -0.02  -0.03
  45   1    -0.01  -0.02   0.03    -0.01  -0.04   0.06    -0.02  -0.04   0.05
  46   1     0.02   0.01   0.00     0.03   0.01   0.01     0.00  -0.00  -0.00
  47   1     0.01   0.00  -0.01     0.02   0.00  -0.00     0.01  -0.00  -0.00
  48   1     0.01   0.01  -0.01     0.01   0.01  -0.01     0.01   0.00  -0.01
  49   1     0.01   0.00  -0.00     0.01   0.00  -0.00     0.01   0.00  -0.00
  50   1     0.00   0.00   0.00    -0.01  -0.00   0.00     0.00   0.00   0.00
  51   1     0.00   0.00   0.00    -0.00  -0.00   0.01     0.00   0.00   0.00
  52   1     0.01  -0.00   0.01     0.01  -0.00   0.01     0.01   0.00   0.00
  53   1     0.03  -0.00   0.00    -0.00  -0.00   0.00    -0.08   0.01  -0.05
  54   1    -0.04   0.00   0.00    -0.03  -0.22   0.01     0.01   0.00  -0.01
  55   1     0.01  -0.00   0.01     0.01   0.05  -0.00    -0.00  -0.00  -0.08
  56   1    -0.03   0.00  -0.00    -0.02  -0.15   0.01     0.07  -0.00   0.10
  57   1    -0.12   0.02   0.07    -0.01  -0.11   0.01     0.07  -0.02  -0.08
  58   1    -0.09   0.01  -0.03     0.01   0.08  -0.01    -0.01   0.01   0.07
  59   1     0.13  -0.01   0.03     0.00   0.02  -0.00    -0.04   0.01   0.05
                     43                     44                     45
                        a                      a                      a 
 Frequencies --   586.4147               651.4242               676.5141
 Red. masses --    12.9008                10.5003                10.4313
 Frc consts  --     0.0000                 0.0000                 0.0000
 IR Inten    --     0.2747                 0.6661                 1.7663
 Raman Activ --     0.0000                 0.0000                 0.0000
 Depolar     --     0.0000                 0.0000                 0.0000
 Atom AN      X      Y      Z        X      Y      Z        X      Y      Z
   1   6     0.00   0.00   0.00    -0.00   0.00   0.00     0.00  -0.00  -0.00
   2   6     0.01  -0.02  -0.00    -0.01   0.01   0.00     0.01  -0.02  -0.00
   3   6     0.01  -0.00  -0.01    -0.02   0.00  -0.02     0.01  -0.00   0.01
   4   6    -0.01   0.02   0.02    -0.00  -0.01  -0.00    -0.01   0.02   0.02
   5   6    -0.03   0.01   0.00     0.04  -0.03   0.04    -0.05   0.03  -0.03
   6   6    -0.00   0.03  -0.08     0.02  -0.10   0.19    -0.00   0.08  -0.18
   7   6     0.09  -0.01  -0.05    -0.01  -0.09   0.01     0.01   0.07  -0.00
   8   6    -0.01  -0.03  -0.06    -0.05  -0.11  -0.18     0.03   0.09   0.17
[...]
   6   6     0.00  -0.00  -0.00    -0.00   0.00  -0.00    -0.00   0.00  -0.00
   7   6     0.00  -0.00  -0.00    -0.00  -0.00  -0.00     0.00  -0.00  -0.00
   8   6     0.00  -0.00  -0.00    -0.00   0.00  -0.00    -0.00   0.00  -0.00
   9   6    -0.00  -0.00  -0.00    -0.00  -0.00  -0.00     0.00  -0.00   0.00
  10   6     0.00  -0.00  -0.00    -0.00   0.00  -0.01     0.00   0.00   0.00
  11   6    -0.00   0.00  -0.00    -0.00   0.01  -0.02    -0.00   0.00  -0.00
  12   6    -0.00   0.00  -0.00    -0.00   0.02  -0.03    -0.01   0.00   0.00
  13   6     0.01   0.01  -0.02     0.05   0.15  -0.23    -0.17   0.01   0.04
  14   6     0.00  -0.00  -0.00    -0.00   0.00   0.00    -0.00  -0.00   0.00
  15   6    -0.00   0.00   0.00    -0.00   0.00   0.00     0.00  -0.00   0.00
  16   6    -0.00   0.00   0.00     0.00  -0.00  -0.00    -0.00   0.00   0.00
  17   6    -0.00   0.00  -0.00     0.00  -0.00   0.00    -0.00   0.00  -0.00
  18   6     0.00  -0.00  -0.00    -0.00   0.00   0.00     0.00  -0.00  -0.00
  19   6    -0.00   0.00   0.00     0.00  -0.00   0.00     0.00  -0.00   0.00
  20   6     0.00   0.00  -0.00    -0.00  -0.00  -0.00    -0.00   0.00   0.00
  21   6    -0.00   0.00  -0.00     0.00  -0.00   0.00     0.00  -0.00   0.00
  22   6     0.00  -0.00  -0.00    -0.00   0.00   0.00     0.00  -0.00  -0.00
  23   6    -0.00   0.00   0.00    -0.00   0.00  -0.00    -0.00  -0.00  -0.00
  24  35    -0.00   0.00  -0.00     0.00   0.00   0.00     0.00   0.00   0.00
  25   6    -0.00   0.00  -0.00     0.00   0.00   0.00    -0.00  -0.00  -0.00
  26   6     0.00  -0.00   0.00    -0.00  -0.00   0.00    -0.00   0.00  -0.00
  27   1     0.19  -0.09   0.20    -0.01   0.01  -0.01     0.01  -0.01   0.01
  28   1     0.46  -0.64  -0.44    -0.03   0.04   0.03     0.00  -0.00  -0.00
  29   1    -0.10  -0.05  -0.03     0.00   0.00   0.00     0.00   0.00   0.00
  30   1     0.05  -0.03   0.04    -0.00   0.00  -0.00     0.00  -0.00   0.00
  31   1    -0.03  -0.04  -0.02     0.00   0.00   0.00     0.00   0.00   0.00
  32   1    -0.01  -0.01   0.01     0.00   0.00  -0.00    -0.00  -0.00   0.00
  33   1    -0.02  -0.02  -0.01     0.00   0.00   0.00     0.00   0.00   0.00
  34   1    -0.01  -0.03   0.04     0.00   0.00  -0.00    -0.00  -0.00   0.00
  35   1     0.00   0.00   0.00     0.00   0.00   0.00    -0.00  -0.00  -0.00
  36   1    -0.00   0.00  -0.00     0.00  -0.00   0.00    -0.00   0.00  -0.00
  37   1    -0.00  -0.00   0.00     0.00   0.00  -0.00    -0.00  -0.00   0.00
  38   1    -0.00   0.00   0.00    -0.00   0.00   0.00    -0.00   0.00   0.00
  39   1    -0.00   0.00  -0.00     0.00  -0.00   0.00     0.00  -0.00   0.00
  40   1     0.00  -0.00   0.00     0.01  -0.00   0.01     0.00  -0.00   0.00
  41   1    -0.00   0.00   0.00    -0.00   0.00   0.00    -0.00  -0.00   0.00
  42   1    -0.00   0.00   0.00    -0.00   0.00   0.00     0.00   0.00   0.00
  43   1     0.00  -0.00   0.00     0.01   0.00   0.00    -0.00   0.00  -0.00
  44   1    -0.00   0.00  -0.00     0.00  -0.01   0.01    -0.00   0.00  -0.00
  45   1    -0.00   0.00   0.00    -0.00   0.01   0.01     0.00  -0.00  -0.00
  46   1     0.00  -0.00   0.00     0.02  -0.08   0.04     0.00  -0.01   0.00
  47   1    -0.00   0.00   0.00    -0.00   0.03   0.02     0.00   0.00   0.00
  48   1    -0.00   0.00   0.00    -0.00   0.03   0.02    -0.00  -0.01  -0.01
  49   1     0.00  -0.00   0.00     0.02  -0.09   0.04    -0.00  -0.00   0.00
  50   1     0.00   0.02   0.02     0.01   0.21   0.14    -0.02   0.23   0.21
  51   1     0.01  -0.03   0.01     0.17  -0.65   0.31     0.08  -0.42   0.23
  52   1    -0.03  -0.01   0.03    -0.38  -0.08   0.36     0.54   0.16  -0.57
  53   1     0.00  -0.00  -0.00     0.00  -0.00  -0.00     0.00  -0.00  -0.00
  54   1     0.00  -0.00  -0.00    -0.00   0.00   0.00     0.00  -0.00  -0.00
  55   1     0.00  -0.00   0.00    -0.00   0.00  -0.00     0.00  -0.00   0.00
  56   1    -0.00   0.00   0.00     0.00  -0.00  -0.00    -0.00   0.00   0.00
  57   1     0.00   0.00   0.00    -0.00   0.00  -0.00    -0.00   0.00  -0.00
  58   1    -0.00   0.00   0.00     0.00  -0.00  -0.00    -0.00   0.00   0.00
  59   1     0.00   0.00   0.00    -0.00   0.00  -0.01     0.00   0.00   0.00
                    163                    164                    165
                        a                      a                      a 
 Frequencies --  3040.8329              3048.3074              3073.0044
 Red. masses --     1.7951                 1.4589                 1.7680
 Frc consts  --     0.0000                 0.0000                 0.0000
 IR Inten    --    31.9115                21.2411                20.7112
 Raman Activ --     0.0000                 0.0000                 0.0000
 Depolar     --     0.0000                 0.0000                 0.0000
 Atom AN      X      Y      Z        X      Y      Z        X      Y      Z
   1   6    -0.18  -0.02  -0.20    -0.13  -0.16   0.00     0.00   0.00   0.00
   2   6    -0.03  -0.00  -0.02    -0.01  -0.02  -0.00     0.00   0.00  -0.00
   3   6    -0.00  -0.00  -0.01    -0.01  -0.01   0.00     0.00   0.00  -0.00
   4   6     0.00   0.01  -0.02    -0.00  -0.01   0.00     0.00   0.00  -0.00
   5   6    -0.00   0.00  -0.00    -0.00  -0.00   0.00     0.00   0.00  -0.00
   6   6    -0.00   0.00  -0.00    -0.00   0.00  -0.00     0.00  -0.00  -0.00
   7   6     0.00  -0.00  -0.00    -0.00   0.00  -0.00     0.00  -0.00  -0.00
   8   6    -0.00   0.00  -0.00    -0.00   0.00   0.00     0.00  -0.00  -0.00
   9   6    -0.00  -0.00  -0.00     0.00   0.00   0.00     0.00  -0.00  -0.00
  10   6    -0.00  -0.00  -0.00    -0.00   0.00   0.00     0.00  -0.00  -0.00
  11   6    -0.00  -0.00  -0.00    -0.00   0.00   0.00     0.00  -0.00  -0.00
  12   6     0.00  -0.00  -0.00    -0.00   0.00  -0.00     0.00  -0.00  -0.00
  13   6     0.00  -0.00  -0.00     0.00   0.00  -0.00    -0.00  -0.00  -0.00
  14   6     0.00  -0.00  -0.00    -0.00   0.00   0.00    -0.00   0.00  -0.00
  15   6    -0.00   0.00   0.00     0.00  -0.00  -0.00     0.03  -0.01  -0.08
  16   6     0.00   0.00  -0.00     0.00  -0.00  -0.00    -0.06   0.01   0.01
  17   6     0.00  -0.00   0.00     0.00  -0.00   0.00     0.15  -0.01   0.17
  18   6     0.00  -0.00   0.00    -0.00   0.00   0.00     0.03  -0.01  -0.07
  19   6    -0.00   0.00  -0.00     0.00  -0.00  -0.00     0.00  -0.00  -0.00
  20   6    -0.00   0.00  -0.00    -0.00  -0.00   0.00     0.00  -0.00   0.00
  21   6    -0.00   0.00  -0.00     0.00   0.00   0.00     0.00   0.00   0.01
  22   6    -0.00   0.00   0.00     0.00  -0.00  -0.00     0.00  -0.00  -0.00
  23   6    -0.00  -0.00   0.00     0.00  -0.00  -0.00     0.00  -0.00  -0.00
  24  35    -0.00  -0.00  -0.00    -0.00  -0.00   0.00    -0.00   0.00   0.00
  25   6     0.00  -0.00   0.00    -0.00  -0.00  -0.00     0.00   0.00   0.01
  26   6    -0.00   0.00   0.00    -0.00   0.00  -0.00    -0.00   0.00   0.00
  27   1     0.59  -0.35   0.52    -0.22   0.09  -0.18     0.00  -0.00   0.00
  28   1    -0.16   0.18   0.10     0.10  -0.18  -0.11     0.00  -0.00  -0.00
  29   1     0.19   0.25   0.07     0.57   0.65   0.27    -0.00  -0.00  -0.00
  30   1     0.05  -0.03   0.04    -0.00  -0.00  -0.00     0.00  -0.00   0.00
  31   1     0.03   0.04   0.01     0.04   0.04   0.02    -0.00  -0.00  -0.00
  32   1    -0.00  -0.01   0.01     0.00   0.00  -0.01    -0.00  -0.00   0.00
  33   1     0.01   0.02   0.00     0.02   0.03   0.01    -0.00  -0.00  -0.00
  34   1    -0.02  -0.04   0.05     0.01   0.02  -0.02    -0.00  -0.00   0.00
  35   1     0.01   0.02   0.01     0.00   0.00   0.00    -0.00  -0.00  -0.00
  36   1     0.00  -0.00   0.00     0.00  -0.00   0.00    -0.00   0.00  -0.00
  37   1    -0.00  -0.00   0.00     0.00   0.00  -0.00    -0.00  -0.00   0.00
  38   1    -0.00   0.00   0.00     0.00  -0.00  -0.00    -0.00   0.00   0.00
  39   1     0.00  -0.00   0.00     0.00  -0.00   0.00    -0.00   0.00  -0.00
  40   1     0.00  -0.00   0.00     0.00  -0.00   0.00    -0.00   0.00  -0.00
  41   1    -0.00   0.00   0.00     0.00  -0.00  -0.00    -0.00   0.00   0.00
  42   1    -0.00   0.00   0.00     0.00  -0.00  -0.00    -0.00   0.00   0.00
  43   1     0.00  -0.00   0.00    -0.00   0.00  -0.00    -0.00   0.00  -0.00
  44   1     0.00  -0.00   0.00     0.00  -0.00   0.00    -0.00   0.00  -0.00
  45   1    -0.00   0.00   0.00     0.00  -0.00  -0.00    -0.00   0.00   0.00
  46   1     0.00  -0.00   0.00     0.00  -0.00   0.00    -0.00   0.00  -0.00
  47   1    -0.00   0.00   0.00     0.00  -0.00  -0.00    -0.00   0.00   0.00
  48   1     0.00   0.00   0.00     0.00   0.00   0.00    -0.00   0.00   0.00
  49   1     0.00  -0.00   0.00     0.00  -0.00   0.00    -0.00   0.00  -0.00
  50   1     0.00   0.00  -0.00     0.00  -0.00  -0.00     0.00   0.00   0.00
  51   1    -0.00   0.00  -0.00     0.00   0.00  -0.00    -0.00   0.00  -0.00
  52   1    -0.01  -0.00   0.01    -0.00  -0.00   0.00     0.00   0.00  -0.00
  53   1     0.00  -0.00  -0.00    -0.00   0.00   0.00    -0.11   0.04   0.30
  54   1     0.00  -0.00  -0.00    -0.00   0.00   0.00     0.24  -0.04  -0.04
  55   1    -0.00   0.00  -0.00    -0.00   0.00  -0.00    -0.55   0.04  -0.61
  56   1     0.00  -0.00  -0.00     0.00  -0.00  -0.00    -0.10   0.03   0.28
  57   1     0.00   0.00   0.00    -0.00  -0.00  -0.01    -0.01  -0.00  -0.03
  58   1     0.00  -0.00  -0.00    -0.00   0.00   0.00    -0.01   0.00   0.01
  59   1    -0.00   0.00  -0.00     0.00  -0.00   0.01    -0.01  -0.00  -0.02
                    166                    167                    168
                        a                      a                      a 
 Frequencies --  3074.2209              3079.5494              3086.5518
 Red. masses --     1.8127                 1.8319                 1.7787
 Frc consts  --     0.0000                 0.0000                 0.0000
 IR Inten    --    29.9585                17.0767                 4.2047
 Raman Activ --     0.0000                 0.0000                 0.0000
 Depolar     --     0.0000                 0.0000                 0.0000
 Atom AN      X      Y      Z        X      Y      Z        X      Y      Z
   1   6     0.00  -0.00   0.00    -0.00  -0.00   0.00     0.00  -0.00   0.00
   2   6    -0.00  -0.00   0.00     0.00   0.00   0.00    -0.00  -0.00  -0.00
   3   6    -0.00  -0.00   0.00     0.00  -0.00  -0.00     0.00   0.00   0.00
   4   6    -0.00  -0.00   0.00     0.00   0.00   0.00    -0.00  -0.00   0.00
   5   6    -0.00  -0.00  -0.00     0.00  -0.00   0.00    -0.00   0.00  -0.00
   6   6    -0.00   0.00   0.00     0.00  -0.00   0.00    -0.00   0.00  -0.00
   7   6    -0.00   0.00  -0.00     0.00  -0.00   0.00    -0.00   0.00  -0.00
   8   6    -0.00   0.00   0.00     0.00  -0.00   0.00    -0.00   0.00  -0.00
   9   6    -0.00   0.00  -0.00     0.00  -0.00   0.00    -0.00  -0.00  -0.00
  10   6     0.00   0.00   0.00     0.00  -0.00   0.00    -0.00   0.00   0.00
  11   6     0.00   0.00   0.00     0.00  -0.00  -0.00     0.00  -0.00   0.00
  12   6     0.00   0.00   0.00     0.00  -0.00   0.00    -0.00  -0.00  -0.00
  13   6    -0.00   0.00   0.00    -0.00  -0.00   0.00    -0.00   0.00   0.00
  14   6     0.01  -0.00   0.01     0.00   0.00   0.00     0.00  -0.00  -0.00
  15   6    -0.09   0.03   0.23    -0.00   0.00   0.01    -0.00   0.00   0.01
  16   6     0.03  -0.01  -0.00     0.01  -0.00  -0.00    -0.02   0.00   0.00
  17   6     0.06  -0.00   0.07    -0.00   0.00  -0.00     0.02  -0.00   0.02
  18   6     0.01  -0.00  -0.04    -0.00   0.00   0.00    -0.02   0.01   0.06
  19   6     0.00  -0.00  -0.00     0.00  -0.00   0.00    -0.00   0.00   0.00
  20   6    -0.00   0.00   0.00    -0.00  -0.00  -0.00    -0.00  -0.00  -0.01
  21   6     0.00   0.00   0.00    -0.00  -0.00  -0.01    -0.05  -0.00  -0.13
  22   6     0.00  -0.00  -0.00    -0.01   0.00   0.01    -0.15   0.03   0.15
  23   6    -0.00   0.00  -0.00     0.01  -0.00   0.00    -0.01   0.00   0.00
  24  35    -0.00   0.00  -0.00    -0.00   0.00  -0.00     0.00  -0.00  -0.00
  25   6    -0.00  -0.00  -0.01     0.10   0.00   0.25    -0.00  -0.00  -0.02
  26   6    -0.00   0.00   0.00    -0.01   0.00   0.01     0.00  -0.00   0.00
  27   1    -0.00   0.00  -0.00    -0.00   0.00  -0.00    -0.00   0.00  -0.00
  28   1     0.00  -0.00  -0.00     0.00  -0.01  -0.00     0.00  -0.00  -0.00
  29   1     0.00   0.00   0.00     0.01   0.01   0.00     0.00   0.00   0.00
  30   1    -0.00   0.00  -0.00    -0.00   0.00  -0.00     0.00  -0.00   0.00
  31   1     0.00   0.00   0.00    -0.00  -0.00  -0.00     0.00   0.00   0.00
  32   1     0.00   0.00  -0.00    -0.00  -0.00   0.00     0.00   0.00  -0.00
  33   1     0.00   0.00   0.00     0.00   0.00  -0.00    -0.00  -0.00  -0.00
  34   1     0.00   0.00  -0.00    -0.00  -0.00   0.00     0.00   0.00  -0.00
  35   1    -0.00  -0.00  -0.00    -0.00  -0.00  -0.00    -0.00  -0.00   0.00
  36   1     0.00   0.00   0.00    -0.00   0.00  -0.00     0.00   0.00   0.00
  37   1     0.00   0.00  -0.00     0.00  -0.00   0.00    -0.00  -0.00   0.00
  38   1     0.01  -0.00  -0.01    -0.00   0.00   0.00    -0.00   0.00  -0.00
  39   1     0.00  -0.00   0.00    -0.01   0.00  -0.01     0.00  -0.00   0.00
  40   1     0.00  -0.00   0.00    -0.02  -0.00  -0.01     0.00  -0.00   0.00
  41   1     0.01  -0.00  -0.01    -0.00  -0.00   0.00    -0.00   0.00  -0.00
  42   1     0.00  -0.00  -0.00     0.00   0.00   0.00    -0.00   0.00   0.00
  43   1     0.00  -0.00   0.00    -0.00   0.00  -0.00     0.00  -0.00   0.00
  44   1    -0.00   0.00  -0.00    -0.00   0.00  -0.00     0.00   0.00   0.00
  45   1     0.00  -0.00  -0.00    -0.00   0.00   0.00    -0.00  -0.00  -0.00
  46   1    -0.00   0.00   0.00    -0.00   0.00  -0.00    -0.00   0.00  -0.00
  47   1     0.00  -0.00  -0.00    -0.00   0.00   0.00     0.00  -0.00  -0.00
  48   1     0.00  -0.00  -0.00     0.00  -0.00   0.00    -0.00   0.00   0.00
  49   1     0.00  -0.00   0.00    -0.00   0.00  -0.00     0.00  -0.00   0.00
  50   1    -0.00  -0.00  -0.00    -0.00   0.00   0.00    -0.00  -0.00  -0.00
  51   1     0.00  -0.00   0.00    -0.00   0.00  -0.00    -0.00   0.00   0.00
  52   1     0.00   0.00  -0.00     0.00   0.00  -0.00     0.00   0.00  -0.00
  53   1     0.30  -0.10  -0.82     0.01  -0.00  -0.03     0.01  -0.00  -0.02
  54   1    -0.13   0.02   0.02    -0.02   0.00   0.00     0.08  -0.01  -0.01
  55   1    -0.22   0.02  -0.24     0.00  -0.00   0.00    -0.07   0.00  -0.07
  56   1    -0.05   0.02   0.14     0.00  -0.00  -0.01     0.07  -0.02  -0.20
  57   1    -0.00  -0.00  -0.01     0.01   0.00   0.02     0.16   0.01   0.50
  58   1    -0.00   0.00   0.00     0.04  -0.01  -0.04     0.53  -0.10  -0.55
  59   1     0.01   0.00   0.03    -0.33  -0.01  -0.90     0.02   0.00   0.05
                    169                    170                    171
                        a                      a                      a 
 Frequencies --  3090.7423              3099.5905              3101.0456
 Red. masses --     1.8454                 1.8702                 1.8814
 Frc consts  --     0.0000                 0.0000                 0.0000
 IR Inten    --    32.4906                33.6281                29.4438
 Raman Activ --     0.0000                 0.0000                 0.0000
 Depolar     --     0.0000                 0.0000                 0.0000
 Atom AN      X      Y      Z        X      Y      Z        X      Y      Z
   1   6     0.00   0.00  -0.00    -0.00   0.00  -0.00    -0.00   0.00   0.00
   2   6     0.00   0.00   0.00     0.00  -0.00   0.00     0.00   0.00   0.00
   3   6     0.00   0.00   0.00     0.00  -0.00   0.00     0.00   0.00   0.00
   4   6     0.00   0.00  -0.00    -0.00  -0.00   0.00     0.00   0.00  -0.00
   5   6    -0.00  -0.00   0.00     0.00  -0.00   0.00     0.00   0.00  -0.00
   6   6    -0.00   0.00   0.00    -0.00   0.00   0.00     0.00  -0.00  -0.00
   7   6    -0.00   0.00   0.00    -0.00   0.00   0.00     0.00  -0.00   0.00
   8   6    -0.00  -0.00   0.00    -0.00   0.00   0.00     0.00  -0.00  -0.00
   9   6    -0.00   0.00   0.00     0.00   0.00   0.00    -0.00  -0.00  -0.00
  10   6     0.00  -0.00  -0.00    -0.00   0.00   0.00     0.00  -0.00  -0.00
  11   6     0.00  -0.00   0.00     0.00   0.00   0.00     0.00  -0.00   0.00
  12   6     0.00  -0.00   0.00    -0.00  -0.00  -0.00     0.00  -0.00  -0.00
  13   6     0.00  -0.00  -0.00    -0.00   0.00   0.00    -0.00  -0.00   0.00
  14   6     0.00  -0.00  -0.00     0.00  -0.00  -0.00    -0.00   0.00  -0.00
  15   6    -0.01   0.00   0.03    -0.02   0.01   0.05     0.01  -0.00  -0.03
  16   6    -0.07   0.01   0.01    -0.21   0.03   0.04     0.13  -0.02  -0.02
  17   6     0.05  -0.00   0.06    -0.05   0.00  -0.05     0.04  -0.00   0.04
  18   6    -0.08   0.03   0.22     0.01  -0.00  -0.03    -0.03   0.01   0.07
  19   6    -0.00   0.00   0.00     0.00  -0.00   0.00    -0.00   0.00   0.00
  20   6    -0.00   0.00   0.00     0.00  -0.00   0.00     0.00  -0.00   0.00
  21   6    -0.00  -0.00  -0.00     0.04   0.00   0.12     0.06   0.00   0.18
  22   6     0.06  -0.01  -0.06    -0.06   0.01   0.06    -0.09   0.02   0.09
  23   6     0.00  -0.00  -0.00    -0.00   0.00  -0.00    -0.00   0.00  -0.00
  24  35    -0.00   0.00  -0.00     0.00  -0.00   0.00     0.00  -0.00   0.00
  25   6     0.00   0.00   0.00    -0.00   0.00   0.00    -0.00  -0.00  -0.00
  26   6    -0.00   0.00   0.00     0.00   0.00  -0.00    -0.00   0.00  -0.00
  27   1     0.00  -0.00   0.00     0.00  -0.00   0.00     0.00  -0.00   0.00
  28   1    -0.00   0.00   0.00    -0.00   0.00  -0.00     0.00  -0.00  -0.00
  29   1    -0.00  -0.00  -0.00    -0.00  -0.00   0.00    -0.00  -0.00  -0.00
  30   1     0.00   0.00   0.00    -0.00   0.00  -0.00     0.00  -0.00   0.00
  31   1    -0.00  -0.00  -0.00     0.00   0.00   0.00    -0.00  -0.00  -0.00
  32   1     0.00   0.00  -0.00     0.00   0.00  -0.00    -0.00  -0.00   0.00
  33   1    -0.00  -0.00  -0.00    -0.00  -0.00  -0.00    -0.00  -0.00  -0.00
  34   1    -0.00  -0.00   0.00     0.00   0.00  -0.00    -0.00  -0.00   0.00
  35   1    -0.00  -0.00  -0.00    -0.00  -0.00  -0.00    -0.00  -0.00  -0.00
  36   1     0.00   0.00   0.00    -0.00   0.00  -0.00     0.00   0.00   0.00
  37   1     0.00   0.00  -0.00     0.00   0.00  -0.00    -0.00  -0.00   0.00
  38   1     0.00  -0.00  -0.00     0.00  -0.00  -0.00    -0.00   0.00   0.00
  39   1     0.00  -0.00   0.00    -0.00   0.00  -0.00    -0.00   0.00  -0.00
  40   1     0.00  -0.00   0.00    -0.00  -0.00  -0.00    -0.00   0.00  -0.00
  41   1     0.00  -0.00  -0.00     0.00  -0.00  -0.00    -0.00   0.00   0.00
  42   1     0.00  -0.00  -0.00     0.00  -0.00  -0.00     0.00   0.00   0.00
  43   1    -0.00  -0.00   0.00    -0.00   0.00  -0.00     0.00  -0.00   0.00
  44   1    -0.00   0.00  -0.00    -0.00   0.00  -0.00    -0.00   0.00  -0.00
  45   1     0.00   0.00   0.00     0.00  -0.00  -0.00    -0.00   0.00   0.00
  46   1    -0.00   0.00  -0.00    -0.00   0.00  -0.00    -0.00   0.00  -0.00
  47   1    -0.00  -0.00   0.00     0.00  -0.00  -0.00     0.00   0.00   0.00
  48   1     0.00  -0.00  -0.00    -0.00   0.00   0.00    -0.00   0.00   0.00
  49   1    -0.00   0.00  -0.00     0.00  -0.00   0.00    -0.00   0.00  -0.00
  50   1    -0.00   0.00   0.00    -0.00  -0.00  -0.00    -0.00   0.00   0.00
  51   1    -0.00   0.00  -0.00    -0.00   0.00  -0.00    -0.00   0.00  -0.00
  52   1     0.00  -0.00  -0.00     0.00   0.00  -0.00     0.00   0.00  -0.00
  53   1     0.03  -0.01  -0.08     0.06  -0.02  -0.15    -0.03   0.01   0.09
  54   1     0.26  -0.04  -0.05     0.73  -0.12  -0.13    -0.44   0.07   0.08
  55   1    -0.17   0.01  -0.19     0.14  -0.01   0.15    -0.12   0.01  -0.13
  56   1     0.27  -0.09  -0.78    -0.03   0.01   0.09     0.08  -0.03  -0.23
  57   1     0.00   0.00   0.00    -0.14  -0.01  -0.43    -0.21  -0.02  -0.64
  58   1    -0.20   0.04   0.21     0.19  -0.03  -0.20     0.28  -0.05  -0.29
  59   1    -0.00  -0.00  -0.01    -0.00  -0.00  -0.01     0.00   0.00   0.01
