$hessian                                                                        
        0.5074807646  -0.0098589369   0.0273006912  -0.1019554198  -0.0167510789
        0.0555475797   0.0017142663  -0.0018978136  -0.0012472194   0.0000472791
        0.0002688409   0.0000055948  -0.0000959067   0.0002766892  -0.0000870192
        0.0000960300  -0.0000149898   0.0000806216   0.0000626802   0.0000560501
       -0.0000030661   0.0000417036   0.0000294407  -0.0000015670  -0.0000156953
       -0.0000140910  -0.0000104554  -0.0000109652  -0.0000003024  -0.0000012921
       -0.0000060463  -0.0000028785   0.0000025496  -0.0000021570   0.0000001975
        0.0000037080  -0.0000035368  -0.0000029255   0.0000011230  -0.0000072451
       -0.0000197949  -0.0000028950   0.0000116765   0.0000284758   0.0000219572
       -0.0000079979  -0.0000120205  -0.0000019781  -0.0000037542  -0.0000111607
       -0.0000074568  -0.0000047820  -0.0000042627   0.0000074243  -0.0000048576
       -0.0000018421   0.0000084386  -0.0000122144  -0.0000202801  -0.0000153803
        0.0000058738   0.0000052000  -0.0000110683  -0.0000041778  -0.0000005684
        0.0000212472  -0.0000180502  -0.0000293788  -0.0000100734   0.0000089456
        0.0000101889  -0.0000060264   0.0000132272   0.0000069738  -0.0000117750
       -0.0000152673  -0.0000155756   0.0000181289  -0.0483721398   0.0302848789
       -0.0064009221  -0.0738071920  -0.0418183100  -0.0668699259  -0.2707691574
        0.0441010775  -0.0282835158  -0.0202596122  -0.0072864889   0.0267852520
        0.0043497163   0.0013678079  -0.0051698892   0.0009243958   0.0007405249
       -0.0010659357   0.0005701124   0.0010838497  -0.0005836228   0.0001812880
       -0.0002638312   0.0000766996   0.0000980868   0.0000736297  -0.0000565301
       -0.0002313093  -0.0002624840   0.0000767365   0.0000010468  -0.0000843929
        0.0000251331  -0.0000542593  -0.0000533377  -0.0000257591   0.0000204264
        0.0001129716  -0.0000860384  -0.0000096490  -0.0000035336   0.0000615270
        0.0000587411  -0.0000152920  -0.0000400441  -0.0000216679  -0.0000025747
       -0.0000051964   0.0000013636  -0.0000078977   0.0000078902   0.0000072069
       -0.0000043692  -0.0000088372  -0.0000014131   0.0000046927  -0.0000017235
       -0.0000014308   0.0000024154  -0.0000039152  -0.0000039699  -0.0000001524
        0.0000000763   0.0000006750  -0.0000034627  -0.0000031882   0.0000018839
        0.0000001201   0.0000016224  -0.0000019042  -0.0000021371   0.0000003128
       -0.0000026564  -0.0000008693  -0.0000002658  -0.0000002535   0.0000004960
       -0.0000014268   0.0000089513   0.0000026518  -0.0000246946   0.0000015333
       -0.0000002402  -0.0000053781   0.0000004800  -0.0000009747  -0.0000020888
       -0.0000002438  -0.0000000095   0.0000023766   0.0000014875   0.0000004223
       -0.0000027263   0.0000010342   0.0000007056  -0.0000019865  -0.0000059434
        0.0000099570   0.0000041927
       -0.0098589369   0.5185869298   0.0160728890  -0.0175139424  -0.0734392003
        0.0274559311  -0.0128037120  -0.0116758382   0.0250209289   0.0001669228
        0.0005115736  -0.0000970745   0.0002978692  -0.0000843665   0.0000655530
       -0.0000959995   0.0000253644  -0.0000909032  -0.0000438087  -0.0000207494
        0.0000153018  -0.0000008000  -0.0000151632   0.0000262381   0.0000043105
        0.0000162086   0.0000016126   0.0000033258   0.0000002684   0.0000025759
        0.0000024528   0.0000017796   0.0000006667   0.0000001797   0.0000008329
        0.0000028145   0.0000015954   0.0000014951   0.0000010947  -0.0000067449
        0.0000059914  -0.0000108924  -0.0000032132   0.0000121104  -0.0000009175
        0.0000057470   0.0000089413  -0.0000077165  -0.0000016462  -0.0000030743
       -0.0000038567   0.0000000447   0.0000010039   0.0000010360   0.0000083877
        0.0000052225  -0.0000092456  -0.0000070235  -0.0000084419   0.0000048861
        0.0000095114   0.0000145603   0.0000003450   0.0000020069   0.0000088681
        0.0000080728  -0.0000177780  -0.0000234606   0.0000145980   0.0000165373
        0.0000095958  -0.0000273328  -0.0000000745  -0.0000144792   0.0000166098
       -0.0000071149   0.0000163260   0.0000247083   0.0300696831  -0.2737836565
        0.0365648915  -0.0417901188  -0.1061366199  -0.0970773470   0.0442451295
       -0.0535164331   0.0042535652   0.0009659909   0.0013448993  -0.0021450049
        0.0075227488   0.0036738499  -0.0136260234  -0.0009291630   0.0007525748
       -0.0001049387   0.0004717901  -0.0055941016   0.0029047733  -0.0002605431
       -0.0007423290   0.0005801879  -0.0001700446   0.0001365379   0.0002251084
       -0.0002433566  -0.0000661500  -0.0000159680  -0.0000668610   0.0000011109
        0.0000075824   0.0000181347   0.0000933403   0.0000080132   0.0000595687
       -0.0000970860   0.0000059317  -0.0000220512   0.0000166605  -0.0000289907
       -0.0000131923  -0.0000077943  -0.0000011888  -0.0000020437  -0.0000046906
       -0.0000028467  -0.0000064950   0.0000051842  -0.0000013662  -0.0000007960
       -0.0000020354  -0.0000046752   0.0000047546   0.0000008448  -0.0000002780
        0.0000038487   0.0000010308  -0.0000014142  -0.0000016965  -0.0000020337
       -0.0000008804  -0.0000007643  -0.0000010061  -0.0000030001  -0.0000007288
        0.0000026231  -0.0000010414   0.0000009556  -0.0000022845   0.0000002067
       -0.0000008907  -0.0000003581  -0.0000005133   0.0000018753   0.0000012414
       -0.0000007247  -0.0000010758  -0.0000161011   0.0000000318   0.0000019944
       -0.0000014261  -0.0000042993   0.0000012176   0.0000014025  -0.0000013335
       -0.0000001087   0.0000001415   0.0000022064   0.0000009484   0.0000020530
       -0.0000017931  -0.0000006892   0.0000022089  -0.0000021967  -0.0000161174
       -0.0000038965  -0.0000145974
        0.0273006912   0.0160728890   0.4841942137   0.0554865071   0.0259536300
       -0.1599117872   0.0042965984   0.0087317121  -0.0094606019  -0.0001106174
        0.0000877868   0.0003228224   0.0000164763  -0.0001055245  -0.0002435451
       -0.0000035515  -0.0000322399  -0.0000907463  -0.0000144342  -0.0000038820
        0.0000173755  -0.0000390353  -0.0000119200  -0.0000122445  -0.0000018372
        0.0000035868   0.0000098798   0.0000020794   0.0000024560  -0.0000026332
       -0.0000017292   0.0000021857   0.0000026253  -0.0000001855   0.0000016513
        0.0000013269  -0.0000009529   0.0000000387   0.0000017719   0.0000127102
        0.0000070544  -0.0000145319  -0.0000034792  -0.0000075284  -0.0000004801
        0.0000011483   0.0000028311   0.0000084942  -0.0000006603  -0.0000034586
       -0.0000051146   0.0000014928   0.0000030725   0.0000007155   0.0000013200
       -0.0000036058  -0.0000020306   0.0000015849   0.0000104139   0.0000122031
       -0.0000030099  -0.0000065804  -0.0000013055   0.0000071994   0.0000109620
       -0.0000110765  -0.0000110617  -0.0000068497   0.0000231535   0.0000121394
        0.0000054081  -0.0000106652  -0.0000044436  -0.0000302802   0.0000084045
        0.0000174195   0.0000153987   0.0000014087  -0.0063687237   0.0366221869
       -0.0485206903  -0.0670201513  -0.0969926465  -0.1927681807  -0.0286469425
        0.0043474671  -0.0471530880   0.0021193348   0.0002361176   0.0003749027
        0.0129070214   0.0043402561  -0.0274654868   0.0002555504  -0.0006399657
        0.0003857657  -0.0001628759   0.0018132344   0.0000984914   0.0002837144
       -0.0003075212   0.0001132584  -0.0000494937  -0.0000848849  -0.0000726703
       -0.0002784901   0.0000020233   0.0002339135  -0.0000334835  -0.0000853966
       -0.0000076571   0.0000138265  -0.0000043212   0.0000145686   0.0000072958
        0.0000304978  -0.0000613016   0.0000004339   0.0000241446   0.0000295348
        0.0000113997  -0.0000019518  -0.0000310092   0.0000034757  -0.0000069457
       -0.0000015205   0.0000079724  -0.0000015903   0.0000060708   0.0000000468
       -0.0000008708  -0.0000040750  -0.0000016436  -0.0000037675   0.0000018502
        0.0000013370  -0.0000003342   0.0000007803   0.0000012221  -0.0000022243
       -0.0000017682  -0.0000001473  -0.0000015724  -0.0000028573   0.0000020137
        0.0000011745   0.0000008715   0.0000019076  -0.0000007933   0.0000007343
        0.0000003112  -0.0000007821  -0.0000008568   0.0000003388   0.0000004809
        0.0000001359  -0.0000073609  -0.0000022594  -0.0000031705   0.0000003942
       -0.0000010257  -0.0000020436   0.0000024324   0.0000035078  -0.0000000537
        0.0000009205   0.0000009367  -0.0000004720   0.0000018635   0.0000044239
        0.0000010902  -0.0000001388   0.0000022699   0.0000035976  -0.0000157304
        0.0000109247  -0.0000062967
       -0.1019554198  -0.0175139424   0.0554865071   0.5258925379   0.0013706467
        0.0218365266  -0.0721345296   0.0218812936  -0.0067310149   0.0021138626
       -0.0072255002   0.0024327252   0.0004265395   0.0000279787   0.0003444502
       -0.0000879912   0.0001380611  -0.0001665778  -0.0000085287  -0.0001110579
        0.0000154896   0.0001165812  -0.0000486470   0.0000856594   0.0000231887
        0.0000265226  -0.0000118597   0.0000119158  -0.0000189472   0.0000049756
        0.0000094085  -0.0000075524  -0.0000102266  -0.0000037118  -0.0000008586
        0.0000066455   0.0000028401  -0.0000044747   0.0000003101  -0.0000518270
        0.0000028907   0.0000371718   0.0000043481  -0.0000217738  -0.0000793725
        0.0000070643   0.0000244260   0.0000172721  -0.0000050856   0.0000125538
        0.0000346022   0.0000044464  -0.0000116820  -0.0000358866   0.0000196547
        0.0000307950  -0.0000056883   0.0000262348   0.0000315245  -0.0000030272
       -0.0000097668  -0.0000027332   0.0000368732  -0.0000037298  -0.0000052601
       -0.0000020622   0.0000307368   0.0000073166  -0.0000636820  -0.0000133683
        0.0000039364  -0.0000100717  -0.0000204562   0.0000315215   0.0000909757
       -0.0000544748  -0.0000259809  -0.0000454240   0.0014129394  -0.0000580686
       -0.0013165422   0.0049903240   0.0029952418  -0.0063370650  -0.0209016084
       -0.0074602231   0.0263398597  -0.2638251554   0.0324630764  -0.0327662635
       -0.0681506595  -0.0405298311  -0.0537960828  -0.0097971596   0.0298288283
       -0.0097278662   0.0024886368  -0.0133756735   0.0058082181  -0.0000747700
        0.0003225187   0.0003029377   0.0001841437  -0.0018149418  -0.0012155557
       -0.0003516764  -0.0009714724  -0.0008893592  -0.0000373859   0.0000482598
        0.0000863083   0.0000111942   0.0001810460  -0.0000054323  -0.0001450361
       -0.0003643399   0.0003563508  -0.0000674650  -0.0000151587  -0.0002835230
       -0.0001353542   0.0000556574   0.0001701927   0.0000254833   0.0000132587
        0.0000216205  -0.0000261784   0.0000344099  -0.0000233372  -0.0000119588
        0.0000100465   0.0000218506   0.0000072101   0.0000073644  -0.0000061615
        0.0000184427   0.0000042093  -0.0000066866  -0.0000004275   0.0000004906
        0.0000066407  -0.0000063040   0.0000060593   0.0000073681  -0.0000037749
        0.0000109871  -0.0000162017   0.0000029282  -0.0000058251   0.0000018845
        0.0000014745   0.0000020419   0.0000033299   0.0000074797   0.0000029019
       -0.0000028118  -0.0000053792   0.0000099239   0.0000660142   0.0000044396
       -0.0000044239  -0.0000114137   0.0000100736   0.0000100914  -0.0000113885
        0.0000078374   0.0000110620   0.0000054466   0.0000080557   0.0000066947
       -0.0000024671   0.0000076499   0.0000106106   0.0000098607   0.0000115107
       -0.0000258790  -0.0000550160
       -0.0167510789  -0.0734392003   0.0259536300   0.0013706467   0.4691482867
        0.0215156241   0.0230406613  -0.1766079098   0.0336131362   0.0006230674
       -0.0250846557  -0.0000714845   0.0001217598   0.0006038042  -0.0001449633
        0.0002817137  -0.0000123668   0.0000910952   0.0001346345   0.0000607920
        0.0000052465   0.0000325966  -0.0000116605  -0.0000193495  -0.0000119981
       -0.0000039396   0.0000064148  -0.0000046055   0.0000029038   0.0000008592
       -0.0000005536   0.0000025891   0.0000009832   0.0000013851   0.0000024313
        0.0000015657   0.0000001104   0.0000006925   0.0000006197  -0.0000072853
       -0.0000260072   0.0000276311   0.0000199406  -0.0000205772  -0.0000249448
        0.0000035907   0.0000119401   0.0000119872  -0.0000040185  -0.0000020551
        0.0000185520  -0.0000039664  -0.0000128675  -0.0000147774   0.0000008247
        0.0000127190   0.0000052585   0.0000023828   0.0000125503  -0.0000165829
       -0.0000066890  -0.0000052390   0.0000105841  -0.0000058835  -0.0000085945
        0.0000032412  -0.0000020030   0.0000077916  -0.0000372298   0.0000021252
       -0.0000014658   0.0000085837   0.0000220792   0.0000034129   0.0000343276
        0.0000126708  -0.0000353054  -0.0000165174  -0.0149832150  -0.0113080899
        0.0262051310   0.0073816640   0.0042414802  -0.0127354712   0.0016629502
        0.0014795304  -0.0035272034   0.0325912699  -0.0477528704   0.0029074729
       -0.0406552617  -0.1186912351  -0.1004802008   0.0055366858  -0.0092394021
        0.0030819902   0.0007188161  -0.0107529649   0.0055938843   0.0000419728
        0.0006081044   0.0005031791  -0.0009062611  -0.0026687903  -0.0026953889
       -0.0003021647  -0.0004811824   0.0000154717   0.0002910893  -0.0000489768
        0.0001730784  -0.0000080842  -0.0000630706   0.0000107157  -0.0002452891
        0.0000606975  -0.0000245277   0.0000252033   0.0000062564   0.0000549778
        0.0000162966  -0.0000019726  -0.0000305285  -0.0000057132  -0.0000003180
       -0.0000082593  -0.0000034332  -0.0000073322   0.0000030445  -0.0000017029
        0.0000024249  -0.0000026619  -0.0000024676  -0.0000074128   0.0000011896
       -0.0000023237   0.0000005342   0.0000009200  -0.0000002574  -0.0000010604
       -0.0000017920  -0.0000006604  -0.0000005860  -0.0000020515  -0.0000008080
       -0.0000000868   0.0000009571   0.0000006002  -0.0000031516   0.0000008625
       -0.0000004619   0.0000002957  -0.0000010020  -0.0000000757   0.0000009386
        0.0000006156  -0.0000097223   0.0000126602   0.0000051727  -0.0000038789
       -0.0000022250  -0.0000019133   0.0000025038   0.0000054846  -0.0000056455
       -0.0000001088   0.0000065311   0.0000038344  -0.0000003597   0.0000015895
       -0.0000041082  -0.0000012093   0.0000023427   0.0000011215  -0.0000077009
        0.0000037885  -0.0000063551
        0.0555475797   0.0274559311  -0.1599117872   0.0218365266   0.0215156241
        0.4949304946  -0.0070856341   0.0294658031  -0.0747643960   0.0033236290
       -0.0170510800   0.0062118118   0.0000333824   0.0001205403   0.0001484668
       -0.0000361864  -0.0000614252  -0.0002861827  -0.0000115249   0.0000079014
        0.0000154445   0.0000151007  -0.0000249001  -0.0000150155  -0.0000156765
       -0.0000000090   0.0000143975  -0.0000051159  -0.0000008645   0.0000052686
       -0.0000025129   0.0000009525   0.0000004656  -0.0000030507   0.0000001312
        0.0000073928  -0.0000004535  -0.0000010242   0.0000019794  -0.0000198908
       -0.0000033401   0.0000023219  -0.0000093836   0.0000056400  -0.0000086360
       -0.0000054612  -0.0000008379   0.0000200287  -0.0000010001  -0.0000012815
       -0.0000006856  -0.0000004783  -0.0000010011  -0.0000014108  -0.0000003372
       -0.0000065289   0.0000049374   0.0000114293   0.0000217750   0.0000041088
       -0.0000087486  -0.0000107471   0.0000007186   0.0000087694   0.0000118658
       -0.0000195946   0.0000029980   0.0000063711   0.0000259876   0.0000038194
        0.0000081092   0.0000132016  -0.0000162773  -0.0000178402   0.0000160220
        0.0000178565   0.0000019081  -0.0000227752   0.0041465642   0.0046940676
       -0.0077815865   0.0121739526   0.0043253153  -0.0265269961   0.0028504964
       -0.0003357043   0.0008315521  -0.0324838771   0.0031058358  -0.0482151940
       -0.0537887560  -0.1008342438  -0.1706637847  -0.0023302039   0.0062844830
       -0.0012632467  -0.0033774848   0.0259505665  -0.0107593539   0.0002910112
       -0.0001591971   0.0002071238  -0.0008611746  -0.0038857870  -0.0022949614
       -0.0004687882  -0.0005904584  -0.0000904243   0.0000810799  -0.0002049552
        0.0001220380   0.0000191909   0.0000159900  -0.0000207230   0.0001245611
        0.0001529924   0.0000810113   0.0000350818   0.0000129722  -0.0000265507
       -0.0000283122   0.0000076391   0.0000213004   0.0000080478  -0.0000054073
        0.0000015615  -0.0000034417   0.0000122603  -0.0000016785  -0.0000018807
       -0.0000011229  -0.0000008093   0.0000028163   0.0000014675  -0.0000012118
        0.0000054827   0.0000022669  -0.0000017065  -0.0000001989  -0.0000032114
       -0.0000011978  -0.0000019336  -0.0000009369  -0.0000007488   0.0000027038
        0.0000040992  -0.0000054572   0.0000000447  -0.0000004928   0.0000010501
       -0.0000007549  -0.0000017750  -0.0000012395   0.0000031232   0.0000014200
       -0.0000013312   0.0000005877   0.0000016906   0.0000116122   0.0000062776
        0.0000007422  -0.0000073398   0.0000049604   0.0000038045  -0.0000004083
        0.0000036856   0.0000003292  -0.0000007093   0.0000045209   0.0000026327
        0.0000006259  -0.0000001084  -0.0000033280   0.0000039149   0.0000033672
        0.0000043714  -0.0000076954
        0.0017142663  -0.0128037120   0.0042965984  -0.0721345296   0.0230406613
       -0.0070856341   0.5238815502  -0.0046773490  -0.0231623719  -0.0747573506
       -0.0234411192  -0.0219414536  -0.0109855918  -0.0186612457  -0.0193142209
        0.0004439178   0.0002023321  -0.0000771963   0.0000427099  -0.0001973599
       -0.0002408635   0.0000919607  -0.0000203406  -0.0000025044   0.0000403767
        0.0000014251   0.0000098192   0.0000078264  -0.0000039556  -0.0000070989
        0.0000054365  -0.0000022130   0.0000007954  -0.0000007012  -0.0000025296
       -0.0000031430   0.0000000304  -0.0000018789  -0.0000000574   0.0000348248
        0.0000042265   0.0000042802   0.0000194357  -0.0000801677  -0.0000593855
        0.0000070867   0.0000101766   0.0000060230  -0.0000016048   0.0000180804
        0.0000513350   0.0000029644  -0.0000129608  -0.0000345157   0.0000007399
        0.0000222316   0.0000062726   0.0000354051   0.0000182949  -0.0000701707
        0.0000037272   0.0000054899   0.0000099832   0.0000041114  -0.0000087001
       -0.0000045158   0.0000061048   0.0000039580   0.0000202150  -0.0000088861
       -0.0000013209   0.0000573797  -0.0000767172   0.0000452436  -0.0000503385
       -0.0001601339  -0.0000090830  -0.0000164059  -0.0010214816  -0.0016267113
        0.0030242060   0.0002358698   0.0000885523  -0.0003099635   0.0006260727
       -0.0012432592   0.0004574092  -0.0085420476   0.0297360932  -0.0080333045
        0.0019062820  -0.0087351865   0.0011227258  -0.2626560979   0.0257738491
       -0.0331714079  -0.0977107792  -0.0187711240   0.0943385071   0.0035544907
        0.0105738163   0.0107793535   0.0014548922   0.0019057065   0.0019512138
        0.0009735473  -0.0002284484   0.0002710777  -0.0053159397  -0.0003043844
       -0.0025149890  -0.0001109931  -0.0001451175  -0.0000186265  -0.0014593897
       -0.0005350734  -0.0003977310  -0.0000711937   0.0000065996  -0.0000112513
       -0.0000269824   0.0000455399   0.0000142452   0.0000115923  -0.0000001476
        0.0000066643   0.0000044050   0.0000050126   0.0000012379  -0.0000057949
        0.0000112110   0.0000083924  -0.0000040715  -0.0000065117  -0.0000044846
       -0.0000046683  -0.0000003773   0.0000006278   0.0000037577   0.0000012431
        0.0000029771   0.0000001123   0.0000036293   0.0000022192   0.0000014046
       -0.0000004157   0.0000008448   0.0000005099  -0.0000007472   0.0000003364
        0.0000012281   0.0000011108   0.0000011357  -0.0000011898  -0.0000001375
        0.0000001318  -0.0000118538   0.0000424314   0.0000250753  -0.0000110107
       -0.0000038997   0.0000157051   0.0000015819   0.0000045022  -0.0000032405
        0.0000012963   0.0000093023   0.0000053124  -0.0000038313  -0.0000057221
       -0.0000041742  -0.0000008939  -0.0000022124   0.0000018387  -0.0000357833
       -0.0000473074   0.0000451103
       -0.0018978136  -0.0116758382   0.0087317121   0.0218812936  -0.1766079098
        0.0294658031  -0.0046773490   0.4579777770  -0.0077574224  -0.0197032011
       -0.1208874357  -0.0548017861  -0.0050702886   0.0009804224  -0.0011420996
        0.0001214176   0.0001907489   0.0000804925   0.0002003080   0.0000421444
       -0.0000076994  -0.0000219947   0.0000175114  -0.0000116884   0.0000007352
        0.0000057584   0.0000000700  -0.0000000316   0.0000058675   0.0000024756
        0.0000001968   0.0000024463   0.0000028615   0.0000018076   0.0000013382
        0.0000002727   0.0000001248   0.0000018934   0.0000001580  -0.0000070187
       -0.0000329364   0.0000230009   0.0000265176   0.0000027453  -0.0000066617
       -0.0000075174  -0.0000033135   0.0000216673  -0.0000004646  -0.0000037221
        0.0000006448   0.0000066274   0.0000105673  -0.0000121240  -0.0000075720
       -0.0000062959   0.0000048362  -0.0000046861   0.0000080004  -0.0000115650
        0.0000037563   0.0000064450   0.0000064072  -0.0000009878   0.0000027892
        0.0000045670  -0.0000141708   0.0000095802  -0.0000148056   0.0000052615
       -0.0000042949   0.0000068272   0.0000169400  -0.0000071621   0.0000034034
        0.0000007125  -0.0000472541  -0.0000341361  -0.0007495712   0.0001298437
        0.0015298118   0.0000925506   0.0003756524  -0.0005589008   0.0005419226
        0.0006745775  -0.0007072261   0.0052018128  -0.0083955258   0.0032743229
        0.0032493414  -0.0254399071   0.0026123475   0.0255314408  -0.0445617324
        0.0054844401  -0.0189370626  -0.0481481183   0.0349801627   0.0004142010
        0.0010183704  -0.0019667062  -0.0066852039  -0.0262911915  -0.0199926025
        0.0003328052   0.0000768029   0.0005358282   0.0006031759   0.0006423388
        0.0004781518  -0.0000151543  -0.0001367179  -0.0000175676  -0.0003785904
        0.0000907099  -0.0002222973  -0.0000041054   0.0000051090   0.0000520714
        0.0000153388  -0.0000061988  -0.0000422110   0.0000010582   0.0000007027
       -0.0000029488   0.0000003114  -0.0000144480   0.0000081384  -0.0000017878
        0.0000003516  -0.0000048054  -0.0000042346  -0.0000048969   0.0000008297
       -0.0000033350  -0.0000002003   0.0000025263   0.0000014174  -0.0000009277
       -0.0000027448  -0.0000002400  -0.0000016524  -0.0000029532  -0.0000010430
       -0.0000023336   0.0000032426   0.0000005670  -0.0000014843   0.0000003213
        0.0000001714  -0.0000000968  -0.0000016949  -0.0000012487   0.0000002406
        0.0000008746  -0.0000146087   0.0000011973  -0.0000029809  -0.0000041968
        0.0000012641  -0.0000007177  -0.0000020889   0.0000046409   0.0000030875
       -0.0000050554   0.0000006725   0.0000013104  -0.0000058247  -0.0000007579
       -0.0000015203  -0.0000058759  -0.0000006759  -0.0000008001  -0.0000194904
       -0.0000054811   0.0000059992
       -0.0012472194   0.0250209289  -0.0094606019  -0.0067310149   0.0336131362
       -0.0747643960  -0.0231623719  -0.0077574224   0.4972681838  -0.0202620723
       -0.0580489515  -0.1261927736  -0.0076632754  -0.0058362178  -0.0066143455
       -0.0003113362   0.0000826292   0.0001898487   0.0001278949   0.0000561868
       -0.0001409301   0.0000401332   0.0000161928   0.0000451857  -0.0000040429
        0.0000070241  -0.0000205911   0.0000062482   0.0000002814   0.0000169041
       -0.0000026772   0.0000022340  -0.0000039029  -0.0000021616   0.0000022208
        0.0000065288  -0.0000009182   0.0000006606   0.0000012828   0.0000186209
       -0.0000524652   0.0000952052   0.0000024893   0.0001152793  -0.0000156775
       -0.0000158677  -0.0000038499  -0.0000049793  -0.0000032579  -0.0000134389
       -0.0000092147  -0.0000147268  -0.0000043801   0.0000005951   0.0000143167
        0.0000246509   0.0000167206  -0.0000099012  -0.0000081888  -0.0000121338
       -0.0000015188  -0.0000051189   0.0000002782   0.0000203396   0.0000238380
       -0.0000237178  -0.0000276491  -0.0000261500  -0.0000190770   0.0000117893
        0.0000076799   0.0000417150  -0.0000071331  -0.0000134069   0.0000011116
       -0.0000148308  -0.0000427019  -0.0000781019   0.0024114692   0.0021918935
       -0.0043327151  -0.0004588088   0.0001449581   0.0003628628  -0.0007180492
       -0.0000902827   0.0008269112  -0.0024507500   0.0058966354  -0.0011466568
        0.0030815257  -0.0210031406   0.0036978023  -0.0330561778   0.0050863018
       -0.0497211123   0.0937817037   0.0353559880  -0.2118741987  -0.0044161115
       -0.0195151976  -0.0235823665   0.0016092293   0.0049927841   0.0051747692
        0.0003250116  -0.0000816349   0.0001113341  -0.0016577861   0.0000082347
        0.0001039045   0.0000013428   0.0001273403  -0.0000266095   0.0008616935
       -0.0001933626   0.0002327068  -0.0000905910   0.0000396430  -0.0000604084
        0.0000092417  -0.0000285944   0.0000043154   0.0000006267  -0.0000028460
       -0.0000028884  -0.0000093754   0.0000054390  -0.0000013353   0.0000018094
       -0.0000082980  -0.0000069283   0.0000075055   0.0000076250  -0.0000024280
        0.0000071857   0.0000033050  -0.0000033090  -0.0000024386  -0.0000020464
       -0.0000031562  -0.0000013302  -0.0000026928  -0.0000011973   0.0000013419
        0.0000034279  -0.0000050019  -0.0000004759   0.0000000762   0.0000005428
       -0.0000008120  -0.0000006938  -0.0000017362   0.0000029261   0.0000016369
       -0.0000014327   0.0000309891  -0.0000600358  -0.0000219047   0.0000108843
       -0.0000052720  -0.0000182257   0.0000005225  -0.0000070828  -0.0000004482
       -0.0000025590  -0.0000070287  -0.0000031010  -0.0000015383   0.0000047115
       -0.0000004321  -0.0000055017  -0.0000038685  -0.0000037978  -0.0000325600
       -0.0000185732  -0.0000168756
        0.0000472791   0.0001669228  -0.0001106174   0.0021138626   0.0006230674
        0.0033236290  -0.0747573506  -0.0197032011  -0.0202620723   0.4713899631
       -0.0025503644  -0.0221004648  -0.1764424485   0.0080232027  -0.0368417996
       -0.0263386538  -0.0005205284   0.0013661433  -0.0010373880  -0.0004739746
        0.0025878513   0.0000797798   0.0000269798   0.0000031088  -0.0000204417
        0.0000420492  -0.0000258837   0.0000006610  -0.0000119805   0.0000182173
       -0.0000047680   0.0000000115  -0.0000049153   0.0000038916   0.0000058360
        0.0000038032   0.0000003933  -0.0000001997   0.0000008551  -0.0008490938
       -0.0000516050   0.0000263795  -0.0000193605  -0.0000560116   0.0000261016
        0.0000609157   0.0000116168   0.0000295682  -0.0000171491  -0.0000262953
        0.0000015892   0.0000204670  -0.0000697548   0.0000233654  -0.0000276648
       -0.0000538536   0.0000756386  -0.0000077385   0.0001438640   0.0000789222
       -0.0000433020  -0.0000747747  -0.0000348125  -0.0000303783  -0.0000484546
        0.0000336489  -0.0000371126   0.0000581957  -0.0000938658   0.0000098046
        0.0000128375   0.0000588022   0.0001004652   0.0000052442  -0.0000175720
        0.0001935316  -0.0000609602  -0.0000040864   0.0000051727   0.0001387163
        0.0000458447   0.0003054182  -0.0004189505   0.0001071587  -0.0001766516
       -0.0000558843  -0.0000855895  -0.0001362454   0.0003242821   0.0002861193
        0.0003549798   0.0013119372  -0.0000993579  -0.0130548751  -0.0198097887
       -0.0228663887   0.0044972237   0.0085864653   0.0105191442  -0.1166639961
       -0.0130241093   0.1079179612  -0.0493399868   0.0340450128  -0.0125684987
       -0.0102078984   0.0042618166  -0.0043869630  -0.0110936957  -0.0012383297
       -0.0055757246   0.0008390433   0.0003492604  -0.0007140047   0.0006052957
        0.0000983465  -0.0007027488  -0.0000561371   0.0000318228  -0.0000710188
       -0.0001091300  -0.0000043091   0.0000047134   0.0000369866   0.0000239344
        0.0000527228  -0.0000220317  -0.0000242636   0.0000142152  -0.0000103854
       -0.0000117574  -0.0000142752   0.0000165384   0.0000204784  -0.0000096787
        0.0000088524   0.0000064567  -0.0000070871   0.0000028269   0.0000031700
        0.0000084476  -0.0000037888  -0.0000035318  -0.0000031698  -0.0000029199
       -0.0000001830  -0.0000009608   0.0000009297  -0.0000054980   0.0000017417
        0.0000010413   0.0000015946   0.0000014112   0.0000031886   0.0000027706
       -0.0000017843  -0.0000504469   0.0000042264   0.0000146106  -0.0000033201
       -0.0000085357  -0.0000123440  -0.0000012754   0.0000163029  -0.0000134523
        0.0000018438   0.0000044508   0.0000173468   0.0000121799   0.0000122521
       -0.0000126303  -0.0000006495   0.0000042973   0.0000180861  -0.0001462514
       -0.0000603222  -0.0000253806
        0.0002688409   0.0005115736   0.0000877868  -0.0072255002  -0.0250846557
       -0.0170510800  -0.0234411192  -0.1208874357  -0.0580489515  -0.0025503644
        0.4960805283  -0.0302838320   0.0102994515  -0.0674990944   0.0033019702
       -0.0036744355   0.0004171494  -0.0004076741  -0.0007275678  -0.0003149086
        0.0005096326   0.0002543973  -0.0000036920  -0.0001204342   0.0000587004
        0.0000253753  -0.0000256341   0.0000288332   0.0000074095  -0.0000152035
        0.0000095448   0.0000021484  -0.0000004500  -0.0000018238  -0.0000030931
       -0.0000013789   0.0000024321   0.0000035221  -0.0000010839  -0.0001772796
        0.0000797420  -0.0001603638  -0.0000127454   0.0000216241   0.0000434008
        0.0000236122  -0.0000128529   0.0000074574  -0.0000058481  -0.0000202514
        0.0000025362   0.0000466442   0.0000061620  -0.0000089847  -0.0000284496
       -0.0000752788   0.0000315549  -0.0000014996  -0.0000158696   0.0000125004
        0.0000155588   0.0000271000   0.0000517244   0.0000357157   0.0000057632
       -0.0000428518  -0.0000129411   0.0000191823   0.0000350759  -0.0000016173