$hessian                                                                        
        0.6511376525  -0.0224711912  -0.0445028937  -0.3272629229   0.0519305944
       -0.0107588304  -0.0395696487  -0.0596396417   0.0577935667  -0.0444639294
        0.0252989014  -0.0188831495  -0.0014276460  -0.0006149171   0.0008478034
        0.0000891733  -0.0001814940  -0.0000264400  -0.0001309787   0.0000917287
        0.0001159858   0.0000318181  -0.0000288157   0.0000109162   0.0000066745
        0.0000004530   0.0000105416  -0.0000014777  -0.0000242612   0.0000066622
       -0.0000355576  -0.0000208569   0.0000006850   0.0000271720  -0.0000022043
        0.0000005568  -0.0000011959  -0.0000048018   0.0000060965  -0.0000005968
        0.0000020438   0.0000015475  -0.0000021466   0.0000015066   0.0000004692
        0.0000000634  -0.0000011044  -0.0000004609  -0.0000034081   0.0000028617
        0.0000004078   0.0000006732  -0.0000045872  -0.0000017045   0.0000041085
        0.0000053179   0.0000037482  -0.0000056940   0.0000001599  -0.0000011485
        0.0000006140   0.0000021696   0.0000016510  -0.0000014476   0.0000016227
        0.0000022780   0.0000056752   0.0000050104   0.0000006145  -0.0000121540
        0.0000086438   0.0000003019  -0.0000021423  -0.0000037267  -0.0000016878
        0.0000001579   0.0000006330   0.0000015434   0.0000009207   0.0000019023
       -0.0000035030   0.0000024939   0.0000012374   0.0000007734  -0.0000005706
        0.0000025907  -0.0000025355   0.0000016131   0.0000007566  -0.0000019182
        0.0000004219   0.0000006124  -0.0000022541   0.0000007316   0.0000014239
       -0.0000018131   0.0000026596   0.0000026959  -0.0000014382   0.0000048663
        0.0000012376  -0.0000023924   0.0000032895   0.0000031365   0.0000000809
        0.0000006124   0.0000016779  -0.0000036696   0.0000020474   0.0000038418
        0.0000005441   0.0000065794   0.0000014469   0.0000023425   0.0000003795
       -0.0000014854   0.0000032280   0.0000032366   0.0000041735  -0.0000010992
       -0.0000018786   0.0000012783   0.0000003367   0.0000021558   0.0000012741
       -0.0000025252  -0.0000019198   0.0000003295   0.0000017728   0.0000124292
        0.0000154299   0.0000057430  -0.0000004879   0.0000620069  -0.0000375028
        0.0004214854   0.0000006739  -0.0000695510  -0.0004459377  -0.0001863932
        0.0003405943  -0.0000177611   0.0000375161  -0.0000752121  -0.0000014640
       -0.0000044516   0.0000247021   0.0000200285   0.0000036813   0.0000046263
        0.0000001899  -0.0000038164   0.0000019917  -0.0000216916   0.0000031130
       -0.0000152453  -0.0000232090  -0.0000314390   0.0000239626   0.0000452433
        0.0005834233  -0.0009013186   0.0587837797   0.0164675477  -0.0212566504
       -0.1487260629   0.0490800877  -0.0320862275  -0.1132334503  -0.0807108649
        0.0808093917  -0.0168226207   0.0030166855  -0.0008949966  -0.0005848944
       -0.0016238315   0.0026034362   0.0002553666  -0.0000304134   0.0001555729
       -0.0000079449  -0.0000147688   0.0000010833  -0.0000027179  -0.0000024535
       -0.0000000973  -0.0000009827  -0.0000005069   0.0000012176  -0.0000011606
       -0.0000028400   0.0000000612  -0.0000023126  -0.0000014204   0.0000004082
       -0.0000016004  -0.0000004916   0.0000003210  -0.0000022001  -0.0000000878
        0.0000001987  -0.0000008084  -0.0000014877  -0.0000009384  -0.0000011209
       -0.0000014704   0.0000013438  -0.0000007460  -0.0000003977   0.0000031554
        0.0000007565   0.0000010657   0.0000033129   0.0000001982   0.0000002134
        0.0000014321   0.0000000912  -0.0000009209   0.0000011930  -0.0000009347
       -0.0000014911   0.0000003385  -0.0000007183  -0.0000008323   0.0000005612
       -0.0000026316  -0.0000000477  -0.0000001882  -0.0000005095   0.0000018572
        0.0000006557  -0.0000014272   0.0000022161   0.0000004450  -0.0000017258
        0.0000017130   0.0000001762  -0.0000016498   0.0000007886   0.0000002617
        0.0000021078  -0.0000077356   0.0000059047   0.0000357436  -0.0000246411
        0.0000196575   0.0000482446   0.0000068387  -0.0000087306   0.0000016417
        0.0000019350  -0.0000031021   0.0000029972   0.0000059817  -0.0000085406
        0.0000057785   0.0000061499  -0.0000069751   0.0000061775   0.0000058090
       -0.0000027319  -0.0006253744  -0.0018499169   0.0029456975  -0.0175185891
        0.0208158122  -0.0162044280
       -0.0224711912   0.4265366401  -0.2710009873  -0.0082468720  -0.0775241578
        0.0258825627  -0.0149818000   0.0225056892  -0.0166732046   0.0256203213
       -0.0127578445   0.0031451317  -0.0002779747  -0.0012916339   0.0008679688
        0.0007062359   0.0003623390  -0.0002013757   0.0000490798  -0.0002978815
        0.0003232067   0.0000610740   0.0000378430   0.0000007942  -0.0000006058
       -0.0000182803   0.0000110363   0.0000190633  -0.0000045556   0.0000053369
       -0.0000402291  -0.0000210875  -0.0000052055   0.0000360095   0.0000220388
        0.0000070789  -0.0000063483  -0.0000203982  -0.0000025077  -0.0000016154
        0.0000052344   0.0000016780  -0.0000020349  -0.0000013698   0.0000005313
        0.0000009750  -0.0000022183  -0.0000010285  -0.0000055398   0.0000007369
       -0.0000013017   0.0000083215  -0.0000044354   0.0000003952  -0.0000017251
        0.0000075183   0.0000034074  -0.0000012486  -0.0000037689   0.0000020096
        0.0000015475   0.0000024043   0.0000015110  -0.0000038399   0.0000019282
       -0.0000006115   0.0000003666  -0.0000055741  -0.0000010407  -0.0000107991
        0.0000126889  -0.0000046587   0.0000019980   0.0000033881   0.0000018801
        0.0000003053  -0.0000003498  -0.0000002585  -0.0000007660  -0.0000017519
        0.0000029227  -0.0000035085   0.0000015236   0.0000002209   0.0000025527
       -0.0000021266   0.0000024135  -0.0000006362  -0.0000020730   0.0000024573
        0.0000009714   0.0000013219   0.0000019291   0.0000006939   0.0000012748
        0.0000028893   0.0000011840  -0.0000039993  -0.0000015590  -0.0000000135
       -0.0000032269   0.0000031835   0.0000000744  -0.0000019911   0.0000013957
        0.0000003746   0.0000017059   0.0000014286  -0.0000018989   0.0000002325
       -0.0000000884  -0.0000052613   0.0000000995   0.0000000395  -0.0000016664
        0.0000025506   0.0000014795   0.0000000964   0.0000008825  -0.0000000018
        0.0000008449   0.0000010866  -0.0000011284  -0.0000010148   0.0000006478
       -0.0000005718  -0.0000028042   0.0000014120   0.0000029251  -0.0000117341
        0.0000141668  -0.0000049019  -0.0000041387  -0.0000077670  -0.0000039280
       -0.0002460293   0.0001152981  -0.0001900545   0.0000188623  -0.0000859920
       -0.0000079657  -0.0000233701   0.0000129356  -0.0000239128   0.0000480364
        0.0000363502  -0.0000119071  -0.0000025193  -0.0000018029  -0.0000021006
        0.0000031711  -0.0000160151   0.0000211460   0.0000007647  -0.0000129686
        0.0000143302  -0.0000071547  -0.0000009450  -0.0000024706  -0.0003297951
        0.0002770935  -0.0001285381  -0.0284580989  -0.0377506744   0.0375213326
        0.1088367800  -0.1837360972   0.1076565319  -0.0806714509  -0.1349577678
        0.0983368814   0.0213087368  -0.0025651168   0.0003974458  -0.0020688552
        0.0014878016   0.0060372299  -0.0000611981   0.0000594258  -0.0000126522
        0.0000020669   0.0000022269  -0.0000058510  -0.0000012903   0.0000022088
       -0.0000027194  -0.0000003189   0.0000006311   0.0000005844  -0.0000029314
       -0.0000009283  -0.0000012919  -0.0000023871   0.0000024028  -0.0000003983
       -0.0000002318   0.0000018896   0.0000002263   0.0000002632   0.0000027208
        0.0000009919   0.0000025390   0.0000024049   0.0000010206  -0.0000010343
        0.0000004183  -0.0000018105  -0.0000000119   0.0000002498  -0.0000000307
       -0.0000001185   0.0000008368   0.0000021634   0.0000010660   0.0000011475
       -0.0000010809  -0.0000003281   0.0000027784   0.0000031650   0.0000001005
        0.0000040555   0.0000005747  -0.0000008894   0.0000013200  -0.0000003670
        0.0000025574  -0.0000022158   0.0000003623  -0.0000002113   0.0000013455
        0.0000000908   0.0000002719   0.0000004469   0.0000007898   0.0000002527
        0.0000016009   0.0000009391   0.0000002125   0.0000010715   0.0000010951
       -0.0000016597   0.0000003753   0.0000010885   0.0000025321   0.0000148285
       -0.0000039443  -0.0000530139  -0.0000158729  -0.0000391196  -0.0000086677
       -0.0000095038   0.0000067740  -0.0000034568  -0.0000049775   0.0000029999
        0.0000003999  -0.0000013343   0.0000024827  -0.0000025633  -0.0000029287
        0.0000066102  -0.0016576447   0.0016516403   0.0058290993   0.0029497940
       -0.0020692263   0.0022168056
       -0.0445028937  -0.2710009873   0.3630409784   0.0410745090   0.0185751820
       -0.0699647044   0.0180743925  -0.0110703255   0.0084801650  -0.0178396878
        0.0022450230  -0.0067822951   0.0005618006   0.0009396750  -0.0011210222
       -0.0005919394  -0.0002044347   0.0001974541  -0.0000633320   0.0002612811
       -0.0002583590  -0.0000582804  -0.0000360812  -0.0000011258  -0.0000051402
        0.0000128923  -0.0000116549  -0.0000138647   0.0000060038  -0.0000097948
        0.0000379511   0.0000205487  -0.0000011146  -0.0000320687  -0.0000134617
       -0.0000035795   0.0000020828   0.0000167368   0.0000013020   0.0000007236
       -0.0000029602  -0.0000027398   0.0000005919   0.0000018242  -0.0000003724
       -0.0000027453   0.0000023207  -0.0000034548   0.0000022240   0.0000019209
       -0.0000024471  -0.0000075321   0.0000003408   0.0000008146  -0.0000023511
       -0.0000048922   0.0000001449   0.0000012839   0.0000025142   0.0000000819
       -0.0000000262  -0.0000004807   0.0000025572   0.0000016808   0.0000025068
       -0.0000001777  -0.0000002939   0.0000045042   0.0000031840   0.0000111301
       -0.0000054625  -0.0000002656  -0.0000009639  -0.0000024069   0.0000011789
        0.0000022262  -0.0000019174   0.0000050504   0.0000028316  -0.0000011948
        0.0000008904   0.0000017291  -0.0000003586   0.0000008417  -0.0000000167
       -0.0000013316   0.0000002721   0.0000012353  -0.0000007690   0.0000029822
        0.0000027131   0.0000004080   0.0000020493   0.0000014240   0.0000004699
        0.0000016036  -0.0000010016   0.0000002993   0.0000031016   0.0000024329
        0.0000031604   0.0000016733  -0.0000022037   0.0000018843   0.0000029496
       -0.0000010590   0.0000045906  -0.0000015150   0.0000019009   0.0000041229
        0.0000011477   0.0000020440  -0.0000013954   0.0000041457  -0.0000029810
       -0.0000014413   0.0000126486   0.0000031738   0.0000014166  -0.0000020080
        0.0000017867   0.0000007888   0.0000018034   0.0000023748   0.0000035208
       -0.0000038169  -0.0000026295  -0.0000032603   0.0000065454   0.0000079895
       -0.0000111369   0.0000025630   0.0000025611  -0.0000023748   0.0000123346
        0.0001031027  -0.0001235185   0.0001241345   0.0000677061   0.0001864637
       -0.0000595611   0.0000271497  -0.0000199089   0.0000271825  -0.0000291916
       -0.0000264997   0.0000032203  -0.0000062302  -0.0000074085  -0.0000019947
        0.0000002367   0.0000102458  -0.0000221833   0.0000044649   0.0000067008
       -0.0000140249   0.0000075063   0.0000025260  -0.0000018787   0.0001900180
       -0.0004120690   0.0003190648   0.0178524526   0.0324636450  -0.0292503620
       -0.0846385012   0.1151019075  -0.1400291558   0.0808086567   0.0982930543
       -0.1314226245  -0.0163085068   0.0025730060   0.0005406436   0.0030768046
        0.0060536964   0.0027098072   0.0000174814  -0.0000519733  -0.0000403216
        0.0000019082  -0.0000015803   0.0000016367   0.0000013021  -0.0000024260
       -0.0000015908  -0.0000013314   0.0000007627  -0.0000045011  -0.0000009112
        0.0000019072  -0.0000037052  -0.0000000714   0.0000017358  -0.0000033472
       -0.0000006240   0.0000019473  -0.0000010030  -0.0000005739   0.0000007310
       -0.0000000070  -0.0000017133  -0.0000009975  -0.0000016048   0.0000019055
       -0.0000030891  -0.0000012514   0.0000024223  -0.0000031099   0.0000015763
        0.0000025906  -0.0000022331   0.0000031069   0.0000011984  -0.0000040922
        0.0000005632   0.0000004851  -0.0000015002   0.0000022829   0.0000009429
       -0.0000005183   0.0000034564   0.0000004667   0.0000000291   0.0000044609
        0.0000006520  -0.0000009848   0.0000020553   0.0000007701  -0.0000009273
        0.0000024417   0.0000006947   0.0000000567   0.0000043400  -0.0000000531
        0.0000002978   0.0000027476   0.0000004983  -0.0000001868   0.0000017615
        0.0000006074   0.0000005557  -0.0000036382  -0.0000088559  -0.0000078616
        0.0000013612   0.0000375966   0.0000127330   0.0000219903   0.0000086802
        0.0000023083  -0.0000111534   0.0000043799  -0.0000016707  -0.0000057377
       -0.0000011055  -0.0000024351  -0.0000066558  -0.0000008238  -0.0000015175
       -0.0000064497   0.0024985304   0.0060913397   0.0026578224  -0.0003965006
        0.0001235956   0.0008370796
       -0.3272629229  -0.0082468720   0.0410745090   0.6513958125  -0.0400323252
       -0.0317979100  -0.1593140921  -0.0441725931   0.0516156226   0.0540962983
       -0.0279448346   0.0198416357   0.0017024203   0.0053048470  -0.0036771636
       -0.0013074943  -0.0004462195  -0.0000885291   0.0004526737   0.0003330467
       -0.0006440199  -0.0000961665  -0.0000236991  -0.0000347794   0.0000173945
        0.0000618524  -0.0000447442  -0.0000769257   0.0000325262  -0.0000163017
        0.0001799774   0.0000726936   0.0000254196  -0.0002065195  -0.0000848033
       -0.0000258450   0.0000207988   0.0001097888   0.0000148021   0.0000052778
       -0.0000269043  -0.0000117837   0.0000127824   0.0000167283   0.0000094708
       -0.0000128364   0.0000022177   0.0000006687   0.0000088556  -0.0000072697
        0.0000000074  -0.0000348425   0.0000100564   0.0000050294  -0.0000137389
       -0.0000348292  -0.0000123160  -0.0000004965   0.0000080702  -0.0000012714
       -0.0000133069  -0.0000055246  -0.0000016685   0.0000256996  -0.0000080815
       -0.0000053173  -0.0000161968   0.0000303522   0.0000130230   0.0000930174
       -0.0000662400   0.0000071026  -0.0000029065   0.0000022696  -0.0000001537
       -0.0000024130   0.0000003531  -0.0000026925   0.0000007941   0.0000046436
       -0.0000020291   0.0000010021   0.0000022041  -0.0000015875  -0.0000037859
        0.0000027849  -0.0000041870  -0.0000022914   0.0000014957  -0.0000010824
       -0.0000004633  -0.0000010205  -0.0000028336   0.0000002632   0.0000006769
       -0.0000031365  -0.0000028173   0.0000044048  -0.0000021364  -0.0000018444
       -0.0000023291  -0.0000009024   0.0000007560   0.0000030602   0.0000045849
       -0.0000003241   0.0000055406  -0.0000025063  -0.0000017983  -0.0000010327
        0.0000022010   0.0000060893   0.0000041483   0.0000031925   0.0000012694
       -0.0000075164   0.0000007087  -0.0000014555  -0.0000000740  -0.0000028456
       -0.0000005520   0.0000016125   0.0000006119   0.0000001085   0.0000032540
       -0.0000016688   0.0000073473  -0.0000107800  -0.0000018829  -0.0000161153
       -0.0001020099   0.0000136289   0.0000318043   0.0000232590   0.0000264902
       -0.0003468114  -0.0002514891   0.0006843486   0.0004690798   0.0002910129
       -0.0010605765   0.0000627161  -0.0000207482   0.0001321749  -0.0000567123
       -0.0000590848   0.0000355693  -0.0000435379  -0.0000249353   0.0000031915
       -0.0000171782  -0.0000020143  -0.0000022011   0.0000574230   0.0000102215
        0.0000097532   0.0000656730   0.0000717736  -0.0000453740   0.0006258930
       -0.0009013286   0.0012340184  -0.0483731403  -0.0193160311   0.0224961911
       -0.0320784171   0.0662345492  -0.0544496669  -0.0179645178  -0.0002653167
        0.0026474368  -0.1019175817   0.0854705990  -0.0651268164  -0.0196060974
       -0.0182148420   0.0181391431  -0.0000852117   0.0002142149   0.0001070268
        0.0000093019   0.0000048821   0.0000086813  -0.0000110598  -0.0000159686
        0.0000097847  -0.0000025552   0.0000056538   0.0000026694   0.0000027156
       -0.0000044279  -0.0000006220  -0.0000014432  -0.0000066786  -0.0000016838
       -0.0000055069  -0.0000038394   0.0000003442  -0.0000057296  -0.0000049925
       -0.0000016284   0.0000031095  -0.0000082908  -0.0000046836   0.0000003849
       -0.0000034489  -0.0000004459   0.0000001898  -0.0000019904   0.0000012600
        0.0000004415  -0.0000012196   0.0000002993  -0.0000002718  -0.0000039794
       -0.0000007902  -0.0000005726  -0.0000057507  -0.0000016292  -0.0000009220
       -0.0000045209   0.0000008429  -0.0000017012  -0.0000042576  -0.0000016359
       -0.0000022198  -0.0000038745  -0.0000004940  -0.0000000426  -0.0000003388
       -0.0000000751  -0.0000039005   0.0000002129  -0.0000000084  -0.0000039175
       -0.0000021673  -0.0000007279  -0.0000001133  -0.0000034462  -0.0000007033
       -0.0000086791   0.0000003904  -0.0000085001   0.0000614601   0.0000143283
        0.0000004953  -0.0000672736   0.0000050080  -0.0000148595   0.0000271004
        0.0000003188   0.0000198773   0.0000089659  -0.0000053410   0.0000166725
        0.0000021708  -0.0000112540   0.0000160789   0.0000033695   0.0000114276
       -0.0000146814  -0.0001434823  -0.0005691632   0.0002430235  -0.0003195342
        0.0025692196  -0.0013384937
        0.0519305944  -0.0775241578   0.0185751820  -0.0400323252   0.4338855912
       -0.2712039438  -0.1025518162  -0.1645272832   0.1142468047   0.0132532766
       -0.0363938948   0.0313861638   0.0036337736   0.0020432591   0.0042377942
        0.0003559707   0.0006066917  -0.0006495325   0.0001358367  -0.0003983705
        0.0001290775   0.0000513657   0.0001222704   0.0000171732   0.0000211082
       -0.0000161361   0.0000323017   0.0000313602  -0.0000151482   0.0000047254
       -0.0000455252  -0.0000088277  -0.0000129838   0.0000397297   0.0000115608
        0.0000089323  -0.0000046127  -0.0000181563   0.0000016887  -0.0000002591
        0.0000056256   0.0000053612   0.0000002587  -0.0000013207   0.0000050155
        0.0000061443  -0.0000035606   0.0000036264  -0.0000014005   0.0000028373
        0.0000036981   0.0000075960  -0.0000083483   0.0000020944   0.0000008081
        0.0000078572   0.0000057162   0.0000014221  -0.0000064014   0.0000033782
        0.0000037603   0.0000017166   0.0000024299  -0.0000024882   0.0000018471
        0.0000008590   0.0000070737  -0.0000045409  -0.0000003866  -0.0000156213
        0.0000140419  -0.0000039089  -0.0000003476  -0.0000041389   0.0000003278
       -0.0000002326  -0.0000007180   0.0000022209   0.0000002912  -0.0000000196
       -0.0000001593  -0.0000014349   0.0000038448   0.0000000228   0.0000020383
       -0.0000005904  -0.0000014900   0.0000005749  -0.0000013885  -0.0000013686
        0.0000006722   0.0000021518  -0.0000017296  -0.0000005610  -0.0000002527
       -0.0000021220   0.0000002572  -0.0000071601  -0.0000043294   0.0000003075
        0.0000018137  -0.0000003756  -0.0000031159  -0.0000047084  -0.0000033591
       -0.0000001206  -0.0000024071   0.0000008399  -0.0000002420   0.0000039782
       -0.0000029814   0.0000001754  -0.0000006180   0.0000006263  -0.0000015014
       -0.0000002956   0.0000001915   0.0000022102  -0.0000006136  -0.0000009094
        0.0000020776  -0.0000020279  -0.0000015188   0.0000010803  -0.0000002761
        0.0000004285  -0.0000018232  -0.0000015644   0.0000021223   0.0000067717
        0.0000397366  -0.0000130797   0.0000000293   0.0000159262  -0.0000254657
       -0.0004007803   0.0001350422  -0.0001224306   0.0006671265  -0.0003078062
       -0.0000206230  -0.0000724453  -0.0000686181   0.0000909064   0.0000392956
        0.0000282385  -0.0000049224  -0.0000044822   0.0000024417  -0.0000054972
       -0.0000125994  -0.0000107260   0.0000132776   0.0000022217  -0.0000093706
        0.0000153854   0.0000053951  -0.0000056787   0.0000253819  -0.0005115714
       -0.0014519066   0.0018638190  -0.0187531670  -0.0071865562   0.0033692420
        0.0226524025   0.0100205041  -0.0100951092  -0.0182377240   0.0008787049
        0.0022082896   0.0852747183  -0.1621253576   0.1007948989   0.0002567543
        0.0013910018  -0.0004567361  -0.0001406912  -0.0000405930  -0.0000381927
       -0.0000022722  -0.0000035442   0.0000012654   0.0000027685   0.0000035205
        0.0000004454  -0.0000004679  -0.0000039293   0.0000018122  -0.0000009195
       -0.0000042462   0.0000021196  -0.0000007219  -0.0000016563   0.0000035881
        0.0000007495  -0.0000011464   0.0000031272   0.0000002488  -0.0000000666
        0.0000021979  -0.0000055100   0.0000008975  -0.0000006164  -0.0000016858
        0.0000001616  -0.0000010993  -0.0000002339   0.0000017693   0.0000012457
       -0.0000001434   0.0000039891   0.0000020398  -0.0000008060   0.0000026870
       -0.0000048303  -0.0000015400   0.0000039118  -0.0000032793   0.0000008625
       -0.0000006739  -0.0000064469   0.0000020600  -0.0000005736  -0.0000012902
        0.0000017085  -0.0000045720  -0.0000021467  -0.0000011694   0.0000005768
       -0.0000027638  -0.0000011073  -0.0000005655  -0.0000010333  -0.0000009418
       -0.0000008961   0.0000005635  -0.0000002690  -0.0000018682   0.0000015498
        0.0000013143  -0.0000039975   0.0000012875  -0.0000465299  -0.0000074908
       -0.0000054498  -0.0000428407  -0.0000153583  -0.0000104813  -0.0000005208
       -0.0000003222   0.0000040064   0.0000012463   0.0000025919   0.0000030851
        0.0000037105   0.0000018936   0.0000057115   0.0000054016   0.0000002652
        0.0000092374  -0.0004668059   0.0001315899  -0.0004470488   0.0029568245
        0.0008299089   0.0060563556
       -0.0107588304   0.0258825627  -0.0699647044  -0.0317979100  -0.2712039438
        0.3573467219   0.1040610071   0.1074908727  -0.1538790876  -0.0197360673
        0.0366684327  -0.0286672781  -0.0021466647   0.0044566246   0.0042006763
        0.0006521350  -0.0002105870  -0.0003909864   0.0001262046  -0.0003758858
        0.0000946172  -0.0000376537   0.0000807133   0.0000590080   0.0000039773
        0.0000059543   0.0000037097  -0.0000040176   0.0000036066  -0.0000152069
       -0.0000077064  -0.0000159383   0.0000024299   0.0000194808   0.0000146503
        0.0000107581  -0.0000040097  -0.0000167881  -0.0000010488   0.0000016575
       -0.0000003840   0.0000056268  -0.0000018512  -0.0000064068   0.0000030602
       -0.0000008995  -0.0000016157   0.0000018255  -0.0000015245  -0.0000021341
        0.0000002574   0.0000045405  -0.0000034300   0.0000028104  -0.0000005615
        0.0000015208   0.0000043004   0.0000003580  -0.0000013381   0.0000004549
        0.0000016485   0.0000001712   0.0000018399  -0.0000050236   0.0000013239
       -0.0000022581  -0.0000004720  -0.0000027947   0.0000000666  -0.0000063760
        0.0000081864  -0.0000023593   0.0000021122   0.0000041467  -0.0000011085
        0.0000010836  -0.0000004557  -0.0000017274  -0.0000000096   0.0000004957
        0.0000005434  -0.0000018176   0.0000027564  -0.0000027819  -0.0000019073
        0.0000035522  -0.0000014243  -0.0000024390   0.0000005055  -0.0000006204
        0.0000012700   0.0000028472  -0.0000012877   0.0000008397   0.0000009279
        0.0000004179  -0.0000019496  -0.0000001846  -0.0000054191   0.0000007783
       -0.0000059499  -0.0000034853  -0.0000003214  -0.0000009538  -0.0000042761
       -0.0000005150   0.0000036525  -0.0000079952   0.0000002962  -0.0000001086
       -0.0000031628  -0.0000050290  -0.0000023285  -0.0000011777  -0.0000037075
        0.0000007494   0.0000060214   0.0000008476   0.0000013593  -0.0000070992
        0.0000003729   0.0000005971  -0.0000027837   0.0000009770   0.0000006926
       -0.0000068135  -0.0000043098  -0.0000009416   0.0000044620   0.0000054230
       -0.0000081218  -0.0000007249  -0.0000314602  -0.0000067909   0.0000099387
       -0.0000480651   0.0002311669   0.0000138999   0.0002412348  -0.0005317334
       -0.0002964282   0.0000002618   0.0000127956  -0.0000334931  -0.0000228782
       -0.0000148222   0.0000040179   0.0000090596   0.0000029008  -0.0000010971
        0.0000084547   0.0000152309  -0.0000086670  -0.0000112459   0.0000038320
       -0.0000062323  -0.0000048475   0.0000049591   0.0000148086  -0.0003972950
        0.0005035895  -0.0005921557   0.0217711356   0.0035313474  -0.0113866500
       -0.0162598688  -0.0153986948   0.0166843227   0.0183975305   0.0001477248
       -0.0012431921  -0.0655505471   0.1006300000  -0.1139505420   0.0025961146
        0.0021734308  -0.0008712678   0.0001453263   0.0001337626  -0.0000498435
       -0.0000021889  -0.0000027310   0.0000058470   0.0000054875   0.0000014845
       -0.0000002567   0.0000004255   0.0000001697   0.0000010988  -0.0000002485
        0.0000015725   0.0000043098   0.0000022718   0.0000010487   0.0000039863
        0.0000022657   0.0000003566   0.0000027288   0.0000020098   0.0000007687
        0.0000012898   0.0000035632   0.0000004685  -0.0000012344   0.0000010020
        0.0000021023  -0.0000034918  -0.0000001401   0.0000038065  -0.0000024978
       -0.0000007920   0.0000033863  -0.0000019406   0.0000001107   0.0000008884
       -0.0000033312  -0.0000001091  -0.0000000178   0.0000010729  -0.0000012625
        0.0000012349  -0.0000024834  -0.0000005889  -0.0000046447  -0.0000010930
        0.0000031761  -0.0000021475  -0.0000005523  -0.0000001072   0.0000001973
       -0.0000031354   0.0000010500   0.0000000626  -0.0000023952   0.0000014645
        0.0000001447  -0.0000016559   0.0000013778   0.0000001654   0.0000003517
        0.0000058766  -0.0000012683  -0.0000003937   0.0000280236   0.0000017898
       -0.0000031591   0.0000428662   0.0000120405   0.0000165354  -0.0000022838
        0.0000040237  -0.0000056879  -0.0000020155   0.0000072205  -0.0000015437
       -0.0000023939   0.0000043315  -0.0000037816  -0.0000069494   0.0000023564
        0.0000004382   0.0004022933  -0.0002846781   0.0001567323  -0.0016805302
        0.0060305575   0.0027820328
       -0.0395696487  -0.0149818000   0.0180743925  -0.1593140921  -0.1025518162
        0.1040610071   0.6613656965  -0.0288551555  -0.0488427710  -0.1435732142
        0.0987077669  -0.0765875843   0.0108607536  -0.0045504377   0.0023656341
       -0.0027097114  -0.0016177828   0.0019533746   0.0005136780   0.0015580812
       -0.0012236371  -0.0002471552  -0.0001527739  -0.0000129478  -0.0000096400
        0.0001905505  -0.0001750061  -0.0001214346   0.0000954654  -0.0000340816
        0.0003353515   0.0001740565   0.0000316528  -0.0003504273  -0.0001188879
       -0.0000779374   0.0000274937   0.0001646844   0.0000153058  -0.0000060254
       -0.0000328890  -0.0000229015   0.0000196244   0.0000260064   0.0000135093
       -0.0000249421   0.0000089737   0.0000017868   0.0000146036  -0.0000098668
       -0.0000008602  -0.0000525517   0.0000270797   0.0000125283  -0.0000255438
       -0.0000562584  -0.0000218841   0.0000034781   0.0000179286  -0.0000025220
       -0.0000129824  -0.0000064541  -0.0000023822   0.0000300724  -0.0000116839
       -0.0000078812  -0.0000392780   0.0000365470  -0.0000008974   0.0001513379
       -0.0001197300   0.0000288336   0.0000033566   0.0000161396   0.0000009157
       -0.0000091256  -0.0000030954  -0.0000122180   0.0000006257   0.0000051543
       -0.0000025265   0.0000002469   0.0000008309  -0.0000001382   0.0000025792
        0.0000099879  -0.0000019038   0.0000023025  -0.0000034921  -0.0000046558
        0.0000003427  -0.0000023801   0.0000030601  -0.0000018436  -0.0000024137
        0.0000088108   0.0000118246   0.0000032129   0.0000002887   0.0000117839
       -0.0000026374  -0.0000044583   0.0000067475   0.0000040855  -0.0000084981
       -0.0000007971   0.0000019942  -0.0000111711  -0.0000128217  -0.0000133956
        0.0000096792  -0.0000048761   0.0000051864   0.0000024217   0.0000077905
       -0.0000077609  -0.0000017647  -0.0000024280   0.0000033283  -0.0000014919
       -0.0000001368   0.0000056669   0.0000015314   0.0000019270   0.0000055053
       -0.0000014336   0.0000128005  -0.0000079212  -0.0000006643  -0.0000527876
       -0.0001024539  -0.0000197087   0.0001295381  -0.0001865097   0.0001822304
        0.0002515437  -0.0008247234   0.0007745414   0.0001064383   0.0006564665
       -0.0000098512  -0.0000218199  -0.0002547938   0.0003797439  -0.0001924717
       -0.0001419601   0.0000569107  -0.0000593190  -0.0000369438   0.0000149282
       -0.0000168365   0.0000085171  -0.0000197636   0.0000666693   0.0000205440
        0.0000053065   0.0002365780   0.0001150550  -0.0000287897  -0.0009061381
       -0.0034929325   0.0037758371  -0.0303343126   0.0224922643  -0.0159293775
        0.0035841728  -0.0027754431   0.0015211924  -0.0058156907   0.0007143100
        0.0009085054   0.0064768733   0.0080996694  -0.0079228216  -0.2950151699
        0.0285341131   0.0156780881  -0.0004931487  -0.0015984962   0.0003778891
        0.0000438343   0.0000232454   0.0000059684  -0.0000229642  -0.0000245639
        0.0000168345   0.0000066164   0.0000010050   0.0000033976   0.0000040347
       -0.0000038165  -0.0000010740  -0.0000008706  -0.0000049526  -0.0000021292
       -0.0000081729  -0.0000041069   0.0000001556  -0.0000063288  -0.0000050361
       -0.0000018167   0.0000013710  -0.0000127222   0.0000107454  -0.0000002746
       -0.0000035574   0.0000006390   0.0000000965  -0.0000018565   0.0000019046
       -0.0000003272  -0.0000025305   0.0000041327  -0.0000005692   0.0000023183
        0.0000100669  -0.0000041312   0.0000024472   0.0000116710  -0.0000057033
        0.0000087058  -0.0000028851  -0.0000065079  -0.0000013402  -0.0000046048
       -0.0000042170  -0.0000034663   0.0000023637  -0.0000034642   0.0000040128
        0.0000031969  -0.0000024528   0.0000007481   0.0000003915  -0.0000016977
       -0.0000003354  -0.0000003417  -0.0000001828  -0.0000027756  -0.0000006318