$hessian                                                                        
        0.4861641929   0.0285076017  -0.0288926093  -0.1127061807   0.0483240123
       -0.0403927379  -0.0071285203   0.0095609443  -0.0026861747   0.0045612686
       -0.0025581037   0.0023499525  -0.0280012747   0.0079269259  -0.0138348507
       -0.0009159170  -0.0015006890  -0.0016430521  -0.0008889567  -0.0011181505
        0.0011507870   0.0001253855   0.0004163479   0.0003835783  -0.0004171229
       -0.0000864725  -0.0002349082   0.0001385617  -0.0001141739  -0.0000642176
       -0.0000136629   0.0000752262  -0.0000209927   0.0000304596  -0.0000091514
        0.0000221148  -0.0000823357   0.0000471759  -0.0000075619   0.0001015672
       -0.0000017110   0.0000297614  -0.0000807614   0.0000005250  -0.0000106570
        0.0001120698   0.0000319084   0.0000431500   0.0000028749   0.0000023634
       -0.0000070657  -0.0000109166  -0.0000127553   0.0000012645   0.0000186981
        0.0000007063  -0.0000109419  -0.0000155913  -0.0000200044  -0.0000152850
        0.0000114098   0.0000172894   0.0000103571  -0.0000115115  -0.0000086258
        0.0000085607   0.0000191385   0.0000118700   0.0000109048   0.0000039810
        0.0000034406  -0.0000099826  -0.0000025498  -0.0000004206   0.0000032338
       -0.0000005376  -0.0000012825  -0.0000056781   0.0000007873   0.0000005838
        0.0000023225   0.0000167158   0.0000098373  -0.0000167738  -0.0000033975
       -0.0000026610   0.0000068122  -0.0000039695  -0.0000036433   0.0000040675
       -0.0000012519   0.0000009034  -0.0000028568   0.0000018897  -0.0000001794
        0.0000002101  -0.0000010661   0.0000007004   0.0000010148   0.0000002935
        0.0000004516  -0.0000014026   0.0000018366  -0.0000010324   0.0000011823
       -0.0000022118  -0.0000007079   0.0000036500  -0.0000007027  -0.0000004393
       -0.0000008038  -0.0000002257   0.0000010966  -0.0000008483   0.0000007875
       -0.0000002556   0.0000011578  -0.0000003217  -0.0000008280  -0.0000003856
        0.0000004962  -0.0000002292   0.0000007019  -0.0000141874  -0.0000108637
        0.0000083865   0.0000082066   0.0000075965  -0.0000002739  -0.0000023035
       -0.0000040672   0.0000010218  -0.0000084324  -0.0000058366   0.0000026805
        0.0000033950   0.0000002293  -0.0000024034   0.0000173701   0.0000157683
       -0.0000022865  -0.0000057642  -0.0000052442  -0.0000011647  -0.0000009686
       -0.0000052223  -0.0000006974  -0.0000023267   0.0000013032   0.0000017774
        0.0000016840   0.0000007041   0.0000005933   0.0000004901  -0.0000011119
       -0.0000011408  -0.0000014835   0.0000001606   0.0000002595   0.0000007528
        0.0000009222   0.0000016793  -0.0000040014  -0.0000028701  -0.0000003975
       -0.0000001650   0.0000021613   0.0000006525   0.0000016013  -0.0000017898
        0.0000019312  -0.0000013936  -0.0000008536  -0.0000023968   0.0000008180
        0.0000029006   0.0000010220   0.0000020135  -0.0000010938   0.0000031480
       -0.0000037575  -0.0000023129   0.0000031318  -0.0000052155  -0.0000058323
       -0.0000061823   0.0000043149   0.0000065028   0.0000023028  -0.0000294633
        0.0000263739  -0.0000258126  -0.0000449066  -0.0000920462  -0.0000179439
        0.0000217515  -0.0000272170   0.0000072738  -0.0000694847   0.0000044698
       -0.0000026861  -0.0000037433   0.0001562521   0.0000320041  -0.0000138858
       -0.0000295947  -0.0000008007   0.0000059282   0.0000027171   0.0000078453
        0.0000001755  -0.0000064227  -0.0000014860  -0.0000040383   0.0000176649
       -0.0000050319  -0.0000027864  -0.0000079347  -0.0000036007   0.0000072710
       -0.0000025213  -0.0000001358  -0.0000005662  -0.0000024581   0.0000064360
       -0.0000105899   0.0000203462  -0.0000126708   0.0000240799  -0.0000425113
        0.0000213687   0.0000550601  -0.0001249385   0.0007831368  -0.0005542536
        0.0009541397  -0.0003413607  -0.2083315882  -0.1062946414  -0.0298836902
       -0.0552008108   0.0436120073   0.0298533893  -0.0780282167  -0.0264965300
        0.0810018215  -0.0001418380   0.0014136542   0.0007117692   0.0000994466
       -0.0001576630  -0.0005152323   0.0006770366  -0.0011599539  -0.0001990162
        0.0003400944  -0.0003598813   0.0003640827   0.0007534535  -0.0003867847
        0.0006865950   0.0001372803  -0.0009051679   0.0020527191  -0.0000435934
        0.0001727969  -0.0003849425  -0.0001763216  -0.0001344374   0.0000053176
        0.0000200633  -0.0000167325   0.0000234741   0.0000000234  -0.0000020582
       -0.0000018528   0.0000001374   0.0000017273  -0.0000009729  -0.0000021973
        0.0000030533   0.0000005244  -0.0000042954  -0.0000007386  -0.0000020958
        0.0000022306  -0.0000015793  -0.0000032735  -0.0000004699   0.0000010868
        0.0000006407   0.0000002531   0.0000002166   0.0000002048  -0.0000009275
        0.0000007752   0.0000005868  -0.0000007404   0.0000004501  -0.0000000447
       -0.0000006722   0.0000003465  -0.0000008267   0.0000007526  -0.0000000493
       -0.0000010893  -0.0000001282   0.0000008502  -0.0000011294   0.0000008115
       -0.0000003138   0.0000004999   0.0000001957   0.0000000427  -0.0000000515
        0.0000003732  -0.0000005246  -0.0000003830   0.0000006372   0.0000004129
       -0.0000005281   0.0000008608  -0.0000005327  -0.0000004223  -0.0000006904
       -0.0000004465  -0.0000000573  -0.0000002749  -0.0000000158   0.0000004241
        0.0000002185   0.0000004037  -0.0000001807   0.0000024450   0.0000003133
       -0.0000009092   0.0000002945   0.0000011556  -0.0000009839   0.0000007575
        0.0000005245  -0.0000009618   0.0000007396   0.0000003745   0.0000007060
        0.0000004613  -0.0000008146   0.0000001123  -0.0000000207   0.0000002987
       -0.0000003320   0.0000004024  -0.0000000846  -0.0000002928  -0.0000001661
        0.0000007271   0.0000023327  -0.0000094166   0.0000101186  -0.0000020786
       -0.0000070814  -0.0000017134   0.0000014289  -0.0000023572  -0.0000023057
        0.0000011344   0.0000034733   0.0000016123   0.0000063366   0.0000015278
       -0.0000039597  -0.0000029343  -0.0000009767   0.0000013817   0.0000009630
        0.0000008760  -0.0000050965   0.0000010283   0.0000031420   0.0000028301
       -0.0000019468  -0.0000019141  -0.0000059380   0.0000002197   0.0000049924
        0.0000014317   0.0000038637  -0.0000001356   0.0000022470  -0.0000000566
        0.0000036642   0.0000012829   0.0000051966   0.0000009613   0.0000033628
       -0.0000008492   0.0000005060  -0.0000060542  -0.0000022608   0.0000022433
       -0.0000107677   0.0000062624  -0.0000079241   0.0000105720  -0.0000196896
        0.0000005324   0.0000448516  -0.0000270641  -0.0004927535   0.0003280139
       -0.0003086618
        0.0285076017   0.5048125252   0.0249643959   0.0416092098  -0.0998435408
        0.0300687965   0.0196001933  -0.0226977545   0.0081142391   0.0061489201
       -0.0069529945   0.0090064201  -0.0059064833   0.0080124587  -0.0044685218
       -0.0013550902  -0.0009187115  -0.0003493157  -0.0001646415  -0.0004209393
        0.0006354166   0.0002372387   0.0004339793   0.0002222702  -0.0004897181
       -0.0003114831  -0.0001696165   0.0001165999  -0.0000935989  -0.0000879638
       -0.0000297984   0.0000632244  -0.0000178676   0.0000032652  -0.0000267769
        0.0000179356  -0.0000062572   0.0000086949   0.0000085762  -0.0000109453
        0.0000054092  -0.0000001847  -0.0000221645   0.0000456045  -0.0000103018
       -0.0000105049  -0.0000020495   0.0000036232   0.0000375889  -0.0000579707
        0.0000079657  -0.0000357024   0.0000015520  -0.0000119357   0.0000406673
       -0.0000366653  -0.0000027770  -0.0000588857  -0.0000495172  -0.0000311667
        0.0000391953   0.0000444050   0.0000216161  -0.0000163483   0.0000750866
        0.0000045178  -0.0000029395  -0.0000320682   0.0000267950   0.0000051129
        0.0000052169  -0.0000356259  -0.0000041717  -0.0000056631  -0.0000116481
       -0.0000046224  -0.0000025613   0.0000001575   0.0000073064   0.0000068922
        0.0000132935   0.0000277551   0.0000098808  -0.0000405011  -0.0000046718
       -0.0000004610   0.0000216524  -0.0000056260  -0.0000059275   0.0000061574
       -0.0000050675   0.0000021809  -0.0000033074   0.0000008078   0.0000002929
       -0.0000023711   0.0000020825  -0.0000013260  -0.0000001531  -0.0000001061
        0.0000007295   0.0000021027   0.0000005093  -0.0000012236  -0.0000010777
       -0.0000071239  -0.0000009476   0.0000047533  -0.0000027885  -0.0000003130
       -0.0000021617  -0.0000012624   0.0000013205  -0.0000020337  -0.0000002882
        0.0000019968   0.0000000708   0.0000008468   0.0000002060   0.0000004494
        0.0000003226  -0.0000006501   0.0000013103  -0.0000296186  -0.0000264322
       -0.0000016892   0.0000096184   0.0000078927  -0.0000003489   0.0000079413
        0.0000064862  -0.0000022172  -0.0000175703  -0.0000072411   0.0000196474
       -0.0000002878  -0.0000047068  -0.0000188668   0.0000350549   0.0000296781
        0.0000075140  -0.0000117877  -0.0000122844  -0.0000105040  -0.0000025403
       -0.0000067266   0.0000006169  -0.0000035692   0.0000028720   0.0000028676
        0.0000016401   0.0000015199   0.0000001224   0.0000015538  -0.0000004916
       -0.0000011957  -0.0000014643  -0.0000003883  -0.0000015565   0.0000009087
        0.0000003604   0.0000013332  -0.0000081585  -0.0000040589   0.0000021927
       -0.0000021752   0.0000027419   0.0000000130   0.0000001609  -0.0000007358
       -0.0000003744  -0.0000016612   0.0000015477  -0.0000017830   0.0000005508
        0.0000032198  -0.0000004028   0.0000022244  -0.0000002430   0.0000042482
       -0.0000058610  -0.0000049673   0.0000039023  -0.0000032583   0.0000046425
        0.0000129765   0.0000335298   0.0000261699   0.0000031450   0.0000260256
       -0.0000377042   0.0000309592  -0.0000068138   0.0000118437  -0.0000015095
        0.0000164731   0.0000154374   0.0000052720  -0.0000679927   0.0000011439
        0.0000073717  -0.0000489714   0.0001726893   0.0000705580  -0.0000258859
       -0.0000585298  -0.0000261039   0.0000111924   0.0000166362   0.0000042618
        0.0000004751   0.0000060675   0.0000040885  -0.0000124596   0.0000139876
       -0.0000036552  -0.0000034991  -0.0000111282   0.0000004738   0.0000077042
       -0.0000068528  -0.0000037773  -0.0000082617  -0.0000112672   0.0000039277
       -0.0000016376   0.0000009387  -0.0000205399   0.0000550388  -0.0000436902
        0.0000321192   0.0004404652   0.0001868716   0.0002057462  -0.0009378339
       -0.0009433148  -0.0006140519  -0.1069337230  -0.1109709698  -0.0201271123
        0.0436274805  -0.2033189528  -0.1054563846  -0.0263612903  -0.0630399449
        0.0585086936   0.0018482352  -0.0051354180  -0.0022735509  -0.0001054039
        0.0006728709   0.0009074211   0.0010443276   0.0003898185   0.0008046800
       -0.0000931123   0.0006021670  -0.0009900232   0.0006038357   0.0001110314
       -0.0001464549  -0.0003421036  -0.0004675733   0.0019922064  -0.0000841117
        0.0000522091  -0.0001266869  -0.0001151209  -0.0000669496  -0.0000094690
        0.0000199147  -0.0000228861   0.0000200348   0.0000001171  -0.0000026675
       -0.0000006361   0.0000042617  -0.0000074737   0.0000029059  -0.0000007042
        0.0000086216   0.0000067776  -0.0000144548   0.0000114297  -0.0000028761
        0.0000051008  -0.0000029642  -0.0000057955  -0.0000008459   0.0000012999
        0.0000034245  -0.0000001410  -0.0000006672  -0.0000006166  -0.0000020487
        0.0000008051   0.0000015039  -0.0000019852   0.0000007629   0.0000003687
       -0.0000007009   0.0000001113  -0.0000004842  -0.0000003813   0.0000000280
        0.0000024619  -0.0000003072  -0.0000000420  -0.0000015484   0.0000008287
       -0.0000013187   0.0000006898  -0.0000004261  -0.0000015175  -0.0000004393
       -0.0000001184  -0.0000011516  -0.0000011846   0.0000016069  -0.0000003126
       -0.0000000725   0.0000008177   0.0000002342  -0.0000003452  -0.0000023022
       -0.0000006721  -0.0000010174  -0.0000019485   0.0000001513   0.0000004684
       -0.0000006533   0.0000001523  -0.0000004812   0.0000019447  -0.0000007161
       -0.0000031072  -0.0000009753  -0.0000009168  -0.0000028958  -0.0000001993
       -0.0000008221  -0.0000023829   0.0000006679  -0.0000012559   0.0000008314
        0.0000001008  -0.0000025341  -0.0000007030  -0.0000008443   0.0000002588
       -0.0000009869  -0.0000022042  -0.0000044545  -0.0000030973  -0.0000008394
       -0.0000003283   0.0000009034  -0.0000035450   0.0000105394  -0.0000069380
        0.0000029485   0.0000007068  -0.0000048745   0.0000083821  -0.0000032365
        0.0000003871   0.0000029222   0.0000023160   0.0000100860  -0.0000036205
        0.0000045651  -0.0000014520  -0.0000005287   0.0000024955  -0.0000005715
       -0.0000009745  -0.0000047837   0.0000014585   0.0000083673   0.0000043534
        0.0000002756  -0.0000022276  -0.0000074597   0.0000002950   0.0000027070
        0.0000029916   0.0000027090   0.0000001279   0.0000039663   0.0000002305
        0.0000005757   0.0000021561   0.0000030638   0.0000083107   0.0000060062
       -0.0000024017  -0.0000004910  -0.0000064287  -0.0000027950   0.0000034805
        0.0000019153   0.0000089635  -0.0000153556   0.0000095651  -0.0000141072
       -0.0000017383  -0.0000049519  -0.0000013512  -0.0007908999  -0.0002246552
       -0.0007067624
       -0.0288926093   0.0249643959   0.5028442328  -0.0373519664   0.0326272150
       -0.0888579766   0.0078285066  -0.0081446343   0.0047675849  -0.0155688881
        0.0185216264  -0.0205009799  -0.0079582448   0.0011885056  -0.0024220254
        0.0004010718   0.0001202346  -0.0007563781  -0.0002476601  -0.0002665127
        0.0001379495  -0.0000895637   0.0000798318   0.0001085208  -0.0000055219
       -0.0000075972  -0.0000411272  -0.0000730321   0.0000267656  -0.0000089970
        0.0000222230  -0.0000025957  -0.0000079224  -0.0000322544  -0.0000044096
        0.0000007780   0.0000144288  -0.0000082412   0.0000008559  -0.0000139731
       -0.0000105876  -0.0000038218   0.0000207319   0.0000047001   0.0000068298
       -0.0000166043  -0.0000037772  -0.0000103083  -0.0000152106   0.0000088512
       -0.0000011321   0.0000071553  -0.0000025369   0.0000003058  -0.0000077218
        0.0000089385   0.0000040653  -0.0000034619  -0.0000044084  -0.0000017704
        0.0000036229   0.0000043509   0.0000004011   0.0000124935  -0.0000104453
       -0.0000001490   0.0000049504   0.0000028817  -0.0000015999   0.0000005886
        0.0000009179   0.0000005866   0.0000002501   0.0000006837   0.0000035114
        0.0000000974   0.0000000354  -0.0000012768  -0.0000004116   0.0000002579
       -0.0000024098   0.0000016398  -0.0000006830  -0.0000024570  -0.0000018643
        0.0000000974   0.0000002098  -0.0000004691  -0.0000010097   0.0000004116
       -0.0000003558   0.0000002026  -0.0000000548  -0.0000002988   0.0000002433
       -0.0000004664   0.0000006641  -0.0000003580  -0.0000003580   0.0000002257
       -0.0000001330   0.0000008971  -0.0000003396   0.0000002726   0.0000001024
       -0.0000014609   0.0000002642   0.0000005878  -0.0000000477   0.0000006557
       -0.0000002158   0.0000000845  -0.0000002384   0.0000000751  -0.0000001640
        0.0000003842  -0.0000002672   0.0000005810   0.0000003256   0.0000003670
        0.0000005973  -0.0000000497   0.0000003823  -0.0000007362  -0.0000008166
        0.0000029947  -0.0000000531  -0.0000001458   0.0000008767  -0.0000011909
       -0.0000012453   0.0000004596  -0.0000013279  -0.0000022471  -0.0000028237
        0.0000010690   0.0000009637   0.0000020012   0.0000036698   0.0000039404
        0.0000001528  -0.0000002957  -0.0000006343  -0.0000010747  -0.0000007584
       -0.0000013422  -0.0000000554  -0.0000006463   0.0000000983   0.0000002147
        0.0000003748  -0.0000003790  -0.0000005645  -0.0000003180   0.0000000862
        0.0000001829   0.0000005939   0.0000005461   0.0000003444   0.0000002978
        0.0000002966   0.0000003375  -0.0000009163  -0.0000013384  -0.0000003274
       -0.0000002105   0.0000007205  -0.0000004012   0.0000006369   0.0000008345
        0.0000006890   0.0000004004  -0.0000006499   0.0000002984  -0.0000001259
        0.0000003980  -0.0000007007   0.0000005009   0.0000002512   0.0000007015
       -0.0000012317  -0.0000007471   0.0000015640  -0.0000007820  -0.0000013120
       -0.0000019859  -0.0000007834   0.0000014553   0.0000004180  -0.0000015716
        0.0000023762   0.0000012348   0.0000129530   0.0000038573   0.0000057679
       -0.0000132714   0.0000183517  -0.0000051502   0.0000116575  -0.0000034965
        0.0000045268   0.0000002210  -0.0000268985   0.0000062294  -0.0000009275
       -0.0000027342  -0.0000100634   0.0000071171  -0.0000084315   0.0000055512
       -0.0000058917  -0.0000022080  -0.0000037927  -0.0000048689   0.0000082013
        0.0000031260  -0.0000069451  -0.0000026402   0.0000000475   0.0000047279
        0.0000013139   0.0000017918  -0.0000032227  -0.0000020018   0.0000021620
       -0.0000022333  -0.0000082695  -0.0000127821   0.0000217840   0.0000059538
        0.0000154864   0.0000434517   0.0001197545   0.0001725939   0.0000273564
       -0.0001075377   0.0001974266  -0.0295258245  -0.0199763095  -0.0496016801
        0.0300418643  -0.1059452778  -0.1128095687   0.0804673286   0.0587640358
       -0.2289280812   0.0010419299  -0.0031833769  -0.0008521115   0.0004674309
       -0.0009136007   0.0007343714   0.0005873505  -0.0002450335   0.0002922306
       -0.0009079110   0.0005295745   0.0008454938  -0.0008090664  -0.0003800825
        0.0007139636   0.0012719247   0.0024598697  -0.0055763724  -0.0000994631
       -0.0000783449  -0.0000234581   0.0000104519  -0.0000585829   0.0000259300
        0.0000077354   0.0000007632   0.0000037152   0.0000029830  -0.0000011482
        0.0000017815   0.0000005296  -0.0000032454   0.0000002421  -0.0000002877
        0.0000028344  -0.0000003572  -0.0000019958  -0.0000002430  -0.0000006784
       -0.0000002376   0.0000002102  -0.0000000700   0.0000001901   0.0000003627
        0.0000011627   0.0000000027   0.0000000879   0.0000000196  -0.0000001021
        0.0000000098   0.0000001348  -0.0000004183   0.0000000989  -0.0000000687
       -0.0000001221   0.0000000573  -0.0000003402   0.0000004014   0.0000000132
        0.0000002229   0.0000000792   0.0000001377   0.0000003253   0.0000000894
       -0.0000000273   0.0000000955   0.0000000148  -0.0000004108   0.0000000754
       -0.0000002565  -0.0000001672  -0.0000002254  -0.0000000551  -0.0000001278
        0.0000002620   0.0000000720  -0.0000003553  -0.0000001668  -0.0000004127
       -0.0000002455  -0.0000001391  -0.0000001208  -0.0000000785   0.0000000015
        0.0000000217  -0.0000000142  -0.0000000192   0.0000001676  -0.0000001087
        0.0000001582   0.0000003132  -0.0000000720   0.0000003571   0.0000001854
        0.0000000709   0.0000002153   0.0000001720  -0.0000000959   0.0000004045
        0.0000001292  -0.0000008099   0.0000000802   0.0000000056  -0.0000003255
       -0.0000002613   0.0000004175   0.0000003098  -0.0000005765   0.0000008154
        0.0000005848  -0.0000005762   0.0000004187  -0.0000005623  -0.0000013687
        0.0000030263  -0.0000008080   0.0000006307  -0.0000010178   0.0000044586
       -0.0000009868  -0.0000020218   0.0000018334   0.0000035680  -0.0000013547
       -0.0000010010   0.0000011231   0.0000025842  -0.0000004265  -0.0000047066
        0.0000003413  -0.0000006111   0.0000016286   0.0000041982   0.0000001881
        0.0000019913  -0.0000005848  -0.0000005886   0.0000009776   0.0000011274
        0.0000005963   0.0000009278   0.0000023046  -0.0000005692  -0.0000030710
        0.0000005219  -0.0000000974   0.0000006767   0.0000054062   0.0000007439
       -0.0000024967   0.0000001724  -0.0000004292  -0.0000007270  -0.0000045629
        0.0000016961   0.0000051148  -0.0000037836   0.0000077733   0.0000032420
       -0.0000064830   0.0000050676  -0.0000104965  -0.0006829172  -0.0000769448
       -0.0004669385
       -0.1127061807   0.0416092098  -0.0373519664   0.4665253636   0.0054771344
        0.0012656302  -0.0671127694   0.0169813105   0.0112805337  -0.0751612782
       -0.0113040987   0.0352888290  -0.1439416698  -0.0507698811  -0.0111271680
       -0.0272170354  -0.0110490625  -0.0003092551  -0.0020194895   0.0014429848
        0.0028610881  -0.0016233642  -0.0002897838   0.0003055888   0.0005143820
        0.0004682105  -0.0001583286  -0.0002906818   0.0001259441  -0.0000250896
        0.0000592059  -0.0000714248   0.0000215212  -0.0000916852  -0.0000065582
       -0.0000121344   0.0000497434  -0.0000159214  -0.0000079242  -0.0000194013
       -0.0000026924   0.0000007620   0.0000528224  -0.0000027237   0.0000282716
        0.0000119043   0.0000326781  -0.0000162780  -0.0000542549   0.0000421230
       -0.0000204393   0.0000070185  -0.0000132056   0.0000070706   0.0000047959
        0.0000192240   0.0000176348  -0.0000321102  -0.0000148573  -0.0000271636
        0.0000323549   0.0000104029   0.0000070585   0.0000157484  -0.0000795826
        0.0000051229   0.0000492859   0.0000386792  -0.0000052549   0.0000058837
        0.0000097578   0.0000098696  -0.0000011012   0.0000002670   0.0000100776
        0.0000042147   0.0000009837  -0.0000116818  -0.0000034609  -0.0000015598
       -0.0000051098  -0.0000091724   0.0000000267   0.0000113905   0.0000014602
       -0.0000014060  -0.0000103320  -0.0000005495  -0.0000012270   0.0000007913
        0.0000024709   0.0000002853  -0.0000011094   0.0000009356   0.0000007040
        0.0000016420  -0.0000022632   0.0000019543  -0.0000001625   0.0000007597
        0.0000000044  -0.0000033045   0.0000023208  -0.0000002764   0.0000010116
        0.0000018615  -0.0000005161   0.0000018798   0.0000018586   0.0000004996
        0.0000000537   0.0000023495   0.0000002876   0.0000017646   0.0000009264
       -0.0000017992   0.0000009440  -0.0000004688   0.0000002211  -0.0000008491
        0.0000012972   0.0000012500   0.0000002527   0.0000032180   0.0000010223
        0.0000108883   0.0000057219   0.0000062795  -0.0000036928  -0.0000087368
       -0.0000087947   0.0000049259   0.0000044230  -0.0000015876  -0.0000134077
        0.0000059069   0.0000042106   0.0000108739  -0.0000122096  -0.0000052221
       -0.0000030930   0.0000055991   0.0000044941   0.0000046709   0.0000006702
       -0.0000034151  -0.0000008696  -0.0000003679  -0.0000010849   0.0000002756
        0.0000002074  -0.0000012205   0.0000006343  -0.0000006856  -0.0000008112
        0.0000004493   0.0000004532   0.0000006892   0.0000018666   0.0000019024
        0.0000007817   0.0000010628   0.0000009440  -0.0000022631  -0.0000019325
        0.0000010497   0.0000025324  -0.0000005043   0.0000027546   0.0000003994
        0.0000033355   0.0000009530  -0.0000025729   0.0000000261   0.0000007938
        0.0000003011   0.0000013195   0.0000014471   0.0000002806   0.0000017959
       -0.0000015442  -0.0000002266   0.0000027632  -0.0000032511  -0.0000086669
       -0.0000153684  -0.0000150008  -0.0000042126  -0.0000009498  -0.0000350981
        0.0000397402  -0.0000264272   0.0000249613  -0.0000560813   0.0000153922
       -0.0000356560   0.0000622195  -0.0000158954   0.0000760062   0.0000190952
        0.0000236420   0.0000759281  -0.0002045155  -0.0000714663   0.0000049482
        0.0000100015  -0.0000242366   0.0000012252  -0.0000215389   0.0000091684
       -0.0000060670  -0.0000104687  -0.0000060135   0.0000105367   0.0000220310
        0.0000096634  -0.0000018103   0.0000081083  -0.0000063204   0.0000046641
        0.0000162128   0.0000037706   0.0000075784   0.0000175812   0.0000046336
       -0.0000059563  -0.0000314136   0.0000075130   0.0000222500   0.0000442747
        0.0000223224   0.0025683482   0.0009851207   0.0014664224  -0.0014112381
       -0.0093363129  -0.0055954510  -0.0228961894   0.0126256034  -0.0141339948
       -0.0061309965   0.0067980641  -0.0022348905   0.0060552332  -0.0044400959
        0.0030548294  -0.0044878830   0.0179902226   0.0095076032  -0.0021516671
        0.0087223343   0.0070654412   0.0011272075  -0.0223591418  -0.0137623671
       -0.0032893488  -0.0002763237   0.0073227045  -0.0129902823  -0.0095001550
        0.0224885491   0.0062739898   0.0055129613  -0.0165737865   0.0009192570
       -0.0002939341  -0.0008812162  -0.0007249257  -0.0005113875  -0.0001771440
       -0.0000236465  -0.0000108375   0.0000058609  -0.0000086305   0.0000016850
        0.0000046136  -0.0000005196  -0.0000079330  -0.0000030440  -0.0000005591
        0.0000086291  -0.0000047506  -0.0000003117  -0.0000043096  -0.0000005292
       -0.0000013296   0.0000010329   0.0000006791  -0.0000016070   0.0000014924
        0.0000016263   0.0000003642   0.0000016939   0.0000005385   0.0000013472
        0.0000004361  -0.0000008049   0.0000006608  -0.0000003243  -0.0000006217
        0.0000002420  -0.0000000255  -0.0000001057   0.0000010477   0.0000004162
       -0.0000016836  -0.0000002125   0.0000014360   0.0000004030   0.0000002255
        0.0000013511   0.0000002330   0.0000011626   0.0000016019   0.0000011688
        0.0000008555   0.0000008040   0.0000015375  -0.0000002921  -0.0000001757
        0.0000007999   0.0000002410  -0.0000016574   0.0000007279   0.0000010943
       -0.0000004542   0.0000015534   0.0000013140  -0.0000008921  -0.0000000442
        0.0000008934  -0.0000003521  -0.0000000367  -0.0000007801  -0.0000005186
        0.0000012928   0.0000010245  -0.0000009914   0.0000015040   0.0000007253
        0.0000013105   0.0000011328   0.0000002341   0.0000012119   0.0000013476
        0.0000006977   0.0000003594   0.0000019747   0.0000011902  -0.0000007626
        0.0000014295   0.0000003675   0.0000016536  -0.0000004601  -0.0000008927
       -0.0000004871   0.0000002093  -0.0000015662  -0.0000035108   0.0000002280
        0.0000078219  -0.0000029834  -0.0000076853  -0.0000028536   0.0000174442
       -0.0000088716   0.0000005339  -0.0000046118   0.0000097487   0.0000092652
        0.0000028576   0.0000052339   0.0000031349  -0.0000039467  -0.0000032141
        0.0000010638   0.0000085797   0.0000004813  -0.0000016697  -0.0000038257
        0.0000010044   0.0000018686   0.0000093099   0.0000011822   0.0000021521
       -0.0000042247   0.0000027046   0.0000026883  -0.0000045107  -0.0000028747
        0.0000034392  -0.0000051223   0.0000021362  -0.0000015896  -0.0000059962
        0.0000016942   0.0000008548   0.0000103670   0.0000018326  -0.0000127012
        0.0000028108  -0.0000099619  -0.0000145205  -0.0000210640  -0.0000129898
        0.0002114433   0.0003591154   0.0002240948  -0.0002455619   0.0012032375
        0.0002459515
        0.0483240123  -0.0998435408   0.0326272150   0.0054771344   0.4869418188
        0.0162713208   0.0152713219  -0.1474844471  -0.0544487451  -0.0120279241
       -0.0707567947   0.0256259607  -0.0550326548  -0.0961973482  -0.0124986752
        0.0010518378   0.0054735574   0.0021197189   0.0015001399   0.0017802724
       -0.0034987881  -0.0005091757  -0.0006290120  -0.0005257128   0.0009248453
       -0.0001332208   0.0007924156  -0.0004434481   0.0003599465   0.0000797624
        0.0000774197  -0.0001221124  -0.0000218686  -0.0001200836   0.0000054122
       -0.0000467515   0.0001118615  -0.0000965115   0.0000110399  -0.0001359153
       -0.0000452692  -0.0000354266   0.0001724762  -0.0000141617   0.0000549252
       -0.0001310770  -0.0000266625  -0.0000881570  -0.0001265353   0.0000996277
       -0.0000199044   0.0000717479  -0.0000037853   0.0000195809  -0.0000889393
        0.0000521972   0.0000180773   0.0000734709   0.0000704493   0.0000270712
       -0.0000500278  -0.0000579325  -0.0000185886   0.0000669518  -0.0001315998
        0.0000080483   0.0000320502   0.0000365354  -0.0000249345   0.0000007146
        0.0000056209   0.0000286282   0.0000038329   0.0000067972   0.0000109662
        0.0000058478   0.0000020660  -0.0000067855  -0.0000072079  -0.0000070762
       -0.0000078008  -0.0000271968  -0.0000012035   0.0000371092   0.0000047736
       -0.0000038943  -0.0000215950   0.0000055763   0.0000018275  -0.0000044585
        0.0000041550  -0.0000008731   0.0000031359  -0.0000007231   0.0000004053
        0.0000005019  -0.0000006390   0.0000010044  -0.0000001267  -0.0000005643
       -0.0000000574  -0.0000017251  -0.0000001093   0.0000011890  -0.0000004019
        0.0000065477  -0.0000010189  -0.0000035870   0.0000025632   0.0000000606
        0.0000008215   0.0000013025  -0.0000002839   0.0000013267   0.0000006067
       -0.0000012781   0.0000002881  -0.0000009844   0.0000000222  -0.0000005079
        0.0000003383   0.0000009381  -0.0000010695   0.0000206318   0.0000168545
        0.0000022605  -0.0000033708  -0.0000005791  -0.0000039804  -0.0000090204
       -0.0000060230   0.0000050796   0.0000159188   0.0000047189  -0.0000190211
        0.0000033129   0.0000042128   0.0000155691  -0.0000328722  -0.0000218153
       -0.0000070018   0.0000117833   0.0000094144   0.0000104493   0.0000029905
        0.0000026821  -0.0000007471   0.0000011687  -0.0000029515  -0.0000024739
       -0.0000009100  -0.0000010515   0.0000007039  -0.0000013261  -0.0000001198
        0.0000008106   0.0000008362   0.0000010531   0.0000026540   0.0000009844
        0.0000008338   0.0000002191   0.0000070009   0.0000013430  -0.0000014374
        0.0000015810   0.0000000581  -0.0000013628   0.0000014712   0.0000004552
        0.0000020788   0.0000007525  -0.0000018875  -0.0000000171  -0.0000000611
       -0.0000007544   0.0000012919  -0.0000005218   0.0000013803  -0.0000011291
        0.0000011090   0.0000029179  -0.0000004749   0.0000020261  -0.0000059046
       -0.0000146314  -0.0000278260  -0.0000205008  -0.0000045331  -0.0000203052
        0.0000326815  -0.0000101643   0.0000982961   0.0000503109   0.0000531759
       -0.0000961530   0.0001238099  -0.0000530146   0.0001945278  -0.0000055832