66
 energy: -107.497845333069 gnorm: 0.000059904649 xtb: 6.7.1 (edcfbbe)
C            0.61799260222705       -0.00728822133974       -0.02360792484400
C           -0.61771225570692       -0.00881190826805       -0.02433811072617
C           -1.98332386892143       -0.00795221537403       -0.02037168099491
C           -2.71806599588888        0.62886802332771        1.02670010136539
C           -4.08079969585253        0.63517467381776        1.02167006074119
C           -4.79751549268047       -0.00503934579757       -0.00845757098000
N           -6.20499402752052       -0.00321280349875       -0.00208859929872
C           -6.91299527613711        1.19382265673774       -0.03082421256550
C           -6.27743390302567        2.42969769927839       -0.13521368906423
C           -7.01044100874255        3.60296761437053       -0.15401009515755
C           -8.39135647311269        3.56927496992451       -0.08368663273064
C           -9.04352456588474        2.34810693599895       -0.02146626734658
C           -8.31683550040758        1.17048435723192       -0.00394286569605
O           -9.02838859908482        0.00144620648973        0.01571145155901
C           -8.32045767520504       -1.16991419525783        0.02620448091014
C           -9.05080280521567       -2.34509935470771        0.05303477865684
C           -8.40199536657405       -3.56843912281256        0.10707761842692
C           -7.02042248736907       -3.60674805023769        0.15981064885711
C           -6.28377427196298       -2.43593167175656        0.13163674714956
C           -6.91646282523584       -1.19794509745956        0.03534469159581
C           -4.09083393557198       -0.64645421822224       -1.04468811989975
C           -2.72805595567302       -0.64293456788855       -1.06133112053397
C            1.98362641019764       -0.00515696779092       -0.02052947403052
C            2.72808996022796       -0.64201572888910       -1.06051421733991
C            4.09089376362349       -0.64464413129583       -1.04464403317010
C            4.79766817721896        0.00021943791857       -0.01069273041873
N            6.20521419555544        0.00267591536203       -0.00517793759162
C            6.91280728699206        1.19971489687661       -0.03971032588425
C            6.27671714834495        2.43487919600558       -0.14895963562127
C            7.00934945722530        3.60827748625884       -0.17338564788291
C            8.39032616032624        3.57528390162162       -0.10374537065969
C            9.04296572494963        2.35461359478160       -0.03670227164217
C            8.31668008073781        1.17684089632478       -0.01375281479074
O            9.02852939353629        0.00803708758248        0.01027509869371
C            8.32088063976377       -1.16342642831253        0.02780316010939
C            9.05135238775016       -2.33837599496610        0.06058966296557
C            8.40268485585615       -3.56145105655426        0.12198104104894
C            7.02115605227270       -3.59967476434628        0.17583012825744
C            6.28435758665648       -2.42912046262786        0.14152660625836
C            6.91690802373665       -1.19166658755613        0.03811058738064
C            4.08127381280516        0.64262113847953        1.01821335724111
C            2.71852489941091        0.63480804014365        1.02446354112670
H           -2.16822019179574        1.09666857594920        1.82975649509238
H           -4.63094794750630        1.10522109292231        1.82510863131495
H           -5.20277342891992        2.46612613315931       -0.21255848246280
H           -6.49288014822902        4.54668858932663       -0.23027856271142
H           -8.96404744552783        4.48304342027954       -0.09322358281365
H          -10.11950170183391        2.28454097317949        0.00681015288664
H          -10.12683609155394       -2.27790781912154        0.03851842836329
H           -8.97758848083338       -4.48027743685546        0.12399008812115
H           -6.50511405575257       -4.55220230292216        0.22957285879250
H           -5.20835653460324       -2.47595540031816        0.19544790356538
H           -4.64868555222558       -1.11523579024599       -1.84354726514490
H           -2.18616866263225       -1.11176728173096       -1.86919158876469
H            2.18597663570560       -1.11334010897562       -1.86676863741512
H            4.64866682988977       -1.11542480991206       -1.84238362568635
H            5.20196653825171        2.47048833442529       -0.22559851802341
H            6.49149094107818        4.55152100451937       -0.25346649954147
H            8.96271575480026        4.48919243695392       -0.11752106262992
H           10.11898890247124        2.29157693184418       -0.00880847019550
H           10.12736609672826       -2.27123881424622        0.04485522249485
H            8.97839596080285       -4.47311162080744        0.14373028963471
H            6.50602870771689       -4.54478561733197        0.25132599305199
H            5.20896402641657       -2.46877316196163        0.20603792966795
H            4.63168482795431        1.11548061457139        1.81982001609292
H            2.16887438150526        1.10404536525263        1.82681748953767
