$hessian                                                                        
        1.2601602150  -0.0009513806   0.0002482387  -0.7619832509   0.0006221290
       -0.0001968644  -0.0729561526   0.0000550079  -0.0000223589  -0.0027877591
        0.0003351514   0.0046152838   0.0096247678   0.0023423938  -0.0118637144
       -0.0114732355   0.0000111783  -0.0000058209  -0.0032305984   0.0000046497
       -0.0000029012   0.0024055170   0.0080731842  -0.0046956168   0.0026927093
       -0.0052795044   0.0026940560   0.0036874889   0.0019131123  -0.0008672556
       -0.0023327990   0.0000668723   0.0001147606  -0.0019712467  -0.0006459008
        0.0005998583  -0.0046800305   0.0034246769  -0.0012069688   0.0048235351
       -0.0000069452   0.0000042791  -0.0046936368  -0.0034092090   0.0011988898
       -0.0019679349   0.0006471579  -0.0006017540  -0.0023336733  -0.0000605263
       -0.0001190619   0.0036853469  -0.0019244662   0.0008734709   0.0027096124
        0.0052762990  -0.0026927612   0.0023799029  -0.0080813197   0.0047017380
        0.0096078893  -0.0023616322   0.0118734837  -0.0027900650  -0.0003192472
       -0.0046160943  -0.3332271112   0.0002005478  -0.0000324818  -0.0535050295
        0.0006836623   0.0366758580   0.0065794214   0.0002293049   0.0017183005
       -0.0036765509   0.0000017650   0.0000006125   0.0067376678  -0.0000014041
       -0.0000030333  -0.0025651117  -0.0063200006  -0.0048359767  -0.0021958749
        0.0042753861   0.0021647930  -0.0028844746  -0.0014616875  -0.0006986121
        0.0017974953   0.0002316877   0.0001694421   0.0016343837   0.0002412866
        0.0005003360   0.0037936820  -0.0024846295  -0.0009472438  -0.0036844232
        0.0000022784   0.0000014575   0.0037997749   0.0024779537   0.0009435288
        0.0016328266  -0.0002369936  -0.0004995034   0.0017994969  -0.0002344533
       -0.0001716922  -0.0028885240   0.0014657859   0.0007017664  -0.0021985471
       -0.0042803245  -0.0021676707  -0.0025621011   0.0063234982   0.0048416382
        0.0065782281  -0.0002329977  -0.0017169260  -0.0534892296  -0.0006099103
       -0.0366769230   0.0000169590  -0.0002123594  -0.0001335877  -0.0004614932
       -0.0006201044  -0.0004949501  -0.0000719327   0.0006041782  -0.0002790838
       -0.0000200385   0.0001004957  -0.0000772729  -0.0001140504   0.0000098097
       -0.0000709151  -0.0000612948  -0.0001400162  -0.0001140313  -0.0000611934
        0.0001402591   0.0001139773  -0.0001141932  -0.0000094872   0.0000709755
       -0.0000204296  -0.0001003745   0.0000772448  -0.0000736763  -0.0006039003
        0.0002787004  -0.0004601862   0.0006202279   0.0004942351   0.0000180768
        0.0002108184   0.0001340363   0.0007312811  -0.0003585675  -0.0015152600
       -0.0002694174   0.0003984932  -0.0003109394   0.0001062742  -0.0004332121
       -0.0002259190   0.0000176251  -0.0001003078  -0.0000419567   0.0000727612
       -0.0000334326  -0.0000559061   0.0000262056   0.0001108351  -0.0001152572
        0.0000262560  -0.0001108725   0.0001151377   0.0000727792   0.0000333935
        0.0000561953   0.0000176705   0.0001001969   0.0000417922   0.0001068021
        0.0004329439   0.0002258442  -0.0002696050  -0.0003985625   0.0003110670
        0.0007322190   0.0003571088   0.0015153168
       -0.0009513806   0.0365523167   0.0004432870   0.0006129564  -0.0162881969
       -0.0000871137   0.0000640039  -0.0054943829   0.0001384711  -0.0001433507
        0.0029003475  -0.0001900187   0.0002602651   0.0003164967   0.0000180193
        0.0000073478   0.0000650246  -0.0001008774   0.0000024455   0.0000737903
        0.0001138282  -0.0000701090  -0.0000698980   0.0000703647  -0.0000094978
        0.0000113545  -0.0000231287  -0.0000133387  -0.0000068257  -0.0000111164
       -0.0000105244   0.0000111828  -0.0000115199  -0.0000011725  -0.0000309795
       -0.0000007619   0.0000620800   0.0000108583   0.0000320825  -0.0000032763
        0.0000211932  -0.0000371879  -0.0000553703   0.0000157505   0.0000303540
        0.0000040488  -0.0000319763   0.0000001559   0.0000140938   0.0000112536
       -0.0000113315   0.0000077792  -0.0000038881  -0.0000124538   0.0000056340
        0.0000034478  -0.0000191123   0.0000661356  -0.0000580431   0.0000633742
       -0.0002698210   0.0003204923   0.0000024987   0.0001485263   0.0029017842
       -0.0001776563   0.0002114466  -0.0254776083   0.0000112599   0.0005288600
        0.0008962230  -0.0000443509   0.0000475099   0.0026987172  -0.0002080172
       -0.0000000523  -0.0001814605   0.0002199254  -0.0000051410  -0.0004538359
       -0.0000249003  -0.0000451774   0.0000114057  -0.0000356222  -0.0000509791
       -0.0000352708   0.0000016487   0.0000694027   0.0000263595   0.0000363129
       -0.0000497579   0.0000087181   0.0000089171   0.0000218823   0.0000009308
        0.0000102726  -0.0000286040  -0.0000443541  -0.0000659419   0.0000034913
        0.0000327770   0.0000585276   0.0000218255  -0.0000488739  -0.0000676752
       -0.0000245490   0.0000011623   0.0000109786   0.0000467533   0.0000090616
        0.0000092006  -0.0000645216   0.0000240027   0.0000352272   0.0000547509
       -0.0000282689   0.0000052022   0.0000495024   0.0000001074  -0.0000436859
       -0.0000484867   0.0026984269  -0.0002099639  -0.0004637978   0.0008953096
       -0.0000008912   0.0000576562  -0.0001081909   0.0000353634   0.0000044339
       -0.0003566910   0.0000402372   0.0000105213  -0.0000076914   0.0000075622
        0.0000039353   0.0000056307  -0.0000013401  -0.0000015072   0.0000025795
        0.0000052612  -0.0000024207   0.0000018740   0.0000018248   0.0000025315
        0.0000016609   0.0000016642   0.0000016978   0.0000025777   0.0000051519
       -0.0000038875   0.0000057808  -0.0000014512  -0.0000105182  -0.0000067850
        0.0000071576  -0.0000046692  -0.0003577067   0.0000395241  -0.0000578824
       -0.0001082895   0.0000351831   0.0000068515  -0.0009694725  -0.0000065662
        0.0000304593   0.0002939957  -0.0000217429  -0.0000052196   0.0000045477
       -0.0000110784  -0.0000011364  -0.0000030388  -0.0000012953   0.0000006344
        0.0000019906  -0.0000062730  -0.0000033104   0.0000024329  -0.0000075115
        0.0000032456   0.0000026327  -0.0000076951  -0.0000007249   0.0000019359
       -0.0000063609   0.0000010910  -0.0000032090  -0.0000013829   0.0000050510
        0.0000038099  -0.0000114864  -0.0000299866   0.0002947656  -0.0000223943
       -0.0000086788  -0.0009697721  -0.0000089329
        0.0002482387   0.0004432870   0.0717793039  -0.0001966097   0.0000671821
       -0.0014222386  -0.0000176554  -0.0000166460  -0.0078166364  -0.0027055367
        0.0000054496  -0.0006447385  -0.0002194842   0.0000186750  -0.0003460843
       -0.0000017752  -0.0000100613   0.0000047390  -0.0000007636   0.0000029405
        0.0000205922   0.0000046865   0.0000051685  -0.0000114141   0.0000019456
        0.0000023722   0.0000071564   0.0000007425  -0.0000008882   0.0000027243
        0.0000031017  -0.0000035636   0.0000025368  -0.0000022181   0.0000032722
        0.0000006015  -0.0000068137   0.0000030199  -0.0000051886   0.0000009383
       -0.0000061705   0.0000060228   0.0000049381   0.0000016266  -0.0000046868
        0.0000014132   0.0000035376   0.0000003638  -0.0000040781  -0.0000035825
        0.0000024745   0.0000007956  -0.0000017301   0.0000031172  -0.0000009140
        0.0000045364   0.0000060725  -0.0000035107   0.0000017914  -0.0000094701
        0.0002223842   0.0000171049  -0.0003414345   0.0027060032  -0.0000013870
       -0.0006464277  -0.0000297322  -0.0000929004  -0.0530592195   0.0273116409
       -0.0001211577   0.0005797450   0.0008239390  -0.0001570296  -0.0062604310
        0.0000005804   0.0001364967   0.0027806736   0.0000010511  -0.0000187277
        0.0002581061  -0.0000448667  -0.0000324488  -0.0000814146   0.0000585377
       -0.0000042598   0.0000798558  -0.0000222082   0.0000033577   0.0000054599
        0.0000080501   0.0000038948   0.0000067306  -0.0000133128  -0.0000208708
        0.0000040792   0.0000806734   0.0000037137  -0.0000455529  -0.0000007435
        0.0000534967   0.0000490426  -0.0000791569   0.0000047686  -0.0000451442
        0.0000140196  -0.0000209403   0.0000038975  -0.0000073406   0.0000037879
        0.0000066441   0.0000209474   0.0000040197   0.0000057512  -0.0000593886
       -0.0000060255   0.0000789350   0.0000438697  -0.0000297306  -0.0000794614
       -0.0008229728  -0.0001552495  -0.0062587537  -0.0273195950  -0.0000871552
        0.0005687568  -0.0000316884  -0.0000041327   0.0000998206  -0.0001567651
        0.0000095935  -0.0000456584  -0.0000036341  -0.0000051331  -0.0000059721
       -0.0000005959  -0.0000007059  -0.0000001806   0.0000003562   0.0000000658
       -0.0000007302   0.0000010568  -0.0000002571   0.0000000096  -0.0000010820
       -0.0000001974   0.0000000540  -0.0000004063   0.0000000584  -0.0000007008
        0.0000005793  -0.0000007381  -0.0000001501   0.0000036023  -0.0000054031
       -0.0000058517   0.0001564541   0.0000094786  -0.0000452875   0.0000315169
       -0.0000040841   0.0000998340   0.0010282270  -0.0000177924   0.0005459247
        0.0013431608  -0.0000420567  -0.0001353777  -0.0000100285   0.0000505794
       -0.0000451423  -0.0000018219   0.0000061290  -0.0000022741  -0.0000046457
        0.0000008917  -0.0000036575  -0.0000026929   0.0000005522  -0.0000001119
        0.0000027023   0.0000005021  -0.0000000629   0.0000046656   0.0000009076
       -0.0000036315   0.0000018327   0.0000061582  -0.0000022635   0.0000100858
        0.0000507004  -0.0000450719  -0.0013432302  -0.0000413490  -0.0001353568
       -0.0010274691  -0.0000167421   0.0005467531
       -0.7619832509   0.0006129564  -0.0001966097   1.2601371868  -0.0010794729
        0.0003723157  -0.3333437014   0.0003102707  -0.0001168763  -0.0534761496
        0.0007500152  -0.0366976620   0.0065719503   0.0002472802  -0.0015539666
       -0.0036982669   0.0000068053  -0.0000029713   0.0067359881  -0.0000091656
        0.0000041096  -0.0025783274  -0.0063222329   0.0048217495  -0.0021931045
        0.0042224390  -0.0021466540  -0.0028254206  -0.0014482662   0.0006956293
        0.0017702159   0.0002518352  -0.0001755636   0.0016349575   0.0002236100
       -0.0004873857   0.0037869258  -0.0024820995   0.0009434777  -0.0036897283
        0.0000048868  -0.0000031325   0.0037970603   0.0024693361  -0.0009359611
        0.0016330161  -0.0002246670   0.0004887844   0.0017706421  -0.0002572319
        0.0001787774  -0.0028234900   0.0014571313  -0.0007006574  -0.0022065466
       -0.0042204076   0.0021455180  -0.0025563880   0.0063300402  -0.0048275983
        0.0065682958  -0.0002562333   0.0015662985  -0.0535292378  -0.0006405496
        0.0366412015  -0.0728122213   0.0000561338  -0.0000114695  -0.0027927273
        0.0003427802  -0.0046236803   0.0096165557   0.0023554420   0.0116923928
       -0.0115006738   0.0000048804  -0.0000018108  -0.0032242376  -0.0000010473
        0.0000044025   0.0023809620   0.0080610869   0.0046993106   0.0026970305
       -0.0053376671  -0.0027124218   0.0037957643   0.0019271316   0.0008691243
       -0.0023873706   0.0001210394  -0.0001106835  -0.0019712388  -0.0006662430
       -0.0006113551  -0.0046829313   0.0034250870   0.0012146517   0.0048142373
       -0.0000028423  -0.0000017150  -0.0046906793  -0.0034172719  -0.0012107899
       -0.0019692790   0.0006611683   0.0006105005  -0.0023897439  -0.0001177451
        0.0001134078   0.0038000389  -0.0019320665  -0.0008729199   0.0027005685
        0.0053430939   0.0027159870   0.0023784120  -0.0080653209  -0.0047064376
        0.0096163421  -0.0023632084  -0.0116915744  -0.0027960366  -0.0003396268
        0.0046227632   0.0007217864  -0.0003565493   0.0015309640  -0.0002697054
        0.0003959816   0.0003094977   0.0001171395  -0.0004289497   0.0002297066
        0.0000167525  -0.0001010793   0.0000487200   0.0000687880  -0.0000403755
        0.0000548671   0.0000210201   0.0001117326   0.0001119737   0.0000209486
       -0.0001118771  -0.0001120604   0.0000690261   0.0000401607  -0.0000549676
        0.0000170356   0.0001009001  -0.0000487858   0.0001184803   0.0004286994
       -0.0002293550  -0.0002714679  -0.0003942757  -0.0003098782   0.0007241241
        0.0003527526  -0.0015308029   0.0000107793  -0.0002058139   0.0001197147
       -0.0004638613  -0.0006214606   0.0004968342  -0.0000625775   0.0006054302
        0.0002770274  -0.0000234676   0.0000994113   0.0000714367  -0.0001156102
        0.0000065343   0.0000721268  -0.0000650264  -0.0001400891   0.0001190593
       -0.0000650540   0.0001401384  -0.0001189173  -0.0001156029  -0.0000065129
       -0.0000723899  -0.0000234943  -0.0000992065  -0.0000713233  -0.0000631666
       -0.0006051536  -0.0002770846  -0.0004631907   0.0006221758  -0.0004968905
        0.0000109457   0.0002063418  -0.0001199784
        0.0006221290  -0.0162881969   0.0000671821  -0.0010794729   0.0365547483
       -0.0004912485   0.0003015647  -0.0254794395   0.0000265796   0.0005906151
        0.0008956652   0.0000617083   0.0000427007   0.0026973480   0.0002252501
        0.0000057000  -0.0001810709  -0.0002240244  -0.0000070531  -0.0004537741
        0.0000239003  -0.0000449231   0.0000114345   0.0000353850  -0.0000508859
       -0.0000351530  -0.0000018781   0.0000699023   0.0000261102  -0.0000362194
       -0.0000501283   0.0000083185  -0.0000087260   0.0000215573   0.0000014587
       -0.0000104887  -0.0000292080  -0.0000438666   0.0000656041   0.0000032745
        0.0000309047  -0.0000575105   0.0000225528  -0.0000480742   0.0000672574
       -0.0000244550   0.0000015602  -0.0000112103   0.0000471027   0.0000089430
       -0.0000090796  -0.0000647434   0.0000237100  -0.0000350395   0.0000543600
       -0.0000283001  -0.0000053900   0.0000499249   0.0000001494   0.0000440348
       -0.0000552471   0.0026987753   0.0002170919  -0.0004754348   0.0008959879
       -0.0000160981   0.0000485144  -0.0054936577  -0.0001358481  -0.0001428664
        0.0028997922   0.0001907412   0.0002549174   0.0003159223  -0.0000201567
        0.0000106942   0.0000649472   0.0001015448   0.0000025936   0.0000742589
       -0.0001136232  -0.0000702824  -0.0000716854  -0.0000713697  -0.0000102844
        0.0000120024   0.0000233819  -0.0000144806  -0.0000067184   0.0000111737
       -0.0000099129   0.0000116791   0.0000118504  -0.0000005015  -0.0000316365
        0.0000004591   0.0000632826   0.0000100948  -0.0000323721  -0.0000033044
        0.0000234703   0.0000384334  -0.0000557691   0.0000150402  -0.0000308785
        0.0000044550  -0.0000324860  -0.0000004646   0.0000140333   0.0000112496
        0.0000113104   0.0000072747  -0.0000029016   0.0000129070   0.0000055650
        0.0000022365   0.0000184533   0.0000657554  -0.0000567472  -0.0000627957
       -0.0002732739   0.0003208971   0.0000008727   0.0001558391   0.0029017527
        0.0001872894   0.0000072677  -0.0009692945   0.0000044065   0.0000327315
        0.0002938979   0.0000224232  -0.0000052770   0.0000045891   0.0000111860
       -0.0000012507  -0.0000029044   0.0000012546   0.0000007004   0.0000021007
        0.0000062214  -0.0000032174   0.0000023858   0.0000075481   0.0000031900
        0.0000025857   0.0000077188  -0.0000008248   0.0000020084   0.0000063324
        0.0000011797  -0.0000030680   0.0000013153   0.0000051344   0.0000039459
        0.0000115255  -0.0000313638   0.0002946344   0.0000228586  -0.0000110325
       -0.0009700553   0.0000070045   0.0000575845  -0.0001080052  -0.0000357248
        0.0000046039  -0.0003564740  -0.0000408469   0.0000106422  -0.0000078203
       -0.0000075968   0.0000040564   0.0000054486   0.0000012736  -0.0000016064
        0.0000024347  -0.0000053313  -0.0000025139   0.0000019355  -0.0000018286
        0.0000025628   0.0000016792  -0.0000015998   0.0000017980   0.0000025422
       -0.0000051608  -0.0000039657   0.0000056087   0.0000013889  -0.0000105978
       -0.0000067237  -0.0000070902  -0.0000040988  -0.0003578043  -0.0000397493
       -0.0000577844  -0.0001083966  -0.0000355183
       -0.0001968644  -0.0000871137  -0.0014222386   0.0003723157  -0.0004912485
        0.0717788678  -0.0001196636   0.0001305471  -0.0530606266  -0.0273394508
        0.0001331681   0.0005463800  -0.0008165431   0.0001690235  -0.0062615824
       -0.0000037405  -0.0001405469   0.0027808745   0.0000023430   0.0000177989
        0.0002581390   0.0000433200   0.0000289620  -0.0000786881  -0.0000597822
        0.0000069974   0.0000786779   0.0000226215  -0.0000041956   0.0000058084
       -0.0000071377  -0.0000039009   0.0000066585   0.0000141856   0.0000210951
        0.0000037713  -0.0000786208  -0.0000050310  -0.0000449817  -0.0000015472
       -0.0000536695   0.0000489853   0.0000814788  -0.0000033060  -0.0000456909
       -0.0000131557   0.0000208432   0.0000041466   0.0000084319  -0.0000039172
        0.0000067030  -0.0000246829  -0.0000031030   0.0000052630   0.0000583796
        0.0000039714   0.0000801400  -0.0000453126   0.0000334376  -0.0000819823
        0.0008292469   0.0001671005  -0.0062571585   0.0272904663   0.0000760617
        0.0006029235  -0.0000163126   0.0000199134  -0.0078169055   0.0027044118
        0.0000017424  -0.0006452122   0.0002245242  -0.0000164415  -0.0003400411
       -0.0000039319   0.0000101195   0.0000051962  -0.0000009416  -0.0000028793
        0.0000204794  -0.0000035725  -0.0000012225  -0.0000090973  -0.0000005805
       -0.0000048393   0.0000057952   0.0000011958   0.0000018165   0.0000031905
       -0.0000042878   0.0000034932   0.0000024619   0.0000011776  -0.0000036422
        0.0000003153   0.0000045969  -0.0000013977  -0.0000046783   0.0000012252
        0.0000059986   0.0000060075  -0.0000072070  -0.0000031648  -0.0000052251
       -0.0000024391  -0.0000033206   0.0000006661   0.0000028885   0.0000035527
        0.0000025759   0.0000011051   0.0000006552   0.0000026669   0.0000022540
       -0.0000015476   0.0000074789   0.0000048129  -0.0000059509  -0.0000119776
       -0.0002175801  -0.0000177378  -0.0003476333  -0.0027069908   0.0000037002
       -0.0006451978  -0.0010280040   0.0000163265   0.0005461366  -0.0013430912
        0.0000440726  -0.0001358127   0.0000100337  -0.0000507457  -0.0000450803
        0.0000018003  -0.0000061734  -0.0000022707   0.0000046779  -0.0000008865
       -0.0000036345   0.0000027162  -0.0000004826  -0.0000000573  -0.0000026743
       -0.0000005374  -0.0000001160  -0.0000046039  -0.0000008699  -0.0000036641
       -0.0000018097  -0.0000061136  -0.0000022996  -0.0000100672  -0.0000504464
       -0.0000452477   0.0013430753   0.0000403188  -0.0001346708   0.0010274314
        0.0000141514   0.0005464882   0.0000317126   0.0000037490   0.0000998238
        0.0001565999  -0.0000102873  -0.0000453947   0.0000036296   0.0000054304
       -0.0000058332   0.0000006036   0.0000007220  -0.0000001419  -0.0000004030
       -0.0000001087  -0.0000006949  -0.0000010749   0.0000001276   0.0000000731
        0.0000010475   0.0000002139  -0.0000000075   0.0000003387  -0.0000001141
       -0.0000007462  -0.0000006069   0.0000006494  -0.0000001840  -0.0000036375
        0.0000050234  -0.0000060034  -0.0001566489  -0.0000097358  -0.0000456802
       -0.0000316811   0.0000038945   0.0000997621
       -0.0729561526   0.0000640039  -0.0000176554  -0.3333437014   0.0003015647
       -0.0001196636   0.6640001215  -0.0005722451   0.0000292509  -0.0905396069
        0.0008223995  -0.0685064168  -0.0500163574  -0.0027113185  -0.0185385735
        0.0179876347  -0.0000304914   0.0000115197  -0.0062733505   0.0000074595
       -0.0000035594   0.0013099839   0.0011023913  -0.0027418809   0.0004905099
       -0.0010936237   0.0005311506   0.0004900962   0.0002694628  -0.0001758689
       -0.0002439041  -0.0005225097   0.0001427503  -0.0005012042   0.0004643564
        0.0001040525  -0.0007020314   0.0000500751  -0.0000558260   0.0005016375
       -0.0000016193   0.0000011607  -0.0007029015  -0.0000469281   0.0000540891
       -0.0005017818  -0.0004642437  -0.0001043747  -0.0002430814   0.0005231529
       -0.0001433441   0.0004911909  -0.0002717643   0.0001775491   0.0004932177
        0.0010942605  -0.0005315822   0.0013033334  -0.0011055303   0.0027439749
       -0.0500663682   0.0028216767   0.0184923378  -0.0906723151  -0.0007223327
        0.0686312940  -0.0037640105   0.0000019129  -0.0000050162   0.0142460288
       -0.0009676401  -0.0093645175  -0.0155907110  -0.0029722623  -0.0128978984
        0.0164231646  -0.0000065286   0.0000019555  -0.0001428742   0.0000020375
       -0.0000034663  -0.0014410524  -0.0063342568  -0.0029474904  -0.0020926406
        0.0039409471   0.0020135408  -0.0027941310  -0.0014522549  -0.0006307121
        0.0015846052   0.0000394874   0.0001878007   0.0015537244   0.0004353418
        0.0003321534   0.0034974051  -0.0027870278  -0.0008849083  -0.0037089007
        0.0000019096   0.0000011264   0.0035034936   0.0027811552   0.0008819364
        0.0015523811  -0.0004315401  -0.0003315290   0.0015862488  -0.0000419593
       -0.0001897597  -0.0027973479   0.0014558877   0.0006334985  -0.0020953797
       -0.0039449681  -0.0020162864  -0.0014395224   0.0063373856   0.0029532196
       -0.0155904092   0.0029860296   0.0128958586   0.0142458277   0.0009545822
        0.0093665845   0.0068645846   0.0010253125   0.0115182978  -0.0055087156
        0.0003032077  -0.0000135128  -0.0002635138  -0.0000814046   0.0001381075
       -0.0000036870  -0.0000001669   0.0000559556  -0.0000241226  -0.0000105134
       -0.0000065927  -0.0000136408  -0.0000510707  -0.0000483569  -0.0000135863
        0.0000511324   0.0000483754  -0.0000240722   0.0000105597   0.0000065458
       -0.0000035773   0.0000002265  -0.0000560332  -0.0002632039   0.0000825068
       -0.0001388521  -0.0055086513  -0.0002681064   0.0000067254   0.0068635543
       -0.0010353251  -0.0114874592   0.0001232029   0.0005067811  -0.0001279869
        0.0001743309   0.0005967938  -0.0004405237   0.0000341696  -0.0004376132
       -0.0002734446   0.0000211917  -0.0000682145  -0.0000747916   0.0000591371
       -0.0000315859  -0.0000589890   0.0000172670   0.0001038405  -0.0001039823
        0.0000172921  -0.0001038914   0.0001038986   0.0000591540   0.0000315500
        0.0000591744   0.0000212255   0.0000680952   0.0000747685   0.0000346054
        0.0004374397   0.0002735977   0.0001735873  -0.0005978837   0.0004405210
        0.0001225993  -0.0005081055   0.0001280830
        0.0000550079  -0.0054943829  -0.0000166460   0.0003102707  -0.0254794395
        0.0001305471  -0.0005722451   0.1028203012  -0.0074180249   0.0017285828
       -0.0454242297   0.0033443506   0.0006934069   0.0006963604   0.0000964761
       -0.0000274720  -0.0066978755   0.0006770695   0.0000061979  -0.0006783952
       -0.0003826133   0.0001043165   0.0001933860  -0.0000986772   0.0000357351
        0.0000318485   0.0000702714   0.0000185173   0.0000026470   0.0000436798
        0.0000287384  -0.0000192846   0.0000137808   0.0000132522   0.0000858636
       -0.0000137917  -0.0001833781  -0.0000361853  -0.0000113179  -0.0000007462
       -0.0000667809   0.0000586030   0.0001846630  -0.0000365053  -0.0000112419
       -0.0000120351   0.0000871478  -0.0000137552  -0.0000283661  -0.0000204804
        0.0000141120  -0.0000193925   0.0000029932   0.0000434000  -0.0000366153
        0.0000302566   0.0000710484  -0.0001066805   0.0001958277  -0.0001043120
       -0.0005802465   0.0006914270   0.0000525592  -0.0016302545  -0.0454187970
        0.0031954203   0.0000072694   0.0027998749   0.0000455584   0.0000306900
        0.0002735753  -0.0000912502  -0.0000959832   0.0000846054   0.0000096843
       -0.0000158343   0.0000598863  -0.0000116391   0.0000002650  -0.0000583407
        0.0000450463  -0.0000068223   0.0000060211   0.0000241459   0.0000221203
        0.0000152067  -0.0000045401  -0.0000168761  -0.0000037568  -0.0000124539
        0.0000157984   0.0000007494  -0.0000015935  -0.0000074123   0.0000026749
       -0.0000039807  -0.0000018893   0.0000026884   0.0000144673   0.0000032378
       -0.0000005179  -0.0000154512  -0.0000048493  -0.0000023705   0.0000129629
        0.0000040859   0.0000036610  -0.0000032812  -0.0000190488   0.0000009615
       -0.0000011242   0.0000229810  -0.0000071955  -0.0000140031  -0.0000181312
        0.0000234760  -0.0000003485   0.0000103691  -0.0000073447   0.0000180634
        0.0001260917   0.0000782150  -0.0000143900  -0.0000583303   0.0002711223
       -0.0001092372  -0.0000550246   0.0014272856   0.0001409056   0.0001349117
        0.0091381338   0.0000256853   0.0000613090   0.0000187278  -0.0000247586
        0.0000013762  -0.0000049889   0.0000023252   0.0000058852  -0.0000069989
       -0.0000117318  -0.0000008671  -0.0000026512  -0.0000014620   0.0000008618
       -0.0000027728  -0.0000015274  -0.0000058580  -0.0000069814  -0.0000117561
       -0.0000013610  -0.0000049658   0.0000024408  -0.0000606555   0.0000187357
       -0.0000244843  -0.0001005329   0.0091390819   0.0000257394   0.0000418826
        0.0014292438   0.0001688317  -0.0000183363  -0.0000171178   0.0000114845
       -0.0000072678  -0.0000539941   0.0000183646   0.0000057083  -0.0000015387
        0.0000074535   0.0000010096  -0.0000000850  -0.0000002231  -0.0000006861
       -0.0000019946   0.0000024297  -0.0000010198  -0.0000014274   0.0000028283
        0.0000009968  -0.0000012296   0.0000026134   0.0000005462  -0.0000020951
        0.0000022960  -0.0000010670  -0.0000001567  -0.0000003495  -0.0000057282
       -0.0000023601   0.0000069067   0.0000068146  -0.0000526675   0.0000173247
        0.0000181137  -0.0000160776   0.0000110895
       -0.0000223589   0.0001384711  -0.0078166364  -0.0001168763   0.0000265796
       -0.0530606266   0.0000292509  -0.0074180249   0.5197040857  -0.0597112350
        0.0022067561  -0.2066551545  -0.0389337495   0.0009548860  -0.0040900062
        0.0000101998   0.0010037782  -0.0022141961  -0.0000028500  -0.0002559218
       -0.0002550684   0.0001022995  -0.0001158162  -0.0000537318  -0.0003402347
       -0.0000281015   0.0001927835   0.0002823604   0.0000443443  -0.0002233987
       -0.0002801964   0.0000499438  -0.0001203209   0.0001325612  -0.0000510389
        0.0000389015  -0.0001933000  -0.0000242350   0.0000703453   0.0000004948
       -0.0000706046  -0.0000961610   0.0001923145  -0.0000250500   0.0000708169
       -0.0001333207  -0.0000512930   0.0000387783   0.0002805386   0.0000497236
       -0.0001200846  -0.0002822676   0.0000447947  -0.0002236965   0.0003407944
       -0.0000286987   0.0001925027  -0.0001014577  -0.0001172058  -0.0000512679
        0.0388923214   0.0008711199  -0.0040329814   0.0598275969   0.0020852626
       -0.2065350725  -0.0000025161  -0.0000574719   0.0114909938  -0.0021586391
       -0.0000331310  -0.0002147156  -0.0002710670   0.0000444792   0.0005723976
        0.0000066814  -0.0000017762   0.0000315689  -0.0000000042  -0.0000181972
       -0.0000217482   0.0000012760   0.0000029547   0.0000027589   0.0000010105
        0.0000052338  -0.0000077669  -0.0000035647  -0.0000027194  -0.0000051685
        0.0000001522   0.0000001392  -0.0000033256   0.0000016486   0.0000041189
       -0.0000024864  -0.0000084061  -0.0000009862   0.0000037596  -0.0000012715
       -0.0000099690  -0.0000125365   0.0000110863   0.0000010094   0.0000043727
       -0.0000002721   0.0000038429  -0.0000027325   0.0000011528   0.0000000621
       -0.0000035741   0.0000012635  -0.0000014876  -0.0000046450  -0.0000026649
        0.0000019620  -0.0000094459  -0.0000023675   0.0000079598   0.0000051971
        0.0002582844   0.0000470386   0.0005826722   0.0021699079  -0.0000338064
       -0.0002066096  -0.0106396348   0.0007437984  -0.0250741891   0.0009019933
       -0.0003918450   0.0014896902   0.0001203093  -0.0000119650   0.0000363937
        0.0000142951   0.0000125678   0.0000040666   0.0000084336   0.0000309307
        0.0000507594  -0.0000013727   0.0000111871   0.0000183590   0.0000014339
        0.0000112896   0.0000184524  -0.0000083756   0.0000309176   0.0000508075
       -0.0000143019   0.0000126137   0.0000040116  -0.0001205908  -0.0000114642
        0.0000362968  -0.0009098031  -0.0003902852   0.0014887318   0.0106727955
        0.0007174136  -0.0250755129  -0.0001385550  -0.0000113515  -0.0000256214
       -0.0001887804   0.0000089165   0.0000272498   0.0000033057  -0.0000039957
        0.0000001371   0.0000008346   0.0000002227  -0.0000019890   0.0000000788
       -0.0000002368  -0.0000019098  -0.0000004998  -0.0000001154  -0.0000017434
        0.0000004984  -0.0000001916  -0.0000016460  -0.0000000164  -0.0000001089
       -0.0000018881  -0.0000007378   0.0000002318  -0.0000019424  -0.0000032122
       -0.0000037941   0.0000003818   0.0001889456   0.0000081851   0.0000276976
        0.0001383806  -0.0000118463  -0.0000253697
       -0.0027877591  -0.0001433507  -0.0027055367  -0.0534761496   0.0005906151
       -0.0273394508  -0.0905396069   0.0017285828  -0.0597112350   0.6976281011
       -0.0069546458  -0.0417864686  -0.3837192233   0.0080841544  -0.0373947097
       -0.0511900396   0.0004908672   0.0652454520   0.0043193099  -0.0008577928
        0.0015244944  -0.0012948816   0.0009176857   0.0012248674  -0.0001071100
       -0.0005940628   0.0001842111   0.0004078692   0.0002259998  -0.0001603271
       -0.0002346202   0.0002856441  -0.0000220196  -0.0001913723  -0.0003950363
       -0.0000289107  -0.0003004755   0.0005646758  -0.0001098772   0.0008597459
        0.0001662648  -0.0001112587  -0.0007625470  -0.0007946215   0.0000904042
       -0.0000693450   0.0001719527   0.0000524873  -0.0000456157  -0.0002449599
        0.0000168816   0.0005654429  -0.0001537711  -0.0000525533   0.0006790551
       -0.0002676885  -0.0001319168  -0.0003737028  -0.0016155538  -0.0005887323