$hessian                                                                        
        0.1697797659  -0.2301098568  -0.0080495024  -0.1630836475   0.2062033304
        0.0050358616   0.0042657379  -0.0007672414  -0.0000489567  -0.0004175404
        0.0001922834   0.0002785269   0.0005317181  -0.0004872169  -0.0005788200
        0.0001821163  -0.0003228543   0.0001034994  -0.0004732536  -0.0003621682
        0.0001516100   0.0008807843   0.0001742145   0.0004598148   0.0033431630
        0.0029875016   0.0027522984   0.0006334913   0.0002311918  -0.0000928660
       -0.0000936272  -0.0003855746  -0.0002553298   0.0003845769   0.0001430676
       -0.0004211358   0.0004614974   0.0001385842   0.0006311201  -0.0007676509
       -0.0002217072   0.0011815768  -0.0143457184   0.0217010408  -0.0009370036
        0.0032188041   0.0053675980   0.0030014374  -0.0018727282   0.0013125058
        0.0008774465   0.0018359675  -0.0000645704   0.0003889046  -0.0014817528
       -0.0003388497   0.0003966028  -0.0026840908  -0.0049081752  -0.0037697059
        0.0008243637   0.0004863710   0.0001802820  -0.0001777888  -0.0020593278
       -0.0010742651  -0.0006789446   0.0013315029   0.0006258067  -0.0003181385
       -0.0004576980  -0.0005189182  -0.0000068673   0.0002338990   0.0001785312
       -0.0000065779   0.0000193414   0.0002248589   0.0001527823  -0.0001048772
        0.0000053179  -0.0001022498  -0.0000313479  -0.0000305726   0.0000594077
       -0.0000735367   0.0000261502  -0.0000005351  -0.0000236127   0.0000011977
        0.0000693282   0.0000205345  -0.0000615812   0.0000956926   0.0000349555
        0.0000632973   0.0000040700  -0.0000437250   0.0000528009  -0.0000017139
       -0.0000085550   0.0000076390   0.0000175662   0.0000278948  -0.0000082341
        0.0000249432   0.0000152264   0.0000138639   0.0000296026   0.0000410032
        0.0000198654   0.0007257123  -0.0001329815  -0.0000356831  -0.0028581735
        0.0028595981   0.0008218979   0.0035215102  -0.0009026171   0.0003614695
       -0.0018049507  -0.0006195263  -0.0006787826   0.0010202358  -0.0008826323
       -0.0003183131  -0.0010638818   0.0001725243   0.0000424428   0.0000324093
        0.0001643268  -0.0000043977  -0.0001147503  -0.0001444548   0.0000379001
        0.0001458455  -0.0000006774   0.0000757561   0.0001176731  -0.0002169594
        0.0000806392   0.0002379131   0.0002826613  -0.0000700255  -0.0000506065
       -0.0000686896   0.0000238430   0.0000453138  -0.0001366689  -0.0000569332
       -0.0001844391  -0.0000603476   0.0000410124  -0.0000697232   0.0001100253
        0.0000063798  -0.0003172836   0.0000996572   0.0000586897   0.0003666381
       -0.0003036774  -0.0000436718  -0.0001385454   0.0003707263  -0.0000008562
        0.0003845012  -0.0000820890  -0.0000779437  -0.0003474221   0.0003236336
        0.0000417974   0.0001435145  -0.0003077756  -0.0000034020   0.0001197216
       -0.0000521623  -0.0000173166  -0.0000305044  -0.0001920533   0.0000230879
       -0.0001329897   0.0000444409   0.0000649920  -0.0002469435   0.0000715427
       -0.0000532945  -0.0000420181   0.0001263423  -0.0001052098   0.0000634439
       -0.0000907449  -0.0000016395  -0.0000265216   0.0000266389  -0.0000837714
       -0.0000223899   0.0000613476   0.0000269805   0.0000109427  -0.0000273706
       -0.0000421483  -0.0000169268   0.0000357201   0.0000981442   0.0000010287
       -0.0000399937  -0.0001933441  -0.0000447466   0.0001977681   0.0001721160
        0.0000770129  -0.0000333390  -0.0001109696  -0.0000449439   0.0001631350
        0.0000849591   0.0000629758  -0.0001566462   0.0000563470  -0.0000168454
        0.0001015371  -0.0001479064   0.0000109272  -0.0003067300   0.0002016185
        0.0014654005   0.0003270102   0.0003051836  -0.0013124504   0.0015754326
        0.0004524763   0.0012279798  -0.0024092450  -0.0009532099  -0.0009540366
        0.0008306266   0.0002075576   0.0008174575  -0.0014823188  -0.0000547097
        0.0001109248   0.0000999243  -0.0001547768   0.0000842908  -0.0000525369
        0.0000826838  -0.0000302721  -0.0000678002  -0.0000905889   0.0003049182
       -0.0004250326   0.0002761625   0.0001810711   0.0000208559  -0.0003519538
       -0.0000284192   0.0000440734   0.0000438668  -0.0000259737   0.0000978000
       -0.0000077947   0.0001096726   0.0000744102   0.0001927029   0.0003030835
        0.0004136742  -0.0002807404  -0.0015458616   0.0003701722  -0.0003390945
       -0.0000279010  -0.0000767130  -0.0000699779  -0.0001780552   0.0000584914
       -0.0001866109  -0.0000948826   0.0000282377  -0.0000465654  -0.0000393348
        0.0000985616   0.0000080408   0.0000078334   0.0000548163  -0.0000278238
       -0.0000189409   0.0000323037  -0.0000070077  -0.0000265041   0.0000091955
        0.0000035438   0.0000066608   0.0000065517  -0.0000240800   0.0000118657
        0.0000125027   0.0000247874  -0.0000144926  -0.0000060068   0.0000150632
       -0.0000189588  -0.0000122157  -0.0000059790  -0.0000060471   0.0000002110
       -0.0000484999  -0.0000481403   0.0000299390  -0.0000079623   0.0000160092
       -0.0000439459  -0.0000034560  -0.0000322728  -0.0000369682  -0.0000056299
        0.0000039079   0.0000425729  -0.0000090155  -0.0000408521   0.0000058214
        0.0000187930   0.0000252174   0.0000374641  -0.0000024277   0.0000480235
       -0.0000113382  -0.0000113777  -0.0000007347  -0.0000394804   0.0000035092
       -0.0000339853  -0.0000247225   0.0000048992  -0.0000200903  -0.0000376208
        0.0000030356  -0.0000396299  -0.0000011271   0.0000036119  -0.0000206913
        0.0000372333   0.0000035207   0.0000307250   0.0000169814  -0.0000131497
        0.0000115423  -0.0000353333  -0.0000103270   0.0000504182   0.0000108819
       -0.0000155368   0.0000041667  -0.0000338463  -0.0000097601   0.0000075905
       -0.0000012239   0.0000247448  -0.0000050750   0.0000268272   0.0000138345
       -0.0000094236   0.0000189010  -0.0000132860  -0.0000025684   0.0000283582
        0.0000024097  -0.0000162591   0.0000085178  -0.0000197912  -0.0000027348
       -0.0000143670  -0.0000228485   0.0000027784  -0.0000370212   0.0000224347
       -0.0000110804   0.0000469349   0.0000011225   0.0000188108   0.0000354635
        0.0000100670  -0.0000399475   0.0000034755  -0.0000159528
       -0.2301098568   0.4636107417   0.0147007775   0.2042166497  -0.4295913839
       -0.0097951138   0.0121240779  -0.0175477868   0.0012869778   0.0036068872
       -0.0008484530  -0.0024675936   0.0004491826  -0.0000291396  -0.0005224242
        0.0002212277   0.0006991434  -0.0006565643   0.0003389385  -0.0011421498
        0.0003913622  -0.0039353161  -0.0016605045   0.0046142529   0.0087206406
       -0.0130191946  -0.0065698515  -0.0025590717  -0.0023293121  -0.0003698180
       -0.0006860019   0.0009989884  -0.0010732870   0.0005047361   0.0002824858
        0.0004561847  -0.0005182881   0.0012071383   0.0000142471   0.0027271096
        0.0011406844  -0.0008892741   0.0072064172  -0.0024315929  -0.0010008307
       -0.0016135380  -0.0023995401  -0.0024329275   0.0006294265   0.0004650056
        0.0003664161  -0.0009987949   0.0001928098  -0.0001441824   0.0004016507
       -0.0003134240  -0.0000736053   0.0009387200   0.0010839765   0.0011173610
        0.0006237063   0.0006220559   0.0002600373  -0.0012119594   0.0012925724
        0.0004498128   0.0004593078  -0.0007367495  -0.0003565734  -0.0000826496
        0.0004318520   0.0003874123   0.0000847872  -0.0002355591  -0.0001438513
       -0.0000459666  -0.0000309626  -0.0000775556  -0.0000086907  -0.0000132683
       -0.0000576827   0.0000533329  -0.0001107686  -0.0000506443   0.0000754265
        0.0000504260  -0.0001103226   0.0000541450   0.0000437266  -0.0000674758
       -0.0000638806   0.0000034101   0.0000220320  -0.0000515123  -0.0000363217
       -0.0000460871   0.0000752877   0.0000435608  -0.0000411248   0.0000843471
        0.0000207571   0.0000027073   0.0000561564  -0.0000446028   0.0000588537
       -0.0000425006  -0.0000884307   0.0000214434  -0.0000559153  -0.0000454730
       -0.0000681307  -0.0006965064  -0.0001296216  -0.0001495321   0.0019353763
       -0.0013954562  -0.0002816722  -0.0022622585   0.0006073047  -0.0001523486
        0.0011552747   0.0003901259   0.0004249960  -0.0006459670   0.0005867856
        0.0002097045   0.0006382455  -0.0001005350  -0.0000378344  -0.0000053815
       -0.0001305859   0.0000089635   0.0001020279   0.0001246642  -0.0000302912
       -0.0001134176  -0.0000090317  -0.0000426022  -0.0000824423   0.0001655399
       -0.0000501116  -0.0002249850  -0.0002682095   0.0000590034   0.0000298129
        0.0000470756  -0.0000181657  -0.0000410674   0.0001609074   0.0000456167
        0.0001232094   0.0000467879  -0.0000291128   0.0000528890  -0.0000760256
       -0.0000067892   0.0002335851  -0.0000740695  -0.0000466451  -0.0002771538
        0.0002464516   0.0000330380   0.0001009902  -0.0002790098  -0.0000011503
       -0.0002930979   0.0000532271   0.0000649510   0.0002717093  -0.0002369125
       -0.0000356303  -0.0001089118   0.0002362061   0.0000031664  -0.0000817944
        0.0000356610   0.0000148512   0.0000221603   0.0001321050  -0.0000175365
        0.0001627190  -0.0000303941  -0.0000612766   0.0001830111  -0.0000462032
        0.0000337835   0.0000176781  -0.0000964823   0.0000768585  -0.0000406900
        0.0000428835  -0.0000041824   0.0000190027  -0.0000209395   0.0000457786
        0.0000150334  -0.0000362325  -0.0000146435  -0.0000045970   0.0000235398
        0.0000261030   0.0000101330  -0.0000147057  -0.0000571832   0.0000012590
        0.0000202281   0.0001008486   0.0000277759  -0.0001161945  -0.0000881436
       -0.0000457648   0.0000233348   0.0000667881   0.0000238105  -0.0000823825
       -0.0000514249  -0.0000351328   0.0000844612  -0.0000361672   0.0000133792
       -0.0000627110   0.0000948579   0.0000103693   0.0001682501  -0.0001094821
       -0.0008977213  -0.0002038228  -0.0002022220   0.0007827534  -0.0010190249
       -0.0002937004  -0.0006637023   0.0013302920   0.0004527220   0.0006223821
       -0.0001167385   0.0001133637  -0.0008377980   0.0000351682   0.0005759779
       -0.0002367182  -0.0000183140   0.0002167763  -0.0000922732  -0.0000901702
        0.0001373085  -0.0001166009  -0.0005936468   0.0005109106  -0.0003920064
        0.0006287650   0.0000356583   0.0003999998  -0.0005129439   0.0002135026
        0.0000220857   0.0000039757  -0.0004861136   0.0001207068  -0.0003700274
       -0.0000786044  -0.0002049568  -0.0002046650  -0.0002004693   0.0003224370
       -0.0002666604   0.0004930673  -0.0009956722   0.0015080983   0.0008137944
        0.0002283990   0.0001531442   0.0001856289  -0.0000045776   0.0000814140
        0.0000732212  -0.0001148674   0.0001269369   0.0001284286   0.0001135221
        0.0000677439   0.0000108439  -0.0000192628  -0.0000046973   0.0000347353
        0.0000034002  -0.0000341172   0.0000284811   0.0000286198  -0.0000321888
        0.0000210333  -0.0000336436   0.0000080837   0.0000376309  -0.0000341335
       -0.0000045778  -0.0000064647  -0.0000104033   0.0000087777  -0.0000230917
        0.0000087030   0.0000258774  -0.0000177550  -0.0000068084  -0.0000072769
        0.0000420403   0.0000170321  -0.0000074895  -0.0000022558   0.0000033394
        0.0000139220   0.0000037097   0.0000237936   0.0000153854  -0.0000001853
       -0.0000027599  -0.0000295729   0.0000050572   0.0000334679  -0.0000073225
       -0.0000157489  -0.0000133556  -0.0000351437  -0.0000004083  -0.0000360916
        0.0000056781   0.0000072437   0.0000068123   0.0000317270  -0.0000038706
        0.0000273175   0.0000174280  -0.0000003997   0.0000164856   0.0000313104
       -0.0000012764   0.0000286865  -0.0000003298  -0.0000008057   0.0000111869
       -0.0000274658  -0.0000012776  -0.0000232992  -0.0000110014   0.0000102847
       -0.0000088220   0.0000222146   0.0000080462  -0.0000309026  -0.0000074759
        0.0000076464  -0.0000007193   0.0000206433   0.0000042071  -0.0000046635
        0.0000035983  -0.0000140985   0.0000015627  -0.0000193935  -0.0000067658
        0.0000023846  -0.0000114551   0.0000080432  -0.0000011847  -0.0000162237
       -0.0000011688   0.0000086792  -0.0000052315   0.0000107727   0.0000012432
        0.0000056447   0.0000144046   0.0000021342   0.0000239851  -0.0000146977
        0.0000002207  -0.0000241725   0.0000028640  -0.0000170319  -0.0000068635
        0.0000028237   0.0001041189  -0.0000063548   0.0000388112
       -0.0080495024   0.0147007775   0.0415649519   0.0083098871  -0.0172090816
       -0.0515502858  -0.0055143651   0.0133645898   0.0040441838  -0.0012453831
        0.0004818381   0.0016708339  -0.0011552429   0.0003105862   0.0002807202
       -0.0004247911  -0.0000571496   0.0004277865   0.0001240210   0.0006660946
       -0.0013520632   0.0022100492   0.0004300407  -0.0012406402   0.0091754717
       -0.0192809370   0.0020470182  -0.0017046945  -0.0011177420   0.0012888201
       -0.0012259146   0.0014344822  -0.0002975795   0.0000136921   0.0000185178
        0.0002030464  -0.0003776682   0.0016558322  -0.0005615306   0.0024645292
        0.0003385437  -0.0002200151  -0.0010555162   0.0021822876   0.0038329993
        0.0002235149   0.0003084790   0.0004478746  -0.0001106647   0.0006638277
       -0.0000147282   0.0001909336  -0.0000856700   0.0000513395  -0.0000060380
        0.0002420736  -0.0002740849  -0.0008278585  -0.0007575624   0.0005512930
        0.0002531737  -0.0001681553   0.0003039581  -0.0003236098  -0.0000396911
       -0.0002309190  -0.0001705690   0.0002915619   0.0001875286  -0.0002909512
        0.0000024517  -0.0003212019   0.0000559594   0.0000198342   0.0000791452
        0.0000189570  -0.0000230216   0.0000904130   0.0001018610  -0.0000139737
       -0.0000545832  -0.0000682678  -0.0000350769   0.0001109145   0.0000589658
       -0.0000621112   0.0000635190   0.0000013898  -0.0000386954   0.0000340553
        0.0000223645  -0.0000822552   0.0000568309   0.0000321348   0.0000228644
       -0.0000036270   0.0000791551   0.0000311577   0.0000076720   0.0000768188
       -0.0000159887   0.0000384545   0.0000477025  -0.0000517529   0.0000622165
        0.0000054280  -0.0000882582   0.0000347563  -0.0000378622  -0.0000514858
       -0.0000443842   0.0004391826   0.0001546137   0.0001579962  -0.0011445961
        0.0006591915   0.0000792166   0.0012939754  -0.0003547608   0.0000652373
       -0.0006717533  -0.0002210694  -0.0002349986   0.0003848189  -0.0003415079
       -0.0001102531  -0.0003909751   0.0000919827   0.0000175669   0.0000173249
        0.0000432520   0.0000020771  -0.0000314716  -0.0000405952   0.0000128232
        0.0000466545   0.0000024801   0.0000251850   0.0000356587  -0.0000688098
        0.0000242560   0.0000789966   0.0000913436  -0.0000267935  -0.0000136538
       -0.0000195892   0.0000126158   0.0000177868  -0.0000488042  -0.0000219902
       -0.0000556469  -0.0000134198   0.0000189481  -0.0000189264   0.0000329551
       -0.0000002049  -0.0001014602   0.0000286169   0.0000185945   0.0001166504
       -0.0001035248  -0.0000171043  -0.0000451301   0.0001253511   0.0000001144
        0.0001262032  -0.0000258266  -0.0000225198  -0.0001147575   0.0001043131
        0.0000116340   0.0000441123  -0.0001005037   0.0000038262   0.0000376213
       -0.0000141738  -0.0000055576  -0.0000058113  -0.0000597610   0.0000093566
       -0.0000498805   0.0000174976   0.0000191349  -0.0000767330   0.0000229910
       -0.0000130962  -0.0000127158   0.0000388678  -0.0000332196   0.0000185334
       -0.0000334961  -0.0000025461  -0.0000060500   0.0000102689  -0.0000289368
       -0.0000042198   0.0000174908   0.0000079159   0.0000063535  -0.0000094699
       -0.0000084154  -0.0000084695   0.0000147527   0.0000326327   0.0000026510
       -0.0000157073  -0.0000699260  -0.0000144841   0.0000713604   0.0000614308
        0.0000259834  -0.0000141531  -0.0000321958  -0.0000173385   0.0000615867
        0.0000305364   0.0000210350  -0.0000607201   0.0000202258  -0.0000047875
        0.0000345386  -0.0000471940   0.0000108253  -0.0001067317   0.0000708738
        0.0005248208   0.0001060869   0.0001223623  -0.0004787005   0.0005621851
        0.0001727864   0.0003927555  -0.0007137230  -0.0001605959  -0.0002177523
        0.0001342181  -0.0000664741  -0.0006334758   0.0013688053  -0.0007851460
       -0.0000085898  -0.0000543977   0.0000568312   0.0000462864   0.0001694478
       -0.0000287755  -0.0000466526   0.0002486309  -0.0003094921   0.0001224249
        0.0003481059  -0.0000137053   0.0002590121  -0.0003793235   0.0002534721
        0.0000486319   0.0000402874  -0.0001961408   0.0001474179  -0.0004028212
       -0.0000308895  -0.0001725832  -0.0000655373  -0.0001456983   0.0001855979
       -0.0005568346   0.0000923040  -0.0007259180   0.0007019929  -0.0000634506
        0.0000628393   0.0000302408   0.0000129139  -0.0000842847   0.0000151391
        0.0000419684  -0.0001621799   0.0002738068  -0.0000154962   0.0000764696
        0.0001112857  -0.0001476273  -0.0000110435  -0.0000143761  -0.0000158749
        0.0000027475  -0.0000051595  -0.0000115179  -0.0000015702   0.0000014030
       -0.0000127899  -0.0000241999   0.0000150057  -0.0000177263  -0.0000102722
        0.0000251855   0.0000177883  -0.0000214752   0.0000123778   0.0000195699
       -0.0000249216   0.0000108916   0.0000061241  -0.0000120899   0.0000337005
       -0.0000185941  -0.0000264676   0.0000000931  -0.0000158730   0.0000013624
       -0.0000140877  -0.0000150718  -0.0000085996  -0.0000106550  -0.0000058126
        0.0000025251   0.0000126626  -0.0000038953  -0.0000096423   0.0000024636
        0.0000047327   0.0000036222   0.0000105451  -0.0000032409   0.0000100025
       -0.0000036325  -0.0000057198  -0.0000007942  -0.0000105829  -0.0000009085
       -0.0000094975  -0.0000057455  -0.0000001810  -0.0000059241  -0.0000093641
       -0.0000000638  -0.0000107943   0.0000007511  -0.0000005619  -0.0000055112
        0.0000102460   0.0000000016   0.0000074577   0.0000048449  -0.0000048936
       -0.0000007069  -0.0000113665  -0.0000053443   0.0000119296   0.0000070066
       -0.0000101867   0.0000002100  -0.0000097118  -0.0000068046   0.0000012956
        0.0000001676   0.0000071297  -0.0000022327   0.0000094937   0.0000030494
       -0.0000022891   0.0000051970  -0.0000048999  -0.0000005506   0.0000097809
       -0.0000009754  -0.0000028005   0.0000015710  -0.0000069835   0.0000001375
       -0.0000035737  -0.0000060278   0.0000028119  -0.0000098366  -0.0000002751
       -0.0000045153   0.0000195640  -0.0000037673   0.0000040163   0.0000201140
        0.0000004930  -0.0000009558  -0.0000006308  -0.0000119808
       -0.1630836475   0.2042166497   0.0083098871   0.4406926377  -0.1471190934
       -0.0002079827  -0.0480674651  -0.0204853244   0.0289156818  -0.0104940031
       -0.0086353748   0.0140935686  -0.0017206986   0.0034040320   0.0040203722
       -0.0014522258   0.0002842302   0.0010549177   0.0034356060   0.0040085482
       -0.0010137657   0.0048946445  -0.0013585772  -0.0062961686  -0.0348730744
       -0.0018006638  -0.0147698397   0.0036926416   0.0051769268   0.0091423989
        0.0004708396  -0.0021131765   0.0034091634  -0.0011947190  -0.0004963146
        0.0005797043  -0.0024055271  -0.0045382237  -0.0008874100  -0.0031571094
       -0.0061127939  -0.0159887136  -0.1375909428  -0.0136235822  -0.0147505926
       -0.0264440651  -0.0300805026  -0.0198561451   0.0155502883  -0.0042042745
       -0.0001561102  -0.0093602089   0.0013987208  -0.0014249294   0.0045687512
        0.0068866117   0.0031291361  -0.0278636127   0.0173698954   0.0028774876
       -0.0015321905  -0.0059808395  -0.0027323220   0.0021201177   0.0107410519
        0.0061596250   0.0022979351  -0.0065807849  -0.0032922797   0.0020425642
        0.0017237463   0.0019369204  -0.0001653211  -0.0006926709  -0.0005692153
        0.0000193864  -0.0002152375  -0.0008281182  -0.0005626670   0.0004403298
        0.0001031116   0.0004685883   0.0002072452   0.0001291317  -0.0003939454
        0.0001893578   0.0000927990   0.0001900185   0.0000008651   0.0000219093
       -0.0002562894  -0.0000854591   0.0002817960  -0.0004736435  -0.0000960132
       -0.0003236184  -0.0000491345   0.0001320258  -0.0001816827  -0.0000809636
        0.0000015324  -0.0000231067  -0.0000906942   0.0000021552  -0.0000251714
       -0.0000317500   0.0000663662  -0.0000251024  -0.0000736051  -0.0000679988
        0.0000501158  -0.0009926163   0.0019869623   0.0013862573   0.0102858395
       -0.0141671050  -0.0050564878  -0.0141695265   0.0035025574  -0.0015616708
        0.0072185508   0.0026541263   0.0027606827  -0.0041268826   0.0036594116
        0.0012832418   0.0044902715  -0.0006521530  -0.0000885615  -0.0001390122
       -0.0004825808  -0.0000130135   0.0003955341   0.0004701368  -0.0001349078
       -0.0005049473   0.0000111746  -0.0003122703  -0.0004074339   0.0007428453
       -0.0002702272  -0.0007991705  -0.0009456391   0.0002470218   0.0002059937
        0.0002683821  -0.0000745273  -0.0001646373   0.0004402384   0.0001945578
        0.0006197857   0.0002046787  -0.0001424445   0.0002473631  -0.0004152543
       -0.0000088025   0.0011065102  -0.0003496033  -0.0001909711  -0.0012846138
        0.0010738470   0.0001500452   0.0004874095  -0.0013097548   0.0000138465
       -0.0013498589   0.0003139116   0.0002588319   0.0012196855  -0.0011456850
       -0.0001344483  -0.0004866509   0.0010786146   0.0000073050  -0.0004473094
        0.0001825904   0.0000559331   0.0001072200   0.0006529204  -0.0000696769
        0.0004390323  -0.0001559020  -0.0002330550   0.0008353998  -0.0002478904
        0.0001724551   0.0001423161  -0.0004185684   0.0003716441  -0.0002316310
        0.0003408896  -0.0000127339   0.0000751314  -0.0000634158   0.0003465347
        0.0000846960  -0.0002113923  -0.0000999295  -0.0000358055   0.0000886421
        0.0001690410   0.0000875877  -0.0001517911  -0.0003773592  -0.0000055378
        0.0001588157   0.0008314502   0.0001682663  -0.0008298166  -0.0007455021
       -0.0002793073   0.0001305660   0.0004352234   0.0001945385  -0.0006837238
       -0.0003149878  -0.0002688449   0.0006996368  -0.0002205249   0.0000191491
       -0.0003689371   0.0005890554  -0.0001304979   0.0012312306  -0.0007542268
       -0.0061586955  -0.0014473719  -0.0013113182   0.0054162877  -0.0063926442
       -0.0017995732  -0.0040411214   0.0119206190   0.0050988481  -0.0006500059
       -0.0047143387  -0.0024937201  -0.0020503927   0.0006129046   0.0000205794
       -0.0001656435  -0.0005186720   0.0005998464  -0.0004284620  -0.0001103400
       -0.0007499816   0.0000710305   0.0009859110  -0.0004776677  -0.0011360537
        0.0005517618  -0.0009405698  -0.0017882943   0.0000125906  -0.0000036899
       -0.0000842548   0.0000976506   0.0008487570  -0.0003836141   0.0005823353
        0.0000057460  -0.0002790229  -0.0004571871  -0.0009400605  -0.0019910408
        0.0002993359   0.0007425355   0.0004762052   0.0004974307   0.0014005688
        0.0003415777   0.0003281499   0.0001753541   0.0003847525  -0.0000867208
        0.0004190333   0.0003615138  -0.0002492758   0.0000180653  -0.0001472757
       -0.0002946563  -0.0000624173  -0.0000211732  -0.0001589271   0.0000360370
        0.0000303435  -0.0000582956  -0.0000175682   0.0000372984  -0.0000091628
       -0.0000344290  -0.0000077090  -0.0000518196   0.0000419305  -0.0000129022
       -0.0000497759  -0.0001148349   0.0000227162  -0.0000080442  -0.0000263086
        0.0000503890  -0.0000019966   0.0000079547   0.0000215899  -0.0000605680
        0.0000705856   0.0001812266  -0.0001550254   0.0000390478  -0.0000166933
        0.0001079242   0.0000054823   0.0001241128   0.0001064385   0.0000182013
       -0.0000099831  -0.0001379735   0.0000170352   0.0001074824  -0.0000220743
       -0.0000657836  -0.0000579875  -0.0001092065   0.0000028377  -0.0001117917
        0.0000550475   0.0000407287  -0.0000133332   0.0001209077  -0.0000101116
        0.0000921816   0.0000623907  -0.0000382612   0.0000575998   0.0001004821
       -0.0000142979   0.0001247074   0.0000015324  -0.0000183303   0.0000805071
       -0.0001062463  -0.0000121257  -0.0000799487  -0.0000550643   0.0000450263
       -0.0000191297   0.0001338226   0.0000421171  -0.0001665532  -0.0000539098
        0.0000826578  -0.0000243889   0.0001089285   0.0000325536  -0.0000242868
       -0.0000431490  -0.0000915178   0.0000209960  -0.0000958330  -0.0000494425
        0.0000563897  -0.0000686118   0.0000504756   0.0000100472  -0.0001010532
       -0.0000071240   0.0000602906  -0.0000293594   0.0000688204   0.0000218446
        0.0000499290   0.0000784669   0.0000024024   0.0001088099  -0.0000704032
        0.0000456686  -0.0001583112  -0.0000044967  -0.0000135909  -0.0001619160
       -0.0000442891   0.0000516755  -0.0001337228  -0.0000232204
        0.2062033304  -0.4295913839  -0.0172090816  -0.1471190934   0.6311357645
        0.0141678943  -0.0299493066  -0.0800816005   0.0512600720  -0.0115253659
        0.0048855996   0.0069141207   0.0024610016   0.0038596137  -0.0008959115
       -0.0003503618  -0.0021386039   0.0016328010   0.0051074701  -0.0011771363
       -0.0000306514  -0.0000688706  -0.0207053943   0.0129882257  -0.0049708105
       -0.0563725890  -0.0482343649   0.0056063061   0.0022900281  -0.0015099964
       -0.0019310180   0.0045507826   0.0006753754  -0.0006099370  -0.0005620283
       -0.0007506598  -0.0037195815   0.0031369473  -0.0009424249  -0.0066872498
       -0.0076071318  -0.0092570660  -0.0097277961  -0.0401420822  -0.0020947632
       -0.0167929753  -0.0032213729  -0.0030339490   0.0002357443  -0.0033720490
       -0.0042472412  -0.0002003686  -0.0000919929   0.0000004350   0.0023762421
       -0.0001246396  -0.0022951687   0.0117278117   0.0058104712   0.0048935773
       -0.0035253771  -0.0008926229  -0.0001319782   0.0025526710  -0.0014050172
       -0.0002791501  -0.0008455088   0.0011121957   0.0005940431   0.0005005802
       -0.0002699999  -0.0005827841  -0.0002514652   0.0002823302   0.0002489387
        0.0001222790   0.0000197434   0.0000301996  -0.0000463258  -0.0002163757
        0.0003144148   0.0001062399   0.0001343022   0.0001280867  -0.0001544030
       -0.0001330122   0.0002382243  -0.0000887409  -0.0000395781   0.0001020214
        0.0000109993   0.0000032060   0.0000063757   0.0000106660   0.0000005669
        0.0000787464  -0.0001220124  -0.0000429971   0.0000189922  -0.0001415930
       -0.0000189323  -0.0000211658  -0.0000841599   0.0000755334  -0.0000790488
        0.0000493939   0.0001264914  -0.0000442097   0.0000881804   0.0000659504
        0.0001036245   0.0009801956   0.0002101825   0.0002847848  -0.0019541649
        0.0012036235   0.0001616438   0.0019808143  -0.0005273510   0.0000016012
       -0.0009100634  -0.0002722884  -0.0003023542   0.0004971214  -0.0003761816
       -0.0001107971  -0.0004648389   0.0000553429   0.0000074849   0.0000423713
        0.0001300814  -0.0000071121  -0.0000600207  -0.0000786978   0.0000254027
        0.0001072088  -0.0000047709   0.0000518294   0.0000918576  -0.0001568285
        0.0000667861   0.0001562847   0.0001867032  -0.0000357097  -0.0000435126
       -0.0000617695   0.0000197237   0.0000241719  -0.0000578229  -0.0000459679
       -0.0001370996  -0.0000512981   0.0000310124  -0.0000610594   0.0000881536
        0.0000088554  -0.0002118580   0.0000799267   0.0000429715   0.0002715565
       -0.0002072046  -0.0000339867  -0.0000981133   0.0002530075   0.0000005410
        0.0002699448  -0.0000590544  -0.0000649412  -0.0002286645   0.0002325282
        0.0000313858   0.0001137939  -0.0002219668  -0.0000049728   0.0000927807
       -0.0000423100  -0.0000165366  -0.0000236562  -0.0001535100   0.0000180659
       -0.0000583445   0.0000220362   0.0000325392  -0.0001729682   0.0000536839
       -0.0000576030  -0.0000274577   0.0000853405  -0.0000795238   0.0000365738
       -0.0000638310  -0.0000371509  -0.0000227581   0.0000349855  -0.0000400430
       -0.0000118070   0.0000232014   0.0000017869   0.0000041489  -0.0000263654
       -0.0000068737  -0.0000011923  -0.0000098980   0.0000356960   0.0000010367
       -0.0000210971  -0.0000417956  -0.0000131089   0.0000474945   0.0000391797
        0.0000386574  -0.0000267255  -0.0000323517  -0.0000106409   0.0000334232
        0.0000279737   0.0000213985  -0.0000391912   0.0000357425  -0.0000193822
        0.0000676685  -0.0000499466  -0.0000129008  -0.0001219062   0.0001254465
        0.0006624542   0.0000692239   0.0001451451  -0.0006041183   0.0007742758
        0.0002019494   0.0006716200  -0.0015735226  -0.0004036145  -0.0001972104
       -0.0002684934  -0.0001231057   0.0017939638  -0.0011604057  -0.0020266286
        0.0007203826   0.0002972014  -0.0008134038  -0.0001672414  -0.0001365238
       -0.0007011722  -0.0002164033  -0.0000179893   0.0002923335   0.0000070309
       -0.0003518156  -0.0010989192   0.0002996570  -0.0013314924   0.0009366789
       -0.0001293070   0.0000945613   0.0008010635   0.0005077409  -0.0008515235
        0.0006381006   0.0001413307   0.0001315305  -0.0000840494   0.0000160758
       -0.0012766436   0.0011356806  -0.0006670774  -0.0033564848  -0.0008211519
       -0.0010428495  -0.0002561426  -0.0006572898   0.0000263270  -0.0002907030
        0.0004782683   0.0002007612  -0.0000331281  -0.0004435379  -0.0003456296
       -0.0000820176  -0.0000746817   0.0000360677   0.0000266890  -0.0000747009
       -0.0000217885   0.0000822430  -0.0000558514  -0.0000296256   0.0000714073
       -0.0000617933   0.0000333530  -0.0000479603  -0.0000408144   0.0000535531
       -0.0000004851   0.0000243791   0.0000235361  -0.0000226676   0.0000480509
       -0.0000094490  -0.0000489769   0.0000494023   0.0000255062   0.0000178588
       -0.0000303503  -0.0000047696  -0.0000384998  -0.0000110521  -0.0000187120