$hessian                                                                        
        0.1641253775  -0.2212733126   0.0451598691  -0.1583087711   0.1969252391
       -0.0373904939   0.0050461212   0.0013127124  -0.0027000174  -0.0006122147
       -0.0005041605  -0.0015095392   0.0005236361   0.0000966545  -0.0007329004
        0.0004375955   0.0001817077   0.0005121097  -0.0001362370  -0.0002317840
        0.0003329984   0.0007082760   0.0001766258   0.0000872710   0.0060396638
       -0.0008772646  -0.0010053803   0.0009029695   0.0000912125  -0.0008339068
       -0.0002900976  -0.0000873513   0.0006234222  -0.0000100519  -0.0004575613
        0.0001811757  -0.0008927309  -0.0000061482  -0.0005597449   0.0004267833
        0.0009655915   0.0006945596  -0.0122294365   0.0221442134  -0.0041408897
        0.0008436501   0.0038271050  -0.0003039714   0.0006709065   0.0013293742
        0.0001914584   0.0002705903   0.0000558909  -0.0000030220  -0.0006668310
        0.0011508078   0.0003091220  -0.0052725507  -0.0056099813   0.0001243896
       -0.0001079820   0.0014529131  -0.0000854571   0.0007351727  -0.0002981927
        0.0000080909   0.0001140973   0.0000841823   0.0000167427  -0.0004178329
       -0.0009281467  -0.0000004572   0.0000078723   0.0004159402  -0.0000864102
        0.0000418721   0.0000876028   0.0000131612   0.0000722816  -0.0000258939
       -0.0000689333  -0.0000033430  -0.0000317035  -0.0000141180  -0.0000308110
        0.0000113576   0.0000563746   0.0000400016   0.0000478601   0.0000268869
       -0.0000088092   0.0000568301  -0.0000359689   0.0001171564   0.0001079467
       -0.0000396240   0.0000264453  -0.0000184059   0.0000734950  -0.0000029406
       -0.0000264478   0.0000255898  -0.0000025149   0.0000107154  -0.0000110392
       -0.0000075366   0.0000844688  -0.0000053740   0.0000734377  -0.0000144678
        0.0000015710  -0.0002283656   0.0000352461  -0.0000132476   0.0001376607
        0.0002087908   0.0000014632   0.0000648549   0.0000203594   0.0000004714
       -0.0001056904  -0.0000604066   0.0000215065  -0.0000400334  -0.0000194281
        0.0000465808   0.0000607388  -0.0000283372  -0.0000152823  -0.0000503895
        0.0000360539   0.0000202095   0.0000146874   0.0000173298  -0.0000083168
       -0.0000097459  -0.0000101209  -0.0000012513  -0.0000007260  -0.0000087350
       -0.0000032616   0.0000063965   0.0000145690   0.0000050847  -0.0000142654
       -0.0000098991   0.0000086658   0.0000115899  -0.0000006866  -0.0000030646
       -0.0000082699   0.0000060316  -0.0000026763  -0.0000045557  -0.0000045308
        0.0000006496  -0.0000010915  -0.0000030192   0.0000007505  -0.0000069930
        0.0000011923  -0.0000011160   0.0000003456  -0.0000043436   0.0000014999
       -0.0000067952  -0.0000011835  -0.0000014939   0.0000018030  -0.0000012738
        0.0000009859  -0.0000159626   0.0000016079  -0.0000029915  -0.0000045460
       -0.0000057359   0.0000031640  -0.0000031429  -0.0000034173   0.0000064479
       -0.0000013475   0.0000046162  -0.0000025558  -0.0000167882   0.0000105516
        0.0000011621  -0.0000154295  -0.0000003105  -0.0000108635  -0.0000182427
       -0.0000288157  -0.0000278209  -0.0000158508   0.0000137523   0.0000126093
       -0.0000052157   0.0000099934  -0.0000073127  -0.0000048184   0.0000029323
       -0.0000089540  -0.0000007007   0.0000021117   0.0000061625  -0.0000005934
        0.0000055449   0.0000017919   0.0000001373   0.0000019660   0.0000036361
       -0.0000034210  -0.0000030456  -0.0000085953  -0.0000024220   0.0000031028
        0.0000068286  -0.0000062729   0.0000116099   0.0000024069  -0.0000165053
        0.0000096049  -0.0000073301   0.0000012618  -0.0000187352   0.0000201628
       -0.0000162624   0.0000502213  -0.0000564527  -0.0000381033   0.0001183437
       -0.0000296837   0.0003099294   0.0002833945   0.0000208618  -0.0006312344
       -0.0004325251  -0.0000220994   0.0004107374   0.0005324033   0.0004073197
        0.0001618999   0.0000496746  -0.0002194204  -0.0000013960   0.0000765521
       -0.0000190209  -0.0000462763   0.0000474353  -0.0000502973   0.0001773371
        0.0000003247   0.0004653943  -0.0000993149  -0.0008782215   0.0002614161
        0.0000460878   0.0000626226   0.0001530007   0.0001016926  -0.0000305603
       -0.0000011960  -0.0000049006   0.0000709390   0.0000924186   0.0001916699
       -0.0004537307   0.0000917905  -0.0022084579   0.0003550059   0.0000140502
        0.0000040520  -0.0001308537  -0.0000140115  -0.0002264445  -0.0000175613
       -0.0000741307  -0.0000193336   0.0000218626   0.0000285966   0.0000271551
        0.0000264393   0.0000086661   0.0000243888   0.0000008217  -0.0000271398
       -0.0000344920  -0.0000226482   0.0000085190  -0.0000156152  -0.0000453696
        0.0000547032  -0.0000051997   0.0000047785  -0.0000177167  -0.0000053081
        0.0000176994   0.0000106159   0.0000001208   0.0000154135   0.0000227442
       -0.0000223565  -0.0000141018   0.0000145482  -0.0000835033  -0.0000529369
       -0.0000877550  -0.0000528354   0.0000247380   0.0000124773   0.0000340351
       -0.0000100462   0.0000146960  -0.0000044564   0.0000173210  -0.0000159886
        0.0000067484   0.0000007837  -0.0000023345   0.0000000959  -0.0000000254
        0.0000014083   0.0000061258  -0.0000039950   0.0000019999   0.0000025167
        0.0000007484  -0.0000002681   0.0000010895  -0.0000001606  -0.0000004870
        0.0000040683   0.0000004155   0.0000003598   0.0000022441   0.0000016790
       -0.0000005425   0.0000058059   0.0000036033  -0.0000002759   0.0000088935
        0.0000094504  -0.0000027733   0.0000112976   0.0000013307  -0.0000014774
        0.0000120061   0.0000000294  -0.0000022853   0.0000141590   0.0000040723
        0.0000083712   0.0000075565  -0.0000065695  -0.0000123389   0.0000028850
       -0.0000035878  -0.0000002798  -0.0000004065  -0.0000001904   0.0000004161
        0.0000010471   0.0000001160  -0.0000018885   0.0000013049  -0.0000006026
        0.0000014294   0.0000006592  -0.0000009829  -0.0000011863   0.0000030439
       -0.0000039216   0.0000003843   0.0000088591  -0.0000025129   0.0000092331
       -0.0000109477  -0.0000172578   0.0000167423   0.0000484654  -0.0000266166
       -0.0000116334  -0.0000256430  -0.0000743138  -0.0000066249
       -0.2212733126   0.4563680432  -0.0823113107   0.1997395655  -0.4222505159
        0.0703766966   0.0067356945  -0.0102785533   0.0086758391   0.0024333193
        0.0011162382   0.0008484244  -0.0002346282   0.0010051930  -0.0001734111
        0.0004854800   0.0001219687  -0.0005157439  -0.0005029672   0.0009979333
        0.0008256888  -0.0025051392  -0.0018873093   0.0007833966   0.0108367524
       -0.0194798243   0.0029290380   0.0008896681  -0.0015318561   0.0035458788
       -0.0005091932   0.0005376647   0.0011080859   0.0002945552   0.0004147728
        0.0004800290  -0.0013078243  -0.0008448949   0.0004606243  -0.0009475226
       -0.0016684641  -0.0057621255   0.0060630885  -0.0038622537   0.0009614028
       -0.0015740615  -0.0022467372  -0.0001018868  -0.0001604844   0.0007951749
       -0.0002388783  -0.0005145401   0.0002032374   0.0000110429   0.0001415396
       -0.0008498150  -0.0001500863   0.0020296066   0.0014172871   0.0004615644
        0.0006440699   0.0004647841   0.0000233035  -0.0012953493   0.0005867031
       -0.0000262949   0.0000689609  -0.0002278061  -0.0000079818  -0.0002004386
        0.0007386085  -0.0000993076   0.0001152446  -0.0003923675   0.0000987385
       -0.0000670306  -0.0000436539   0.0000378553   0.0000503051   0.0000076732
        0.0002172686   0.0001966838   0.0000229337   0.0000487881   0.0001986703
       -0.0000481091  -0.0000892031   0.0000635102  -0.0001610911  -0.0000846418
       -0.0001211200  -0.0001044066   0.0000099530  -0.0000085816  -0.0000397579
        0.0000014964  -0.0000269308  -0.0000111473  -0.0000730961   0.0000085283
        0.0000296185   0.0000231354   0.0000150159   0.0000015827   0.0000677772
        0.0001025546  -0.0001043281  -0.0000238885   0.0001106473   0.0001043258
       -0.0000089310  -0.0000135849  -0.0000162730   0.0000085437  -0.0000006956
        0.0000441983  -0.0000020972  -0.0000315034  -0.0000029402  -0.0000009341
        0.0000533299   0.0000292677  -0.0000026711   0.0000278148   0.0000148490
       -0.0000283436  -0.0000333316   0.0000198026  -0.0000011074   0.0000327314
       -0.0000192950  -0.0000147755  -0.0000108673  -0.0000149724   0.0000089611
        0.0000083804   0.0000046127  -0.0000015484   0.0000010022   0.0000114494
        0.0000017586  -0.0000104849  -0.0000179549  -0.0000017355   0.0000144869
        0.0000244825  -0.0000062932  -0.0000096358   0.0000038146  -0.0000000016
        0.0000056938  -0.0000049419   0.0000028653   0.0000008438   0.0000004462
       -0.0000007136   0.0000017091   0.0000074526  -0.0000015056   0.0000052679
       -0.0000007640   0.0000014806  -0.0000022370   0.0000041390  -0.0000012483
        0.0000095406   0.0000047134   0.0000006943  -0.0000012105   0.0000015685
        0.0000000450   0.0000041975  -0.0000012759   0.0000022619   0.0000088189
       -0.0000005713   0.0000034157  -0.0000053154   0.0000076256  -0.0000040174
        0.0000031976  -0.0000215167   0.0000036183   0.0000127782  -0.0000093559
       -0.0000062776   0.0000082249   0.0000058660   0.0000054857   0.0000117386
        0.0000137418   0.0000155018   0.0000157883  -0.0000081483  -0.0000047697
        0.0000062205  -0.0000011692   0.0000051922   0.0000057796   0.0000009550
        0.0000030644   0.0000028223   0.0000003047  -0.0000039632   0.0000022619
       -0.0000008917  -0.0000028114   0.0000007329   0.0000004183  -0.0000027363
        0.0000055836   0.0000038735   0.0000030537   0.0000030933   0.0000015055
       -0.0000038513   0.0000053030  -0.0000040493  -0.0000060014   0.0000140915
       -0.0000100999  -0.0000001159   0.0000018168   0.0000100631  -0.0000107415
        0.0000115588  -0.0000236588   0.0000302899   0.0000302418  -0.0000587481
        0.0000264850  -0.0000825687  -0.0001671027  -0.0000231382   0.0004798504
        0.0003851457  -0.0000080146   0.0002872967  -0.0002975393  -0.0005173547
       -0.0002277648  -0.0001613002   0.0001887313   0.0000582542  -0.0002954092
        0.0001369538   0.0000267196   0.0000292616   0.0004897588   0.0001265903
       -0.0005873331  -0.0001199610   0.0001358227   0.0001669813  -0.0009788733
       -0.0000750733  -0.0000453740  -0.0003674681   0.0001961001  -0.0001793429
       -0.0003011525  -0.0003750845  -0.0006401528  -0.0003315268   0.0003761446
        0.0006223662  -0.0005013014  -0.0009775299   0.0018371298  -0.0000157513
        0.0002762743   0.0002291808   0.0000012653  -0.0000026734   0.0001101017
        0.0000511829  -0.0000477799  -0.0000013750  -0.0000542249  -0.0000462845
        0.0000014205  -0.0000474237  -0.0000434351   0.0000397544   0.0000069537
       -0.0000420330   0.0000808361  -0.0000313020  -0.0000279835   0.0000582403
       -0.0000124172   0.0000047004  -0.0000290746   0.0000169919  -0.0000012295
       -0.0000294722  -0.0000120003  -0.0000151546  -0.0000152051  -0.0000292133
       -0.0000327126   0.0000021358   0.0000625796  -0.0001623173   0.0000343288
        0.0000639631   0.0000141783  -0.0000304971  -0.0000060220  -0.0000259806
        0.0000068431  -0.0000133985  -0.0000026283  -0.0000130548   0.0000094086
       -0.0000052936  -0.0000017017   0.0000028147   0.0000021573  -0.0000020496
       -0.0000016765  -0.0000017154   0.0000018709  -0.0000017958  -0.0000009854
        0.0000002060  -0.0000001325   0.0000005474  -0.0000000507   0.0000002339
        0.0000006134  -0.0000011217   0.0000005449   0.0000005181  -0.0000017739
        0.0000003439   0.0000025433   0.0000006578  -0.0000008749  -0.0000046701
       -0.0000050243  -0.0000012569  -0.0000010511  -0.0000085491   0.0000011572
       -0.0000032297   0.0000004278   0.0000042806  -0.0000062013  -0.0000128071
       -0.0000064249  -0.0000055285  -0.0000015734   0.0000058710  -0.0000018770
       -0.0000014153  -0.0000003449   0.0000000648  -0.0000012734  -0.0000004582
       -0.0000001601  -0.0000016827  -0.0000000344  -0.0000010491  -0.0000008638
       -0.0000012429  -0.0000001289  -0.0000016109   0.0000002347  -0.0000014345
       -0.0000013770   0.0000013283  -0.0000052273  -0.0000021691  -0.0000035228
        0.0000131275   0.0000054456  -0.0000105144  -0.0000215868   0.0000005111
        0.0000023716   0.0000763482   0.0000250562   0.0000081566
        0.0451598691  -0.0823113107   0.0572673767  -0.0414561404   0.0755645320
       -0.0680484161  -0.0095092829   0.0207952593  -0.0023861121  -0.0029227988
       -0.0002726224  -0.0002145731   0.0001320985  -0.0018855857  -0.0002626790
       -0.0001366276   0.0000024289   0.0003087497   0.0011629507  -0.0017222287
       -0.0003205401   0.0022621833   0.0013839304   0.0011140868   0.0054447021
       -0.0088806365   0.0062159182   0.0011506504   0.0001242517   0.0005568075
        0.0004356553  -0.0000915236   0.0012241834   0.0000005650  -0.0003085135
        0.0002709290  -0.0003764408  -0.0006189700  -0.0000733058  -0.0010763343
       -0.0010576934  -0.0016157603  -0.0002414036   0.0003352916   0.0058361083
        0.0002981101   0.0003590861   0.0006040328   0.0000533494  -0.0001541346
       -0.0004701689   0.0001200077  -0.0000330001   0.0000485827   0.0000846462
        0.0001187576  -0.0006315751  -0.0002860929   0.0005182868   0.0006144597
       -0.0001415509  -0.0003650170   0.0004619911   0.0001476522  -0.0000860550
       -0.0001653918  -0.0000118183   0.0000074470   0.0000345112  -0.0000506340
        0.0000641296  -0.0001481958  -0.0000110446  -0.0000267242   0.0000492632
        0.0000341694  -0.0000298989   0.0000308771   0.0000309231  -0.0000248944
        0.0000507413  -0.0000358380  -0.0000070159   0.0000679109  -0.0000020052
        0.0000582367   0.0000048059  -0.0000455254   0.0000415376  -0.0000933705
        0.0000174902   0.0000357380   0.0000327869   0.0000026618  -0.0000166226
       -0.0000067471  -0.0000077373  -0.0000034844  -0.0000153810   0.0000188939
       -0.0000278465   0.0000479047   0.0000119228  -0.0000233008   0.0000285219
        0.0000174507   0.0000273695  -0.0000446259   0.0000656431  -0.0000804831
        0.0000199944   0.0000309925   0.0000030308   0.0000189936  -0.0000016861
       -0.0000030408  -0.0000040818   0.0000055398  -0.0000074871   0.0000118848
        0.0000047868  -0.0000015340   0.0000089956  -0.0000013422  -0.0000030325
        0.0000059374   0.0000039165  -0.0000077158   0.0000003821  -0.0000030178
        0.0000013276   0.0000029064  -0.0000000017   0.0000036829  -0.0000025403
       -0.0000006796  -0.0000014687   0.0000033336   0.0000002612  -0.0000013142
        0.0000019122   0.0000019343   0.0000042654  -0.0000025240  -0.0000021007
       -0.0000047088   0.0000107007  -0.0000005038  -0.0000010649  -0.0000036086
        0.0000003507  -0.0000001364   0.0000019082  -0.0000006238  -0.0000003274
        0.0000016617   0.0000000106  -0.0000025025   0.0000002139  -0.0000001099
        0.0000001498   0.0000006872   0.0000017928  -0.0000000703  -0.0000009124
       -0.0000017587  -0.0000015338   0.0000006516   0.0000005642   0.0000001884
        0.0000008328   0.0000023073  -0.0000021601  -0.0000011799  -0.0000021018
        0.0000001673   0.0000002875   0.0000007023  -0.0000011257   0.0000037789
        0.0000019621   0.0000046251  -0.0000065993  -0.0000020746  -0.0000012057
        0.0000023204   0.0000015692  -0.0000011415   0.0000023380  -0.0000021917
       -0.0000019721  -0.0000010841   0.0000000665   0.0000024715   0.0000035931
       -0.0000000809   0.0000004350  -0.0000020749   0.0000009150  -0.0000033295
        0.0000035193  -0.0000014774   0.0000012653   0.0000024596   0.0000013016
       -0.0000009365   0.0000000285  -0.0000014984   0.0000005435   0.0000007314
        0.0000002629  -0.0000030067   0.0000028253  -0.0000009545   0.0000016682
        0.0000034585  -0.0000023763   0.0000000921   0.0000010299  -0.0000034029
        0.0000021572   0.0000050923  -0.0000008224   0.0000000428  -0.0000003357
        0.0000037653  -0.0000007014   0.0000021092  -0.0000045771   0.0000153964
       -0.0000045154   0.0000083173   0.0000061803  -0.0000103212  -0.0000406549
       -0.0000213166  -0.0000480065  -0.0001534709   0.0006113422   0.0000640023
        0.0001927394   0.0000284167  -0.0001415761  -0.0001231857   0.0004480057
       -0.0000995798  -0.0000497420  -0.0000377410  -0.0002840974  -0.0002310925
        0.0005511911   0.0001614427  -0.0000183029  -0.0018331703   0.0003736051
        0.0000517827   0.0001018321   0.0001041018  -0.0000148039  -0.0001589063
       -0.0000452469  -0.0000705613  -0.0002787448  -0.0001382125   0.0000272632
       -0.0004454755  -0.0000809160   0.0001281360  -0.0003227667  -0.0003441721
       -0.0000215544  -0.0000325436   0.0000021300   0.0000072836  -0.0000133587
        0.0001079315  -0.0000042161   0.0000256103  -0.0000010452   0.0000118061
        0.0000010460  -0.0000287203  -0.0000582102  -0.0000626562  -0.0000129241
        0.0000556558  -0.0000687239   0.0000674221   0.0000573938  -0.0000316981
       -0.0000579632   0.0000010129  -0.0000091079  -0.0000031480  -0.0000029732
        0.0000054463   0.0000001261  -0.0000044741   0.0000230611   0.0000185233
       -0.0000119529   0.0000311606   0.0000718284  -0.0000876761   0.0000966175
       -0.0000796878  -0.0000058526  -0.0000007688  -0.0000045192   0.0000032568
       -0.0000032203  -0.0000063820   0.0000023227  -0.0000010135  -0.0000033191
        0.0000000983  -0.0000006177  -0.0000020497  -0.0000012347  -0.0000007326
       -0.0000009687   0.0000003143  -0.0000014244  -0.0000015550   0.0000010961
       -0.0000008994  -0.0000004516   0.0000008670  -0.0000008978  -0.0000008929
        0.0000003563   0.0000001274  -0.0000010990   0.0000003986  -0.0000007506
       -0.0000014785  -0.0000004327  -0.0000002679   0.0000004855   0.0000001579
       -0.0000006695  -0.0000016254  -0.0000008158   0.0000014503  -0.0000041410
        0.0000017582   0.0000001741  -0.0000034528   0.0000004493  -0.0000002260
       -0.0000025094  -0.0000002743  -0.0000017233  -0.0000056555  -0.0000022086
        0.0000030948   0.0000004480  -0.0000015064   0.0000006272  -0.0000015161
       -0.0000002636  -0.0000019428  -0.0000012850  -0.0000000633  -0.0000007580
       -0.0000018498   0.0000009701  -0.0000010268   0.0000001817   0.0000019697
       -0.0000015629  -0.0000002066   0.0000012806  -0.0000002919  -0.0000035485
       -0.0000062741   0.0000000890  -0.0000008874  -0.0000035383   0.0000006099
       -0.0000035266  -0.0000112902   0.0000002075  -0.0000125101
       -0.1583087711   0.1997395655  -0.0414561404   0.4361793944  -0.1301340855
        0.0327162511  -0.0391906161  -0.0039784527   0.0236632313  -0.0061419522
       -0.0045864684   0.0187896343  -0.0034917881  -0.0039456779   0.0012969827
       -0.0013538866  -0.0004537649  -0.0006759160   0.0004136552  -0.0022194288
       -0.0030818033   0.0049251828   0.0033709604  -0.0079171723  -0.0500273529
       -0.0216956591  -0.0197781351  -0.0053748704  -0.0032749058  -0.0088794879
        0.0051538879   0.0009553089  -0.0039095466  -0.0002564828   0.0002205839
       -0.0006637550   0.0065779201  -0.0005358347  -0.0002151470  -0.0006457342
       -0.0052849095   0.0006984580  -0.1469771867  -0.0194786919   0.0093065745
       -0.0190721395  -0.0223863933   0.0015065155   0.0026603013  -0.0022788708
        0.0002897125  -0.0017202210   0.0003824707  -0.0000366886   0.0011576071
        0.0021254807   0.0001018379  -0.0167215319   0.0171796600  -0.0003625640
        0.0027635079  -0.0104064086   0.0000158428  -0.0031608586   0.0014424069
       -0.0000130333  -0.0003411262  -0.0004108008  -0.0000145188   0.0018157118
        0.0025174702  -0.0000241896  -0.0001452947  -0.0010783424   0.0002369599
       -0.0001781560  -0.0002487850  -0.0000460747  -0.0002416114   0.0001092704
        0.0000605059  -0.0001328478   0.0000762994  -0.0000032497  -0.0000285238
        0.0000408972  -0.0000677088  -0.0001440787   0.0000358682  -0.0000287293
        0.0001972694  -0.0000406604   0.0000971811  -0.0004598036  -0.0003517417
        0.0000962357  -0.0000673600   0.0000856325  -0.0001730564   0.0000229864
        0.0000621195  -0.0000893374  -0.0000045009   0.0000084404  -0.0000060482
       -0.0000381072  -0.0001553932   0.0000152411  -0.0002716957   0.0000755941
        0.0000502413   0.0005282504  -0.0001255496   0.0000462996  -0.0005290219
       -0.0004382212  -0.0000101559  -0.0002003345  -0.0000222725  -0.0000153272
        0.0002912569   0.0002306277  -0.0000842325   0.0000930577   0.0000590788
       -0.0001363186  -0.0002123461   0.0001015351   0.0000431795   0.0001458337
       -0.0001161645  -0.0000663960  -0.0000433468  -0.0000498746   0.0000299653
        0.0000221204   0.0000340912   0.0000047727  -0.0000006075   0.0000245930
        0.0000075539  -0.0000277668  -0.0000453218  -0.0000127257   0.0000416564
        0.0000347980  -0.0000231487  -0.0000285933   0.0000023902   0.0000059980
        0.0000231590  -0.0000133861   0.0000050301   0.0000098171   0.0000086261
       -0.0000048700   0.0000033538   0.0000045664  -0.0000034966   0.0000173239
       -0.0000061026   0.0000010270   0.0000021854   0.0000127536  -0.0000059898
        0.0000208107  -0.0000002482   0.0000026231  -0.0000006403  -0.0000033035
       -0.0000019778   0.0000428313  -0.0000017437   0.0000052648   0.0000122438
        0.0000085053  -0.0000083957   0.0000130014   0.0000096344  -0.0000164514
        0.0000078531  -0.0000177064   0.0000062620   0.0000421976  -0.0000281737
       -0.0000022661   0.0000507252   0.0000014553   0.0000246943   0.0000628325
        0.0000933648   0.0000818690   0.0000430868  -0.0000437146  -0.0000336696
        0.0000064445  -0.0000213169   0.0000212319   0.0000090764  -0.0000021084
        0.0000238398  -0.0000073922  -0.0000017238  -0.0000196543   0.0000039953
       -0.0000170087  -0.0000056803  -0.0000015034  -0.0000029122  -0.0000124732
        0.0000054772   0.0000133124   0.0000243956   0.0000034630  -0.0000035342
       -0.0000194786   0.0000123988  -0.0000257012  -0.0000106383   0.0000434007
       -0.0000287437   0.0000219566   0.0000024354   0.0000633972  -0.0000589180
        0.0000398970  -0.0001328012   0.0001565548   0.0000679147  -0.0003719180
        0.0001163244  -0.0009844564  -0.0004798844  -0.0000310111   0.0000012154
        0.0015100288   0.0000374592  -0.0018357480   0.0001412961  -0.0015175831
       -0.0004872757  -0.0003183777   0.0010982645  -0.0002913169   0.0005367130
       -0.0000786595   0.0000002338   0.0000164875  -0.0008576668  -0.0017344256
        0.0002386818  -0.0009564640  -0.0019954443   0.0007557783   0.0000055655
        0.0000301830  -0.0003171705  -0.0002127701  -0.0013405991   0.0003449665
        0.0006726594   0.0000592993   0.0002673220  -0.0000362257  -0.0016415986
        0.0009601371   0.0004424206   0.0011376196   0.0009743385   0.0000217251
        0.0002526222   0.0005045040   0.0000042591   0.0004376436   0.0001652826
       -0.0000616207   0.0000709653  -0.0000498770  -0.0000205059  -0.0000560485
       -0.0000858004   0.0000169576  -0.0000707176  -0.0000455984   0.0000786617
        0.0001183652  -0.0000569298  -0.0000142179  -0.0000491776   0.0000080338
       -0.0001763691   0.0000111408  -0.0000107233   0.0000327718   0.0000197760
       -0.0000466723  -0.0000300934   0.0000090990  -0.0000476217  -0.0000528205
        0.0000859683   0.0000203154  -0.0000656196   0.0003111210   0.0000501644
        0.0002047385   0.0001633708  -0.0000302436  -0.0000411494  -0.0000823645
        0.0000076390  -0.0000294590   0.0000219148  -0.0000515715   0.0000407260
       -0.0000150415  -0.0000008423   0.0000037774  -0.0000014695   0.0000015129
       -0.0000040477  -0.0000122008   0.0000107601  -0.0000062994  -0.0000044920
       -0.0000000702  -0.0000018905  -0.0000016263  -0.0000000052  -0.0000016605
       -0.0000070946  -0.0000029715  -0.0000025886  -0.0000051339  -0.0000040393
       -0.0000011682  -0.0000098134  -0.0000099876  -0.0000000597  -0.0000175330
       -0.0000209423   0.0000070071  -0.0000211817   0.0000029312   0.0000021334
       -0.0000240643  -0.0000018694  -0.0000005054  -0.0000265371  -0.0000091834
       -0.0000267943  -0.0000167248   0.0000188662   0.0000320739  -0.0000062106
        0.0000104350   0.0000000979   0.0000010453   0.0000016943  -0.0000027091
       -0.0000011328  -0.0000002251   0.0000043103  -0.0000022297   0.0000016254
       -0.0000056983  -0.0000001571   0.0000029995   0.0000014222  -0.0000057974
        0.0000098003  -0.0000042660  -0.0000185772   0.0000057530  -0.0000258800
        0.0000402776   0.0000462636  -0.0000507120  -0.0000954486   0.0000910851
        0.0000153451   0.0001023051   0.0002192602   0.0000184582
        0.1969252391  -0.4222505159   0.0755645320  -0.1301340855   0.6299259664
       -0.0489068961  -0.0080897403  -0.0487770036   0.0357585725  -0.0057527750
       -0.0051017976   0.0071582615  -0.0030970718   0.0040984797   0.0004802402
       -0.0006878598  -0.0003227818   0.0007095180  -0.0017797151   0.0050259184
       -0.0011150009   0.0046812689   0.0016486467  -0.0006668785  -0.0279363980
       -0.0934073643  -0.0578631171  -0.0028514863   0.0067939468  -0.0118765948
        0.0009971288   0.0019212020   0.0017301390  -0.0002937015  -0.0018070283
       -0.0002589583   0.0003647462  -0.0036901215   0.0021775260  -0.0064931234
       -0.0220438556  -0.0076293061  -0.0090747329  -0.0381364888   0.0024784688
       -0.0188031162  -0.0040236987   0.0009826292  -0.0017691827  -0.0044533066
        0.0005633699   0.0004725667  -0.0014712413   0.0000399484   0.0024286507
       -0.0003846459   0.0000605960   0.0124137359   0.0067949362  -0.0016717984
       -0.0031971525  -0.0006659719   0.0000672496   0.0018742925  -0.0010202876
        0.0001199592  -0.0004310086   0.0004607454   0.0000139789   0.0010014939
       -0.0004217909   0.0001092240  -0.0003187893   0.0004169212  -0.0000985742
        0.0000168742  -0.0000076323  -0.0000907649  -0.0001263028   0.0000471409
       -0.0003527458  -0.0003646306  -0.0000322239  -0.0001339265  -0.0003764941
        0.0000841615   0.0001391170  -0.0001051671   0.0003106773   0.0001546975
        0.0001853352   0.0001223470  -0.0000858401  -0.0001510546  -0.0000040609
        0.0000972324   0.0000216103   0.0000281348   0.0000513613  -0.0000036249
       -0.0000323090  -0.0000845249  -0.0000237976  -0.0000256160  -0.0001261132
       -0.0002092085   0.0001769643   0.0000638376  -0.0002509066  -0.0002979327
       -0.0000619768   0.0003265295   0.0000307803  -0.0000097292  -0.0001039046
       -0.0003642369   0.0000045156   0.0000247832  -0.0000362065   0.0000028111
        0.0000029484  -0.0000045924  -0.0000093147  -0.0000087359  -0.0000067560
        0.0000073878   0.0000204170  -0.0000136973   0.0000121478  -0.0000225858
        0.0000103676   0.0000122157   0.0000072276   0.0000140035  -0.0000082391
       -0.0000058840  -0.0000008422   0.0000024195  -0.0000005279  -0.0000137679
       -0.0000022418   0.0000193347   0.0000231209  -0.0000020813  -0.0000211665
       -0.0000378889   0.0000008793   0.0000191765  -0.0000057270   0.0000026897
       -0.0000041080   0.0000037840  -0.0000051845   0.0000040307   0.0000002657
       -0.0000021375  -0.0000005974  -0.0000107652  -0.0000000786  -0.0000000433
       -0.0000001913  -0.0000036071   0.0000023522  -0.0000072490   0.0000004928
       -0.0000098096  -0.0000058566  -0.0000032192   0.0000045608  -0.0000053521
       -0.0000020076   0.0000040101  -0.0000003717  -0.0000042164  -0.0000042291
        0.0000042006  -0.0000089015   0.0000142632  -0.0000083040   0.0000003036
       -0.0000042351   0.0000326441  -0.0000039152  -0.0000097490   0.0000060489
        0.0000080602   0.0000013078  -0.0000094382  -0.0000048884  -0.0000087986
       -0.0000028800  -0.0000068573  -0.0000106546   0.0000038711   0.0000032639
       -0.0000088371  -0.0000057197  -0.0000030098  -0.0000077819  -0.0000043330
       -0.0000003176  -0.0000070927  -0.0000053691   0.0000028269  -0.0000006559
        0.0000030128   0.0000044964  -0.0000013924   0.0000015383   0.0000041330
       -0.0000051608  -0.0000040709  -0.0000004737  -0.0000034755  -0.0000053670
        0.0000034318  -0.0000034708   0.0000009763   0.0000086904  -0.0000099813
        0.0000077856   0.0000025405  -0.0000056358  -0.0000031630   0.0000042001
       -0.0000037838  -0.0000003983  -0.0000041002  -0.0000116352   0.0000089310
       -0.0000256197  -0.0001670815  -0.0000632608   0.0000247023   0.0003237261
       -0.0004224701   0.0000719895  -0.0000926272  -0.0015998990  -0.0004485688
        0.0001502124   0.0001771719   0.0000316050   0.0004523894  -0.0011042939
       -0.0004646525  -0.0001130529   0.0000563146  -0.0008218651   0.0004886112
       -0.0014364004  -0.0007639477   0.0003831344  -0.0011078515   0.0023768819
        0.0004227971   0.0003555153   0.0011728635   0.0001095891   0.0002852383
        0.0004597104  -0.0000930848  -0.0000152476  -0.0003479488   0.0004436662
       -0.0001052982   0.0006931276  -0.0011415647  -0.0036355882   0.0003571221
       -0.0012548734  -0.0005207570   0.0000069132   0.0000929615  -0.0000457142
       -0.0000551759   0.0000815727   0.0000020013   0.0000802343   0.0000712523
       -0.0000110979   0.0000881400   0.0000768264  -0.0000374228   0.0000237726
        0.0000652417  -0.0000770732   0.0000737059   0.0000957132  -0.0000341184
        0.0000234636  -0.0000081573   0.0000657688   0.0000004234   0.0000061279
        0.0000573443   0.0000323674   0.0000323124   0.0000310197   0.0000690217
        0.0000859793   0.0000049083  -0.0001303991   0.0003551051  -0.0000098234
       -0.0000597663   0.0000257276   0.0000171256   0.0000017584   0.0000147611