$hessian                                                                        
        0.6481583984  -0.0123214215  -0.0053704097  -0.3218431850  -0.0441947434
        0.0050383908  -0.0395211076   0.0840439490  -0.0033781244  -0.0404793159
       -0.0311443704   0.0017862203  -0.0027423841   0.0051011403  -0.0002463220
        0.0012454355  -0.0058743231   0.0003319089  -0.0019789585   0.0029101182
       -0.0001565423  -0.0006301842  -0.0010751576   0.0000437382  -0.0001222651
        0.0005629007  -0.0000279650  -0.0002349590  -0.0002400534   0.0000084473
        0.0001557118   0.0001538316  -0.0000059256  -0.0000765516  -0.0002205408
        0.0000103453   0.0004737508   0.0001494338  -0.0000031552  -0.0005109611
       -0.0011816951   0.0000765562  -0.0026228305   0.0039806028  -0.0002569671
        0.0014917248   0.0002858809  -0.0000331930  -0.0006634157   0.0003715163
       -0.0000244012   0.0004785607   0.0002834844   0.0000094786  -0.0002653572
       -0.0000956697   0.0000120296  -0.0000562943  -0.0000117861  -0.0000082082
        0.0000289478  -0.0000474779  -0.0001171051   0.0000439344   0.0000113607
        0.0000503046   0.0000140289  -0.0000067896  -0.0000094735  -0.0000198320
        0.0000057219   0.0000015655  -0.0000221333  -0.0000076893  -0.0000075665
       -0.0000377140   0.0000122735   0.0000254969  -0.0000082569  -0.0000008793
       -0.0000004695   0.0000103204   0.0000046799  -0.0000016115   0.0000020867
        0.0000122775  -0.0000033799   0.0000117845   0.0000007326  -0.0000003512
       -0.0000127281  -0.0000113431   0.0000026469  -0.0000094522   0.0000102229
       -0.0000027414   0.0000088714   0.0000002692   0.0000000982   0.0000085180
       -0.0000013593   0.0000005777  -0.0000118353  -0.0000093916   0.0000020518
       -0.0000122115   0.0000105120  -0.0000026308   0.0000109684  -0.0000007995
       -0.0000000235   0.0000091345  -0.0000073414   0.0000003592   0.0000069291
       -0.0000033802   0.0000002372  -0.0000398768  -0.0000120925  -0.0000252193
       -0.0000210521   0.0000066246   0.0000092641  -0.0000183565  -0.0000085221
       -0.0000024151   0.0000105026   0.0000037817   0.0000147979   0.0000416026
       -0.0000226752  -0.0000476763   0.0000350071   0.0000634226   0.0001235539
        0.0003701476  -0.0001394583  -0.0000142179  -0.0005115741  -0.0003906786
        0.0000134238   0.0036340191  -0.0019229321   0.0001632570   0.0556120212
       -0.0289497247   0.0007038268  -0.1517126348  -0.0590772811   0.0038212830
       -0.1104194441   0.1121348853  -0.0041583012  -0.0175193991  -0.0028439471
        0.0003328534  -0.0005398729   0.0027684795  -0.0000398594   0.0000195068
        0.0000036930  -0.0000002690  -0.0000083676   0.0000072211  -0.0000005478
        0.0000102536   0.0000034413  -0.0000006915   0.0000261771  -0.0000019221
        0.0000001115   0.0000620167   0.0000151438  -0.0000008828   0.0000028855
       -0.0000354105  -0.0000017864  -0.0000180817   0.0000083456  -0.0000094144
       -0.0000051784  -0.0000020258  -0.0000282754   0.0000001049   0.0000025712
       -0.0000004002  -0.0000046682   0.0000026966   0.0000016502  -0.0000050858
        0.0000011550   0.0000029286   0.0000032453   0.0000039417  -0.0000007297
        0.0000001771  -0.0000017647   0.0000014668   0.0000003911  -0.0000007714
        0.0000010428   0.0000000997  -0.0000002420   0.0000003588  -0.0000012487
       -0.0000006290   0.0000003311  -0.0000003981  -0.0000001763  -0.0000003771
        0.0000007937  -0.0000012649   0.0000005260  -0.0000010663  -0.0000023044
        0.0000014697  -0.0000042834   0.0000004774  -0.0000036498  -0.0000048304
       -0.0000001982  -0.0000029615   0.0000002477   0.0000018359  -0.0000046167
       -0.0000044869   0.0000140349   0.0000273305  -0.0000237672  -0.0000170533
        0.0000112748   0.0000856035  -0.0000204742   0.0000047658  -0.0007155942
        0.0033200910  -0.0000467014  -0.0186127084  -0.0263649893   0.0014095900
       -0.0123214215   0.6629603631  -0.0244647192   0.0358659258  -0.0944460595
        0.0017077353   0.0240509358   0.0248494074  -0.0013278237  -0.0306983558
       -0.0076536481   0.0003662503   0.0031768121  -0.0069984459   0.0003227567
       -0.0003764121   0.0064538066  -0.0003675768   0.0019044210  -0.0037648889
        0.0002080069   0.0007511789   0.0010459157  -0.0000378013   0.0000572804
       -0.0005629939   0.0000273379   0.0002231869   0.0002015126  -0.0000066683
       -0.0001513525  -0.0001704869   0.0000069655   0.0001115276   0.0001972365
       -0.0000089858  -0.0004813492  -0.0001681431   0.0000045063   0.0004214752
        0.0016836586  -0.0001169950   0.0025030009  -0.0056007203   0.0003571754
       -0.0016518318  -0.0001809838   0.0000345952   0.0007051449  -0.0004311941
        0.0000282381  -0.0005280245  -0.0002679260  -0.0000227241   0.0002284325
        0.0001297348  -0.0000168994   0.0000937700   0.0000160248   0.0000090257
       -0.0000476512   0.0000582739   0.0001422077  -0.0000583145  -0.0000163900
       -0.0000683375  -0.0000239696   0.0000044947   0.0000054530   0.0000331415
       -0.0000085481   0.0000061967   0.0000303163   0.0000094038   0.0000039613
        0.0000714810  -0.0000109129  -0.0000195385  -0.0000119815  -0.0000000724
        0.0000002944  -0.0000064497   0.0000030695  -0.0000019299  -0.0000038612
       -0.0000161815   0.0000043674  -0.0000136771  -0.0000007786   0.0000001399
        0.0000165841   0.0000172098  -0.0000051123   0.0000172221  -0.0000119169
        0.0000033200  -0.0000112900  -0.0000026730   0.0000007773  -0.0000132326
        0.0000012046  -0.0000004632   0.0000187794   0.0000137148  -0.0000039336
        0.0000198042  -0.0000159886   0.0000048127  -0.0000136277  -0.0000033759
        0.0000017704  -0.0000137045   0.0000149111  -0.0000032787  -0.0000011895
       -0.0000059508   0.0000039513   0.0000740644   0.0000097585   0.0000209690
        0.0000277413  -0.0000093214  -0.0000048922   0.0000319419   0.0000097797
       -0.0000058362  -0.0000189588  -0.0000030730  -0.0000100634  -0.0000551474
        0.0000242763   0.0000675820  -0.0000534512  -0.0000757963  -0.0001509904
       -0.0003406680   0.0001332299   0.0000225571   0.0005187588   0.0003916965
       -0.0000123247  -0.0054179694   0.0047941384  -0.0002952415   0.0316664447
       -0.0705984685   0.0029033219  -0.1393707917  -0.2666569157   0.0113999798
        0.1121469653  -0.2336805732   0.0076795927  -0.0268939372  -0.0025066790
        0.0004428892   0.0032533792  -0.0039836185   0.0005169846  -0.0000256876
        0.0000016672   0.0000004324   0.0000025637  -0.0000174598   0.0000012436
       -0.0000059973  -0.0000099804   0.0000015183  -0.0000263373  -0.0000091256
        0.0000006748   0.0000261439   0.0000523056  -0.0000015350  -0.0000019238
        0.0000403684   0.0000019930   0.0000174154  -0.0000162812   0.0000109255
        0.0000092452  -0.0000000601   0.0000278776   0.0000013191  -0.0000020765
        0.0000030367   0.0000022715  -0.0000014693   0.0000016306   0.0000046709
       -0.0000006758  -0.0000030067  -0.0000038229  -0.0000040384   0.0000005248
       -0.0000001893  -0.0000001795  -0.0000009661  -0.0000033621  -0.0000012475
       -0.0000009071  -0.0000020072  -0.0000000726  -0.0000001433  -0.0000002102
        0.0000014661  -0.0000005031  -0.0000019143   0.0000027893   0.0000001826
        0.0000001920   0.0000037546  -0.0000013118   0.0000007326   0.0000011166
       -0.0000009394   0.0000038260  -0.0000006426   0.0000038171   0.0000019291
       -0.0000010253  -0.0000000716   0.0000010155  -0.0000029009   0.0000023512
        0.0000089665  -0.0000142123  -0.0000271439   0.0000265391   0.0000288271
       -0.0000127725  -0.0000214884   0.0000627698  -0.0000069928   0.0028411157
       -0.0038077074   0.0005163630  -0.0022961018  -0.0014760064   0.0001321367
       -0.0053704097  -0.0244647192   0.1166067183   0.0014329543   0.0025647320
       -0.0478836329  -0.0006427413  -0.0019615926   0.0013351476   0.0017543607
        0.0003740269  -0.0066273685  -0.0001081857   0.0002623097  -0.0002399242
       -0.0000176149  -0.0002309277   0.0000366317  -0.0000602146   0.0001461153
        0.0000010579  -0.0000276346  -0.0000361180  -0.0000027594  -0.0000004048
        0.0000185442   0.0000006828  -0.0000079370  -0.0000067979   0.0000006886
        0.0000052018   0.0000061938   0.0000008551  -0.0000042331  -0.0000070168
        0.0000005210   0.0000155105   0.0000060386  -0.0000019451  -0.0000057316
       -0.0000736331   0.0000072391  -0.0000866290   0.0002205377   0.0000092050
        0.0000610193   0.0000020353   0.0000012046  -0.0000254308   0.0000183886
        0.0000000025   0.0000215912   0.0000106487  -0.0000008233  -0.0000050428
       -0.0000053708   0.0000022364  -0.0000044091  -0.0000008911   0.0000025883
        0.0000005722  -0.0000026711  -0.0000049698   0.0000035101  -0.0000000872
        0.0000016809  -0.0000030523   0.0000001424   0.0000014242  -0.0000003690
       -0.0000000989  -0.0000004800   0.0000005602  -0.0000003298   0.0000000702
       -0.0000026959   0.0000007410   0.0000018539  -0.0000002026   0.0000000735
       -0.0000002322   0.0000008168   0.0000004829   0.0000000059  -0.0000001822
        0.0000006929   0.0000000103   0.0000002789   0.0000002094  -0.0000000083
       -0.0000005782  -0.0000004429   0.0000002022  -0.0000005462   0.0000003301
        0.0000000120   0.0000001980   0.0000004505  -0.0000002197   0.0000005715
        0.0000004777  -0.0000002219  -0.0000001007  -0.0000009295   0.0000004473
       -0.0000015796  -0.0000001287   0.0000003134   0.0000004478   0.0000013267
       -0.0000002833   0.0000014427  -0.0000012147   0.0000006295  -0.0000001659
       -0.0000003984   0.0000003748  -0.0000003685  -0.0000007062  -0.0000016302
       -0.0000011372   0.0000006747   0.0000010909  -0.0000030960  -0.0000003028
       -0.0000001081   0.0000020781  -0.0000007625  -0.0000029984   0.0000023210
        0.0000007288   0.0000012970  -0.0000025007   0.0000013574  -0.0000011407
        0.0000103102  -0.0000045266   0.0000003651  -0.0000174220  -0.0000141791
       -0.0000001462   0.0002070647  -0.0002002902  -0.0000198272  -0.0020280911
        0.0035678236   0.0011097138   0.0074352729   0.0105073956  -0.0482174708
       -0.0041640919   0.0076892866  -0.0341861618   0.0014075909   0.0001828100
        0.0008193359  -0.0000591257   0.0005248242   0.0082578309   0.0000005047
        0.0000000284  -0.0000004162  -0.0000000111   0.0000007810  -0.0000004423
        0.0000002259   0.0000004433  -0.0000000162   0.0000009971   0.0000004096
       -0.0000009044  -0.0000012748  -0.0000028254   0.0000055338   0.0000007556
       -0.0000015631  -0.0000000303  -0.0000003139   0.0000002051  -0.0000006800
       -0.0000005467   0.0000001017  -0.0000018064   0.0000002969   0.0000004043
        0.0000003940  -0.0000000998   0.0000002681   0.0000003935  -0.0000002685
        0.0000000438   0.0000001342   0.0000003687   0.0000001000  -0.0000003290
        0.0000000156  -0.0000003582  -0.0000000727   0.0000001098  -0.0000001404
       -0.0000000173   0.0000000737  -0.0000001260  -0.0000000031  -0.0000001613
        0.0000000420  -0.0000000438   0.0000000659   0.0000000760  -0.0000000450
       -0.0000000730  -0.0000002682   0.0000000658  -0.0000001826   0.0000000338
       -0.0000000595  -0.0000003353   0.0000000312  -0.0000002218   0.0000003872
        0.0000001701   0.0000002688  -0.0000005184   0.0000004113   0.0000010147
       -0.0000010635   0.0000001497   0.0000001313  -0.0000010130  -0.0000014873
       -0.0000008099  -0.0000006894  -0.0000032373   0.0000052697  -0.0000297683
        0.0005105120   0.0081580289   0.0003207693   0.0004005313   0.0008255782
       -0.3218431850   0.0358659258   0.0014329543   0.6468153681   0.0078295339
       -0.0061173409  -0.1577102420   0.0680632782  -0.0019140888   0.0476881943
        0.0354995779  -0.0021188491   0.0060107196  -0.0156830740   0.0007942603
       -0.0020590570   0.0097723528  -0.0005214921   0.0037959948  -0.0060302299
        0.0003094712   0.0009361831   0.0017187783  -0.0000708341   0.0001514523
       -0.0008934674   0.0000435161   0.0003810732   0.0003635390  -0.0000123412
       -0.0002363416  -0.0002272791   0.0000089816   0.0001152252   0.0003472028
       -0.0000166259  -0.0007431799  -0.0002158409   0.0000041628  -0.0002608576
        0.0028296824  -0.0001720265   0.0052507925  -0.0080037572   0.0005112169
       -0.0029403504  -0.0002191717   0.0000439780   0.0012514696  -0.0006940196
        0.0000380662  -0.0009186815  -0.0004873987  -0.0000382097   0.0004853133
        0.0001949428  -0.0000253066   0.0001788259   0.0000306102   0.0000041468
       -0.0001722294   0.0001451061   0.0003719451  -0.0000874153  -0.0000524699
       -0.0001626731  -0.0001019165   0.0000218694   0.0000525626   0.0000604402
       -0.0000016936   0.0000248588   0.0000354106   0.0000146686   0.0000250851
        0.0002119813  -0.0000068053  -0.0000003975  -0.0001046225   0.0000008268
        0.0000000248   0.0000108065   0.0000160859  -0.0000081144  -0.0000129433
       -0.0000194257   0.0000067605  -0.0000110219  -0.0000037527   0.0000014869
        0.0000105848   0.0000139395  -0.0000049982   0.0000108355  -0.0000067248
        0.0000025001  -0.0000118391  -0.0000124681   0.0000047667  -0.0000147731
        0.0000106034  -0.0000041309   0.0000113995   0.0000097072  -0.0000036189
        0.0000155833  -0.0000126688   0.0000046653  -0.0000113733  -0.0000003845
        0.0000004139  -0.0000231695   0.0000205516  -0.0000065175   0.0000156721
       -0.0000189630   0.0000103886   0.0002141876   0.0000054732   0.0000021552
        0.0000330314  -0.0000137997  -0.0000242088   0.0000591309   0.0000028100
       -0.0000251319  -0.0000991106  -0.0000188715  -0.0000570000  -0.0000804907
        0.0000666524   0.0001623622  -0.0001764361  -0.0001647583  -0.0003775472
       -0.0006789147   0.0003685093   0.0000327765   0.0009976668   0.0005720308
       -0.0000072619  -0.0077647663   0.0064115287  -0.0004280827  -0.0425325980
        0.0294624122  -0.0009210923  -0.0344753008  -0.0830545220   0.0041394629
       -0.0178201822   0.0023235077   0.0000999079  -0.1054475204  -0.1090285999
        0.0056527430  -0.0180787719   0.0251404243  -0.0009246351  -0.0000013904
       -0.0000364190   0.0000022369   0.0000219379  -0.0000126394   0.0000009375
       -0.0000111647  -0.0000137416   0.0000013328  -0.0000320334   0.0000099699
       -0.0000001079  -0.0000608744  -0.0000360159   0.0000022337  -0.0000087835
        0.0000282238   0.0000094590   0.0000211852  -0.0000179731   0.0000232116
        0.0000064316   0.0000006281   0.0000388948   0.0000010459  -0.0000014541
        0.0000010452   0.0000037398  -0.0000006751  -0.0000019986   0.0000094612
       -0.0000004760  -0.0000058878  -0.0000005290   0.0000020538  -0.0000015501
       -0.0000006744  -0.0000002206  -0.0000004936  -0.0000046267  -0.0000021168
       -0.0000009131  -0.0000022113  -0.0000016316   0.0000006346  -0.0000007389
        0.0000027651  -0.0000010729  -0.0000037551   0.0000038183   0.0000002590
       -0.0000004127   0.0000040843  -0.0000014913   0.0000017771  -0.0000040308
        0.0000010612   0.0000086801  -0.0000001029   0.0000065059   0.0000031358
       -0.0000006656   0.0000032746   0.0000014811  -0.0000017223   0.0000046719
        0.0000081702  -0.0000202085  -0.0000363285   0.0000485004   0.0000427345
       -0.0000248727   0.0001346227  -0.0000025006  -0.0000229889  -0.0000207030
        0.0006421479  -0.0000356866  -0.0004523234  -0.0028358167   0.0002145380
       -0.0441947434  -0.0944460595   0.0025647320   0.0078295339   0.6717548985
       -0.0251958885   0.1468979139  -0.2769838999   0.0088815685  -0.0199541415
       -0.0697114756   0.0034677346  -0.0063366802   0.0053991497   0.0001109485
        0.0009284294  -0.0105134753   0.0005475320  -0.0023923359   0.0047396778
       -0.0002765429  -0.0010162279  -0.0016748626   0.0000718980  -0.0001263497
        0.0008202177  -0.0000396656  -0.0003634259  -0.0003728499   0.0000127513
        0.0002399872   0.0002044401  -0.0000073880  -0.0001335347  -0.0003553231
        0.0000163183   0.0006627301   0.0002543506  -0.0000064847  -0.0011892407
       -0.0025372928   0.0001809372  -0.0034177041   0.0073236957  -0.0004678500
        0.0020157507   0.0003827033  -0.0000552201  -0.0009168864   0.0005069907
       -0.0000280250   0.0006635193   0.0003394498   0.0000110790  -0.0003178480
       -0.0001588363   0.0000193171  -0.0000823889  -0.0000231267  -0.0000136285
        0.0000217255  -0.0000624141  -0.0001662182   0.0000261803   0.0000091582
        0.0000384928  -0.0000113553  -0.0000083867  -0.0000261371   0.0000025626
        0.0000019099   0.0000081046  -0.0000049453  -0.0000161253  -0.0000308716
       -0.0000005300   0.0000337836   0.0000660722  -0.0000695403   0.0000002991
       -0.0000015637   0.0000444889   0.0000363963  -0.0000161673  -0.0000190861
        0.0000011238  -0.0000052860   0.0000095881   0.0000142193  -0.0000065070
       -0.0000045783  -0.0000022919   0.0000037265   0.0000013011   0.0000055930
       -0.0000063530   0.0000019556   0.0000003938  -0.0000001114   0.0000058436
       -0.0000000488   0.0000000321  -0.0000024671  -0.0000075564   0.0000063084
       -0.0000082818   0.0000019248  -0.0000045852   0.0000128219  -0.0000108301
        0.0000036962  -0.0000015904   0.0000038168   0.0000009341   0.0000345158
       -0.0000325826   0.0000121704  -0.0000060779  -0.0000364471  -0.0000650665
       -0.0000026043   0.0000125449   0.0000336779   0.0000044226  -0.0000073352
       -0.0000078636  -0.0000183348   0.0000031836   0.0000342233   0.0000219417
       -0.0000249911  -0.0000364084   0.0000313262   0.0000876772   0.0001789348
        0.0004577460  -0.0001460164  -0.0000127074  -0.0006438172  -0.0004830638
        0.0000108162   0.0056788147  -0.0037945903   0.0002596276   0.0255680330
       -0.0124834991   0.0000489379  -0.0263242878   0.0257530279  -0.0008212595
        0.0263105249  -0.0017741591  -0.0001648950  -0.1089552467  -0.2371887271
        0.0102597495   0.0019611664  -0.0010259545   0.0000596678   0.0000090968
        0.0000090466  -0.0000004998  -0.0000236317   0.0000260116  -0.0000006826
        0.0000266190   0.0000211546  -0.0000007298   0.0000488382  -0.0000120079
        0.0000005037   0.0001302687   0.0000283401  -0.0000004701   0.0000026934
       -0.0000320157  -0.0000035275  -0.0000261404   0.0000137307  -0.0000116880
       -0.0000109734   0.0000052192  -0.0000324266  -0.0000038251   0.0000046380
        0.0000047580  -0.0000052480  -0.0000005229   0.0000039828  -0.0000155564
        0.0000027636   0.0000120167   0.0000055782   0.0000066934  -0.0000011918
       -0.0000101778  -0.0000134459   0.0000065258  -0.0000003536   0.0000014039
        0.0000032667  -0.0000080633  -0.0000005532   0.0000005781  -0.0000105554
       -0.0000006228   0.0000004361   0.0000013603  -0.0000038929  -0.0000017413
       -0.0000077346   0.0000045109  -0.0000016000  -0.0000034291  -0.0000047139
        0.0000024411  -0.0000149279  -0.0000003229  -0.0000136457  -0.0000066334
        0.0000035244  -0.0000079929  -0.0000020242   0.0000002820  -0.0000130932
       -0.0000091845   0.0000097759   0.0000296681  -0.0000456999  -0.0000354417
        0.0000142965   0.0000741466  -0.0000542788   0.0000089253   0.0005032581
        0.0004199665  -0.0000307096  -0.0035162734  -0.0042076474   0.0005853056
        0.0050383908   0.0017077353  -0.0478836329  -0.0061173409  -0.0251958885
        0.1164742507  -0.0054759257   0.0096661045  -0.0465634280   0.0004376818
        0.0028775172   0.0013698799   0.0002507196   0.0002679081   0.0072670106
        0.0000201338   0.0003571343  -0.0004091499   0.0000615126  -0.0001678976
       -0.0002976819   0.0000347536   0.0000641236   0.0001518053   0.0000044400
       -0.0000275732   0.0000037783   0.0000117773   0.0000120988  -0.0000237060
       -0.0000081908  -0.0000066313   0.0000006893   0.0000057274   0.0000118885
       -0.0000125812  -0.0000223477  -0.0000088234   0.0000029709   0.0000495128
        0.0000953902   0.0000947423   0.0001126825  -0.0002795837  -0.0003922020
       -0.0000733420  -0.0000131282  -0.0000520986   0.0000343358  -0.0000180044
        0.0000268339  -0.0000278033  -0.0000128081   0.0000077924   0.0000118223
        0.0000065003  -0.0000004803  -0.0000054596   0.0000034894   0.0000045240
        0.0000100011  -0.0000046903  -0.0000102112  -0.0000006051   0.0000005284
        0.0000046580   0.0000010924  -0.0000013748  -0.0000010954  -0.0000011012
       -0.0000009146  -0.0000014979   0.0000020062   0.0000002831   0.0000003797
       -0.0000089157  -0.0000018118  -0.0000030686   0.0000074466  -0.0000001594
        0.0000001926  -0.0000019505  -0.0000009517   0.0000010473   0.0000005163
        0.0000011578   0.0000004338  -0.0000003722   0.0000000322   0.0000002802
        0.0000000320   0.0000003386  -0.0000001691   0.0000004423  -0.0000003049
        0.0000004965   0.0000000730   0.0000005862  -0.0000003419   0.0000001812
       -0.0000001919   0.0000000038   0.0000007584   0.0000001073  -0.0000001014
       -0.0000003464  -0.0000007008   0.0000007590  -0.0000005101   0.0000010174
       -0.0000000908   0.0000015826  -0.0000010808   0.0000006369  -0.0000024703
        0.0000013819   0.0000001781  -0.0000061071   0.0000017355   0.0000029673
       -0.0000004936   0.0000000913   0.0000007484  -0.0000037767   0.0000012673
        0.0000025388   0.0000077605  -0.0000001884  -0.0000036242   0.0000023171
        0.0000011765   0.0000001107   0.0000014020  -0.0000003033  -0.0000039289
       -0.0000155511   0.0000062524   0.0000112761   0.0000221499   0.0000184249
       -0.0000084682  -0.0001844488   0.0001050684  -0.0002614916  -0.0007704666
        0.0000076599  -0.0053951635   0.0015797229  -0.0002227574   0.0011527965
       -0.0009684722   0.0001020657   0.0010521740   0.0056553443   0.0102676292
       -0.0350669969   0.0001125242  -0.0001604500   0.0011717311  -0.0000002905
       -0.0000001453   0.0000043226   0.0000010832  -0.0000011461   0.0000010474
       -0.0000012223  -0.0000008617   0.0000047384  -0.0000019185   0.0000005523
       -0.0000005209  -0.0000055825  -0.0000007540   0.0000042416  -0.0000024852
        0.0000009688   0.0000001848   0.0000008671  -0.0000004755  -0.0000030985
        0.0000011954   0.0000005630  -0.0000004922   0.0000006950   0.0000008608
        0.0000013205  -0.0000000087   0.0000006207   0.0000007652   0.0000004112
        0.0000000332  -0.0000003591   0.0000001071  -0.0000006695  -0.0000006847
        0.0000004189  -0.0000001628  -0.0000004854  -0.0000001480  -0.0000005058
       -0.0000002164   0.0000003412  -0.0000001606  -0.0000000845   0.0000002167
        0.0000000065  -0.0000000935  -0.0000002525   0.0000004478   0.0000000099
        0.0000004555  -0.0000002959   0.0000000290  -0.0000000919   0.0000004640
       -0.0000004107  -0.0000003367   0.0000001185   0.0000007634   0.0000004714
       -0.0000001410   0.0000004977   0.0000001022   0.0000002802   0.0000033028
        0.0000005549  -0.0000018127  -0.0000030305   0.0000011962   0.0000009896
       -0.0000015184  -0.0000046544   0.0000032154  -0.0000124387  -0.0000258408
       -0.0000363909  -0.0002174711   0.0002518705   0.0005739255   0.0078032052
       -0.0395211076   0.0240509358  -0.0006427413  -0.1577102420   0.1468979139
       -0.0054759257   0.6719877870  -0.0246538579  -0.0045824253  -0.1487778681
       -0.1242824441   0.0066886448   0.0116414769   0.0042578218  -0.0002877216
       -0.0017750492   0.0084272350  -0.0004522477   0.0023432523  -0.0012685627
        0.0000818451   0.0004789251   0.0006278242  -0.0000227149   0.0001910298
       -0.0002777000   0.0000140026   0.0001455891   0.0001255321  -0.0000046440
       -0.0001207260  -0.0000551256   0.0000008644   0.0000269723   0.0000478867
       -0.0000030124  -0.0002638916   0.0000752090  -0.0000059903   0.0008047408
       -0.0007809702   0.0000445272   0.0010389311  -0.0019731024   0.0001034931
       -0.0001445491  -0.0003216905   0.0000279235   0.0000080286  -0.0001357817
        0.0000217858   0.0000247533  -0.0000341426  -0.0000248258  -0.0000487621
       -0.0000247905   0.0000046665   0.0000580131  -0.0000557223   0.0000028876
       -0.0000086916   0.0000157174   0.0000238422  -0.0000831621  -0.0000220202
       -0.0000470890  -0.0000572068  -0.0000024653  -0.0000208002   0.0000497907
       -0.0000091718  -0.0000093897   0.0000517931  -0.0000094563  -0.0000133415
        0.0000797325   0.0000194149   0.0000386615  -0.0000661259  -0.0000007562
       -0.0000020170   0.0000178865   0.0000462470  -0.0000235727  -0.0000271354
       -0.0000034549  -0.0000071609   0.0000004896   0.0000109656  -0.0000047441
        0.0000120852   0.0000139327   0.0000006554   0.0000224653  -0.0000059931
       -0.0000039426   0.0000496983  -0.0000125399   0.0000072115  -0.0000032871
        0.0000011360  -0.0000004787   0.0000206090   0.0000055874   0.0000036578
        0.0000122870  -0.0000156721  -0.0000004179  -0.0000007623  -0.0000146957
        0.0000055776  -0.0000173448   0.0000101201   0.0000022071   0.0000334475
       -0.0000364570   0.0000144725   0.0000779006  -0.0000208615  -0.0000389035
        0.0000534960   0.0000056860   0.0000143226   0.0000500783   0.0000059894
        0.0000067194  -0.0000605897  -0.0000025168   0.0000244228  -0.0000911194
       -0.0000008528   0.0000535680  -0.0000033484   0.0000093553  -0.0000175185
       -0.0000319098  -0.0000470206   0.0000276550  -0.0001158593   0.0003042613
       -0.0000395208  -0.0055865124   0.0037557492  -0.0001643990  -0.0302088326
       -0.0269259613   0.0015648767   0.0036824102   0.0033822368  -0.0002463948
       -0.0061428378   0.0003009071   0.0001395297   0.0066961841  -0.0117527591
        0.0004589369  -0.3033202395   0.0005060134   0.0026229402  -0.0000614938
        0.0000377119  -0.0000018424  -0.0000133858   0.0000156421  -0.0000003835
        0.0000044974   0.0000215210   0.0000000544   0.0000048264   0.0000174931
       -0.0000010764  -0.0001425047   0.0000097764  -0.0000000417   0.0000219407
        0.0000484284  -0.0000004006   0.0000056158  -0.0000165754   0.0000075367
        0.0000154437   0.0000161368   0.0000170252   0.0000005284   0.0000071036
        0.0000162312   0.0000050489  -0.0000029492   0.0000041248  -0.0000057470
        0.0000016123   0.0000098717   0.0000049255   0.0000016310   0.0000003580
       -0.0000114181  -0.0000132410   0.0000055444   0.0000018552   0.0000017145
        0.0000024601  -0.0000077352  -0.0000008863   0.0000004816  -0.0000089844
        0.0000000468  -0.0000000188   0.0000014818  -0.0000025508  -0.0000020906
       -0.0000091720   0.0000096405  -0.0000038757   0.0000011267  -0.0000011650
        0.0000004057  -0.0000045229  -0.0000007913  -0.0000109659   0.0000054376
        0.0000042886  -0.0000053879  -0.0000007047  -0.0000054093  -0.0000232077
        0.0000150941   0.0000037185  -0.0000193335  -0.0000551606  -0.0000153074
       -0.0000065306  -0.0002285138   0.0001003108   0.0000163814  -0.0059746080
       -0.0004679232   0.0001523179   0.0009634359   0.0000728894  -0.0000155954
        0.0840439490   0.0248494074  -0.0019615926   0.0680632782  -0.2769838999
        0.0096661045  -0.0246538579   0.6452404551  -0.0238698589  -0.0763931748
       -0.2343379494   0.0092074161   0.0067521193  -0.0632508252   0.0030473318
        0.0002542394   0.0233176345  -0.0011889741   0.0074864132  -0.0150632953
        0.0007764422   0.0026880035   0.0038756786  -0.0001499331   0.0002862536
       -0.0022101265   0.0001054658   0.0008852257   0.0008291713  -0.0000297813
       -0.0005617178  -0.0005601891   0.0000205197   0.0003116518   0.0008411176
       -0.0000408791  -0.0017565093  -0.0004944059   0.0000089894   0.0013571338
        0.0066235309  -0.0004063354   0.0094558696  -0.0194549367   0.0012025395
       -0.0060614496  -0.0007102582   0.0001247415   0.0025931616  -0.0015143729
        0.0001242033  -0.0018891178  -0.0010530312  -0.0000393724   0.0010405193
        0.0004426545  -0.0000570315   0.0003370175   0.0000498779   0.0000256591
       -0.0002695220   0.0002384916   0.0006403581  -0.0001623074  -0.0000799211
       -0.0002782786  -0.0001706366   0.0000458782   0.0000670848   0.0001025115
       -0.0000081587   0.0000076959   0.0000758381   0.0000146895   0.0000603433
        0.0003358483  -0.0000061756  -0.0000226381  -0.0001177356   0.0000030300
        0.0000008173   0.0000146431   0.0000114959  -0.0000074437  -0.0000156328
       -0.0000302871  -0.0000043156  -0.0000181565  -0.0000065086   0.0000039492
        0.0000226924   0.0000254258   0.0000075202   0.0000218966  -0.0000126271
       -0.0000108316  -0.0000114896  -0.0000163167   0.0000062458  -0.0000184823
        0.0000150022  -0.0000063813   0.0000266302   0.0000137348   0.0000107885
        0.0000275262  -0.0000254503  -0.0000068465  -0.0000205625  -0.0000003653
       -0.0000001579  -0.0000420956   0.0000238606   0.0000094638   0.0000266053
       -0.0000202637   0.0000142220   0.0003439892   0.0000047762   0.0000258797
        0.0000699434  -0.0000123649  -0.0000642280   0.0000992509   0.0000140696
       -0.0000064422  -0.0001597425  -0.0000377524  -0.0000809485  -0.0001491448
        0.0001133504   0.0002747079  -0.0002861905  -0.0002877367  -0.0006629163
       -0.0013074912   0.0005819853   0.0000407673   0.0018910723   0.0014579992
       -0.0000710574  -0.0201234643   0.0119629898  -0.0007994229  -0.0675471869
        0.0221494210  -0.0002214090  -0.0000019016  -0.0583269868   0.0024003117
       -0.0000674319   0.0011241379   0.0002985937   0.0119279977  -0.0273306123
        0.0011368444   0.0006640467  -0.0423757179   0.0003896169  -0.0000562732
       -0.0000473492   0.0000022585   0.0000087686  -0.0000231318   0.0000017905