 Entering Gaussian System
 *********************************************
 Gaussian 98:
 frequency output generated by the xtb code
 *********************************************
                         Standard orientation:
 --------------------------------------------------------------------
  Center     Atomic     Atomic              Coordinates (Angstroms)
  Number     Number      Type              X           Y           Z
 --------------------------------------------------------------------
    1          7             0        8.966917    0.903145   -0.781467
    2          6             0        7.880577    0.621392   -0.551812
    3          6             0        6.547186    0.250290   -0.247363
    4          7             0        5.554356    0.914152   -0.851068
    5          6             0        4.338246    0.533152   -0.533554
    6          6             0        4.088518   -0.529959    0.404536
    7          7             0        5.064278   -1.183634    0.994937
    8          6             0        6.302430   -0.794994    0.671009
    9          6             0        7.393215   -1.465262    1.279473
   10          7             0        8.291120   -1.991467    1.758016
   11          6             0        2.656619   -0.697862    0.530533
   12          6             0        1.823556   -1.535296    1.235002
   13          6             0        0.440311   -1.373268    1.082850
   14          6             0       -0.135294   -0.414625    0.264260
   15          6             0       -1.596701   -0.282474    0.206342
   16          6             0       -2.395437   -1.400397   -0.009254
   17          6             0       -3.779851   -1.282470   -0.069675
   18          6             0       -4.619627   -2.465894   -0.312539
   19          6             0       -4.343757   -3.672724    0.325268
   20          6             0       -5.136848   -4.782886    0.102522
   21          6             0       -6.212996   -4.706650   -0.765694
   22          6             0       -6.493680   -3.512281   -1.407912
   23          6             0       -5.705960   -2.399003   -1.181249
   24          6             0       -4.359306   -0.029920    0.104338
   25          6             0       -3.578427    1.096843    0.340207
   26          6             0       -4.203623    2.413866    0.537399
   27          6             0       -5.358986    2.543196    1.304227
   28          6             0       -5.944726    3.781619    1.489442
   29          6             0       -5.389880    4.908918    0.907117
   30          6             0       -4.242466    4.791243    0.140903
   31          6             0       -3.651679    3.554670   -0.040357
   32          6             0       -2.195019    0.961076    0.385379
   33          6             0        0.706447    0.443046   -0.501669
   34          6             0        0.328313    1.422860   -1.447429
   35          6             0        1.280702    2.168064   -2.104818
   36          6             0        2.659558    2.000817   -1.893095
   37          6             0        3.061894    1.035465   -1.002394
   38          6             0        2.081486    0.268932   -0.327627
   39          1             0        2.216177   -2.292908    1.895374
   40          1             0       -0.215966   -2.013952    1.654518
   41          1             0       -1.931129   -2.361582   -0.174428
   42          1             0       -3.515345   -3.733263    1.016283
   43          1             0       -4.915887   -5.710997    0.609188
   44          1             0       -6.830641   -5.574842   -0.941075
   45          1             0       -7.329508   -3.448498   -2.089262
   46          1             0       -5.919883   -1.473960   -1.696982
   47          1             0       -5.433823    0.068249    0.059876
   48          1             0       -5.786626    1.669833    1.774951
   49          1             0       -6.837063    3.868298    2.091982
   50          1             0       -5.849524    5.875464    1.050213
   51          1             0       -3.806997    5.666714   -0.318340
   52          1             0       -2.764806    3.468921   -0.651831
   53          1             0       -1.579969    1.819927    0.611393
   54          1             0       -0.717785    1.574674   -1.668111
   55          1             0        0.960011    2.909934   -2.821679
   56          1             0        3.375056    2.605882   -2.427771
 --------------------------------------------------------------------
     1 basis functions        1 primitive gaussians
     1 alpha electrons        1 beta electrons
 
 Harmonic frequencies (cm**-1), IR intensities (km*mol⁻¹),
 Raman scattering activities (A**4/amu), Raman depolarization ratios,
 reduced masses (AMU), force constants (mDyne/A) and normal coordinates:
                      1                      2                      3
                        a                      a                      a 
 Frequencies --    15.7461                19.4057                26.2772
 Red. masses --    11.8465                11.9834                11.3350
 Frc consts  --     0.0000                 0.0000                 0.0000
 IR Inten    --     1.0380                 0.1788                 0.8015
 Raman Activ --     0.0000                 0.0000                 0.0000
 Depolar     --     0.0000                 0.0000                 0.0000
 Atom AN      X      Y      Z        X      Y      Z        X      Y      Z
   1   7    -0.02   0.28   0.25     0.02   0.13   0.22     0.08  -0.18   0.12
   2   6    -0.01   0.19   0.16     0.01   0.08   0.14     0.05  -0.12   0.08
   3   6    -0.01   0.11   0.08     0.01   0.03   0.07     0.03  -0.07   0.04
   4   7    -0.01   0.08   0.04     0.02   0.12   0.15     0.07  -0.06  -0.00
   5   6    -0.01   0.00  -0.03     0.01   0.07   0.07     0.05  -0.02  -0.04
   6   6    -0.00  -0.02  -0.05    -0.00  -0.03  -0.05    -0.01   0.00  -0.03
   7   7     0.00   0.02  -0.02    -0.01  -0.13  -0.14    -0.05  -0.01   0.03
   8   6    -0.00   0.08   0.05    -0.00  -0.09  -0.08    -0.03  -0.04   0.06
   9   6     0.00   0.13   0.10    -0.01  -0.19  -0.18    -0.07  -0.05   0.13
  10   7     0.01   0.19   0.15    -0.02  -0.30  -0.28    -0.12  -0.06   0.21
  11   6     0.00  -0.07  -0.10    -0.00  -0.04  -0.07    -0.02   0.04  -0.07
  12   6     0.01  -0.11  -0.14    -0.01  -0.10  -0.15    -0.05   0.06  -0.09
  13   6     0.01  -0.13  -0.15    -0.01  -0.08  -0.15    -0.04   0.09  -0.13
  14   6    -0.00  -0.12  -0.14    -0.00  -0.00  -0.07    -0.00   0.10  -0.16
  15   6     0.00  -0.10  -0.11     0.00  -0.00  -0.05    -0.00   0.10  -0.17
  16   6    -0.04  -0.07  -0.08    -0.00  -0.00  -0.04     0.02   0.08  -0.14
  17   6    -0.04  -0.03  -0.03    -0.00  -0.01  -0.00     0.01   0.04  -0.07
  18   6    -0.09  -0.01   0.01    -0.00  -0.02   0.05     0.04   0.01  -0.00
  19   6    -0.10  -0.01  -0.00     0.03  -0.00   0.09     0.14   0.02  -0.02
  20   6    -0.15   0.01   0.04     0.02  -0.01   0.16     0.16  -0.01   0.06
  21   6    -0.19   0.05   0.09    -0.01  -0.05   0.19     0.08  -0.06   0.15
  22   6    -0.18   0.06   0.11    -0.04  -0.07   0.16    -0.02  -0.07   0.17
  23   6    -0.13   0.03   0.06    -0.03  -0.06   0.09    -0.04  -0.04   0.09
  24   6     0.00  -0.02   0.00    -0.00  -0.01  -0.02    -0.01   0.02  -0.03
  25   6     0.05  -0.04  -0.02    -0.00  -0.01  -0.04    -0.03   0.04  -0.07
  26   6     0.10  -0.02   0.01    -0.01  -0.00  -0.07    -0.07   0.01   0.01
  27   6     0.14   0.01   0.07    -0.01   0.02  -0.08     0.00  -0.06   0.13
  28   6     0.19   0.03   0.11    -0.01   0.02  -0.11    -0.03  -0.10   0.23
  29   6     0.21   0.02   0.10    -0.02   0.00  -0.15    -0.14  -0.05   0.20
  30   6     0.17  -0.02   0.04    -0.02  -0.01  -0.14    -0.22   0.02   0.08
  31   6     0.11  -0.04   0.00    -0.01  -0.02  -0.11    -0.18   0.05  -0.01
  32   6     0.04  -0.08  -0.08    -0.00  -0.00  -0.05    -0.02   0.08  -0.15
  33   6    -0.00  -0.11  -0.12     0.01   0.06   0.02     0.04   0.08  -0.14
  34   6    -0.01  -0.10  -0.12     0.02   0.14   0.09     0.09   0.08  -0.15
  35   6    -0.01  -0.07  -0.09     0.03   0.21   0.18     0.13   0.05  -0.13
  36   6    -0.02  -0.03  -0.06     0.03   0.20   0.20     0.12   0.01  -0.10
  37   6    -0.01  -0.04  -0.06     0.02   0.11   0.11     0.07   0.01  -0.08
  38   6    -0.00  -0.08  -0.10     0.01   0.05   0.02     0.03   0.04  -0.10
  39   1     0.00  -0.03  -0.04    -0.00  -0.05  -0.06    -0.03   0.02  -0.02
  40   1     0.00  -0.04  -0.05    -0.00  -0.04  -0.06    -0.02   0.03  -0.04
  41   1    -0.02  -0.03  -0.03    -0.00  -0.00  -0.01     0.01   0.03  -0.05
  42   1    -0.02  -0.01  -0.01     0.01   0.01   0.02     0.06   0.02  -0.03
  43   1    -0.05   0.00   0.01     0.01   0.00   0.05     0.07  -0.00   0.01
  44   1    -0.07   0.02   0.04    -0.00  -0.02   0.07     0.03  -0.02   0.06
  45   1    -0.06   0.03   0.04    -0.02  -0.03   0.05    -0.03  -0.03   0.07
  46   1    -0.03   0.01   0.02    -0.02  -0.02   0.02    -0.04  -0.02   0.03
  47   1     0.00   0.00   0.01    -0.00  -0.00  -0.00    -0.01  -0.00   0.01
  48   1     0.04   0.01   0.02    -0.00   0.01  -0.01     0.03  -0.03   0.04
  49   1     0.07   0.02   0.04    -0.00   0.01  -0.03     0.01  -0.04   0.09
  50   1     0.07   0.01   0.04    -0.01   0.00  -0.05    -0.05  -0.02   0.08
  51   1     0.05  -0.01   0.01    -0.01  -0.01  -0.05    -0.09   0.01   0.02
  52   1     0.02  -0.02  -0.01    -0.00  -0.01  -0.03    -0.07   0.03  -0.03
  53   1     0.02  -0.03  -0.03    -0.00   0.00  -0.01    -0.01   0.03  -0.05
  54   1    -0.00  -0.04  -0.04     0.01   0.04   0.02     0.03   0.03  -0.05
  55   1    -0.01  -0.02  -0.03     0.01   0.08   0.07     0.05   0.02  -0.04
  56   1    -0.01  -0.00  -0.01     0.01   0.07   0.08     0.04  -0.00  -0.03
                      4                      5                      6
                        a                      a                      a 
 Frequencies --    39.8033                42.5600                47.2729
 Red. masses --    12.2680                 9.9182                10.2006
 Frc consts  --     0.0000                 0.0000                 0.0000
 IR Inten    --     0.2007                 0.0130                 0.0704
 Raman Activ --     0.0000                 0.0000                 0.0000
 Depolar     --     0.0000                 0.0000                 0.0000
 Atom AN      X      Y      Z        X      Y      Z        X      Y      Z
   1   7    -0.01   0.34   0.40     0.01  -0.00   0.01    -0.04  -0.07  -0.07
   2   6    -0.01   0.17   0.20     0.01  -0.00   0.01    -0.04  -0.03  -0.03
   3   6    -0.01   0.02   0.04     0.00  -0.00  -0.00    -0.04   0.01   0.01
   4   7    -0.01  -0.02  -0.01     0.01   0.00  -0.01    -0.04   0.03   0.03
   5   6    -0.00  -0.07  -0.07     0.01   0.00  -0.01    -0.04   0.04   0.03
   6   6    -0.00  -0.03  -0.02     0.00   0.01  -0.01    -0.04   0.03   0.02
   7   7    -0.01  -0.05  -0.04    -0.00   0.00  -0.01    -0.05   0.02   0.01
   8   6    -0.00  -0.05  -0.04    -0.00  -0.00  -0.00    -0.05   0.01   0.01
   9   6    -0.00  -0.14  -0.14    -0.01  -0.00  -0.00    -0.05  -0.00   0.01
  10   7    -0.00  -0.25  -0.27    -0.01  -0.01   0.00    -0.06  -0.02   0.01
  11   6    -0.01   0.01   0.03    -0.00   0.01  -0.01    -0.04   0.02   0.01
  12   6    -0.01   0.09   0.12    -0.00   0.01  -0.01    -0.04  -0.00  -0.02
  13   6    -0.01   0.11   0.14    -0.00   0.01  -0.02    -0.04  -0.01  -0.03
  14   6    -0.00   0.05   0.06     0.00   0.01  -0.03    -0.04  -0.00  -0.02
  15   6    -0.00   0.05   0.06     0.00   0.00  -0.05    -0.04  -0.01  -0.02
  16   6     0.00   0.05   0.09     0.01  -0.00  -0.05    -0.04  -0.01   0.02
  17   6     0.01   0.04   0.06     0.01   0.01  -0.11    -0.04  -0.01   0.02
  18   6     0.03   0.03   0.03     0.01  -0.00  -0.05    -0.01  -0.03   0.02
  19   6     0.01   0.03   0.05    -0.14   0.11   0.23    -0.09   0.03   0.18
  20   6     0.05   0.02  -0.01    -0.17   0.11   0.34    -0.02  -0.01   0.13
  21   6     0.11  -0.00  -0.08    -0.03  -0.01   0.16     0.15  -0.12  -0.08
  22   6     0.12  -0.00  -0.09     0.13  -0.13  -0.13     0.23  -0.18  -0.24
  23   6     0.08   0.01  -0.04     0.15  -0.12  -0.23     0.14  -0.13  -0.18
  24   6    -0.00   0.04   0.04     0.01   0.01  -0.17    -0.05  -0.01  -0.01
  25   6    -0.01   0.05   0.03    -0.00   0.01  -0.11    -0.04  -0.01  -0.05
  26   6    -0.03   0.04   0.03    -0.01  -0.00  -0.05     0.01   0.02  -0.04
  27   6    -0.01   0.03   0.06    -0.13  -0.09  -0.21     0.19   0.10   0.21
  28   6    -0.03   0.02   0.06    -0.12  -0.10  -0.10     0.29   0.14   0.29
  29   6    -0.07   0.02   0.03     0.01  -0.02   0.18     0.21   0.08   0.10
  30   6    -0.08   0.03  -0.00     0.13   0.07   0.34     0.02  -0.01  -0.16
  31   6    -0.06   0.04  -0.00     0.11   0.08   0.22    -0.07  -0.04  -0.23
  32   6    -0.01   0.06   0.03    -0.01   0.00  -0.06    -0.04  -0.00  -0.06
  33   6    -0.00  -0.04  -0.03     0.00   0.01  -0.02    -0.04   0.01   0.00
  34   6    -0.01  -0.12  -0.11     0.01   0.01  -0.02    -0.04   0.02   0.00
  35   6    -0.01  -0.20  -0.20     0.01   0.01  -0.02    -0.04   0.04   0.03
  36   6    -0.01  -0.20  -0.21     0.01   0.00  -0.02    -0.04   0.06   0.05
  37   6    -0.00  -0.12  -0.12     0.01   0.00  -0.02    -0.04   0.05   0.04
  38   6    -0.00  -0.05  -0.04     0.00   0.01  -0.02    -0.04   0.03   0.02
  39   1    -0.00   0.04   0.05    -0.00   0.00  -0.00    -0.01  -0.00  -0.01
  40   1    -0.00   0.05   0.06    -0.00   0.00  -0.01    -0.01  -0.01  -0.01
  41   1     0.00   0.01   0.03     0.00  -0.00   0.00    -0.02  -0.01   0.02
  42   1    -0.01   0.01   0.03    -0.07   0.06   0.10    -0.06   0.04   0.09
  43   1     0.01   0.01   0.00    -0.08   0.06   0.16    -0.02   0.01   0.07
  44   1     0.04  -0.00  -0.04    -0.01  -0.00   0.07     0.06  -0.04  -0.04
  45   1     0.05  -0.01  -0.04     0.07  -0.06  -0.08     0.10  -0.08  -0.12
  46   1     0.03   0.00  -0.01     0.08  -0.06  -0.12     0.06  -0.05  -0.08
  47   1    -0.00   0.01   0.01     0.00   0.00  -0.07    -0.01  -0.00  -0.00
  48   1     0.01   0.01   0.02    -0.07  -0.04  -0.12     0.07   0.04   0.10
  49   1    -0.00   0.00   0.02    -0.06  -0.05  -0.07     0.13   0.06   0.14
  50   1    -0.02   0.00   0.01     0.01  -0.01   0.08     0.08   0.03   0.05
  51   1    -0.03   0.01  -0.01     0.07   0.04   0.16    -0.01  -0.01  -0.09
  52   1    -0.02   0.01  -0.01     0.06   0.05   0.10    -0.06  -0.03  -0.12
  53   1    -0.00   0.02  -0.00    -0.00  -0.00  -0.00    -0.01   0.00  -0.03
  54   1    -0.00  -0.03  -0.03     0.00   0.00  -0.01    -0.01   0.00  -0.00
  55   1    -0.00  -0.08  -0.08     0.00   0.00  -0.01    -0.01   0.01   0.01
  56   1    -0.00  -0.07  -0.08     0.00   0.00  -0.01    -0.01   0.02   0.02
                      7                      8                      9
                        a                      a                      a 
 Frequencies --    48.3250                53.0200                79.2786
 Red. masses --    10.5263                11.8644                11.6833
 Frc consts  --     0.0000                 0.0000                 0.0000
 IR Inten    --     0.0517                 1.4547                 1.8124
 Raman Activ --     0.0000                 0.0000                 0.0000
 Depolar     --     0.0000                 0.0000                 0.0000
 Atom AN      X      Y      Z        X      Y      Z        X      Y      Z
   1   7    -0.06  -0.00   0.04     0.00   0.09   0.14     0.11  -0.27   0.05
   2   6    -0.06  -0.00   0.02    -0.00   0.01   0.04     0.05  -0.05   0.03
   3   6    -0.06  -0.01   0.00    -0.00  -0.06  -0.06     0.01   0.08   0.04
   4   7    -0.06  -0.01  -0.01     0.00  -0.10  -0.11     0.04   0.14   0.05
   5   6    -0.06  -0.01  -0.02     0.00  -0.13  -0.15     0.02   0.16   0.02
   6   6    -0.06  -0.00  -0.01    -0.00  -0.18  -0.20    -0.01   0.16   0.01
   7   7    -0.08  -0.00  -0.01    -0.00  -0.16  -0.17    -0.04   0.14   0.03
   8   6    -0.07  -0.01   0.00    -0.00  -0.06  -0.06    -0.03   0.09   0.04
   9   6    -0.08  -0.01   0.01    -0.01   0.08   0.11    -0.10  -0.04   0.02
  10   7    -0.10  -0.03   0.03    -0.02   0.24   0.31    -0.23  -0.24   0.04
  11   6    -0.06   0.00  -0.01    -0.00  -0.18  -0.20     0.00   0.12  -0.05
  12   6    -0.06   0.01  -0.01    -0.00  -0.18  -0.21     0.03   0.05  -0.10
  13   6    -0.06   0.01  -0.00     0.00  -0.09  -0.11     0.03  -0.00  -0.14
  14   6    -0.05   0.01  -0.01    -0.00  -0.00  -0.00     0.02  -0.01  -0.14
  15   6    -0.05   0.02  -0.00     0.00   0.05   0.09     0.02  -0.04  -0.05
  16   6    -0.05   0.02  -0.02    -0.01   0.05   0.10     0.00  -0.06   0.06
  17   6    -0.05   0.01   0.00    -0.01   0.05   0.12    -0.00  -0.06   0.21
  18   6     0.01  -0.03   0.02     0.02   0.04   0.09    -0.02  -0.04   0.16
  19   6     0.20  -0.05  -0.09    -0.01   0.05   0.12    -0.10  -0.07   0.12
  20   6     0.33  -0.14  -0.12     0.05   0.03   0.03    -0.10  -0.05  -0.03
  21   6     0.25  -0.20  -0.03     0.15  -0.01  -0.09     0.00   0.01  -0.15
  22   6     0.04  -0.18   0.11     0.17  -0.01  -0.11     0.08   0.06  -0.10
  23   6    -0.08  -0.10   0.13     0.10   0.02  -0.02     0.07   0.03   0.06
  24   6    -0.05   0.02  -0.01    -0.00   0.05   0.14     0.00  -0.07   0.29
  25   6    -0.05   0.02  -0.01     0.00   0.05   0.14     0.02  -0.05   0.18
  26   6     0.01   0.05  -0.02    -0.02   0.05   0.09     0.03  -0.04   0.14
  27   6    -0.07   0.11  -0.15    -0.06   0.06   0.03    -0.04   0.00   0.02
  28   6     0.05   0.17  -0.11    -0.11   0.05  -0.08    -0.07   0.01  -0.12
  29   6     0.24   0.16   0.06    -0.12   0.03  -0.12    -0.01  -0.02  -0.13
  30   6     0.32   0.09   0.18    -0.07   0.02  -0.05     0.08  -0.06   0.01
  31   6     0.19   0.04   0.13    -0.02   0.03   0.06     0.09  -0.07   0.14
  32   6    -0.05   0.01   0.01     0.00   0.04   0.12     0.03  -0.05   0.01
  33   6    -0.06   0.01  -0.01    -0.00  -0.00  -0.01     0.00   0.02  -0.13
  34   6    -0.06   0.01  -0.01    -0.01   0.10   0.10    -0.00  -0.02  -0.17
  35   6    -0.06   0.00  -0.02    -0.01   0.10   0.10    -0.00  -0.00  -0.15
  36   6    -0.06  -0.01  -0.02    -0.00   0.02   0.01    -0.00   0.08  -0.08
  37   6    -0.06  -0.00  -0.02     0.00  -0.08  -0.09     0.01   0.12  -0.04
  38   6    -0.06   0.00  -0.02    -0.00  -0.10  -0.11     0.01   0.09  -0.08
  39   1    -0.02   0.00  -0.00     0.00  -0.07  -0.08     0.02   0.02  -0.03
  40   1    -0.02   0.01   0.00     0.00  -0.03  -0.03     0.01  -0.01  -0.05
  41   1    -0.01   0.01  -0.01    -0.00   0.01   0.02    -0.00  -0.02   0.00
  42   1     0.08  -0.00  -0.05    -0.02   0.02   0.06    -0.05  -0.04   0.06
  43   1     0.14  -0.04  -0.06     0.01   0.01   0.02    -0.05  -0.02  -0.02
  44   1     0.10  -0.08  -0.02     0.06  -0.01  -0.05     0.01   0.01  -0.08
  45   1    -0.01  -0.07   0.05     0.07  -0.01  -0.06     0.05   0.03  -0.06
  46   1    -0.07  -0.03   0.06     0.04   0.00  -0.01     0.04   0.02   0.03
  47   1    -0.02   0.00  -0.00    -0.00   0.01   0.04    -0.00  -0.03   0.11
  48   1    -0.06   0.04  -0.08    -0.01   0.02   0.02    -0.03   0.01   0.01
  49   1    -0.00   0.06  -0.06    -0.04   0.01  -0.04    -0.04   0.01  -0.07
  50   1     0.10   0.06   0.03    -0.05   0.01  -0.06    -0.01  -0.00  -0.07
  51   1     0.14   0.02   0.09    -0.02   0.00  -0.02     0.04  -0.03   0.00
  52   1     0.07   0.00   0.06     0.00   0.01   0.03     0.04  -0.03   0.07
  53   1    -0.01   0.00   0.01     0.00   0.01   0.03     0.02  -0.01  -0.02
  54   1    -0.02   0.00  -0.00    -0.00   0.05   0.05    -0.00  -0.02  -0.06
  55   1    -0.02   0.00  -0.01    -0.00   0.05   0.05    -0.00  -0.01  -0.06
  56   1    -0.02  -0.00  -0.01    -0.00   0.01   0.01    -0.00   0.03  -0.02
                     10                     11                     12
                        a                      a                      a 
 Frequencies --    92.9890                96.5727               111.1916
 Red. masses --    11.9057                13.6381                10.8684
 Frc consts  --     0.0000                 0.0000                 0.0000
 IR Inten    --     1.4564                 2.1201                 0.4538
 Raman Activ --     0.0000                 0.0000                 0.0000
 Depolar     --     0.0000                 0.0000                 0.0000
 Atom AN      X      Y      Z        X      Y      Z        X      Y      Z
   1   7    -0.07  -0.05  -0.23     0.21  -0.46   0.47    -0.06   0.21  -0.10
   2   6    -0.03  -0.00   0.01     0.05  -0.15   0.13     0.01   0.00  -0.02
   3   6    -0.01   0.05   0.15    -0.02  -0.01  -0.04     0.04  -0.09  -0.00
   4   7    -0.02   0.07   0.22    -0.01  -0.01  -0.06     0.04  -0.09   0.00
   5   6    -0.01   0.02   0.18    -0.01  -0.00  -0.04     0.04  -0.06   0.01
   6   6    -0.01  -0.04   0.13    -0.01   0.01  -0.03     0.01  -0.06   0.01
   7   7     0.02  -0.02   0.13    -0.02   0.00  -0.02     0.02  -0.08  -0.01
   8   6     0.01   0.02   0.12    -0.03  -0.00  -0.03     0.02  -0.08  -0.00
   9   6     0.10   0.04  -0.02     0.09   0.13  -0.11     0.04  -0.04   0.01
  10   7     0.30   0.14  -0.27     0.35   0.39  -0.31     0.11   0.07   0.02
  11   6    -0.02  -0.10   0.02    -0.02   0.03  -0.01     0.00   0.00   0.01
  12   6    -0.06  -0.17  -0.11    -0.02   0.05   0.02    -0.05   0.07   0.03
  13   6    -0.06  -0.15  -0.16    -0.02   0.05   0.02    -0.04   0.11   0.00
  14   6    -0.03  -0.10  -0.12    -0.03   0.03   0.01    -0.02   0.08  -0.05
  15   6    -0.03   0.00  -0.08    -0.03   0.00   0.01    -0.03   0.03  -0.05
  16   6    -0.09   0.04  -0.02    -0.02  -0.01   0.01    -0.01  -0.04   0.22
  17   6    -0.09   0.09   0.05    -0.02  -0.03   0.01    -0.02  -0.09   0.25
  18   6    -0.08   0.09   0.08    -0.02  -0.03   0.01    -0.03  -0.09   0.23
  19   6    -0.01   0.10   0.08    -0.03  -0.04  -0.00    -0.11  -0.17   0.11
  20   6     0.11   0.03  -0.00    -0.04  -0.03  -0.01    -0.12  -0.13  -0.11
  21   6     0.16  -0.05  -0.08    -0.04  -0.02  -0.01    -0.05   0.00  -0.18
  22   6     0.07  -0.05  -0.03    -0.02  -0.01  -0.01     0.01   0.09  -0.03
  23   6    -0.06   0.02   0.05    -0.01  -0.02  -0.00     0.02   0.04   0.17
  24   6    -0.03   0.12   0.06    -0.04  -0.04   0.01    -0.05  -0.08   0.08
  25   6     0.03   0.09   0.01    -0.06  -0.02  -0.00    -0.08  -0.01  -0.17
  26   6     0.03   0.09   0.04    -0.05  -0.02  -0.01    -0.10  -0.01  -0.20
  27   6     0.00   0.03   0.01    -0.04   0.02  -0.01    -0.09  -0.03  -0.18
  28   6    -0.09  -0.01  -0.02     0.01   0.04   0.01     0.00  -0.02   0.00
  29   6    -0.15   0.02  -0.03     0.05   0.02   0.02     0.08   0.03   0.17
  30   6    -0.11   0.09   0.03     0.04  -0.01   0.00     0.04   0.04   0.10
  31   6    -0.02   0.13   0.06    -0.01  -0.03  -0.01    -0.06   0.02  -0.10
  32   6     0.03   0.04  -0.08    -0.05  -0.01  -0.00    -0.07   0.05  -0.27
  33   6     0.01  -0.11  -0.08    -0.02   0.03   0.01     0.03   0.06  -0.03
  34   6     0.05  -0.15  -0.14    -0.02   0.05   0.02     0.10   0.09  -0.03
  35   6     0.07  -0.13  -0.08    -0.02   0.04   0.01     0.14   0.09   0.02
  36   6     0.05  -0.06   0.06    -0.02   0.02  -0.02     0.13   0.04   0.05
  37   6     0.01  -0.02   0.11    -0.02   0.01  -0.03     0.06  -0.01   0.02
  38   6     0.00  -0.08   0.02    -0.02   0.03  -0.01     0.03   0.01  -0.00
  39   1    -0.03  -0.06  -0.04    -0.00   0.02   0.01    -0.03   0.02   0.02
  40   1    -0.02  -0.05  -0.06    -0.00   0.02   0.01    -0.02   0.04   0.01
  41   1    -0.04   0.00  -0.01    -0.00  -0.00   0.01     0.00  -0.02   0.11
  42   1    -0.01   0.05   0.03    -0.01  -0.02  -0.00    -0.05  -0.08   0.04
  43   1     0.05   0.01  -0.01    -0.02  -0.01  -0.00    -0.05  -0.06  -0.06
  44   1     0.08  -0.03  -0.05    -0.01  -0.00  -0.01    -0.01   0.01  -0.10
  45   1     0.03  -0.03  -0.02    -0.01  -0.00  -0.00     0.02   0.06  -0.03
  46   1    -0.03   0.01   0.02    -0.00  -0.01   0.00     0.02   0.03   0.08
  47   1    -0.01   0.04   0.03    -0.01  -0.02   0.01    -0.02  -0.04   0.04
  48   1     0.01   0.00   0.01    -0.02   0.01  -0.01    -0.04  -0.02  -0.08
  49   1    -0.03  -0.02  -0.02     0.00   0.02   0.00     0.01  -0.01   0.01
  50   1    -0.07  -0.00  -0.02     0.03   0.01   0.01     0.05   0.01   0.10
  51   1    -0.04   0.03   0.01     0.02  -0.01   0.00     0.02   0.02   0.06
  52   1     0.00   0.05   0.03    -0.01  -0.02  -0.01    -0.03   0.01  -0.04
  53   1     0.02   0.01  -0.04    -0.02   0.00  -0.00    -0.03   0.03  -0.13
  54   1     0.02  -0.06  -0.06    -0.01   0.02   0.01     0.03   0.03  -0.02
  55   1     0.03  -0.05  -0.04    -0.01   0.01   0.01     0.05   0.04   0.01
  56   1     0.02  -0.01   0.03    -0.01   0.00  -0.01     0.05   0.01   0.03
                     13                     14                     15
                        a                      a                      a 
 Frequencies --   115.3989               146.4182               151.1127
 Red. masses --    11.1774                11.5295                11.9143
 Frc consts  --     0.0000                 0.0000                 0.0000
 IR Inten    --     0.7591                 0.1305                 2.3618
 Raman Activ --     0.0000                 0.0000                 0.0000
 Depolar     --     0.0000                 0.0000                 0.0000
 Atom AN      X      Y      Z        X      Y      Z        X      Y      Z
   1   7    -0.10   0.24  -0.11     0.00   0.14   0.20     0.02  -0.04  -0.04
   2   6    -0.01  -0.01  -0.01    -0.00  -0.07  -0.09     0.01   0.03   0.02
   3   6     0.03  -0.11   0.03    -0.01  -0.14  -0.18     0.01   0.08   0.07
   4   7     0.04  -0.15  -0.02    -0.01  -0.23  -0.28     0.01  -0.09  -0.11
   5   6     0.03  -0.10   0.01    -0.01  -0.07  -0.09     0.01  -0.11  -0.13
   6   6    -0.00  -0.02   0.08    -0.01   0.09   0.09     0.01   0.04   0.04
   7   7    -0.01  -0.02   0.12    -0.00   0.17   0.18     0.01   0.29   0.32
   8   6     0.00  -0.06   0.08    -0.01   0.04   0.02     0.01   0.25   0.27
   9   6     0.05  -0.03   0.03    -0.01   0.03   0.02     0.01   0.12   0.14
  10   7     0.18   0.06  -0.10    -0.02  -0.06  -0.06    -0.00  -0.25  -0.25
  11   6    -0.02   0.04   0.06    -0.00   0.09   0.11     0.01  -0.05  -0.06
  12   6    -0.09   0.10   0.05     0.00   0.12   0.15     0.02  -0.15  -0.17
  13   6    -0.08   0.11  -0.05     0.00  -0.02  -0.00     0.02  -0.15  -0.16
  14   6    -0.03   0.09  -0.10     0.00  -0.12  -0.11    -0.00   0.01   0.03
  15   6    -0.04   0.04  -0.13     0.00  -0.12  -0.14    -0.00   0.03   0.09
  16   6    -0.01   0.03  -0.26    -0.09  -0.06  -0.08     0.02   0.02   0.09
  17   6    -0.02  -0.03  -0.08    -0.09   0.04   0.01     0.02  -0.01   0.03
  18   6    -0.00  -0.05  -0.10    -0.15   0.07   0.09     0.04  -0.02   0.01
  19   6    -0.02  -0.02  -0.03    -0.11   0.08   0.10     0.02  -0.03  -0.01
  20   6    -0.07  -0.00   0.06     0.03   0.00  -0.01    -0.01  -0.01  -0.01
  21   6    -0.07  -0.03   0.06     0.11  -0.08  -0.11    -0.03   0.02   0.01
  22   6    -0.02  -0.07  -0.04    -0.01  -0.07  -0.03     0.00   0.03   0.01
  23   6     0.01  -0.08  -0.11    -0.15   0.01   0.08     0.04   0.00   0.01
  24   6    -0.08  -0.09   0.18     0.02   0.09   0.00    -0.01  -0.01  -0.05
  25   6    -0.11  -0.08   0.22     0.12   0.03  -0.04    -0.04   0.00  -0.03
  26   6    -0.08  -0.07   0.21     0.17   0.04   0.03    -0.07  -0.00  -0.08
  27   6    -0.11   0.09   0.14     0.17  -0.05   0.04    -0.06   0.01  -0.06
  28   6    -0.03   0.16  -0.04     0.02  -0.12  -0.03     0.00   0.02   0.02
  29   6     0.06   0.06  -0.14    -0.10  -0.09  -0.08     0.04   0.03   0.07
  30   6     0.10  -0.10  -0.06    -0.03   0.02   0.00    -0.01   0.02   0.00
  31   6     0.02  -0.16   0.12     0.11   0.08   0.07    -0.07  -0.00  -0.07
  32   6    -0.09  -0.03   0.09     0.11  -0.07  -0.12    -0.04   0.02   0.07
  33   6     0.03   0.09  -0.04    -0.01  -0.05  -0.04     0.00   0.05   0.06
  34   6     0.11   0.15  -0.02    -0.01   0.04   0.05    -0.00   0.18   0.20
  35   6     0.16   0.08  -0.02    -0.02   0.16   0.18    -0.00   0.07   0.08
  36   6     0.15  -0.04  -0.04    -0.02   0.09   0.10     0.01  -0.14  -0.16
  37   6     0.07  -0.05  -0.02    -0.01  -0.04  -0.04     0.01  -0.15  -0.17
  38   6     0.02   0.03   0.00    -0.01  -0.01  -0.01     0.01  -0.06  -0.07
  39   1    -0.04   0.03   0.03     0.00   0.07   0.08     0.01  -0.06  -0.07
  40   1    -0.03   0.03  -0.03     0.00  -0.01  -0.01     0.01  -0.07  -0.07
  41   1     0.01   0.02  -0.13    -0.05  -0.03  -0.02     0.01   0.01   0.03
  42   1    -0.00   0.00  -0.01    -0.04   0.04   0.04     0.01  -0.02  -0.01
  43   1    -0.03   0.01   0.04     0.03   0.00  -0.01    -0.01  -0.01  -0.01
  44   1    -0.03  -0.01   0.04     0.07  -0.04  -0.07    -0.02   0.01   0.01
  45   1    -0.00  -0.03  -0.01     0.00  -0.03  -0.02    -0.00   0.02   0.01
  46   1     0.01  -0.03  -0.05    -0.07   0.00   0.03     0.02   0.00   0.00
  47   1    -0.03  -0.04   0.09     0.01   0.05   0.01    -0.00  -0.01  -0.03
  48   1    -0.06   0.05   0.06     0.07  -0.02   0.02    -0.02   0.00  -0.03
  49   1    -0.02   0.08  -0.03    -0.00  -0.06  -0.02     0.01   0.01   0.01
  50   1     0.03   0.03  -0.08    -0.07  -0.04  -0.05     0.03   0.01   0.05
  51   1     0.05  -0.05  -0.04    -0.03   0.02   0.00     0.00   0.00   0.01
  52   1     0.01  -0.08   0.05     0.04   0.05   0.03    -0.03  -0.00  -0.03
  53   1    -0.03  -0.01   0.04     0.05  -0.03  -0.04    -0.02   0.01   0.03
  54   1     0.03   0.07   0.00    -0.00   0.01   0.01    -0.00   0.10   0.11
  55   1     0.06   0.03  -0.00    -0.01   0.08   0.09    -0.00   0.04   0.05
  56   1     0.06  -0.03  -0.02    -0.01   0.04   0.04     0.00  -0.07  -0.08
                     16                     17                     18
                        a                      a                      a 
 Frequencies --   158.9824               166.3710               193.3479
 Red. masses --    10.8455                11.8896                11.0403
 Frc consts  --     0.0000                 0.0000                 0.0000
 IR Inten    --     6.5198                 1.7051                 0.3629
 Raman Activ --     0.0000                 0.0000                 0.0000
 Depolar     --     0.0000                 0.0000                 0.0000
 Atom AN      X      Y      Z        X      Y      Z        X      Y      Z
   1   7    -0.05  -0.13  -0.16    -0.26   0.08   0.02     0.05   0.11   0.19
   2   6    -0.04   0.06   0.10    -0.18  -0.13   0.05     0.02  -0.08  -0.17
   3   6    -0.04   0.12   0.18    -0.16  -0.16   0.05     0.01  -0.11  -0.22
   4   7    -0.03   0.09   0.13    -0.10  -0.11  -0.00    -0.02  -0.13  -0.18
   5   6    -0.02  -0.07  -0.07    -0.10  -0.01   0.02    -0.01   0.02   0.05
   6   6    -0.03  -0.10  -0.11    -0.15   0.02   0.04     0.02   0.05   0.10
   7   7    -0.05  -0.01   0.02    -0.24  -0.04   0.09     0.06   0.13   0.13
   8   6    -0.04   0.08   0.13    -0.21  -0.11   0.08     0.05   0.07  -0.01
   9   6    -0.03   0.04   0.06    -0.14  -0.04   0.03     0.04   0.06   0.01
  10   7     0.02  -0.05  -0.12     0.06   0.17  -0.15    -0.04  -0.08  -0.01
  11   6    -0.03  -0.16  -0.19    -0.12   0.07   0.01     0.02  -0.05   0.03
  12   6    -0.02   0.15   0.18    -0.06  -0.04  -0.06    -0.01  -0.09  -0.04
  13   6    -0.02   0.20   0.23    -0.04  -0.04  -0.08    -0.01  -0.08  -0.04
  14   6     0.01  -0.02  -0.04     0.03   0.03  -0.02    -0.01  -0.07  -0.04
  15   6     0.02   0.01  -0.01     0.08   0.03  -0.01    -0.00   0.06   0.01
  16   6     0.04  -0.00  -0.00     0.15  -0.01   0.02     0.04   0.04   0.01
  17   6     0.04  -0.01  -0.00     0.17  -0.02   0.04     0.05  -0.00   0.03
  18   6     0.05  -0.00  -0.01     0.20  -0.01   0.02     0.14  -0.03  -0.06
  19   6     0.04  -0.01  -0.02     0.16  -0.03  -0.01     0.14  -0.04  -0.08
  20   6     0.01   0.01   0.01     0.04   0.05   0.02     0.03   0.03   0.01
  21   6    -0.01   0.03   0.03     0.01   0.17   0.07    -0.05   0.10   0.11
  22   6     0.02   0.03   0.01     0.11   0.17   0.04     0.06   0.07   0.01
  23   6     0.05   0.01  -0.01     0.23   0.09   0.01     0.16   0.01  -0.08
  24   6     0.03  -0.01   0.01     0.15  -0.04   0.04    -0.02  -0.04   0.11
  25   6     0.03  -0.01   0.01     0.12  -0.01  -0.01    -0.07   0.01   0.04
  26   6     0.03  -0.01   0.02     0.12  -0.03  -0.02    -0.14   0.01  -0.01
  27   6     0.02  -0.02   0.01     0.12  -0.10  -0.02    -0.16   0.08  -0.04
  28   6     0.01  -0.02  -0.01     0.06  -0.13  -0.03    -0.06   0.12   0.01
  29   6     0.00  -0.02  -0.02     0.02  -0.11  -0.03     0.03   0.12   0.08
  30   6     0.01  -0.02  -0.00     0.04  -0.05  -0.01    -0.03   0.03   0.01
  31   6     0.03  -0.01   0.01     0.10  -0.02  -0.00    -0.13  -0.01  -0.05
  32   6     0.03   0.01  -0.01     0.11   0.03  -0.04    -0.05   0.05  -0.02
  33   6    -0.01  -0.19  -0.24    -0.05   0.09  -0.01     0.01  -0.19  -0.12
  34   6    -0.01  -0.03  -0.07    -0.07   0.06  -0.04    -0.01  -0.29  -0.21
  35   6    -0.02   0.18   0.16    -0.06   0.03  -0.06    -0.04  -0.04   0.04
  36   6    -0.02   0.15   0.15    -0.06   0.02  -0.04    -0.05   0.18   0.28
  37   6    -0.01  -0.14  -0.17    -0.07   0.06   0.01    -0.02   0.04   0.11
  38   6    -0.01  -0.27  -0.32    -0.08   0.10   0.02     0.01  -0.10  -0.02
  39   1    -0.01   0.11   0.13    -0.01  -0.02  -0.04    -0.01  -0.03  -0.01
  40   1    -0.01   0.13   0.14    -0.02  -0.02  -0.04    -0.00  -0.01   0.00
  41   1     0.01   0.00   0.00     0.05   0.00   0.01     0.02   0.02  -0.01
  42   1     0.01  -0.00  -0.01     0.05  -0.03  -0.01     0.05  -0.02  -0.04
  43   1    -0.00   0.00   0.00    -0.01   0.01  -0.00    -0.00   0.01   0.01
  44   1    -0.01   0.01   0.02    -0.03   0.07   0.04    -0.05   0.05   0.07
  45   1     0.00   0.01   0.00     0.03   0.07   0.02     0.01   0.03   0.01
  46   1     0.02   0.00  -0.01     0.09   0.03   0.00     0.07   0.00  -0.03
  47   1     0.01  -0.00   0.00     0.04  -0.02   0.02    -0.01  -0.03   0.05
  48   1     0.01  -0.00   0.01     0.05  -0.04  -0.01    -0.07   0.03  -0.02
  49   1     0.00  -0.01  -0.00     0.01  -0.05  -0.01    -0.01   0.05   0.01
  50   1    -0.00  -0.01  -0.01    -0.01  -0.04  -0.01     0.04   0.04   0.05
  51   1     0.00  -0.01  -0.00     0.00  -0.01   0.00     0.01   0.00   0.00
  52   1     0.01  -0.00   0.01     0.03   0.00   0.00    -0.05  -0.01  -0.02
  53   1     0.01   0.00  -0.00     0.04   0.01  -0.02    -0.02   0.02  -0.03
  54   1    -0.00   0.01  -0.01    -0.02   0.01  -0.02    -0.00  -0.14  -0.11
  55   1    -0.00   0.12   0.11    -0.01  -0.00  -0.03    -0.01  -0.01   0.02
  56   1    -0.01   0.11   0.12    -0.01  -0.01  -0.02    -0.02   0.12   0.15
                     19                     20                     21
                        a                      a                      a 
 Frequencies --   219.7063               228.7423               250.4759
 Red. masses --    11.1976                10.4766                10.9239
 Frc consts  --     0.0000                 0.0000                 0.0000
 IR Inten    --     1.2207                 0.9530                 1.6310
 Raman Activ --     0.0000                 0.0000                 0.0000
 Depolar     --     0.0000                 0.0000                 0.0000
 Atom AN      X      Y      Z        X      Y      Z        X      Y      Z
   1   7     0.05  -0.16   0.04    -0.02   0.06  -0.02     0.00   0.05  -0.11
   2   6    -0.05   0.18  -0.05     0.03  -0.07   0.03     0.08  -0.06   0.14
   3   6    -0.06   0.20  -0.06     0.03  -0.08   0.03     0.08  -0.08   0.14
   4   7    -0.16   0.10  -0.01     0.07  -0.03   0.02     0.15  -0.03   0.07
   5   6    -0.07  -0.09   0.03     0.03   0.05  -0.01     0.06   0.06  -0.09
   6   6    -0.01  -0.09   0.05     0.01   0.05  -0.02     0.04   0.09  -0.05
   7   7     0.11  -0.02  -0.06    -0.04   0.00   0.01    -0.05  -0.02  -0.03
   8   6     0.04   0.11  -0.13    -0.01  -0.06   0.04     0.01  -0.14   0.06
   9   6     0.03   0.11  -0.14    -0.01  -0.07   0.05     0.01  -0.17   0.07
  10   7    -0.16  -0.03   0.06     0.07   0.02  -0.01     0.16   0.02   0.04
  11   6    -0.03  -0.09   0.14     0.02   0.04  -0.04     0.06   0.11  -0.00
  12   6    -0.10  -0.04   0.13     0.05   0.03  -0.02     0.12   0.08   0.03
  13   6    -0.10  -0.04   0.02     0.05   0.00   0.00     0.10  -0.09   0.00
  14   6    -0.03  -0.03  -0.03     0.03  -0.02   0.00     0.04  -0.12   0.00
  15   6     0.01   0.02  -0.24     0.01  -0.01   0.04     0.03  -0.06  -0.11
  16   6     0.06   0.03  -0.35     0.01   0.04  -0.17     0.03  -0.02  -0.27
  17   6     0.06   0.01  -0.01     0.01   0.06  -0.06     0.02  -0.03   0.01
  18   6     0.06   0.03   0.07    -0.09   0.16   0.06     0.03  -0.06   0.01
  19   6     0.06   0.04   0.08    -0.07   0.23   0.17     0.01  -0.09  -0.03
  20   6     0.04   0.07   0.04     0.08   0.16   0.05    -0.05  -0.06  -0.00
  21   6     0.09   0.12  -0.01     0.22   0.07  -0.12    -0.06  -0.03   0.02
  22   6     0.09   0.13   0.00     0.01   0.10   0.02     0.01  -0.04  -0.02
  23   6     0.08   0.11   0.06    -0.15   0.18   0.13     0.05  -0.06  -0.02
  24   6     0.01  -0.06   0.25    -0.01   0.01  -0.01     0.03  -0.04   0.26
  25   6     0.00  -0.01  -0.02    -0.01  -0.06   0.09     0.03   0.04   0.01
  26   6    -0.02  -0.03  -0.04    -0.13  -0.13  -0.08     0.00   0.09  -0.07
  27   6    -0.04  -0.04  -0.06    -0.18  -0.15  -0.17    -0.02   0.11  -0.09
  28   6    -0.01  -0.04  -0.03    -0.01  -0.09  -0.02    -0.04   0.10  -0.01
  29   6     0.05  -0.03   0.04     0.19  -0.10   0.16    -0.06   0.16   0.09
  30   6     0.02  -0.03   0.01     0.05  -0.17  -0.05    -0.11   0.16   0.03
  31   6    -0.02  -0.04  -0.05    -0.12  -0.21  -0.20    -0.09   0.16  -0.06
  32   6     0.01   0.02  -0.22    -0.01  -0.05   0.26     0.04  -0.04  -0.09
  33   6     0.01  -0.00   0.10     0.00  -0.03  -0.04     0.01  -0.05   0.06
  34   6     0.02   0.06   0.16    -0.04  -0.05  -0.04    -0.19  -0.06   0.15
  35   6     0.02  -0.02   0.08    -0.06  -0.01  -0.02    -0.27  -0.01   0.10
  36   6     0.01  -0.18  -0.01    -0.05   0.06   0.00    -0.23  -0.00  -0.09
  37   6    -0.06  -0.15   0.04     0.02   0.06  -0.03     0.00   0.04  -0.13
  38   6    -0.02  -0.09   0.12     0.02   0.02  -0.06     0.03   0.05  -0.04
  39   1    -0.05  -0.01   0.05     0.03   0.02  -0.00     0.06   0.04   0.02
  40   1    -0.04  -0.02  -0.02     0.02  -0.00   0.01     0.04  -0.05  -0.01
  41   1     0.02   0.02  -0.15    -0.00   0.02  -0.10     0.00  -0.00  -0.13
  42   1     0.02   0.01   0.02    -0.03   0.10   0.07     0.01  -0.04  -0.02
  43   1    -0.00   0.01   0.01     0.04   0.05   0.01    -0.02  -0.02   0.00
  44   1     0.03   0.04  -0.02     0.12  -0.01  -0.09    -0.03   0.00   0.02
  45   1     0.03   0.04  -0.01     0.00   0.01   0.00     0.01  -0.00  -0.01
  46   1     0.04   0.04   0.03    -0.06   0.06   0.06     0.02  -0.01  -0.01
  47   1    -0.00  -0.05   0.16    -0.00   0.00  -0.01     0.00  -0.03   0.14
  48   1    -0.02  -0.01  -0.02    -0.08  -0.04  -0.07    -0.01   0.03  -0.03
  49   1    -0.00  -0.01  -0.01     0.00  -0.01  -0.00    -0.01   0.01   0.00
  50   1     0.03  -0.00   0.03     0.12  -0.01   0.11    -0.01   0.04   0.06
  51   1     0.01  -0.01   0.01     0.02  -0.05  -0.01    -0.03   0.05   0.01
  52   1    -0.01  -0.01  -0.02    -0.05  -0.09  -0.08    -0.03   0.07  -0.03
  53   1     0.01   0.01  -0.07    -0.01  -0.02   0.12     0.02  -0.02  -0.03
  54   1     0.01   0.04   0.06    -0.02  -0.03  -0.01    -0.06  -0.03   0.07
  55   1     0.01   0.00   0.03    -0.02  -0.00  -0.00    -0.10   0.00   0.05
  56   1     0.02  -0.09  -0.02    -0.03   0.04   0.01    -0.11   0.01  -0.07
                     22                     23                     24
                        a                      a                      a 
 Frequencies --   268.3299               274.9224               281.8999
 Red. masses --    11.2012                10.6261                10.7268
 Frc consts  --     0.0000                 0.0000                 0.0000
 IR Inten    --     1.3824                 0.7076                 0.3518
 Raman Activ --     0.0000                 0.0000                 0.0000
 Depolar     --     0.0000                 0.0000                 0.0000
 Atom AN      X      Y      Z        X      Y      Z        X      Y      Z
   1   7     0.02   0.03  -0.01     0.06   0.01  -0.06    -0.03  -0.02   0.00
   2   6     0.04  -0.03   0.01     0.08   0.02   0.07    -0.03   0.01   0.01
   3   6     0.04  -0.02   0.03     0.08  -0.00   0.06    -0.03   0.02  -0.00
   4   7     0.05  -0.11  -0.10     0.08  -0.02   0.03    -0.02  -0.03  -0.06
   5   6     0.02  -0.04  -0.08     0.04   0.00  -0.05    -0.01  -0.03  -0.02
   6   6     0.02  -0.16  -0.22     0.03   0.05   0.00    -0.01  -0.08  -0.09
   7   7     0.01  -0.04  -0.06     0.03   0.01  -0.02    -0.03  -0.04  -0.04
   8   6     0.02   0.13   0.20     0.06  -0.06   0.00    -0.04   0.08   0.06
   9   6     0.02   0.17   0.27     0.05  -0.09   0.01    -0.04   0.11   0.08
  10   7     0.05  -0.15  -0.15     0.09  -0.01   0.05    -0.04  -0.03  -0.08
  11   6     0.02  -0.11  -0.15     0.02   0.07   0.03    -0.01  -0.03  -0.05
  12   6     0.00  -0.09  -0.12     0.00   0.05   0.00     0.02  -0.02  -0.02
  13   6    -0.01   0.15   0.19    -0.01  -0.05  -0.05     0.02   0.07   0.08
  14   6    -0.00   0.14   0.18    -0.05  -0.05  -0.03     0.01   0.04   0.06
  15   6     0.00   0.08  -0.09    -0.06  -0.03  -0.04    -0.00  -0.03   0.11
  16   6     0.05   0.05  -0.17    -0.14  -0.04   0.32    -0.09   0.02   0.07
  17   6     0.04  -0.01  -0.09    -0.11   0.07   0.08    -0.11   0.05   0.14
  18   6    -0.01  -0.01   0.03    -0.03   0.12  -0.11    -0.12   0.08  -0.15
  19   6    -0.06   0.00   0.08     0.13   0.18  -0.10    -0.00   0.08  -0.20
  20   6    -0.04  -0.00   0.02     0.17   0.16   0.01     0.03   0.03  -0.01
  21   6     0.04  -0.02  -0.08     0.07   0.14   0.14    -0.08  -0.07   0.12
  22   6    -0.01   0.01   0.01     0.02   0.06  -0.01    -0.06  -0.16  -0.07
  23   6    -0.05   0.02   0.09     0.01   0.09  -0.16    -0.10  -0.08  -0.21
  24   6    -0.02  -0.05  -0.01    -0.18   0.01   0.08    -0.01   0.03   0.47
  25   6    -0.05  -0.01  -0.11    -0.10  -0.04  -0.06     0.10   0.02   0.17
  26   6    -0.01  -0.03   0.05    -0.06  -0.10   0.08     0.12   0.04  -0.12
  27   6     0.04  -0.01   0.11    -0.04  -0.07   0.10     0.07  -0.10  -0.20
  28   6     0.02  -0.00   0.01    -0.01  -0.05  -0.01     0.02  -0.16  -0.07
  29   6    -0.03  -0.04  -0.11     0.05  -0.11  -0.08     0.07  -0.08   0.13
  30   6     0.06  -0.04   0.02     0.10  -0.15   0.01    -0.01   0.02  -0.01
  31   6     0.07  -0.04   0.10     0.04  -0.17   0.06     0.02   0.06  -0.19
  32   6    -0.04   0.07  -0.23    -0.09   0.01  -0.40     0.09   0.01   0.04
  33   6     0.01   0.11   0.18    -0.03  -0.02   0.03    -0.00   0.08   0.05
  34   6    -0.07  -0.12  -0.02    -0.09  -0.00   0.08     0.08   0.02  -0.05
  35   6    -0.11  -0.12  -0.06    -0.11   0.02   0.07     0.11  -0.01  -0.06
  36   6    -0.11   0.10   0.11    -0.10  -0.02  -0.05     0.10   0.04   0.03
  37   6    -0.01   0.14   0.12    -0.00  -0.01  -0.07     0.01   0.05   0.06
  38   6     0.01   0.13   0.13    -0.00   0.02  -0.00    -0.01   0.07   0.06
  39   1     0.00  -0.08  -0.10     0.00   0.02   0.01     0.01  -0.02  -0.02
  40   1     0.00   0.06   0.07     0.01  -0.03  -0.02     0.00   0.03   0.03
  41   1     0.03   0.02  -0.04    -0.06  -0.03   0.16    -0.03   0.01  -0.03
  42   1    -0.02   0.00   0.03     0.04   0.08  -0.04     0.02   0.05  -0.07
  43   1    -0.02  -0.00   0.00     0.06   0.05   0.01     0.03   0.03   0.02
  44   1     0.03  -0.02  -0.06     0.01   0.04   0.09    -0.04  -0.02   0.09
  45   1    -0.00   0.01   0.00    -0.01  -0.01   0.01    -0.02  -0.08  -0.02
  46   1    -0.02   0.01   0.04     0.00   0.02  -0.06    -0.05  -0.04  -0.08
  47   1    -0.01  -0.03   0.05    -0.05  -0.00   0.04    -0.00   0.02   0.17
  48   1     0.02   0.00   0.05    -0.01  -0.01   0.04     0.04  -0.05  -0.07
  49   1     0.00   0.01  -0.00    -0.01   0.01  -0.01     0.00  -0.07  -0.02
  50   1    -0.03  -0.02  -0.07     0.02  -0.03  -0.05     0.03  -0.03   0.10
  51   1     0.02  -0.02   0.01     0.04  -0.05   0.00    -0.02   0.03   0.02
  52   1     0.03  -0.02   0.04     0.01  -0.07   0.02    -0.01   0.04  -0.08
  53   1    -0.02   0.03  -0.07    -0.03   0.02  -0.19     0.04   0.01  -0.05
  54   1    -0.02  -0.10  -0.05    -0.03  -0.01   0.02     0.03   0.00  -0.04
  55   1    -0.04  -0.09  -0.07    -0.04   0.02   0.03     0.04  -0.02  -0.04
  56   1    -0.05   0.04   0.02    -0.04  -0.01  -0.04     0.04   0.00   0.01
                     25                     26                     27
                        a                      a                      a 
 Frequencies --   313.5754               321.1572               339.7044
 Red. masses --    11.6750                11.3408                11.0887
 Frc consts  --     0.0000                 0.0000                 0.0000
 IR Inten    --     6.4194                 4.4938                 0.9495
 Raman Activ --     0.0000                 0.0000                 0.0000
 Depolar     --     0.0000                 0.0000                 0.0000
 Atom AN      X      Y      Z        X      Y      Z        X      Y      Z
   1   7     0.10   0.14   0.11     0.13  -0.08  -0.13     0.03   0.07   0.06
   2   6     0.09  -0.18  -0.26     0.10   0.23   0.16     0.04  -0.13  -0.13
   3   6     0.09  -0.13  -0.14     0.10   0.11   0.12     0.02  -0.05  -0.06
   4   7     0.03   0.15   0.24     0.03  -0.21  -0.13     0.03   0.04   0.04
   5   6     0.00   0.13   0.16     0.00  -0.13  -0.10     0.01   0.09   0.09
   6   6     0.01   0.03   0.06     0.00  -0.03   0.02    -0.00  -0.07  -0.12
   7   7     0.07   0.17   0.15     0.09  -0.09  -0.14    -0.01  -0.06  -0.10
   8   6     0.09  -0.06  -0.05     0.11   0.02   0.03    -0.01   0.07   0.07
   9   6     0.09  -0.10  -0.03     0.11  -0.01   0.06    -0.02   0.14   0.17
  10   7     0.09  -0.02   0.09     0.09  -0.08   0.04     0.00  -0.06  -0.09
  11   6    -0.03  -0.14  -0.14    -0.05   0.11   0.15    -0.01  -0.07  -0.13
  12   6    -0.11  -0.04  -0.10    -0.16   0.09   0.02     0.01   0.08   0.06
  13   6    -0.11   0.12   0.05    -0.15  -0.00  -0.16     0.01   0.05   0.07
  14   6    -0.07   0.11   0.03    -0.11   0.04  -0.11    -0.05  -0.12  -0.09
  15   6    -0.06   0.16   0.02    -0.10   0.06   0.01    -0.09  -0.30  -0.06
  16   6    -0.05   0.17  -0.10    -0.11   0.10  -0.06    -0.13  -0.25  -0.06
  17   6    -0.07   0.04   0.05    -0.11   0.05   0.09    -0.10  -0.03   0.07
  18   6     0.01  -0.02   0.05     0.04  -0.05   0.12    -0.00  -0.01   0.08
  19   6     0.01  -0.06  -0.02     0.08  -0.10   0.00     0.13   0.02   0.04
  20   6    -0.03  -0.04  -0.01     0.01  -0.05  -0.03     0.14   0.04  -0.02
  21   6    -0.05  -0.01   0.02    -0.06   0.06   0.06     0.05   0.19   0.10
  22   6     0.02  -0.02  -0.02     0.07   0.05  -0.02     0.08   0.15   0.01
  23   6     0.04  -0.03   0.01     0.14  -0.01   0.01     0.14   0.09  -0.05
  24   6    -0.10   0.02   0.09    -0.11   0.07  -0.08    -0.15  -0.04  -0.07
  25   6    -0.05   0.02  -0.04    -0.05   0.01   0.01    -0.10  -0.08  -0.03
  26   6     0.07   0.02  -0.09     0.07   0.04  -0.08     0.03   0.03  -0.07
  27   6     0.14  -0.10  -0.00     0.11  -0.07  -0.04     0.03   0.06  -0.06
  28   6     0.07  -0.16  -0.01     0.06  -0.12   0.01     0.02   0.04   0.04
  29   6     0.01  -0.15  -0.06     0.01  -0.11  -0.02    -0.08   0.07   0.01
  30   6     0.07  -0.03   0.01     0.03  -0.01  -0.01    -0.08   0.08   0.00
  31   6     0.13   0.02  -0.03     0.11   0.04  -0.05     0.01   0.10   0.02
  32   6    -0.06   0.12   0.07    -0.08   0.01   0.30    -0.13  -0.34   0.12
  33   6    -0.04  -0.02  -0.05    -0.06   0.05  -0.03    -0.05   0.01  -0.00
  34   6    -0.11   0.09   0.10    -0.09  -0.08  -0.14     0.04   0.12   0.07
  35   6    -0.12  -0.04  -0.03    -0.09   0.03   0.01     0.08  -0.04  -0.07
  36   6    -0.11  -0.08  -0.07    -0.09   0.06   0.09     0.08  -0.04  -0.06
  37   6    -0.03   0.01   0.00    -0.03  -0.02  -0.01     0.01   0.11   0.13
  38   6    -0.03  -0.14  -0.15    -0.05   0.09   0.10    -0.03   0.03  -0.00
  39   1    -0.05  -0.02  -0.02    -0.07   0.02   0.01     0.01   0.05   0.04
  40   1    -0.04   0.07   0.05    -0.05  -0.02  -0.08     0.01   0.03   0.04
  41   1    -0.00   0.06  -0.06    -0.03   0.03  -0.06    -0.08  -0.09  -0.05
  42   1     0.01  -0.03  -0.01     0.03  -0.05  -0.01     0.04   0.01   0.01
  43   1    -0.01  -0.01  -0.01    -0.01  -0.03  -0.03     0.04  -0.01  -0.04
  44   1    -0.03   0.00   0.01    -0.05   0.04   0.03    -0.01   0.07   0.05
  45   1     0.01   0.00  -0.02     0.03   0.03  -0.02     0.02   0.04   0.00
  46   1     0.02  -0.01   0.00     0.07  -0.00  -0.00     0.08   0.03  -0.03
  47   1    -0.03   0.01   0.04    -0.03   0.04  -0.07    -0.04  -0.02  -0.05
  48   1     0.08  -0.04   0.00     0.06  -0.04  -0.02     0.01   0.01  -0.02
  49   1     0.02  -0.05   0.00     0.02  -0.05   0.01     0.02  -0.00   0.03
  50   1    -0.02  -0.05  -0.03    -0.01  -0.04  -0.00    -0.03   0.02   0.00
  51   1     0.01   0.01   0.03    -0.01   0.01   0.01    -0.03   0.02  -0.00
  52   1     0.04   0.01  -0.00     0.04   0.02  -0.01     0.01   0.05   0.02
  53   1    -0.04   0.04   0.04    -0.03  -0.01   0.13    -0.02  -0.12   0.06
  54   1    -0.04   0.07   0.09    -0.03  -0.07  -0.07     0.01   0.08   0.04
  55   1    -0.03  -0.00  -0.00    -0.01   0.01  -0.00     0.03  -0.03  -0.04
  56   1    -0.04  -0.01  -0.02    -0.03   0.03   0.03     0.03  -0.04  -0.04
                     28                     29                     30
                        a                      a                      a 
 Frequencies --   361.9469               372.0609               372.3081
 Red. masses --    11.1701                 9.1739                 8.9753
 Frc consts  --     0.0000                 0.0000                 0.0000
 IR Inten    --     1.6831                 0.4923                 0.1700
 Raman Activ --     0.0000                 0.0000                 0.0000
 Depolar     --     0.0000                 0.0000                 0.0000
 Atom AN      X      Y      Z        X      Y      Z        X      Y      Z
   1   7     0.06   0.01   0.06    -0.01   0.02   0.01    -0.00  -0.01   0.00
   2   6     0.01   0.01  -0.17     0.00  -0.05  -0.01    -0.01   0.02   0.00
   3   6     0.03  -0.02  -0.03    -0.00  -0.00   0.00    -0.00   0.00  -0.00
   4   7    -0.06  -0.07   0.06     0.02  -0.01  -0.04    -0.01   0.00   0.02
   5   6    -0.07   0.03   0.13     0.01   0.06   0.05    -0.01  -0.03  -0.02
   6   6    -0.01  -0.10   0.00     0.00   0.01  -0.01     0.00  -0.01   0.01
   7   7     0.11  -0.11  -0.13    -0.02  -0.07  -0.08     0.01   0.03   0.04
   8   6     0.13   0.04   0.08    -0.03   0.03   0.03     0.02  -0.02  -0.01
   9   6     0.17   0.10   0.18    -0.04   0.07   0.06     0.03  -0.03  -0.03
  10   7     0.13  -0.17   0.02    -0.03  -0.01  -0.05     0.02  -0.00   0.03
  11   6    -0.06  -0.06  -0.02     0.01  -0.01  -0.01    -0.01   0.00   0.00
  12   6    -0.14   0.09   0.08     0.02   0.04   0.06    -0.01  -0.02  -0.02
  13   6    -0.12   0.06  -0.08     0.02  -0.04  -0.01    -0.01   0.02   0.00
  14   6    -0.02  -0.02  -0.21     0.01  -0.06  -0.04     0.00   0.03   0.02
  15   6     0.04  -0.00  -0.13     0.01   0.02  -0.04     0.00   0.01   0.01
  16   6     0.07  -0.07   0.17    -0.04   0.05  -0.01     0.03  -0.01  -0.02
  17   6     0.09  -0.02   0.00    -0.04   0.04   0.01     0.03  -0.01  -0.01
  18   6    -0.00   0.02  -0.03     0.00  -0.01   0.06     0.00  -0.01  -0.03
  19   6    -0.04   0.00  -0.03     0.04  -0.06  -0.03    -0.27   0.12   0.32
  20   6    -0.02  -0.02  -0.02    -0.03  -0.02   0.01     0.23  -0.11  -0.30
  21   6    -0.03  -0.06  -0.01    -0.04   0.00   0.02     0.01  -0.02  -0.02
  22   6    -0.03  -0.05   0.01     0.05  -0.01  -0.04    -0.26   0.10   0.31
  23   6    -0.02  -0.04  -0.02     0.02  -0.01   0.05     0.23  -0.12  -0.32
  24   6     0.25   0.07  -0.09    -0.01   0.07  -0.08     0.02  -0.03   0.05
  25   6     0.21   0.06   0.15     0.03   0.02   0.00     0.00  -0.01   0.02
  26   6     0.02  -0.02   0.17    -0.01   0.00   0.04     0.01   0.01  -0.01
  27   6    -0.14   0.00  -0.06     0.19   0.05   0.34     0.05   0.01   0.05
  28   6    -0.05   0.05  -0.03    -0.24  -0.05  -0.32    -0.03  -0.01  -0.06
  29   6     0.09   0.06   0.11     0.03  -0.00   0.02    -0.01   0.01   0.00
  30   6    -0.07  -0.04  -0.10     0.22   0.04   0.30     0.03   0.02   0.05
  31   6    -0.08  -0.06  -0.00    -0.25  -0.09  -0.33    -0.03   0.01  -0.06
  32   6     0.21   0.06  -0.03     0.03   0.03   0.02     0.00   0.00   0.01
  33   6    -0.04   0.06  -0.08     0.02  -0.04  -0.00    -0.01   0.02  -0.00
  34   6    -0.15   0.14   0.04     0.02   0.01   0.06    -0.01  -0.00  -0.03
  35   6    -0.15   0.03  -0.07     0.01  -0.03   0.00    -0.01   0.01  -0.00
  36   6    -0.15  -0.07  -0.06     0.01  -0.02  -0.02    -0.01   0.01   0.01
  37   6    -0.07   0.08   0.09     0.01   0.03   0.04    -0.01  -0.01  -0.02
  38   6    -0.05   0.01   0.02     0.02  -0.02  -0.01    -0.01   0.01   0.00
  39   1    -0.07   0.05   0.07     0.01   0.03   0.04    -0.01  -0.01  -0.02
  40   1    -0.05   0.04  -0.02     0.01  -0.01  -0.00    -0.00   0.01  -0.00
  41   1     0.03  -0.02   0.10    -0.02   0.01   0.00     0.01  -0.00  -0.01
  42   1    -0.02  -0.00  -0.00     0.02  -0.03  -0.02    -0.16   0.08   0.20
  43   1     0.01  -0.00  -0.00    -0.02  -0.01   0.00     0.15  -0.07  -0.19
  44   1    -0.01  -0.02  -0.00    -0.02   0.01   0.01     0.01  -0.01  -0.01
  45   1    -0.01  -0.01   0.01     0.03   0.00  -0.03    -0.16   0.06   0.20
  46   1    -0.02  -0.02  -0.01     0.01   0.00   0.02     0.15  -0.07  -0.19
  47   1     0.08   0.05  -0.07    -0.00   0.04  -0.03     0.00  -0.02   0.01
  48   1    -0.08   0.00  -0.05     0.13   0.03   0.20     0.03   0.01   0.03
  49   1    -0.02   0.02  -0.02    -0.15  -0.03  -0.21    -0.02  -0.01  -0.03
  50   1     0.06   0.03   0.07     0.02   0.00   0.01    -0.00   0.00   0.00
  51   1    -0.03  -0.03  -0.07     0.14   0.03   0.19     0.02   0.01   0.04
  52   1    -0.03  -0.03  -0.01    -0.15  -0.06  -0.21    -0.02   0.00  -0.04
  53   1     0.09  -0.00  -0.02     0.01   0.01   0.02    -0.00   0.00  -0.00
  54   1    -0.05   0.05   0.04     0.00   0.02   0.03    -0.00  -0.01  -0.01
  55   1    -0.03   0.00  -0.03    -0.00  -0.01   0.00    -0.00   0.01  -0.00
  56   1    -0.05  -0.04  -0.05     0.00  -0.01  -0.01    -0.00   0.01   0.01
                     31                     32                     33
                        a                      a                      a 
 Frequencies --   377.9046               390.6800               395.7045
 Red. masses --    11.1728                12.3832                11.7530
 Frc consts  --     0.0000                 0.0000                 0.0000
 IR Inten    --     2.8494                 1.4840                21.7487
 Raman Activ --     0.0000                 0.0000                 0.0000
 Depolar     --     0.0000                 0.0000                 0.0000
 Atom AN      X      Y      Z        X      Y      Z        X      Y      Z
   1   7     0.00   0.07  -0.02     0.37   0.15  -0.13    -0.05  -0.02   0.02
   2   6     0.07  -0.14   0.04     0.40  -0.02   0.05    -0.05   0.00  -0.01
   3   6     0.01   0.00   0.00     0.25   0.02  -0.03    -0.03  -0.06  -0.07
   4   7     0.09   0.03  -0.09     0.16   0.00   0.07    -0.02   0.22   0.23
   5   6     0.08   0.13   0.05     0.08  -0.07  -0.05    -0.00  -0.24  -0.28
   6   6    -0.01   0.06  -0.03    -0.14  -0.02  -0.05     0.02  -0.21  -0.24
   7   7    -0.11  -0.11  -0.14    -0.13   0.14   0.01     0.01   0.26   0.31
   8   6    -0.14   0.07   0.02    -0.13   0.05  -0.08     0.02  -0.09  -0.08
   9   6    -0.21   0.12   0.07    -0.33  -0.06  -0.02     0.04  -0.08  -0.10
  10   7    -0.14   0.08  -0.16    -0.15   0.19  -0.14     0.02   0.02   0.06
  11   6     0.04  -0.02  -0.00    -0.16  -0.05   0.03     0.02   0.00  -0.01
  12   6     0.06   0.04   0.10    -0.22  -0.06   0.01     0.02  -0.02  -0.05
  13   6     0.04  -0.11   0.00    -0.20  -0.01   0.05     0.02   0.09   0.09
  14   6     0.03  -0.12  -0.03    -0.07   0.01   0.00     0.00  -0.02  -0.02
  15   6     0.03   0.15  -0.11    -0.03  -0.04  -0.00    -0.00  -0.08  -0.15
  16   6    -0.13   0.24  -0.06     0.07  -0.12   0.06    -0.11  -0.02  -0.05
  17   6    -0.14   0.15   0.05     0.09  -0.07  -0.03    -0.11   0.07   0.05
  18   6    -0.02  -0.01   0.16     0.02  -0.00  -0.07    -0.05   0.01   0.16
  19   6    -0.02  -0.09   0.04    -0.01   0.03  -0.00     0.06  -0.07  -0.02
  20   6     0.01  -0.11  -0.13    -0.01   0.02   0.03     0.02  -0.05  -0.05
  21   6    -0.13  -0.02   0.06     0.04  -0.01  -0.03    -0.08   0.04   0.08
  22   6     0.01  -0.02   0.01    -0.02   0.00   0.02     0.07  -0.00  -0.05
  23   6     0.14  -0.10  -0.04    -0.03   0.02   0.00     0.08  -0.02   0.01
  24   6    -0.07   0.20  -0.09     0.13  -0.05   0.01     0.00   0.15  -0.14
  25   6     0.06   0.09  -0.00     0.06  -0.00   0.06     0.10   0.04   0.05
  26   6    -0.03  -0.02   0.10     0.03   0.01   0.03     0.04  -0.00   0.15
  27   6    -0.16  -0.08  -0.08     0.01   0.02  -0.00    -0.07  -0.01  -0.00
  28   6     0.03  -0.02   0.08    -0.02   0.01  -0.03    -0.06   0.01  -0.06
  29   6     0.09  -0.08   0.02     0.00   0.04   0.03     0.07   0.02   0.09
  30   6    -0.02  -0.11  -0.14    -0.02   0.02   0.01    -0.02  -0.04  -0.05
  31   6     0.06  -0.09   0.09    -0.03   0.02  -0.03    -0.06  -0.05  -0.03
  32   6     0.08   0.17  -0.04     0.05  -0.02   0.01     0.09  -0.06  -0.01
  33   6     0.09  -0.12   0.05    -0.06   0.01   0.03     0.01   0.08   0.09
  34   6     0.07  -0.05   0.16    -0.03  -0.02  -0.01     0.02  -0.08  -0.08
  35   6     0.04  -0.10   0.07     0.02  -0.04   0.06     0.00   0.04   0.04
  36   6     0.05  -0.05  -0.02     0.02  -0.06   0.07     0.00   0.04   0.02
  37   6     0.07   0.03   0.05     0.03  -0.06   0.04     0.00  -0.00  -0.03
  38   6     0.08  -0.05  -0.01    -0.06   0.01   0.05     0.01   0.16   0.17
  39   1     0.03   0.05   0.06    -0.07  -0.03  -0.01     0.01  -0.05  -0.06
  40   1     0.02  -0.04   0.00    -0.08   0.01   0.01     0.01   0.02   0.03
  41   1    -0.05   0.06  -0.00     0.03  -0.03   0.03    -0.06  -0.02   0.00
  42   1    -0.01  -0.05   0.01    -0.01   0.02   0.01     0.03  -0.04  -0.03
  43   1     0.03  -0.05  -0.08    -0.01   0.01   0.02     0.02  -0.03  -0.04
  44   1    -0.07   0.01   0.04     0.02  -0.01  -0.02    -0.05   0.03   0.05
  45   1     0.01   0.02  -0.00    -0.01  -0.00   0.01     0.05   0.00  -0.04
  46   1     0.08  -0.04  -0.05    -0.02   0.01   0.01     0.05  -0.01  -0.01
  47   1    -0.01   0.10  -0.03     0.04  -0.02  -0.01     0.01   0.08  -0.06
  48   1    -0.08  -0.03  -0.06     0.00   0.01  -0.00    -0.04  -0.00  -0.02
  49   1     0.02   0.02   0.04    -0.01  -0.00  -0.02    -0.04   0.01  -0.05
  50   1     0.05  -0.01   0.02     0.01   0.01   0.02     0.05   0.01   0.05
  51   1    -0.03  -0.04  -0.09    -0.01   0.01  -0.00    -0.02  -0.02  -0.04
  52   1     0.03  -0.05   0.05    -0.02   0.01  -0.02    -0.04  -0.03  -0.03
  53   1     0.01   0.05   0.02     0.03  -0.02  -0.01     0.05  -0.04   0.02
  54   1     0.02   0.00   0.07    -0.00  -0.01  -0.03     0.01  -0.07  -0.07
  55   1    -0.01  -0.03   0.02     0.02  -0.01   0.01    -0.00   0.00  -0.00
  56   1     0.01  -0.02  -0.02     0.01  -0.02   0.02     0.00  -0.01  -0.02
                     34                     35                     36
                        a                      a                      a 
 Frequencies --   419.8338               436.4212               463.9849
 Red. masses --     9.8270                11.1760                11.8565
 Frc consts  --     0.0000                 0.0000                 0.0000
 IR Inten    --     1.7525                 2.0338                 0.0754
 Raman Activ --     0.0000                 0.0000                 0.0000
 Depolar     --     0.0000                 0.0000                 0.0000
 Atom AN      X      Y      Z        X      Y      Z        X      Y      Z
   1   7    -0.01   0.02   0.03    -0.04   0.06   0.06    -0.16   0.05  -0.09
   2   6    -0.01  -0.07  -0.06    -0.01  -0.19  -0.13     0.04  -0.27   0.37
   3   6    -0.01  -0.04  -0.05    -0.02  -0.05  -0.05    -0.06  -0.02   0.01
   4   7    -0.00   0.14   0.15     0.01   0.22   0.21     0.08   0.04  -0.15
   5   6     0.01  -0.11  -0.13     0.03  -0.08  -0.10     0.12   0.00   0.01
   6   6     0.01  -0.14  -0.16     0.02  -0.16  -0.16     0.10  -0.05   0.05
   7   7    -0.00   0.05   0.06    -0.00  -0.09  -0.05     0.03  -0.08   0.17
   8   6    -0.00  -0.03  -0.03    -0.02  -0.01  -0.03    -0.06   0.04  -0.03
   9   6    -0.00   0.07   0.06    -0.01   0.24   0.19     0.17   0.25  -0.36
  10   7    -0.01  -0.02  -0.03    -0.04  -0.06  -0.10    -0.21   0.01   0.04
  11   6     0.01  -0.03  -0.03     0.03   0.15   0.19     0.09  -0.09  -0.05
  12   6    -0.02   0.26   0.29    -0.00   0.06   0.05    -0.10   0.05  -0.07
  13   6    -0.00  -0.26  -0.32     0.00  -0.03  -0.08    -0.08   0.17  -0.07
  14   6    -0.00   0.02   0.00     0.02  -0.08  -0.15    -0.01   0.08  -0.17
  15   6     0.01   0.05   0.04     0.01   0.11   0.05    -0.01   0.03  -0.15
  16   6     0.03   0.03   0.04     0.05   0.08   0.08     0.03  -0.05   0.11
  17   6     0.03  -0.02  -0.00     0.05  -0.03   0.01     0.03  -0.05   0.05
  18   6     0.03  -0.00  -0.06     0.07  -0.02  -0.12     0.01  -0.00  -0.06
  19   6    -0.02   0.02   0.00    -0.03   0.03   0.00    -0.00   0.02  -0.02
  20   6    -0.02   0.01   0.02    -0.04   0.03   0.04    -0.00   0.02   0.03
  21   6     0.02  -0.02  -0.03     0.05  -0.04  -0.07     0.04  -0.00  -0.02
  22   6    -0.02  -0.00   0.02    -0.05   0.00   0.04    -0.02   0.00   0.01
  23   6    -0.02   0.00  -0.00    -0.03   0.00  -0.00    -0.03   0.02  -0.02
  24   6    -0.00  -0.04   0.03    -0.03  -0.07   0.06    -0.01  -0.05  -0.02
  25   6    -0.03  -0.01  -0.01    -0.07  -0.02  -0.01    -0.05  -0.05   0.10
  26   6    -0.02  -0.00  -0.06    -0.06  -0.00  -0.14     0.07   0.03   0.01
  27   6     0.02  -0.00   0.00     0.04  -0.00  -0.00     0.05   0.01  -0.03
  28   6     0.02  -0.00   0.02     0.05  -0.01   0.05    -0.00  -0.02  -0.02
  29   6    -0.02  -0.01  -0.03    -0.06  -0.03  -0.08     0.00   0.01   0.04
  30   6     0.02   0.01   0.02     0.04   0.02   0.05    -0.03   0.02  -0.01
  31   6     0.02   0.01   0.01     0.04   0.02   0.00     0.03   0.04  -0.03
  32   6    -0.03   0.04   0.03    -0.06   0.08   0.10    -0.06  -0.04   0.07
  33   6     0.01   0.21   0.24     0.06  -0.16  -0.15     0.14   0.00   0.01
  34   6     0.00   0.04   0.08     0.00  -0.16  -0.11    -0.06  -0.04   0.13
  35   6     0.00  -0.20  -0.19    -0.03   0.18   0.24    -0.12  -0.11   0.02
  36   6    -0.01   0.18   0.19    -0.02  -0.16  -0.15    -0.11  -0.03   0.05
  37   6     0.01  -0.04  -0.06     0.03  -0.02  -0.01     0.10   0.06   0.08
  38   6     0.02  -0.13  -0.14     0.05   0.16   0.21     0.14  -0.02   0.02
  39   1    -0.01   0.17   0.20    -0.01  -0.01  -0.01    -0.07   0.01  -0.00
  40   1    -0.00  -0.16  -0.19    -0.00  -0.01  -0.03    -0.03   0.08  -0.00
  41   1     0.02   0.01   0.00     0.04   0.04   0.01     0.01  -0.01   0.05
  42   1    -0.01   0.01   0.01    -0.02   0.02   0.02    -0.01   0.02   0.00
  43   1    -0.01   0.01   0.02    -0.02   0.02   0.04    -0.01   0.01   0.02
  44   1     0.02  -0.01  -0.02     0.03  -0.02  -0.03     0.02  -0.00  -0.01
  45   1    -0.02   0.00   0.02    -0.03   0.01   0.04    -0.01  -0.00   0.01
  46   1    -0.02   0.00   0.01    -0.03   0.01   0.01    -0.02   0.01   0.00
  47   1    -0.00  -0.02   0.01    -0.01  -0.03   0.01    -0.00  -0.02  -0.05
  48   1     0.01  -0.00   0.01     0.03  -0.00   0.02     0.02  -0.00  -0.02
  49   1     0.01  -0.00   0.02     0.03  -0.00   0.05    -0.01  -0.02  -0.02
  50   1    -0.01  -0.01  -0.02    -0.03  -0.01  -0.04    -0.00  -0.00   0.02
  51   1     0.01   0.01   0.02     0.03   0.02   0.05    -0.02   0.01  -0.01
  52   1     0.01   0.01   0.01     0.03   0.02   0.02     0.00   0.02  -0.02
  53   1    -0.02   0.02   0.00    -0.04   0.04   0.01    -0.02  -0.01   0.02
  54   1     0.00  -0.02   0.00    -0.00  -0.08  -0.04    -0.03  -0.04   0.08
  55   1     0.00  -0.14  -0.14    -0.02   0.12   0.14    -0.04  -0.05  -0.01
  56   1    -0.01   0.12   0.13    -0.01  -0.11  -0.12    -0.06   0.00  -0.01
                     37                     38                     39
                        a                      a                      a 
 Frequencies --   469.0578               485.0497               497.7980
 Red. masses --    10.1452                11.4240                11.2966
 Frc consts  --     0.0000                 0.0000                 0.0000
 IR Inten    --     1.0464                 0.4876                 6.2758
 Raman Activ --     0.0000                 0.0000                 0.0000
 Depolar     --     0.0000                 0.0000                 0.0000
 Atom AN      X      Y      Z        X      Y      Z        X      Y      Z
   1   7    -0.02  -0.01   0.02     0.00   0.13   0.03    -0.08  -0.07   0.12
   2   6    -0.03   0.00  -0.05     0.10  -0.36  -0.08    -0.19   0.12  -0.28
   3   6    -0.01   0.00   0.01     0.01   0.06   0.08    -0.05   0.05   0.04
   4   7     0.00   0.02   0.01     0.01   0.08   0.10     0.02   0.06  -0.02
   5   6    -0.01   0.03  -0.01     0.01   0.02   0.08     0.04   0.08  -0.02
   6   6     0.00   0.03  -0.02    -0.00   0.06   0.14     0.03   0.09   0.02
   7   7    -0.00   0.01  -0.04     0.02  -0.20  -0.13    -0.01  -0.01  -0.09
   8   6     0.02  -0.01   0.01    -0.01   0.04   0.02     0.00   0.01   0.05
   9   6     0.01  -0.02   0.05     0.15   0.26  -0.04    -0.16  -0.18   0.15
  10   7     0.04  -0.02   0.00    -0.07  -0.07  -0.00     0.07   0.04  -0.03
  11   6     0.00   0.04  -0.00    -0.03   0.15   0.13     0.04   0.00   0.04
  12   6     0.01   0.02  -0.01     0.01  -0.03  -0.06    -0.20   0.06  -0.12
  13   6    -0.01  -0.04   0.01     0.01  -0.02  -0.03    -0.21   0.07  -0.03
  14   6    -0.05  -0.02   0.05    -0.02   0.20   0.25    -0.04   0.13   0.00
  15   6    -0.05  -0.00   0.03    -0.03  -0.08   0.08    -0.02   0.04  -0.19
  16   6    -0.11   0.06   0.06     0.01  -0.09  -0.09     0.09  -0.10   0.07
  17   6    -0.08   0.08  -0.21     0.01  -0.01  -0.03     0.07  -0.10   0.09
  18   6     0.28  -0.17  -0.21    -0.11   0.04   0.13    -0.11   0.05   0.05
  19   6     0.06  -0.09   0.07    -0.00   0.00   0.01    -0.03   0.05  -0.02
  20   6    -0.12   0.01   0.13     0.05  -0.02  -0.06     0.05   0.00  -0.03
  21   6     0.13  -0.03  -0.20    -0.06   0.04   0.09    -0.02   0.03   0.07
  22   6    -0.07   0.09   0.13     0.05  -0.02  -0.06     0.02  -0.02  -0.05
  23   6     0.08  -0.03   0.08    -0.01   0.01   0.01    -0.06   0.04  -0.03
  24   6    -0.21   0.03  -0.01     0.04   0.01  -0.04     0.04  -0.09  -0.06
  25   6    -0.09  -0.05   0.17     0.02   0.01  -0.04    -0.06  -0.05   0.08
  26   6     0.28   0.11   0.26     0.07   0.01   0.12     0.08   0.03   0.04
  27   6     0.08   0.01  -0.06    -0.00   0.00   0.01     0.06   0.02  -0.02
  28   6    -0.08  -0.08  -0.14    -0.04  -0.00  -0.06    -0.02  -0.02  -0.04
  29   6     0.12  -0.00   0.21     0.05   0.02   0.07     0.01   0.01   0.05
  30   6    -0.11   0.00  -0.15    -0.04  -0.01  -0.05    -0.03   0.02  -0.03
  31   6     0.08   0.07  -0.05    -0.00  -0.00   0.01     0.03   0.04  -0.02
  32   6    -0.10  -0.03  -0.11    -0.00  -0.06  -0.08    -0.08  -0.04   0.07
  33   6    -0.03  -0.03   0.03    -0.09   0.15   0.09     0.23  -0.06   0.18
  34   6     0.04  -0.03   0.00    -0.05  -0.05  -0.18     0.15  -0.24   0.15
  35   6     0.04  -0.00   0.03    -0.00   0.09   0.04    -0.01  -0.09   0.13
  36   6     0.05   0.01  -0.02    -0.01   0.01   0.03     0.03   0.08  -0.06
  37   6    -0.00  -0.01  -0.04    -0.01  -0.29  -0.28     0.13  -0.02  -0.20
  38   6    -0.02   0.00  -0.02    -0.06  -0.04  -0.08     0.22  -0.01  -0.03
  39   1     0.01   0.00  -0.01     0.01  -0.05  -0.07    -0.09  -0.01  -0.05
  40   1     0.01  -0.02   0.00     0.01  -0.07  -0.08    -0.06   0.01  -0.03
  41   1    -0.05   0.00   0.06    -0.00  -0.03  -0.03     0.04  -0.02   0.03
  42   1    -0.03  -0.03   0.08     0.02  -0.01  -0.03     0.01   0.02  -0.03
  43   1    -0.11   0.02   0.10     0.04  -0.02  -0.06     0.04  -0.00  -0.03
  44   1     0.05  -0.01  -0.09    -0.03   0.01   0.04    -0.01   0.01   0.03
  45   1    -0.07   0.07   0.11     0.04  -0.02  -0.06     0.02  -0.03  -0.04
  46   1    -0.00   0.02   0.09     0.02  -0.01  -0.03    -0.01  -0.00  -0.04
  47   1    -0.06   0.01   0.01     0.01  -0.01   0.01     0.01  -0.05  -0.06
  48   1    -0.01  -0.02  -0.09    -0.02  -0.00  -0.02     0.01  -0.00  -0.03
  49   1    -0.08  -0.05  -0.12    -0.03  -0.01  -0.05    -0.02  -0.02  -0.03
  50   1     0.05   0.00   0.10     0.02   0.01   0.03     0.00   0.00   0.02
  51   1    -0.11  -0.00  -0.12    -0.03  -0.01  -0.05    -0.03   0.01  -0.02
  52   1    -0.02   0.02  -0.08    -0.02  -0.01  -0.02    -0.00   0.02  -0.02
  53   1    -0.04   0.01  -0.07     0.01  -0.03  -0.02    -0.03  -0.01   0.03
  54   1     0.01  -0.00  -0.01    -0.01  -0.03  -0.09     0.03  -0.11   0.06
  55   1     0.00   0.00   0.02     0.01   0.07   0.05    -0.06  -0.03   0.06
  56   1     0.02   0.01  -0.00     0.00   0.06   0.08    -0.03   0.07  -0.02
                     40                     41                     42
                        a                      a                      a 
 Frequencies --   506.9224               529.3844               531.6565
 Red. masses --    11.6639                11.8306                11.5242
 Frc consts  --     0.0000                 0.0000                 0.0000
 IR Inten    --     1.3312                 3.7475                 1.8476
 Raman Activ --     0.0000                 0.0000                 0.0000
 Depolar     --     0.0000                 0.0000                 0.0000
 Atom AN      X      Y      Z        X      Y      Z        X      Y      Z
   1   7     0.09  -0.01   0.02     0.13   0.00   0.07    -0.07   0.09   0.08
   2   6     0.01   0.13  -0.14    -0.00   0.13  -0.32    -0.00  -0.34  -0.16
   3   6     0.03   0.02  -0.01     0.06   0.07   0.13    -0.04   0.23   0.22
   4   7    -0.04  -0.05   0.05    -0.05  -0.20   0.13     0.03   0.06  -0.13
   5   6     0.01  -0.10   0.09     0.02  -0.20   0.18    -0.00   0.09  -0.11
   6   6     0.05  -0.09   0.09    -0.05  -0.19   0.17     0.05   0.09  -0.09
   7   7     0.02  -0.11   0.08    -0.02  -0.24   0.16     0.02   0.05  -0.15
   8   6    -0.07   0.01  -0.01    -0.09   0.08   0.12     0.04   0.21   0.22
   9   6    -0.28  -0.09   0.08     0.01   0.06  -0.26    -0.04  -0.32  -0.15
  10   7    -0.09   0.13  -0.11    -0.16   0.08   0.00     0.07   0.07   0.09
  11   6     0.13  -0.08   0.09    -0.06   0.10  -0.17     0.06  -0.16   0.02
  12   6     0.23  -0.11   0.09     0.02   0.14  -0.11    -0.00  -0.08   0.08
  13   6     0.29   0.17  -0.14     0.02  -0.00   0.04     0.01   0.08  -0.01
  14   6     0.20   0.16  -0.12     0.04  -0.05   0.00    -0.00   0.01  -0.09
  15   6     0.14   0.03  -0.09     0.03  -0.06  -0.02    -0.01  -0.05  -0.11
  16   6     0.04   0.06   0.03    -0.09   0.02   0.01    -0.09  -0.01   0.04
  17   6     0.01   0.03   0.06    -0.08   0.06   0.01    -0.08   0.04   0.04
  18   6    -0.04   0.05   0.04     0.09  -0.04  -0.07     0.10  -0.05  -0.10
  19   6    -0.02   0.03  -0.02     0.04  -0.03  -0.01     0.04  -0.04  -0.02
  20   6     0.01   0.01  -0.03    -0.05   0.01   0.04    -0.05   0.01   0.06
  21   6    -0.04  -0.01   0.03     0.04  -0.02  -0.07     0.06  -0.03  -0.09
  22   6     0.01  -0.03  -0.02    -0.03   0.02   0.05    -0.04   0.03   0.07
  23   6    -0.03  -0.00   0.00     0.05  -0.03  -0.00     0.05  -0.02  -0.02
  24   6    -0.16  -0.04  -0.05    -0.03   0.08   0.03     0.01   0.09   0.02
  25   6    -0.12  -0.09   0.03     0.07   0.02   0.00     0.08   0.03   0.06
  26   6     0.09   0.02   0.06    -0.08  -0.04  -0.08    -0.10  -0.03  -0.11
  27   6     0.05   0.03  -0.02    -0.04  -0.01  -0.01    -0.05  -0.01  -0.02
  28   6    -0.02  -0.01  -0.04     0.03   0.02   0.05     0.04   0.02   0.07
  29   6     0.01   0.02   0.07    -0.04  -0.00  -0.07    -0.06  -0.02  -0.09
  30   6    -0.05  -0.00  -0.03     0.03  -0.00   0.05     0.05   0.00   0.07
  31   6     0.03   0.02  -0.01    -0.04  -0.03  -0.01    -0.04  -0.03  -0.03
  32   6    -0.11  -0.09   0.00     0.08  -0.04   0.01     0.08  -0.02   0.05
  33   6     0.11   0.17  -0.11     0.03   0.05   0.07     0.02   0.14   0.10
  34   6    -0.14   0.10  -0.10    -0.08  -0.07   0.04     0.04  -0.00  -0.08
  35   6    -0.16   0.07  -0.09    -0.05  -0.07   0.08    -0.00   0.08  -0.03
  36   6    -0.20  -0.12   0.13     0.03   0.09  -0.07    -0.05  -0.05   0.07
  37   6    -0.02  -0.12   0.07     0.19   0.06  -0.13    -0.10  -0.15  -0.03
  38   6     0.06  -0.10   0.08     0.08   0.21  -0.13    -0.02  -0.06   0.17
  39   1     0.03  -0.05   0.03     0.06   0.06  -0.05    -0.04  -0.04   0.03
  40   1     0.05   0.06  -0.06     0.03  -0.01   0.02    -0.02   0.03  -0.02
  41   1    -0.01   0.01   0.02    -0.05  -0.01  -0.00    -0.05  -0.01   0.01
  42   1     0.00   0.00  -0.02    -0.01  -0.01   0.03    -0.02  -0.00   0.03
  43   1     0.02   0.00  -0.02    -0.04   0.01   0.04    -0.06   0.02   0.06
  44   1    -0.01  -0.01   0.01     0.01  -0.01  -0.02     0.02  -0.01  -0.03
  45   1     0.02  -0.01  -0.02    -0.03   0.03   0.05    -0.05   0.03   0.06
  46   1    -0.01  -0.01  -0.02    -0.00   0.00   0.03    -0.01   0.01   0.03
  47   1    -0.05  -0.03  -0.04    -0.01   0.05   0.01     0.01   0.06  -0.02
  48   1     0.01  -0.00  -0.03    -0.00   0.01   0.03     0.01   0.01   0.03
  49   1    -0.03  -0.02  -0.04     0.03   0.02   0.05     0.04   0.02   0.07
  50   1     0.01   0.01   0.02    -0.01   0.00  -0.02    -0.01  -0.00  -0.03
  51   1    -0.04  -0.00  -0.03     0.04   0.00   0.05     0.05   0.01   0.07
  52   1    -0.01   0.02  -0.03     0.01  -0.01   0.03     0.01  -0.01   0.03
  53   1    -0.07   0.00   0.01     0.03  -0.02  -0.00     0.05  -0.02   0.01
  54   1    -0.05  -0.01   0.01    -0.02  -0.04  -0.01     0.01  -0.05  -0.05
  55   1     0.01   0.03  -0.04    -0.03  -0.03   0.02     0.02   0.01  -0.02
  56   1    -0.05  -0.03   0.05    -0.05   0.06  -0.06     0.02  -0.04   0.04
                     43                     44                     45
                        a                      a                      a 
 Frequencies --   547.2926               551.8260               582.1438
 Red. masses --    10.8844                11.4571                10.9892
 Frc consts  --     0.0000                 0.0000                 0.0000
 IR Inten    --     3.4126                 1.1529                 0.1297
 Raman Activ --     0.0000                 0.0000                 0.0000
 Depolar     --     0.0000                 0.0000                 0.0000
 Atom AN      X      Y      Z        X      Y      Z        X      Y      Z
   1   7     0.04   0.06   0.03    -0.06  -0.03   0.04    -0.00  -0.00  -0.00
   2   6     0.05  -0.14  -0.12    -0.09   0.03  -0.08    -0.00   0.01   0.01
   3   6     0.02   0.13   0.17    -0.03   0.05   0.02    -0.00  -0.01  -0.01
   4   7    -0.03  -0.11  -0.03     0.08   0.08  -0.10     0.00   0.00  -0.01
   5   6    -0.05  -0.05  -0.04     0.12  -0.02  -0.00     0.00   0.01   0.01
   6   6    -0.06  -0.11  -0.11     0.11   0.01  -0.07    -0.00   0.01   0.00
   7   7    -0.02   0.03   0.00     0.02  -0.03   0.04    -0.00   0.01  -0.00
   8   6    -0.00   0.19   0.22    -0.01   0.04   0.06     0.00  -0.01  -0.01
   9   6     0.09  -0.16  -0.30    -0.07  -0.12  -0.00     0.00   0.00   0.01
  10   7    -0.00   0.05   0.11     0.01   0.04   0.00     0.00  -0.00   0.00
  11   6    -0.07  -0.09  -0.12     0.09   0.15  -0.18    -0.00  -0.01  -0.03
  12   6     0.01   0.05   0.16     0.11   0.26  -0.17    -0.00   0.01  -0.00
  13   6    -0.01  -0.20  -0.01     0.11   0.14  -0.17    -0.00  -0.00  -0.01
  14   6     0.03  -0.13  -0.01    -0.19   0.03  -0.05    -0.00   0.00   0.00
  15   6     0.04   0.12   0.12    -0.16   0.02   0.08     0.01   0.00  -0.01
  16   6     0.14   0.08  -0.01     0.02  -0.07  -0.03     0.01  -0.01   0.07
  17   6     0.12  -0.06  -0.05     0.04  -0.07  -0.06     0.02   0.05  -0.28
  18   6    -0.11   0.07   0.10    -0.04  -0.02   0.02     0.03  -0.04   0.14
  19   6    -0.07   0.06   0.03    -0.00  -0.01   0.02     0.19   0.05   0.20
  20   6     0.06  -0.01  -0.08     0.03  -0.02   0.00     0.04   0.23  -0.15
  21   6    -0.08   0.02   0.10     0.01   0.04   0.03    -0.13   0.08  -0.01
  22   6     0.05  -0.04  -0.08     0.01   0.01  -0.02    -0.17  -0.07  -0.21
  23   6    -0.07   0.03   0.03    -0.02   0.02  -0.01    -0.02  -0.24   0.15
  24   6    -0.05  -0.14  -0.03     0.14  -0.03   0.01     0.01  -0.00   0.00
  25   6    -0.14  -0.07  -0.06     0.01   0.07  -0.01    -0.01  -0.06   0.28
  26   6     0.12   0.03   0.10    -0.01   0.05   0.04     0.05   0.03  -0.14
  27   6     0.08   0.03   0.02    -0.01  -0.03   0.04     0.04   0.24  -0.15
  28   6    -0.05  -0.02  -0.08    -0.01  -0.03  -0.01    -0.17   0.10   0.20
  29   6     0.05   0.02   0.11     0.05  -0.04   0.01    -0.15  -0.06  -0.01
  30   6    -0.07  -0.01  -0.07     0.02   0.02  -0.04    -0.02  -0.24   0.15
  31   6     0.07   0.03   0.03     0.02   0.03   0.00     0.19  -0.09  -0.19
  32   6    -0.12   0.07  -0.02    -0.01   0.10  -0.02     0.01   0.01  -0.06
  33   6    -0.03  -0.07  -0.05    -0.23  -0.02  -0.04    -0.01   0.02   0.02
  34   6     0.03  -0.02  -0.05    -0.21  -0.03   0.01    -0.01  -0.01  -0.00
  35   6     0.02   0.10   0.02     0.10  -0.24   0.25     0.01  -0.00   0.03
  36   6     0.03   0.01  -0.13     0.09  -0.27   0.22     0.01  -0.02   0.00
  37   6    -0.03   0.19   0.12     0.05  -0.15   0.21     0.00  -0.01   0.00
  38   6    -0.03   0.11   0.06    -0.16   0.04  -0.01    -0.01   0.00  -0.00
  39   1     0.03   0.07   0.09     0.03   0.09  -0.03     0.00   0.01   0.00
  40   1    -0.00  -0.04   0.01     0.09   0.01  -0.02     0.00  -0.00  -0.00
  41   1     0.08   0.04  -0.00     0.04  -0.00  -0.01     0.00  -0.01   0.08
  42   1     0.02   0.01  -0.04     0.01   0.00  -0.01     0.06  -0.04   0.04
  43   1     0.07  -0.02  -0.07     0.01  -0.02  -0.02     0.01   0.03  -0.10
  44   1    -0.02   0.00   0.03     0.00   0.01   0.00     0.02  -0.02   0.05
  45   1     0.06  -0.04  -0.08     0.01  -0.01  -0.02    -0.00   0.01  -0.11
  46   1     0.00  -0.01  -0.04     0.01   0.01  -0.01     0.05  -0.06   0.04
  47   1    -0.02  -0.10   0.01     0.04  -0.02   0.02     0.00   0.00   0.00
  48   1    -0.00  -0.01  -0.04    -0.00  -0.02  -0.00     0.06   0.05  -0.03
  49   1    -0.05  -0.03  -0.08    -0.01   0.00  -0.02    -0.01  -0.01   0.11
  50   1     0.01   0.00   0.03     0.01  -0.01   0.01     0.03   0.02  -0.04
  51   1    -0.06  -0.01  -0.08    -0.01   0.01  -0.02    -0.00  -0.03   0.10
  52   1    -0.01   0.02  -0.04    -0.00  -0.01  -0.01     0.07   0.03  -0.03
  53   1    -0.08   0.05  -0.01     0.02   0.01  -0.01     0.01   0.01  -0.07
[...]
 Frequencies --  3081.3868              3081.7101              3083.9518
 Red. masses --     1.7829                 1.8056                 1.8246
 Frc consts  --     0.0000                 0.0000                 0.0000
 IR Inten    --     4.3287                12.4936                12.0057
 Raman Activ --     0.0000                 0.0000                 0.0000
 Depolar     --     0.0000                 0.0000                 0.0000
 Atom AN      X      Y      Z        X      Y      Z        X      Y      Z
   1   7     0.00   0.00  -0.00    -0.00  -0.00   0.00    -0.00  -0.00   0.00
   2   6    -0.00  -0.00   0.00     0.00   0.00  -0.00     0.00   0.00  -0.00
   3   6     0.00  -0.00   0.00    -0.00   0.00  -0.00     0.00   0.00  -0.00
   4   7    -0.00   0.00  -0.00    -0.00  -0.00   0.00    -0.00  -0.00   0.00
   5   6    -0.00  -0.00   0.00     0.00   0.00  -0.00     0.00   0.00   0.00
   6   6    -0.00   0.00  -0.00    -0.00  -0.00   0.00    -0.00   0.00  -0.00
   7   7     0.00  -0.00   0.00     0.00  -0.00   0.00     0.00   0.00  -0.00
   8   6    -0.00  -0.00   0.00    -0.00  -0.00   0.00    -0.00  -0.00  -0.00
   9   6    -0.00   0.00  -0.00     0.00  -0.00   0.00     0.00  -0.00   0.00
  10   7     0.00  -0.00   0.00    -0.00   0.00  -0.00    -0.00   0.00  -0.00
  11   6    -0.00   0.00  -0.00    -0.00   0.00  -0.00    -0.00   0.00  -0.00
  12   6    -0.00   0.01  -0.00    -0.02   0.04  -0.03    -0.00   0.01  -0.01
  13   6    -0.02  -0.02   0.02    -0.14  -0.14   0.12    -0.02  -0.02   0.02
  14   6    -0.00  -0.00   0.00    -0.01  -0.00   0.00    -0.00  -0.00   0.00
  15   6    -0.00   0.00   0.00    -0.00   0.00  -0.00    -0.01  -0.00  -0.00
  16   6    -0.01   0.03   0.00    -0.04   0.08   0.01     0.01  -0.01  -0.00
  17   6     0.00   0.00   0.00     0.00   0.00   0.00    -0.00  -0.00  -0.00
  18   6     0.00   0.00   0.00    -0.00  -0.00  -0.00     0.00   0.00   0.00
  19   6     0.04  -0.00   0.03    -0.02   0.00  -0.02     0.01  -0.00   0.01
  20   6     0.01  -0.02   0.01    -0.00   0.00  -0.00     0.00  -0.01   0.01
  21   6     0.03   0.04   0.01    -0.02  -0.02  -0.00     0.01   0.01   0.00
  22   6    -0.01   0.00  -0.01     0.01  -0.00   0.01     0.01  -0.00   0.01
  23   6    -0.01   0.04  -0.02     0.01  -0.02   0.01    -0.00   0.01  -0.00
  24   6    -0.00   0.00  -0.00    -0.01  -0.00  -0.00    -0.04   0.01  -0.00
  25   6     0.00  -0.00  -0.00    -0.00   0.00   0.00     0.00  -0.01  -0.00
  26   6    -0.00   0.00   0.00     0.00  -0.00  -0.00    -0.00   0.00   0.00
  27   6     0.01   0.02  -0.01    -0.01  -0.02   0.01     0.03   0.06  -0.03
  28   6     0.01  -0.00  -0.00     0.00  -0.00  -0.00     0.05  -0.01  -0.04
  29   6    -0.02   0.03   0.00     0.01  -0.02  -0.00    -0.02   0.04   0.01
  30   6    -0.01  -0.02   0.01     0.01   0.02  -0.01     0.02   0.04  -0.02
  31   6    -0.03   0.00   0.02     0.03  -0.00  -0.02    -0.02   0.00   0.01
  32   6    -0.02  -0.03  -0.01     0.02   0.02   0.01    -0.13  -0.18  -0.05
  33   6    -0.00  -0.00  -0.00     0.00   0.00  -0.00     0.00   0.00  -0.00
  34   6    -0.13   0.02  -0.03     0.01  -0.00   0.00     0.02  -0.00   0.00
  35   6     0.06  -0.13   0.13    -0.00   0.00  -0.00    -0.02   0.04  -0.04
  36   6     0.02   0.02  -0.02    -0.00  -0.00   0.00    -0.01  -0.01   0.01
  37   6     0.00   0.00  -0.00    -0.00   0.00  -0.00    -0.00  -0.00   0.00
  38   6     0.00   0.00  -0.00     0.00  -0.00   0.00     0.00  -0.00   0.00
  39   1     0.01  -0.02   0.02     0.08  -0.15   0.13     0.02  -0.03   0.03
  40   1     0.08   0.07  -0.07     0.51   0.50  -0.44     0.08   0.08  -0.07
  41   1     0.04  -0.09  -0.02     0.13  -0.27  -0.05    -0.01   0.03   0.00
  42   1    -0.13   0.01  -0.11     0.07  -0.01   0.06    -0.05   0.00  -0.04
  43   1    -0.02   0.08  -0.05     0.00  -0.01   0.00    -0.01   0.04  -0.02
  44   1    -0.11  -0.15  -0.03     0.06   0.08   0.02    -0.02  -0.03  -0.01
  45   1     0.04  -0.00   0.03    -0.05   0.00  -0.04    -0.02   0.00  -0.02
  46   1     0.03  -0.15   0.08    -0.02   0.08  -0.04     0.01  -0.03   0.02
  47   1     0.01  -0.00   0.00     0.02  -0.00   0.00     0.15  -0.02   0.01
  48   1    -0.04  -0.09   0.05     0.04   0.08  -0.04    -0.10  -0.20   0.11
  49   1    -0.03   0.00   0.02    -0.00   0.00   0.00    -0.19   0.02   0.13
  50   1     0.05  -0.12  -0.02    -0.04   0.09   0.01     0.07  -0.15  -0.02
  51   1     0.03   0.06  -0.03    -0.03  -0.07   0.03    -0.07  -0.13   0.07
  52   1     0.09  -0.01  -0.06    -0.09   0.01   0.06     0.08  -0.01  -0.05
  53   1     0.07   0.10   0.03    -0.06  -0.08  -0.02     0.45   0.63   0.16
  54   1     0.46  -0.07   0.10    -0.03   0.00  -0.01    -0.06   0.01  -0.01
  55   1    -0.21   0.48  -0.46     0.01  -0.02   0.02     0.07  -0.16   0.15
  56   1    -0.09  -0.08   0.07     0.00   0.00  -0.00     0.04   0.03  -0.03
                    154                    155                    156
                        a                      a                      a 
 Frequencies --  3084.8495              3086.1612              3086.8650
 Red. masses --     1.8472                 1.8671                 1.8453
 Frc consts  --     0.0000                 0.0000                 0.0000
 IR Inten    --    22.3755                86.5615                58.7815
 Raman Activ --     0.0000                 0.0000                 0.0000
 Depolar     --     0.0000                 0.0000                 0.0000
 Atom AN      X      Y      Z        X      Y      Z        X      Y      Z
   1   7    -0.00  -0.00   0.00    -0.00  -0.00   0.00    -0.00  -0.00   0.00
   2   6     0.00   0.00  -0.00     0.00   0.00  -0.00     0.00   0.00  -0.00
   3   6    -0.00   0.00  -0.00    -0.00   0.00  -0.00    -0.00  -0.00  -0.00
   4   7    -0.00  -0.00   0.00     0.00  -0.00   0.00    -0.00  -0.00   0.00
   5   6     0.00   0.00  -0.00    -0.00   0.00  -0.00     0.00   0.00  -0.00
   6   6    -0.00  -0.00   0.00     0.00  -0.00   0.00     0.00  -0.00   0.00
   7   7     0.00  -0.00   0.00    -0.00  -0.00   0.00     0.00   0.00  -0.00
   8   6    -0.00  -0.00   0.00     0.00   0.00  -0.00    -0.00  -0.00   0.00
   9   6     0.00  -0.00   0.00    -0.00   0.00  -0.00     0.00  -0.00   0.00
  10   7    -0.00   0.00  -0.00     0.00  -0.00   0.00    -0.00   0.00  -0.00
  11   6    -0.00   0.00  -0.00     0.00  -0.00   0.00    -0.00   0.00  -0.00
  12   6    -0.01   0.01  -0.01     0.00  -0.00   0.00    -0.01   0.01  -0.01
  13   6    -0.04  -0.04   0.04     0.00   0.00  -0.00    -0.03  -0.03   0.03
  14   6    -0.00  -0.00   0.00     0.00  -0.00  -0.00    -0.00  -0.00   0.00
  15   6     0.00  -0.00  -0.00     0.00   0.00   0.00     0.01  -0.00   0.00
  16   6     0.07  -0.14  -0.02     0.01  -0.03  -0.01     0.08  -0.16  -0.03
  17   6    -0.00  -0.00  -0.00    -0.00  -0.00  -0.00    -0.00  -0.01  -0.00
  18   6     0.00   0.00   0.00     0.00   0.00   0.00     0.00   0.00  -0.00
  19   6    -0.04   0.00  -0.03    -0.02   0.00  -0.01     0.08  -0.01   0.07
  20   6    -0.02   0.10  -0.05    -0.01   0.03  -0.02     0.02  -0.08   0.04
  21   6     0.01   0.01   0.00     0.01   0.01   0.00     0.01   0.01   0.00
  22   6    -0.09   0.01  -0.07    -0.03   0.00  -0.02     0.08  -0.01   0.06
  23   6    -0.02   0.08  -0.04    -0.01   0.03  -0.02     0.01  -0.06   0.04
  24   6     0.07  -0.00   0.00    -0.05   0.00  -0.00    -0.03   0.00  -0.00
  25   6     0.00  -0.00  -0.00    -0.00   0.00   0.00    -0.00   0.00   0.00
  26   6     0.00   0.00  -0.00    -0.00   0.00   0.00     0.00  -0.00  -0.00
  27   6    -0.01  -0.01   0.01     0.05   0.10  -0.06    -0.00  -0.00   0.00
  28   6    -0.03   0.00   0.02     0.11  -0.01  -0.07     0.00  -0.00  -0.00
  29   6     0.00  -0.00  -0.00    -0.01   0.03   0.01     0.00  -0.01  -0.00
  30   6    -0.01  -0.03   0.01     0.05   0.11  -0.06    -0.00  -0.00   0.00
  31   6    -0.02   0.00   0.01     0.07  -0.01  -0.05     0.00  -0.00  -0.00
  32   6    -0.01  -0.01  -0.00     0.06   0.08   0.02     0.02   0.03   0.01
  33   6     0.00   0.00  -0.00    -0.00  -0.00  -0.00     0.00  -0.00  -0.00
  34   6     0.00  -0.00   0.00     0.01  -0.00   0.00     0.00  -0.00   0.00
  35   6    -0.00   0.00  -0.00     0.01  -0.01   0.01     0.00  -0.00   0.00
  36   6    -0.00  -0.00   0.00     0.00   0.00  -0.00     0.00   0.00  -0.00
  37   6    -0.00   0.00  -0.00     0.00   0.00  -0.00     0.00   0.00  -0.00
  38   6     0.00  -0.00   0.00    -0.00   0.00   0.00     0.00  -0.00   0.00
  39   1     0.03  -0.05   0.05    -0.00   0.00  -0.00     0.02  -0.05   0.04
  40   1     0.16   0.16  -0.14    -0.01  -0.01   0.01     0.12   0.12  -0.11
  41   1    -0.24   0.50   0.09    -0.05   0.10   0.02    -0.28   0.58   0.10
  42   1     0.12  -0.01   0.10     0.05  -0.00   0.04    -0.29   0.02  -0.24
  43   1     0.08  -0.34   0.18     0.02  -0.10   0.06    -0.07   0.28  -0.15
  44   1    -0.04  -0.05  -0.01    -0.02  -0.02  -0.01    -0.03  -0.05  -0.01
  45   1     0.31  -0.02   0.25     0.09  -0.01   0.07    -0.26   0.02  -0.21
  46   1     0.06  -0.26   0.15     0.02  -0.11   0.06    -0.05   0.22  -0.12
  47   1    -0.23   0.02  -0.01     0.17  -0.02   0.01     0.10  -0.01   0.00
  48   1     0.02   0.04  -0.02    -0.17  -0.35   0.19     0.01   0.01  -0.01
  49   1     0.09  -0.01  -0.06    -0.38   0.04   0.25    -0.00   0.00   0.00
  50   1    -0.00   0.00   0.00     0.05  -0.09  -0.01    -0.01   0.02   0.00
  51   1     0.04   0.09  -0.05    -0.18  -0.36   0.19     0.00   0.00  -0.00
  52   1     0.06  -0.01  -0.04    -0.25   0.02   0.17    -0.01   0.00   0.01
  53   1     0.04   0.05   0.01    -0.20  -0.28  -0.07    -0.07  -0.10  -0.02
  54   1    -0.00   0.00  -0.00    -0.02   0.00  -0.00    -0.00   0.00  -0.00
  55   1     0.00  -0.00   0.00    -0.02   0.04  -0.04    -0.01   0.01  -0.01
  56   1     0.00   0.00  -0.00    -0.01  -0.01   0.01    -0.00  -0.00   0.00
                    157                    158                    159
                        a                      a                      a 
 Frequencies --  3089.7798              3093.0979              3094.6100
 Red. masses --     1.8265                 1.8584                 1.9211
 Frc consts  --     0.0000                 0.0000                 0.0000
 IR Inten    --    32.1121                22.3529                91.0651
 Raman Activ --     0.0000                 0.0000                 0.0000
 Depolar     --     0.0000                 0.0000                 0.0000
 Atom AN      X      Y      Z        X      Y      Z        X      Y      Z
   1   7    -0.00  -0.00   0.00    -0.00  -0.00   0.00     0.00   0.00  -0.00
   2   6     0.00   0.00  -0.00     0.00   0.00  -0.00    -0.00  -0.00   0.00
   3   6    -0.00   0.00  -0.00    -0.00   0.00  -0.00     0.00   0.00   0.00
   4   7     0.00  -0.00   0.00     0.00  -0.00   0.00    -0.00   0.00  -0.00
   5   6     0.00  -0.00   0.00    -0.00   0.00  -0.00    -0.00   0.00  -0.00
   6   6     0.00   0.00  -0.00    -0.00  -0.00   0.00    -0.00  -0.00   0.00
   7   7    -0.00   0.00  -0.00     0.00   0.00  -0.00     0.00  -0.00   0.00
   8   6    -0.00   0.00  -0.00    -0.00  -0.00   0.00     0.00  -0.00   0.00
   9   6     0.00  -0.00   0.00     0.00  -0.00   0.00    -0.00   0.00  -0.00
  10   7    -0.00   0.00  -0.00    -0.00   0.00  -0.00     0.00  -0.00   0.00
  11   6    -0.00  -0.00   0.00    -0.00  -0.00   0.00     0.00   0.00  -0.00
  12   6    -0.00   0.00  -0.00    -0.00   0.00  -0.00     0.00  -0.00   0.00
  13   6     0.00   0.00  -0.00    -0.00  -0.00   0.00     0.00   0.00  -0.00
  14   6     0.00  -0.00   0.00    -0.00   0.00   0.00    -0.00   0.00  -0.00
  15   6     0.00  -0.00   0.00     0.00  -0.00   0.00    -0.00  -0.00  -0.00
  16   6     0.01  -0.01  -0.00     0.00  -0.00  -0.00    -0.00   0.00   0.00
  17   6    -0.01  -0.01  -0.00    -0.00  -0.00  -0.00    -0.00  -0.00  -0.00
  18   6     0.00   0.00   0.00    -0.00  -0.00   0.00    -0.00  -0.00  -0.00
  19   6    -0.02   0.00  -0.01    -0.00  -0.00  -0.00    -0.04   0.00  -0.03
  20   6    -0.01   0.03  -0.01    -0.00   0.00  -0.00    -0.02   0.09  -0.05
  21   6     0.01   0.01   0.00     0.00   0.00   0.00     0.10   0.14   0.03
  22   6    -0.02   0.00  -0.01    -0.00   0.00  -0.00     0.09  -0.01   0.07
  23   6    -0.01   0.05  -0.03    -0.00   0.00  -0.00     0.01  -0.05   0.02
  24   6    -0.25   0.02  -0.01     0.00  -0.00  -0.00     0.00   0.00   0.00
  25   6    -0.01   0.01   0.00    -0.00   0.00   0.00     0.00  -0.00  -0.00
  26   6     0.00  -0.00  -0.00     0.00  -0.00  -0.00     0.00  -0.00  -0.00
  27   6    -0.03  -0.05   0.03     0.00   0.00  -0.00    -0.01  -0.03   0.02
  28   6    -0.02   0.00   0.01    -0.00   0.00   0.00    -0.06   0.01   0.04
  29   6     0.01  -0.03  -0.00    -0.00   0.00   0.00    -0.05   0.10   0.01
  30   6    -0.01  -0.03   0.02     0.00   0.00  -0.00     0.03   0.05  -0.03
  31   6    -0.02   0.00   0.01     0.00  -0.00  -0.00     0.02  -0.00  -0.01
  32   6     0.01   0.01   0.00     0.02   0.02   0.01    -0.00  -0.00  -0.00
  33   6    -0.00  -0.00   0.00    -0.01  -0.00   0.00     0.00   0.00  -0.00
  34   6    -0.00   0.00  -0.00    -0.22   0.03  -0.05     0.00  -0.00   0.00
  35   6    -0.00   0.00  -0.00    -0.04   0.10  -0.09     0.00  -0.00   0.00
  36   6    -0.00  -0.00   0.00    -0.04  -0.04   0.03     0.00   0.00  -0.00
  37   6    -0.00   0.00  -0.00    -0.00  -0.00   0.00     0.00  -0.00   0.00
  38   6     0.00  -0.00   0.00     0.00   0.00  -0.00    -0.00   0.00  -0.00
  39   1     0.00  -0.00   0.00     0.00  -0.00   0.00    -0.00   0.00  -0.00
  40   1    -0.00  -0.00   0.00     0.00   0.00  -0.00    -0.00  -0.00   0.00
  41   1    -0.02   0.04   0.01    -0.00   0.01   0.00     0.01  -0.01  -0.00
  42   1     0.06  -0.00   0.05     0.00  -0.00   0.00     0.13  -0.01   0.11
  43   1     0.02  -0.09   0.05     0.00  -0.00   0.00     0.07  -0.31   0.17
  44   1    -0.04  -0.05  -0.01    -0.00  -0.00  -0.00    -0.34  -0.47  -0.10
  45   1     0.05  -0.00   0.04     0.00  -0.00   0.00    -0.28   0.02  -0.23
  46   1     0.04  -0.16   0.09     0.00  -0.00   0.00    -0.03   0.15  -0.08
  47   1     0.88  -0.08   0.04    -0.01   0.00  -0.00    -0.01   0.00  -0.00
  48   1     0.09   0.18  -0.10    -0.00  -0.00   0.00     0.05   0.10  -0.05
  49   1     0.06  -0.01  -0.04     0.00  -0.00  -0.00     0.19  -0.02  -0.13
  50   1    -0.04   0.09   0.01     0.01  -0.01  -0.00     0.15  -0.32  -0.05
  51   1     0.05   0.10  -0.05    -0.01  -0.01   0.01    -0.08  -0.16   0.09
  52   1     0.06  -0.01  -0.04    -0.01   0.00   0.01    -0.07   0.01   0.05
  53   1    -0.02  -0.03  -0.01    -0.06  -0.08  -0.02     0.00   0.00   0.00
  54   1     0.00  -0.00   0.00     0.77  -0.11   0.16    -0.01   0.00  -0.00
  55   1     0.00  -0.00   0.00     0.14  -0.33   0.31    -0.00   0.00  -0.00
  56   1     0.00   0.00  -0.00     0.16   0.14  -0.12    -0.00  -0.00   0.00
                    160                    161                    162
                        a                      a                      a 
 Frequencies --  3094.9796              3102.0889              3104.5156
 Red. masses --     1.9208                 1.8623                 1.8690
 Frc consts  --     0.0000                 0.0000                 0.0000
 IR Inten    --    55.7342                 9.1879                 9.9045
 Raman Activ --     0.0000                 0.0000                 0.0000
 Depolar     --     0.0000                 0.0000                 0.0000
 Atom AN      X      Y      Z        X      Y      Z        X      Y      Z
   1   7     0.00   0.00  -0.00     0.00   0.00  -0.00    -0.00  -0.00   0.00
   2   6    -0.00  -0.00   0.00    -0.00  -0.00   0.00     0.00   0.00  -0.00
   3   6     0.00  -0.00   0.00     0.00  -0.00   0.00    -0.00   0.00  -0.00
   4   7    -0.00   0.00  -0.00    -0.00  -0.00   0.00    -0.00  -0.00   0.00
   5   6    -0.00   0.00  -0.00     0.00   0.00  -0.00     0.00   0.00  -0.00
   6   6    -0.00  -0.00   0.00     0.00   0.00  -0.00    -0.00   0.00  -0.00
   7   7     0.00  -0.00   0.00     0.00  -0.00   0.00     0.00  -0.00   0.00
   8   6     0.00  -0.00   0.00     0.00   0.00  -0.00    -0.00  -0.00   0.00
   9   6    -0.00   0.00  -0.00    -0.00   0.00  -0.00     0.00  -0.00   0.00
  10   7     0.00  -0.00   0.00     0.00  -0.00   0.00    -0.00   0.00  -0.00
  11   6     0.00   0.00  -0.00    -0.01  -0.00   0.00     0.00   0.00  -0.00
  12   6     0.00  -0.00   0.00    -0.09   0.19  -0.16     0.01  -0.01   0.01
  13   6    -0.00  -0.00   0.00     0.04   0.04  -0.04    -0.00  -0.00   0.00
  14   6    -0.00   0.00  -0.00     0.00  -0.00   0.00    -0.00   0.00  -0.00
  15   6    -0.00   0.00  -0.00    -0.00   0.00  -0.00     0.00  -0.00   0.00
  16   6    -0.00   0.01   0.00    -0.00   0.00   0.00     0.00  -0.00  -0.00
  17   6     0.00   0.00   0.00     0.00   0.00   0.00    -0.00  -0.00  -0.00
  18   6    -0.00  -0.00  -0.00    -0.00  -0.00  -0.00     0.00   0.00  -0.00
  19   6    -0.02   0.00  -0.02    -0.00   0.00  -0.00     0.00  -0.00   0.00
  20   6    -0.01   0.06  -0.03    -0.00   0.00  -0.00     0.00  -0.00   0.00
  21   6     0.06   0.08   0.02     0.00   0.00   0.00    -0.00  -0.00  -0.00
  22   6     0.05  -0.00   0.04     0.00  -0.00   0.00    -0.00   0.00  -0.00
  23   6     0.01  -0.03   0.02    -0.00   0.00  -0.00    -0.00   0.00  -0.00
  24   6     0.02  -0.00   0.00     0.00  -0.00   0.00    -0.00   0.00  -0.00
  25   6     0.00  -0.00  -0.00     0.00   0.00   0.00    -0.00   0.00   0.00
  26   6    -0.00   0.00   0.00    -0.00   0.00  -0.00    -0.00   0.00   0.00
  27   6     0.02   0.05  -0.03     0.00   0.00  -0.00    -0.00  -0.00   0.00
  28   6     0.10  -0.01  -0.07     0.00  -0.00  -0.00    -0.00   0.00   0.00
  29   6     0.07  -0.16  -0.02     0.00  -0.00  -0.00    -0.00   0.00   0.00
  30   6    -0.04  -0.08   0.04    -0.00  -0.00   0.00     0.00   0.00  -0.00
  31   6    -0.03   0.00   0.02     0.00  -0.00  -0.00    -0.00   0.00   0.00
  32   6    -0.00  -0.00  -0.00     0.00   0.00   0.00     0.00   0.00   0.00
  33   6    -0.00   0.00  -0.00    -0.00  -0.00   0.00    -0.00  -0.00   0.00
  34   6    -0.00   0.00  -0.00    -0.00   0.00  -0.00    -0.04   0.00  -0.01
  35   6    -0.00   0.00  -0.00    -0.00   0.00  -0.00    -0.02   0.06  -0.06
  36   6     0.00   0.00  -0.00     0.01   0.01  -0.01     0.17   0.15  -0.13
  37   6     0.00  -0.00   0.00     0.00   0.00  -0.00     0.01  -0.00   0.00
  38   6     0.00   0.00  -0.00     0.00  -0.00   0.00    -0.00  -0.00   0.00
  39   1    -0.00   0.01  -0.01     0.33  -0.65   0.57    -0.03   0.05  -0.04
  40   1     0.00   0.00  -0.00    -0.14  -0.14   0.12     0.01   0.01  -0.01
  41   1     0.01  -0.02  -0.00     0.01  -0.01  -0.00    -0.00   0.00   0.00
  42   1     0.08  -0.01   0.07     0.00  -0.00   0.00    -0.00   0.00  -0.00
  43   1     0.05  -0.19   0.10     0.00  -0.00   0.00    -0.00   0.00  -0.00
  44   1    -0.20  -0.28  -0.06    -0.00  -0.00  -0.00     0.00   0.00   0.00
  45   1    -0.17   0.01  -0.14    -0.00   0.00  -0.00     0.00  -0.00   0.00
  46   1    -0.02   0.10  -0.05     0.00  -0.00   0.00     0.00  -0.00   0.00
  47   1    -0.06   0.01  -0.00    -0.00   0.00  -0.00     0.00  -0.00   0.00
  48   1    -0.08  -0.17   0.09    -0.00  -0.00   0.00     0.00   0.00  -0.00
  49   1    -0.32   0.03   0.22    -0.00   0.00   0.00     0.00  -0.00  -0.00
  50   1    -0.25   0.52   0.08    -0.00   0.00   0.00     0.00  -0.00  -0.00
  51   1     0.13   0.27  -0.14     0.00   0.00  -0.00    -0.00  -0.00   0.00
  52   1     0.11  -0.01  -0.08    -0.00   0.00   0.00     0.00   0.00  -0.00
  53   1     0.01   0.01   0.00    -0.00  -0.00  -0.00    -0.00  -0.00   0.00
  54   1     0.02  -0.00   0.00     0.01  -0.00   0.00     0.12  -0.02   0.02
  55   1     0.00  -0.01   0.00     0.00  -0.01   0.01     0.08  -0.18   0.18
  56   1    -0.00  -0.00   0.00    -0.05  -0.04   0.04    -0.60  -0.51   0.45
