56
 energy: -93.589704146557 gnorm: 0.000161003494 xtb: 6.7.1 (edcfbbe)
N           10.00188548380874        0.72450798173848       -0.56148259610933
C            8.90773793357203        0.48294504858666       -0.32338996581849
C            7.56386422782813        0.16504937468124       -0.00518418947745
N            6.59300755773071        0.73141942484792       -0.73152235887475
C            5.36588569364415        0.40557170761962       -0.39556134970771
C            5.08246984335449       -0.50144125574891        0.68592338841277
N            6.03674252769475       -1.06018219423370        1.39666666305688
C            7.28615843957906       -0.72840352712465        1.05338659334822
C            8.35496886639640       -1.30228677201513        1.78660983276738
N            9.23614663823088       -1.75290150544614        2.36333163740100
C            3.64647552810042       -0.64567633656505        0.79369782828998
C            2.78812846279636       -1.36495336698944        1.59213665924416
C            1.41084084673739       -1.22796297830149        1.37457473506984
C            0.86556950332883       -0.40560413481806        0.40158147129822
C           -0.59276300994392       -0.28742639190486        0.27459298334913
C           -1.38468990200028       -1.42818152190862        0.20098660411682
C           -2.76672977778322       -1.32700187628827        0.08485995740325
C           -3.59718003741441       -2.53827389449853       -0.00365840816648
C           -4.79429199002582       -2.62900124215314        0.70198624106276
C           -5.57144103904304       -3.76962041492838        0.62398145386819
C           -5.16832413333337       -4.83409629111486       -0.16477203858853
C           -3.98148962450386       -4.75253161307915       -0.87357430589976
C           -3.19960058730374       -3.61535148929343       -0.79177040040563
C           -3.35123547701390       -0.06500048562411        0.05419597421615
C           -2.57696146127040        1.08781237264406        0.13751614158194
C           -3.20668179165884        2.41698107140068        0.10764758054078
C           -4.38801468077206        2.65795519976688        0.80478089114187
C           -4.97856238663353        3.90751223945695        0.77772150315503
C           -4.40210009786710        4.93465072386833        0.04946165322747
C           -3.22860702140655        4.70565452361863       -0.64903009973337
C           -2.63343803313657        3.45833228530592       -0.61818008788544
C           -1.19561242010569        0.96631049598391        0.24560598225375
C            1.73433519413512        0.32522320959959       -0.45978538780857
C            1.38988063676719        1.14867488677384       -1.55561192253840
C            2.36552547961936        1.78342419904010       -2.29029480854937
C            3.73652063692136        1.64945149800526       -2.01373591299066
C            4.10682893529008        0.83207660310243       -0.97358288871858
C            3.10258019881225        0.17916908040430       -0.21910739887633
H            3.15652543821034       -2.01328072645459        2.37197564963273
H            0.73406376630725       -1.77444930948534        2.01599891098457
H           -0.91821071874869       -2.40193339530010        0.22988832587169
H           -5.10506322405626       -1.80808659773323        1.33194017601653
H           -6.49453632250868       -3.82956712813781        1.18183565743599
H           -5.77686720514626       -5.72393277820887       -0.22688305556462
H           -3.66430956378486       -5.57838880700673       -1.49348638174265
H           -2.28262283107941       -3.55075764606024       -1.35968200316059
H           -4.42041450203574        0.02131576879849       -0.07115962441302
H           -4.83329410531374        1.86547434058786        1.38856354218569
H           -5.89154060960537        4.08176545466228        1.32814536783923
H           -4.86530334622093        5.90977518315492        0.02660643911402
H           -2.77603439467773        5.50233700219573       -1.22127788537244
H           -1.72578833931841        3.28383736054560       -1.17804165014643
H           -0.58743993165155        1.85201633190299        0.35807517750588
H            0.35165737775424        1.26583795019907       -1.82851775143710
H            2.07039135875736        2.40671496790436       -3.12186758279637
H            4.47095598999639        2.16449639405531       -2.61311196660686
