$hessian                                                                        
        0.8143470899   0.4804003294   0.2554813319  -0.7667037962  -0.4411949625
       -0.2368284649  -0.0601790113  -0.0506254807  -0.0238625902   0.0213980883
       -0.0021152553  -0.0027302871  -0.0067896630  -0.0096664196  -0.0035340175
        0.0041720956   0.0084194638   0.0031410543  -0.0080714578   0.0051758667
       -0.0016405547   0.0032495377  -0.0028960498   0.0011398085  -0.0059478959
        0.0004254550  -0.0012283270   0.0034590037  -0.0107811526   0.0021426668
       -0.0138342318   0.0117282223  -0.0030454056   0.0140912158  -0.0150566637
        0.0060558584  -0.0063127401   0.0159150841  -0.0060280527   0.0149191081
       -0.0000471102  -0.0007288988  -0.0180151168   0.0165626714  -0.0057459318
        0.0211254476  -0.0135045763   0.0049861224  -0.0131814555   0.0082093336
       -0.0040405099   0.0049616384  -0.0167286306   0.0102325166   0.0013112044
        0.0011765541  -0.0008767704   0.0006198619   0.0007571436   0.0005553273
        0.0001755653  -0.0001799715  -0.0001646995  -0.0000732440  -0.0002286625
       -0.0002571697   0.0001546440  -0.0002663872  -0.0001634494  -0.0000950875
        0.0006549534   0.0004131276  -0.0007897456  -0.0010146855   0.0000724587
       -0.0012684346   0.0001286274   0.0004969101   0.0002740976  -0.0007529677
       -0.0005255780   0.0000456119   0.0004137261   0.0001892573  -0.0000876243
        0.0001674016  -0.0000159145   0.0003515514   0.0004614511   0.0003994885
        0.0009418285  -0.0004601508  -0.0010089078  -0.0111270144  -0.0004851908
       -0.0023322608   0.0108614731  -0.0005640497   0.0016886699  -0.0051880336
       -0.0020932169  -0.0030337638  -0.0013657975   0.0193430737   0.0118942611
        0.0020996239  -0.0007458722   0.0004666247   0.0006619822   0.0005245571
       -0.0019254787   0.0009903381  -0.0007847361   0.0011844007  -0.0000447497
        0.0001593539   0.0001898158   0.0003986279  -0.0014850876   0.0005637736
        0.0007417510   0.0021937291  -0.0013872605  -0.0014808410  -0.0015206533
        0.0013587947  -0.0007914825   0.0024096131  -0.0007002451  -0.0002851813
       -0.0020389266   0.0013028478   0.0010952937   0.0009627771  -0.0010645661
       -0.0004111888   0.0004652909  -0.0002089115   0.0006486634   0.0003171564
       -0.0002231818   0.0002170245  -0.0011052194   0.0005103363  -0.0000690013
        0.0003671949   0.0002515316   0.0000146049  -0.0003020655  -0.0000887017
       -0.0000273032  -0.0001396677   0.0001091308   0.0000538011  -0.0002149252
       -0.0001980259  -0.0001537421   0.0000638841   0.0000351243   0.0002598737
        0.0001039768  -0.0001364302  -0.0000974266  -0.0000740857  -0.0000717960
        0.0000060440   0.0001938142   0.0002607376   0.0000059189   0.0000005268
       -0.0000222415   0.0001578703   0.0001094876   0.0000866115   0.0000126999
        0.0000001964  -0.0000263587   0.0000079890  -0.0000070006  -0.0000116089
        0.0001094791  -0.0000686720  -0.0000826696  -0.0000075235   0.0000288252
       -0.0000255466  -0.0000212484  -0.0003187405  -0.0002005363  -0.0000574451
       -0.0003955202  -0.0000696982  -0.0002630892   0.0001293957  -0.0002176955
       -0.0005242632  -0.0001056912  -0.0001341121  -0.0006425224   0.0003590464
       -0.0003963278  -0.0000579333   0.0000461994  -0.0001421798  -0.0000119020
        0.0000577099  -0.0002170928   0.0000525336  -0.0000564230  -0.0000097172
        0.0000512080  -0.0000914260  -0.0001057054   0.0001651671  -0.0001121309
        0.0001017563  -0.0000483423  -0.0000866851   0.0000310579  -0.0001840217
       -0.0001169792   0.0001162390
        0.4804003294   0.3046600859   0.1544276756  -0.4412843684  -0.2976138990
       -0.1444205335  -0.0468271876  -0.0141913221  -0.0112040435   0.0119156662
       -0.0032073308  -0.0037303116  -0.0052509237  -0.0058341212  -0.0016119342
        0.0026546038   0.0056109666   0.0019914068  -0.0052082386   0.0029658641
       -0.0010749512   0.0019904147  -0.0015454605   0.0007433115  -0.0037103805
        0.0002825551  -0.0007943734   0.0021535840  -0.0064924737   0.0013301805
       -0.0086122660   0.0070365668  -0.0018921860   0.0086751217  -0.0093381596
        0.0037545858  -0.0039388685   0.0098478312  -0.0037359498   0.0092478156
       -0.0000399403  -0.0004429135  -0.0111789994   0.0102913215  -0.0035784954
        0.0131332663  -0.0084047844   0.0031053354  -0.0082020749   0.0051173898
       -0.0025210760   0.0030898096  -0.0103836259   0.0063511715   0.0008183856
        0.0007305148  -0.0005465908   0.0003848299   0.0004524423   0.0003402154
        0.0000940516  -0.0001093786  -0.0000950643  -0.0000432826  -0.0001347233
       -0.0001585246   0.0000806919  -0.0001539054  -0.0000845370  -0.0000515010
        0.0003778438   0.0002352983  -0.0004799274  -0.0006055412   0.0000663803
       -0.0007684951   0.0000646731   0.0002838197   0.0001640342  -0.0004337831
       -0.0003088161   0.0000207772   0.0002318358   0.0001051918  -0.0000506257
        0.0001003829  -0.0000188714   0.0002066283   0.0002648622   0.0002449354
        0.0005825061  -0.0002779782  -0.0006145727  -0.0068706931  -0.0002770632
       -0.0014566724   0.0068467393  -0.0004156206   0.0010634705  -0.0033573576
       -0.0003615704  -0.0011357770   0.0025864311   0.0128918547   0.0070891007
        0.0014301154  -0.0005867239  -0.0006752672   0.0000672725   0.0000167133
       -0.0010755594   0.0008539143  -0.0007360997   0.0003534948  -0.0002686788
        0.0000361571   0.0001526342   0.0002211018  -0.0008459229   0.0002856755
        0.0003443484   0.0011863585  -0.0007539274  -0.0009994586  -0.0006867893
        0.0006699089  -0.0003895951   0.0013362633  -0.0003589559  -0.0001747497
       -0.0009749540   0.0006136938   0.0005269338   0.0004518551  -0.0005048985
       -0.0002050426   0.0001494102  -0.0001234734   0.0003704163   0.0002017294
       -0.0001811126   0.0001440773  -0.0002826607   0.0004813509  -0.0005367486
        0.0002836366   0.0001138484  -0.0002952165  -0.0003810763  -0.0000185948
        0.0000057964  -0.0000854901   0.0000773990   0.0000339618  -0.0001354100
       -0.0001236817  -0.0000992749   0.0000388806   0.0000264319   0.0001717408
        0.0000578583  -0.0000950892  -0.0000653476  -0.0000332776  -0.0000524953
        0.0000140251   0.0001175204   0.0001598398   0.0000051485  -0.0000006433
       -0.0000110398   0.0000938296   0.0000558031   0.0000522601   0.0000029898
        0.0000007067  -0.0000154242   0.0000014556  -0.0000082401  -0.0000088047
        0.0000567109  -0.0000386683  -0.0000450510  -0.0000074705   0.0000216259
       -0.0000171184  -0.0000036418  -0.0001924389  -0.0001303034  -0.0000298748
       -0.0002435338  -0.0000449441  -0.0001720155   0.0000846789  -0.0001258497
       -0.0000709139   0.0000948161   0.0000612090  -0.0003601703   0.0000871465
       -0.0003216677   0.0000329735   0.0000687791  -0.0001303985   0.0000129826
        0.0000564760  -0.0001081355   0.0000470075  -0.0000010184   0.0000141769
        0.0000229916  -0.0000505041  -0.0000406683   0.0000945416  -0.0000604080
        0.0000770274  -0.0000196851  -0.0000511052   0.0000274969  -0.0000669473
       -0.0000577593   0.0000901289
        0.2554813319   0.1544276756   0.0985266185  -0.2355316844  -0.1436466856
       -0.1052692019  -0.0233320767  -0.0117446058   0.0051952346   0.0053654993
       -0.0027483295  -0.0001538421  -0.0026343222  -0.0020880344  -0.0014073934
        0.0011693523   0.0024853026   0.0010684103  -0.0023472021   0.0012687886
       -0.0003475778   0.0009448981  -0.0006569951   0.0003399188  -0.0017366451
        0.0001810963  -0.0003451231   0.0010285368  -0.0029275491   0.0006029791
       -0.0038417219   0.0031192761  -0.0008811338   0.0039427564  -0.0040815168
        0.0016463485  -0.0017686862   0.0043407162  -0.0016241857   0.0041340652
       -0.0000319517  -0.0001903023  -0.0050051243   0.0044867538  -0.0015814135
        0.0059068016  -0.0037716930   0.0014187355  -0.0036778406   0.0022960711
       -0.0011314215   0.0014711521  -0.0045244001   0.0027444500   0.0003382465
        0.0002944952  -0.0002255177   0.0001555401   0.0001883568   0.0001171200
        0.0000051778  -0.0000420685  -0.0000239114  -0.0000170690  -0.0000336419
       -0.0000475834  -0.0000102812  -0.0000147017   0.0000080133   0.0000087700
        0.0000673125   0.0000425363  -0.0001939940  -0.0001748450   0.0000448298
       -0.0002744623  -0.0000226785   0.0000816984   0.0000481602  -0.0000852318
       -0.0000667974   0.0000008334   0.0000221175   0.0000139309  -0.0000115044
        0.0000098122  -0.0000279783   0.0000626644   0.0000740211   0.0001071054
        0.0002267913  -0.0000976100  -0.0002461318  -0.0031219454  -0.0000593741
       -0.0006073219   0.0031193157  -0.0002193607   0.0004820971  -0.0015745570
        0.0000451705  -0.0010105690   0.0015686129   0.0048692670   0.0048474524
        0.0006178732  -0.0000071244  -0.0000515412   0.0001970670   0.0001361275
       -0.0010584144   0.0000457757  -0.0005646660  -0.0008358513  -0.0003416171
       -0.0001112611   0.0000532720   0.0001680190  -0.0004540936   0.0002190900
        0.0002668253   0.0005352558  -0.0003823690  -0.0005993503  -0.0002387250
        0.0003770793  -0.0000402285   0.0005378287  -0.0002182822  -0.0000832379
       -0.0004639836   0.0003060156   0.0002181855   0.0001911246  -0.0002094413
       -0.0000572241  -0.0000136827   0.0000000030   0.0002104789   0.0001801935
       -0.0000694109   0.0000320030  -0.0004250830   0.0002237402  -0.0002745066
        0.0000500989   0.0002474448  -0.0002233325  -0.0001177026  -0.0001733000
        0.0000015889  -0.0000575327   0.0000180956   0.0000143876  -0.0000770152
       -0.0000606242  -0.0000598329   0.0000154758   0.0000074757   0.0000841156
        0.0000326946  -0.0000381236  -0.0000245074  -0.0000134747  -0.0000245730
        0.0000052365   0.0000595173   0.0000720788   0.0000067054  -0.0000057102
       -0.0000158146   0.0000453987   0.0000304040   0.0000202197  -0.0000012058
       -0.0000045679  -0.0000057854  -0.0000025775  -0.0000055045  -0.0000041353
        0.0000279050  -0.0000208440  -0.0000254359  -0.0000054451   0.0000166420
       -0.0000006869  -0.0000038864  -0.0000909832  -0.0000652914  -0.0000189939
       -0.0001211282  -0.0000257875  -0.0000848436   0.0000548543  -0.0000715990
       -0.0000655619   0.0001764456  -0.0002666583   0.0000425298  -0.0002030233
       -0.0001109735  -0.0000243787  -0.0000401473   0.0000456543   0.0000431958
        0.0000130169  -0.0000394188   0.0000493578  -0.0000316621   0.0000111697
       -0.0000047108  -0.0000153776  -0.0000269669   0.0000404268  -0.0000414131
        0.0000370345  -0.0000156072  -0.0000375247   0.0000109649  -0.0000854165
       -0.0000724089   0.0000310736
       -0.7667037962  -0.4412843684  -0.2355316844   1.0280826367   0.5528896223
        0.2931607929  -0.1901111297  -0.0700239189  -0.0397486283  -0.0772478706
       -0.0084363267  -0.0001361158   0.0087974645   0.0222575769   0.0093716141
       -0.0094015272  -0.0160426424  -0.0061367517   0.0148041384  -0.0063880404
        0.0029801852  -0.0054208513   0.0031292563  -0.0020232158   0.0098657399
       -0.0006120975   0.0020129212  -0.0057716658   0.0163423449  -0.0034404429
        0.0221831746  -0.0176236562   0.0048580676  -0.0221628092   0.0238077179
       -0.0095605295   0.0099540737  -0.0251697073   0.0095412694  -0.0237122919
        0.0000730401   0.0011730476   0.0287099615  -0.0262408197   0.0091765203
       -0.0337003864   0.0215128558  -0.0080301141   0.0210527015  -0.0130990693
        0.0064668502  -0.0079789759   0.0264562244  -0.0160991322  -0.0020417952
       -0.0017874629   0.0013096427  -0.0009428031  -0.0011209817  -0.0008189049
       -0.0002638420   0.0002701412   0.0002353382   0.0000815293   0.0003542415
        0.0004072900  -0.0001912876   0.0004040511   0.0002192261   0.0001500287
       -0.0009423174  -0.0006107851   0.0012240658   0.0015111395  -0.0001531301
        0.0019341456  -0.0001518785  -0.0007188483  -0.0003877361   0.0011210541
        0.0007758389  -0.0000384061  -0.0005992791  -0.0002857521   0.0001131067
       -0.0002811504   0.0000292759  -0.0005511087  -0.0006938768  -0.0006113945
       -0.0014129976   0.0006824691   0.0015234592   0.0176425263   0.0007628763
        0.0036552716  -0.0182179160   0.0009579709  -0.0027660678   0.0124560514
        0.0026363677   0.0047836345  -0.0065145194  -0.0477545310  -0.0273066514
       -0.0044508791   0.0036228511   0.0005191855  -0.0003532735   0.0000408879
        0.0025458834  -0.0013432199   0.0007378925  -0.0013641629   0.0000324508
       -0.0001023134  -0.0003664288  -0.0004322368   0.0018674630  -0.0007565343
       -0.0008988429  -0.0029397423   0.0017903279   0.0021331303   0.0019299319
       -0.0017549091   0.0010976243  -0.0031975314   0.0007751020   0.0004338456
        0.0026918643  -0.0017553802  -0.0013741438  -0.0013258926   0.0013670835
        0.0005279433  -0.0006656601   0.0003951518  -0.0008862840  -0.0003765542
        0.0002463268  -0.0003340947   0.0009189204  -0.0004329465   0.0010921820
       -0.0010088874  -0.0008938012  -0.0011143402  -0.0001298881   0.0001084202
        0.0000391795   0.0002526314  -0.0001966266  -0.0000859854   0.0003373939
        0.0003290673   0.0002445495  -0.0000864657  -0.0000579017  -0.0003923781
       -0.0001804059   0.0002494455   0.0001505565   0.0000901511   0.0001256232
       -0.0000156010  -0.0002935116  -0.0003964273  -0.0000041175  -0.0000018165
        0.0000288849  -0.0002359239  -0.0001536889  -0.0001349537  -0.0000164345
       -0.0000004060   0.0000400138  -0.0000082694   0.0000121755   0.0000207581
       -0.0001562387   0.0001027859   0.0001213984   0.0000147446  -0.0000385718
        0.0000458642   0.0000324898   0.0004827129   0.0003143253   0.0001034547
        0.0006011726   0.0000864417   0.0004768070  -0.0001887931   0.0003872517
        0.0005370357   0.0000085001   0.0002490625   0.0010750043  -0.0004978296
        0.0004092432   0.0000327986  -0.0000821309   0.0002045891  -0.0000163828
       -0.0000789419   0.0003202318  -0.0001118013   0.0000749464   0.0000074905
       -0.0000989243   0.0001492945   0.0001491797  -0.0002572934   0.0001709685
       -0.0001641221   0.0000597525   0.0001503310  -0.0000486812   0.0002254878
        0.0001893316  -0.0002155732
       -0.4411949625  -0.2976138990  -0.1436466856   0.5528896223   0.4257660987
        0.1931613235  -0.0739734025  -0.0959564081  -0.0318290801  -0.0249972780
        0.0091236225   0.0068391806   0.0112165431   0.0126421766   0.0017911784
       -0.0068327529  -0.0099435785  -0.0032277583   0.0097158789  -0.0037578985
        0.0022631574  -0.0033915841   0.0015617008  -0.0013641055   0.0062080637
       -0.0003329046   0.0013440865  -0.0036448573   0.0100601243  -0.0021663510
        0.0141106639  -0.0108118167   0.0030483062  -0.0139254477   0.0151995980
       -0.0060863209   0.0063593670  -0.0160224953   0.0061081712  -0.0151028443
        0.0000488843   0.0007533696   0.0183315764  -0.0168330872   0.0058815536
       -0.0215376345   0.0137500076  -0.0051357650   0.0134742892  -0.0083942306
        0.0041345355  -0.0050194116   0.0169540346  -0.0103158384  -0.0013163358
       -0.0011581840   0.0008389839  -0.0006142694  -0.0007119054  -0.0005362679
       -0.0001834677   0.0001736747   0.0001588816   0.0000444218   0.0002471152
        0.0002639256  -0.0001375625   0.0002882053   0.0001603409   0.0001152183
       -0.0006405486  -0.0004180348   0.0007906537   0.0009812076  -0.0000827457
        0.0012597034  -0.0001059548  -0.0004771458  -0.0002602920   0.0007586953
        0.0005215112  -0.0000252280  -0.0004055301  -0.0002028916   0.0000757009
       -0.0002002027   0.0000108573  -0.0003521255  -0.0004471655  -0.0003897447
       -0.0009181334   0.0004413128   0.0009825411   0.0111382489   0.0005021870
        0.0023569199  -0.0116403674   0.0006908328  -0.0017300757   0.0091383600
       -0.0030148163  -0.0015303797  -0.0270247830  -0.0436984156  -0.0235207938
       -0.0042635308   0.0012298926   0.0016792587   0.0001262961  -0.0000873196
        0.0007227580  -0.0009326659   0.0006198665  -0.0011921508   0.0002038849
       -0.0001067477  -0.0001761320  -0.0002664348   0.0010038960  -0.0003539800
       -0.0004696111  -0.0014967996   0.0009553522   0.0011347887   0.0011019416
       -0.0009560760   0.0004156659  -0.0018000832   0.0005358070   0.0002319482
        0.0014051126  -0.0008738481  -0.0007658491  -0.0006568831   0.0007193328
        0.0004116343  -0.0003028506   0.0001854443  -0.0004890391  -0.0000830971
        0.0002040148  -0.0001417970  -0.0000234676  -0.0005052380   0.0020226771
       -0.0005699979   0.0005480412   0.0007141504   0.0006499886   0.0000499902
        0.0000350967   0.0001931033  -0.0001473597  -0.0000509514   0.0002062147
        0.0002161410   0.0001591834  -0.0000588913  -0.0000686073  -0.0002729945
       -0.0001177361   0.0001661370   0.0001001255   0.0000370645   0.0000838444
       -0.0000235708  -0.0001918285  -0.0002455844   0.0000011137  -0.0000075903
        0.0000143768  -0.0001372053  -0.0000757499  -0.0000795772  -0.0000055161
       -0.0000050502   0.0000251067  -0.0000030914   0.0000136136   0.0000165032
       -0.0000794968   0.0000552568   0.0000594575   0.0000076836  -0.0000226743
        0.0000295729   0.0000011030   0.0002934857   0.0001979361   0.0000555365
        0.0003670543   0.0000529419   0.0002393255  -0.0001171662   0.0001937185
       -0.0007770795  -0.0009073573  -0.0004329884   0.0003705131  -0.0000128235
        0.0002419900  -0.0000541422  -0.0000978175   0.0001969237  -0.0000365694
       -0.0000730698   0.0001828410  -0.0001025707   0.0000137242   0.0000391863
       -0.0000589645   0.0001103346   0.0000768648  -0.0001493348   0.0001111603
       -0.0001060354   0.0000166065   0.0001087470  -0.0000429746   0.0000575108
        0.0001541077  -0.0001718284
       -0.2368284649  -0.1444205335  -0.1052692019   0.2931607929   0.1931613235
        0.1675282172  -0.0419028520  -0.0336540157  -0.0577228067  -0.0069704650
        0.0052914061   0.0031085358   0.0052239449   0.0004540277   0.0049013100
       -0.0017031541  -0.0023954940  -0.0014436617   0.0027173293  -0.0014951086
       -0.0000505261  -0.0012537074   0.0010856764  -0.0003355814   0.0020427906
       -0.0002276190   0.0003242884  -0.0013025647   0.0037013549  -0.0007307152
        0.0046224209  -0.0040691342   0.0011421305  -0.0048913536   0.0047428807
       -0.0019419306   0.0021508241  -0.0051233937   0.0018727545  -0.0049517122
        0.0000993737   0.0001698464   0.0060155406  -0.0051809182   0.0018521395
       -0.0071762618   0.0045853000  -0.0017709865   0.0044358200  -0.0027634043
        0.0013879469  -0.0018614745   0.0051998143  -0.0031028262  -0.0003453242
       -0.0002869853   0.0002052751  -0.0001957716  -0.0002839086  -0.0001264227
        0.0000510444   0.0000538293  -0.0000060540   0.0000242400  -0.0000066918
        0.0000316337   0.0000604902  -0.0000534510  -0.0000740344  -0.0000725705
        0.0000298087   0.0000317824   0.0002182733   0.0001347401  -0.0001199300
        0.0002635841   0.0000763265  -0.0000212632  -0.0000464833  -0.0000321925
        0.0000040223   0.0000095285   0.0000656687   0.0000394563  -0.0000094383
        0.0000459342   0.0000538877  -0.0000318940  -0.0000355599  -0.0001166697
       -0.0002974412   0.0001216537   0.0002977090   0.0038643844   0.0000000717
        0.0007290807  -0.0036979433   0.0002326757  -0.0005533887   0.0033154604
       -0.0034791366   0.0029158162  -0.0144937544  -0.0166916643  -0.0100026387
       -0.0009783154   0.0005776167  -0.0013394195  -0.0001737693  -0.0010748047
        0.0010794098   0.0000419542   0.0002282063  -0.0009712331   0.0000850870
        0.0000643267  -0.0001245472  -0.0001478973   0.0005203074  -0.0001425724
       -0.0003305134  -0.0007256476   0.0004957229   0.0008295703   0.0004845960
       -0.0004641036   0.0000215946  -0.0006260342   0.0002908550   0.0001328417
        0.0007020309  -0.0004489268  -0.0003836081  -0.0003334017   0.0003837330
        0.0001552160  -0.0000787746  -0.0000306899  -0.0003235329  -0.0001731012
        0.0001620751  -0.0002317388   0.0005684752  -0.0001642931   0.0008747226
        0.0006898350  -0.0015790483   0.0005521080   0.0002146939   0.0002510831
        0.0000231670   0.0001261323  -0.0000271790  -0.0000137060   0.0001005553
        0.0000619985   0.0000886233  -0.0000207370   0.0000024707  -0.0001051327
       -0.0000444377   0.0000356898   0.0000286786   0.0000176531   0.0000414332
        0.0000009144  -0.0000751095  -0.0000924233  -0.0000126299   0.0000226792
        0.0000208144  -0.0000622990  -0.0000470596  -0.0000333185   0.0000048550
        0.0000115150  -0.0000008205   0.0000101193   0.0000072957  -0.0000026606
       -0.0000431242   0.0000280567   0.0000413077   0.0000114653  -0.0000325666
       -0.0000019268   0.0000124446   0.0001165330   0.0000970878   0.0000487714
        0.0001640830   0.0000128655   0.0001443446  -0.0000598556   0.0001034298
       -0.0003766378  -0.0007827946   0.0005235494   0.0000748005   0.0001775662
       -0.0013805737  -0.0000135003   0.0000393127   0.0000572575  -0.0000662993
        0.0000105001   0.0001115572  -0.0000836184   0.0000239225  -0.0000273220
       -0.0000190029   0.0000386745   0.0000120996  -0.0000577956   0.0000685139
       -0.0000532909   0.0000128910   0.0000546980  -0.0000283553   0.0001251139
        0.0001338900  -0.0000789304
       -0.0601790113  -0.0468271876  -0.0233320767  -0.1901111297  -0.0739734025
       -0.0419028520   0.6057767495   0.0310313880  -0.0019653556  -0.1984052684
        0.0871063137   0.0542763805  -0.0761843969  -0.0347366739  -0.0098214307
        0.0125147424   0.0248678033   0.0100613012  -0.0171001395   0.0010037742
       -0.0041604402   0.0052996594   0.0007512415   0.0025751208  -0.0095034300
        0.0004739647  -0.0020891801   0.0053829603  -0.0122385773   0.0029584933
       -0.0194378358   0.0123302745  -0.0041462384   0.0181023580  -0.0203672703
        0.0082244136  -0.0083647938   0.0213937605  -0.0081306838   0.0199569910
       -0.0000804330  -0.0010478312  -0.0242898086   0.0227854138  -0.0078180528
        0.0285745511  -0.0182243393   0.0067086177  -0.0178659579   0.0110946831
       -0.0054570072   0.0063513558  -0.0228107313   0.0138917705   0.0018086573
        0.0016549831  -0.0011882398   0.0008878955   0.0011442041   0.0008597607
        0.0004291361  -0.0002894734  -0.0003192690  -0.0000891109  -0.0004247897
       -0.0004142055   0.0003786077  -0.0005610101  -0.0004035956  -0.0002486447
        0.0012516375   0.0008096843  -0.0011904552  -0.0017109661  -0.0000092740
       -0.0019949005   0.0003372204   0.0008808825   0.0004527943  -0.0014227374
       -0.0009589555   0.0000974851   0.0008569983   0.0003906709  -0.0001495517
        0.0003235845   0.0000558240   0.0005832933   0.0008122535   0.0005772466
        0.0013770598  -0.0007171351  -0.0015273684  -0.0145047685  -0.0007647994
       -0.0033044786   0.0176237165  -0.0007985303   0.0021979421  -0.0083040776
       -0.0178922373  -0.0117585995  -0.0575079034   0.0078546376   0.0103699897
       -0.0087353553   0.0290231933   0.0116626992   0.0026524936   0.0028444201
       -0.0026120488   0.0006084740  -0.0009891495   0.0014303114  -0.0003869845
        0.0000482467   0.0001341258   0.0003423842  -0.0016552190   0.0006494209
        0.0007560117   0.0023015846  -0.0016532551  -0.0025293043  -0.0013313472
        0.0013165721  -0.0023228256   0.0035957653  -0.0012062135  -0.0006371932
       -0.0024736947   0.0014340282   0.0010540947   0.0010630992  -0.0010960976
       -0.0003808623   0.0000810795  -0.0003448389   0.0008801695   0.0007903881
       -0.0005937104  -0.0011320356  -0.0023059020   0.0045828258  -0.0032579747
        0.0033468924   0.0024884861  -0.0032717901  -0.0035873425  -0.0004906266
       -0.0000443832  -0.0002685214   0.0001695924   0.0001208673  -0.0001977907
       -0.0003085479  -0.0001968815   0.0000781480   0.0001618047   0.0003118943
        0.0001523848  -0.0001627232  -0.0001513647  -0.0001045956  -0.0000808327
       -0.0000347572   0.0002464986   0.0003581907  -0.0000064056   0.0000332777
       -0.0000057263   0.0002291889   0.0001850545   0.0001366150   0.0000492539
        0.0000102457  -0.0000481335   0.0000396096   0.0000167637  -0.0000148124
        0.0001789380  -0.0001091628  -0.0001384083  -0.0000115695  -0.0000050678
       -0.0000521358  -0.0000732485  -0.0004527496  -0.0002573377  -0.0000886091
       -0.0004881838  -0.0000584468  -0.0002940466  -0.0000850812  -0.0002839932
       -0.0037756951  -0.0030882904  -0.0005726227  -0.0002985729   0.0003916383
        0.0002497335   0.0000022048   0.0000459755  -0.0001308275   0.0000636587
        0.0001045356  -0.0002162979   0.0001105395  -0.0000358548   0.0000278191
       -0.0000245487   0.0000259839  -0.0000750607   0.0002210366  -0.0000829651
        0.0001795843  -0.0000282303  -0.0000585570   0.0000263818  -0.0001050093
       -0.0002995423   0.0003115420
       -0.0506254807  -0.0141913221  -0.0117446058  -0.0700239189  -0.0959564081
       -0.0336540157   0.0310313880   0.4419444163   0.1857984408   0.0675270642
       -0.0997409278  -0.0354883091   0.0034148252   0.0020815548   0.0014081932
        0.0169187558   0.0113677407   0.0051764835  -0.0157096520   0.0035020876
       -0.0021785257   0.0048991868  -0.0009043460   0.0021163500  -0.0095990701
        0.0001997519  -0.0020421144   0.0049933701  -0.0136713195   0.0031179787
       -0.0192867299   0.0135879039  -0.0041438298   0.0178647894  -0.0208567732
        0.0082726212  -0.0078313013   0.0212829815  -0.0082988383   0.0189138663
        0.0001834788  -0.0011925290  -0.0226006246   0.0224365789  -0.0074902226
        0.0259270888  -0.0166175343   0.0057604320  -0.0162881731   0.0101337404
       -0.0048647373   0.0053925033  -0.0229954144   0.0143969108   0.0020120219
        0.0019115562  -0.0014374684   0.0009197265   0.0010055761   0.0010661054
        0.0007334582  -0.0002866433  -0.0004680739  -0.0001109486  -0.0006750437
       -0.0005650538   0.0007703013  -0.0010165667  -0.0008140678  -0.0005544287
        0.0020708945   0.0013332267  -0.0012357166  -0.0023324638  -0.0003187982
       -0.0024052358   0.0007640001   0.0013029604   0.0006423658  -0.0023083803
       -0.0015129687   0.0001939658   0.0015068483   0.0007037457  -0.0002816729
        0.0006433329   0.0002070092   0.0008075389   0.0010860185   0.0005771204
        0.0014448844  -0.0008198903  -0.0016580098  -0.0139276673  -0.0013224608
       -0.0031905385   0.0176540954  -0.0005926459   0.0025672329  -0.0422018106
       -0.0345033263  -0.0212611853   0.0079544644  -0.1730938700  -0.0615337728
        0.0282238516  -0.0248324767  -0.0137406032  -0.0030681642  -0.0023903995
       -0.0008392031   0.0007418587  -0.0002074753   0.0001439482  -0.0005242134
       -0.0001366593   0.0004095061   0.0003070604  -0.0009369318   0.0003196041
        0.0005541342   0.0015929983  -0.0008651028  -0.0017379404  -0.0015740553
        0.0012315015  -0.0001173361   0.0019799960  -0.0004065888  -0.0001564119
       -0.0013266397   0.0008225827   0.0005404789   0.0005470575  -0.0004993827
       -0.0003396788   0.0005223791  -0.0003911581   0.0004621774  -0.0000410631
        0.0002743015   0.0007665764   0.0028912619  -0.0009662501   0.0227340608
       -0.0117057181  -0.0082050171  -0.0029788241   0.0007731732  -0.0035811854
       -0.0000805039   0.0000887916   0.0000589109   0.0000818378  -0.0000934437
       -0.0003441998   0.0000037519   0.0001011766  -0.0000230281   0.0002894093
        0.0001555474  -0.0002670664  -0.0001213278  -0.0000978611  -0.0000510999
        0.0000282871   0.0001799808   0.0002935612  -0.0000412453   0.0001068896
        0.0000557940   0.0001464700   0.0000638942   0.0001041392   0.0000465198
        0.0000589864  -0.0000750534   0.0000580607   0.0000140188  -0.0000422043
        0.0000824150  -0.0000519480  -0.0000392268   0.0000146115  -0.0000673970
       -0.0000981472   0.0000063908  -0.0003326163  -0.0001464850   0.0000086570
       -0.0003571791  -0.0000981986  -0.0001558980   0.0001707130  -0.0000753429
       -0.0028025556   0.0009279034  -0.0029491713  -0.0001422669   0.0006320186
       -0.0000481663  -0.0000299912   0.0000553622  -0.0000501843   0.0000019005
        0.0000588594  -0.0001128523   0.0000857774   0.0000139450   0.0000314880
        0.0000465725  -0.0001060678  -0.0000707926   0.0000986751  -0.0000579421
        0.0000989197  -0.0000617156  -0.0000791543   0.0000190466  -0.0003046910
       -0.0003630493   0.0001752609
       -0.0238625902  -0.0112040435   0.0051952346  -0.0397486283  -0.0318290801
       -0.0577228067  -0.0019653556   0.1857984408   0.1969363712   0.0441614236
       -0.0363813111  -0.0635839012   0.0077493057   0.0060430473   0.0046605013
        0.0067018710   0.0026852331  -0.0050260368  -0.0048353823   0.0010193261
       -0.0006948355   0.0015266868  -0.0003081114   0.0006432448  -0.0029866717
        0.0002380958  -0.0005868208   0.0016077014  -0.0041128494   0.0009577634
       -0.0061079668   0.0040823184  -0.0013852047   0.0056753872  -0.0063913672
        0.0025629607  -0.0025363045   0.0065886789  -0.0025302711   0.0059680612
       -0.0000144521  -0.0003355735  -0.0071981858   0.0069491007  -0.0023457158
        0.0084116807  -0.0053837256   0.0019107957  -0.0052457406   0.0032715274
       -0.0015868731   0.0018665162  -0.0070533139   0.0043949205   0.0006175433
        0.0005778123  -0.0004480016   0.0002725982   0.0003193388   0.0002886437
        0.0001393979  -0.0000741857  -0.0001068331  -0.0000404917  -0.0001422936