 Entering Gaussian System
 *********************************************
 Gaussian 98:
 frequency output generated by the xtb code
 *********************************************
                         Standard orientation:
 --------------------------------------------------------------------
  Center     Atomic     Atomic              Coordinates (Angstroms)
  Number     Number      Type              X           Y           Z
 --------------------------------------------------------------------
    1          6             0        6.334249   -0.408791    0.314386
    2          6             0        4.942976   -0.223671    0.953948
    3          6             0        5.069968   -0.227514    2.490948
    4          6             0        4.071343   -1.382074    0.535146
    5          6             0        4.421298   -2.675575    0.853012
    6          6             0        3.664137   -3.773083    0.453592
    7          6             0        2.509242   -3.567337   -0.326947
    8          6             0        2.125616   -2.302291   -0.656035
    9          6             0        2.870112   -1.173778   -0.219958
   10          7             0        2.444273    0.088470   -0.520058
   11          6             0        1.207060    0.242479   -1.205376
   12          6             0        1.199361    0.526863   -2.587830
   13          6             0       -0.008043    0.665198   -3.241965
   14          6             0       -1.207079    0.532719   -2.563158
   15          6             0       -1.190873    0.250212   -1.181095
   16          7             0       -2.417066    0.109890   -0.472655
   17          6             0       -3.062012    1.244726   -0.020634
   18          6             0       -2.487363    2.500465   -0.249515
   19          6             0       -3.107673    3.652361    0.181874
   20          6             0       -4.314881    3.574086    0.855065
   21          6             0       -4.880449    2.334631    1.091580
   22          6             0       -4.278000    1.157772    0.669085
   23          6             0       -4.940950   -0.172651    0.966704
   24          6             0       -6.330459   -0.191724    0.303063
   25          6             0       -5.078121   -0.323642    2.493120
   26          6             0       -4.133611   -1.339121    0.432184
   27          6             0       -4.593997   -2.635057    0.619019
   28          6             0       -3.905244   -3.734632    0.141094
   29          6             0       -2.723076   -3.545326   -0.554287
   30          6             0       -2.243033   -2.270078   -0.754673
   31          6             0       -2.930380   -1.155188   -0.261189
   32          6             0        0.011733    0.107121   -0.513062
   33          6             0        3.142720    1.211652   -0.176646
   34          6             0        2.629983    2.496165   -0.494650
   35          6             0        3.325279    3.626874   -0.183061
   36          6             0        4.565965    3.531960    0.475314
   37          6             0        5.059064    2.278673    0.822561
   38          6             0        4.386944    1.112572    0.526056
   39          1             0        6.246126   -0.401011   -0.770169
   40          1             0        6.773717   -1.354888    0.617156
   41          1             0        7.005146    0.392139    0.611504
   42          1             0        4.088125   -0.102253    2.943112
   43          1             0        5.709430    0.583798    2.826676
   44          1             0        5.493352   -1.164667    2.840654
   45          1             0        5.317015   -2.860443    1.427615
   46          1             0        3.967598   -4.771305    0.724163
   47          1             0        1.933868   -4.415305   -0.665679
   48          1             0        1.249955   -2.142252   -1.265174
   49          1             0        2.137095    0.626057   -3.110959
   50          1             0       -0.017025    0.878999   -4.300737
   51          1             0       -2.152844    0.639426   -3.069496
   52          1             0       -1.544980    2.562682   -0.770783
   53          1             0       -2.647456    4.610705   -0.006625
   54          1             0       -4.811286    4.469525    1.196704
   55          1             0       -5.819384    2.289921    1.622527
   56          1             0       -6.946879    0.623987    0.670521
   57          1             0       -6.226661   -0.085283   -0.775159
   58          1             0       -6.845033   -1.126529    0.507345
   59          1             0       -5.563750   -1.261435    2.748075
   60          1             0       -4.093177   -0.309662    2.956114
   61          1             0       -5.665556    0.488572    2.912068
   62          1             0       -5.518613   -2.798483    1.151849
   63          1             0       -4.291276   -4.728919    0.306237
   64          1             0       -2.174811   -4.390602   -0.942344
   65          1             0       -1.326575   -2.123790   -1.304156
   66          1             0        0.021970   -0.112951    0.544947
   67          1             0        1.674843    2.567508   -0.990840
   68          1             0        2.925293    4.597108   -0.435150
   69          1             0        5.121421    4.422548    0.720899
   70          1             0        6.002427    2.232355    1.346448
 --------------------------------------------------------------------
     1 basis functions        1 primitive gaussians
     1 alpha electrons        1 beta electrons
 
 Harmonic frequencies (cm**-1), IR intensities (km*mol⁻¹),
 Raman scattering activities (A**4/amu), Raman depolarization ratios,
 reduced masses (AMU), force constants (mDyne/A) and normal coordinates:
                      1                      2                      3
                        a                      a                      a 
 Frequencies --     3.5454                 5.6222                11.8055
 Red. masses --    10.7761                10.7395                10.1391
 Frc consts  --     0.0000                 0.0000                 0.0000
 IR Inten    --     0.1467                 0.0814                 0.6947
 Raman Activ --     0.0000                 0.0000                 0.0000
 Depolar     --     0.0000                 0.0000                 0.0000
 Atom AN      X      Y      Z        X      Y      Z        X      Y      Z
   1   6    -0.02  -0.11  -0.04    -0.03  -0.15   0.04     0.06  -0.00  -0.34
   2   6     0.01   0.01  -0.01    -0.03  -0.09   0.01     0.15  -0.02  -0.14
   3   6     0.06   0.11  -0.01    -0.07  -0.09   0.01     0.37  -0.05  -0.16
   4   6    -0.06   0.02   0.10    -0.07  -0.05  -0.01     0.09  -0.01  -0.04
   5   6    -0.12   0.03   0.18    -0.14  -0.06  -0.01     0.14  -0.02  -0.10
   6   6    -0.18   0.04   0.27    -0.17  -0.03  -0.04     0.10  -0.02  -0.02
   7   6    -0.17   0.04   0.26    -0.13   0.03  -0.09     0.00  -0.01   0.13
   8   6    -0.11   0.04   0.17    -0.07   0.04  -0.09    -0.04  -0.01   0.18
   9   6    -0.06   0.03   0.10    -0.04   0.01  -0.05     0.00  -0.01   0.11
  10   7    -0.01   0.04   0.03     0.00   0.03  -0.03    -0.02  -0.01   0.15
  11   6    -0.00   0.05   0.02     0.00   0.09  -0.01    -0.01  -0.00   0.12
  12   6     0.01   0.09   0.03    -0.01   0.17   0.01     0.03   0.02   0.13
  13   6     0.02   0.11   0.02    -0.01   0.21   0.02     0.04   0.04   0.10
  14   6     0.01   0.08   0.01    -0.01   0.17   0.02     0.03   0.03   0.07
  15   6    -0.00   0.03   0.00     0.00   0.08   0.01    -0.01   0.01   0.07
  16   7    -0.01   0.00  -0.02     0.01   0.04   0.01    -0.03   0.01   0.03
  17   6    -0.01  -0.02   0.04    -0.06   0.02  -0.05    -0.06   0.01  -0.02
  18   6    -0.02  -0.01   0.09    -0.13   0.04  -0.09    -0.06   0.01  -0.00
  19   6    -0.02  -0.03   0.15    -0.21   0.03  -0.15    -0.09   0.01  -0.05
  20   6    -0.01  -0.07   0.15    -0.21  -0.02  -0.16    -0.12   0.01  -0.11
  21   6    -0.00  -0.08   0.10    -0.14  -0.04  -0.11    -0.12   0.01  -0.12
  22   6    -0.00  -0.06   0.05    -0.06  -0.02  -0.05    -0.09   0.01  -0.07
  23   6     0.00  -0.07  -0.01     0.02  -0.05   0.01    -0.09   0.01  -0.08
  24   6    -0.00  -0.05   0.01     0.02  -0.17   0.01    -0.06  -0.01  -0.14
  25   6     0.03  -0.15  -0.01     0.03   0.02   0.02    -0.16   0.03  -0.08
  26   6     0.00  -0.05  -0.07     0.10  -0.02   0.07    -0.06   0.01  -0.03
  27   6     0.00  -0.06  -0.13     0.18  -0.04   0.14    -0.06   0.01  -0.03
  28   6     0.00  -0.03  -0.20     0.24  -0.02   0.18    -0.03   0.01   0.01
  29   6    -0.01   0.01  -0.20     0.22   0.02   0.16    -0.01   0.00   0.05
  30   6    -0.01   0.02  -0.14     0.14   0.04   0.10    -0.01   0.01   0.06
  31   6    -0.01  -0.01  -0.08     0.08   0.02   0.06    -0.03   0.01   0.02
  32   6    -0.01   0.02   0.01     0.00   0.04  -0.01    -0.03  -0.01   0.09
  33   6     0.05   0.02  -0.05     0.05   0.00  -0.01    -0.00  -0.01   0.11
  34   6     0.09   0.03  -0.09     0.10   0.02   0.01    -0.06  -0.01   0.20
  35   6     0.16   0.01  -0.19     0.15  -0.01   0.02    -0.03  -0.01   0.15
  36   6     0.19  -0.01  -0.25     0.14  -0.07   0.02     0.05  -0.01  -0.01
  37   6     0.14  -0.01  -0.19     0.08  -0.09   0.02     0.11  -0.02  -0.10
  38   6     0.07   0.01  -0.09     0.04  -0.06   0.00     0.08  -0.01  -0.03
  39   1    -0.01  -0.05  -0.01    -0.00  -0.04   0.01    -0.03   0.01  -0.10
  40   1    -0.02  -0.03   0.01    -0.02  -0.05   0.01     0.03  -0.00  -0.12
  41   1     0.01  -0.04  -0.03     0.00  -0.05   0.02     0.03  -0.00  -0.12
  42   1     0.02   0.06   0.00    -0.02  -0.02  -0.00     0.12  -0.02  -0.00
  43   1     0.03   0.03  -0.03    -0.01  -0.04   0.01     0.12  -0.02  -0.07
  44   1     0.01   0.03   0.01    -0.03  -0.03   0.01     0.12  -0.02  -0.07
  45   1    -0.04   0.01   0.05    -0.05  -0.03   0.01     0.06  -0.01  -0.06
  46   1    -0.07   0.01   0.10    -0.07  -0.01  -0.01     0.04  -0.01  -0.02
  47   1    -0.06   0.01   0.09    -0.04   0.02  -0.04    -0.01  -0.00   0.06
  48   1    -0.03   0.01   0.05    -0.01   0.02  -0.04    -0.03  -0.00   0.08
  49   1     0.00   0.03   0.01    -0.00   0.06   0.00     0.01   0.01   0.05
  50   1     0.01   0.04   0.01    -0.01   0.08   0.01     0.02   0.02   0.03
  51   1     0.00   0.03   0.00    -0.00   0.06   0.01     0.01   0.01   0.01
  52   1    -0.01   0.01   0.02    -0.04   0.02  -0.02    -0.01   0.00   0.01
  53   1    -0.01  -0.01   0.05    -0.08   0.01  -0.05    -0.02   0.00  -0.01
  54   1    -0.00  -0.02   0.06    -0.08  -0.01  -0.06    -0.04   0.00  -0.04
  55   1     0.00  -0.03   0.03    -0.04  -0.02  -0.03    -0.04   0.00  -0.05
  56   1    -0.00  -0.02   0.02    -0.01  -0.06  -0.01    -0.03  -0.00  -0.05
  57   1    -0.01   0.00   0.00     0.00  -0.06   0.00    -0.00  -0.01  -0.04
  58   1     0.00  -0.02  -0.01     0.02  -0.06   0.02    -0.02  -0.00  -0.04
  59   1     0.01  -0.05  -0.01     0.03   0.00   0.02    -0.05   0.01  -0.03
  60   1     0.01  -0.05  -0.01     0.01   0.03   0.01    -0.05   0.01  -0.01
  61   1     0.01  -0.05   0.01    -0.01   0.00  -0.01    -0.05   0.01  -0.04
  62   1     0.00  -0.02  -0.04     0.06  -0.02   0.04    -0.02   0.00  -0.02
  63   1     0.00  -0.01  -0.07     0.09  -0.01   0.07    -0.01   0.00   0.00
  64   1    -0.00   0.01  -0.07     0.08   0.01   0.05     0.00   0.00   0.02
  65   1    -0.01   0.01  -0.04     0.03   0.02   0.02     0.00   0.00   0.02
  66   1    -0.01  -0.00  -0.00     0.00  -0.01  -0.01    -0.02  -0.01   0.03
  67   1     0.02   0.01  -0.01     0.03   0.02   0.00    -0.04  -0.00   0.09
  68   1     0.05   0.01  -0.06     0.06   0.00   0.01    -0.02  -0.00   0.07
  69   1     0.07  -0.01  -0.10     0.05  -0.03   0.01     0.02  -0.00  -0.02
  70   1     0.05  -0.01  -0.07     0.02  -0.04   0.01     0.05  -0.01  -0.06
                      4                      5                      6
                        a                      a                      a 
 Frequencies --    19.5662                43.4078                54.7168
 Red. masses --    10.0947                10.4035                10.6346
 Frc consts  --     0.0000                 0.0000                 0.0000
 IR Inten    --     0.0804                 0.2616                 0.0604
 Raman Activ --     0.0000                 0.0000                 0.0000
 Depolar     --     0.0000                 0.0000                 0.0000
 Atom AN      X      Y      Z        X      Y      Z        X      Y      Z
   1   6    -0.04   0.01  -0.10    -0.14  -0.00  -0.25     0.03   0.05   0.07
   2   6    -0.00  -0.01  -0.01    -0.05  -0.00  -0.04    -0.01  -0.02   0.00
   3   6     0.10  -0.04  -0.01     0.18  -0.03  -0.06    -0.09  -0.04   0.01
   4   6    -0.02  -0.01   0.03    -0.10   0.01   0.04     0.04  -0.05  -0.03
   5   6     0.01  -0.01  -0.00    -0.15   0.01   0.11     0.13  -0.04  -0.11
   6   6    -0.01  -0.01   0.03    -0.19   0.02   0.15     0.13  -0.06  -0.06
   7   6    -0.05  -0.01   0.10    -0.15   0.02   0.09     0.02  -0.08   0.11
   8   6    -0.07  -0.01   0.12    -0.08   0.01   0.00    -0.06  -0.09   0.17
   9   6    -0.05  -0.01   0.08    -0.07   0.01  -0.02    -0.02  -0.07   0.07
  10   7    -0.05  -0.01   0.08    -0.03   0.01  -0.07    -0.03  -0.09   0.03
  11   6    -0.02  -0.01   0.01    -0.01   0.01  -0.10    -0.02  -0.09   0.00
  12   6     0.06  -0.02   0.01     0.01   0.01  -0.10     0.02  -0.29  -0.04
  13   6     0.09  -0.01  -0.05     0.01  -0.01  -0.11     0.03  -0.21  -0.05
  14   6     0.05   0.00  -0.11     0.01  -0.01  -0.13     0.02   0.03  -0.04
  15   6    -0.02   0.01  -0.11    -0.01  -0.00  -0.13    -0.02   0.17  -0.01
  16   7    -0.05   0.02  -0.16    -0.00  -0.00  -0.13    -0.03   0.18  -0.03
  17   6    -0.03   0.02  -0.13     0.06  -0.01  -0.03    -0.06   0.12   0.03
  18   6    -0.09   0.03  -0.23     0.09  -0.01   0.01    -0.12   0.15   0.07
  19   6    -0.08   0.02  -0.20     0.15  -0.02   0.11    -0.15   0.11   0.13
  20   6    -0.00   0.01  -0.07     0.17  -0.01   0.15    -0.14   0.03   0.16
  21   6     0.06   0.00   0.03     0.14  -0.01   0.10    -0.09  -0.00   0.11
  22   6     0.04   0.01  -0.00     0.09  -0.01   0.02    -0.05   0.04   0.05
  23   6     0.12  -0.00   0.12     0.04  -0.00  -0.05     0.00  -0.00  -0.01
  24   6     0.01  -0.04   0.36     0.12   0.02  -0.21     0.04  -0.05  -0.09
  25   6     0.38   0.02   0.15    -0.13  -0.01  -0.07    -0.08  -0.05  -0.03
  26   6     0.05   0.01   0.01     0.08  -0.01   0.02     0.08   0.05  -0.01
  27   6     0.08   0.00   0.05     0.13  -0.01   0.11     0.17   0.02  -0.01
  28   6     0.03   0.01  -0.04     0.16  -0.02   0.16     0.23   0.07  -0.02
  29   6    -0.05   0.02  -0.18     0.14  -0.02   0.12     0.19   0.14  -0.06
  30   6    -0.08   0.03  -0.22     0.08  -0.01   0.02     0.10   0.18  -0.07
  31   6    -0.02   0.02  -0.12     0.05  -0.01  -0.03     0.05   0.13  -0.04
  32   6    -0.05   0.01  -0.05    -0.01   0.01  -0.11    -0.03   0.14   0.01
  33   6    -0.06  -0.01   0.09    -0.06   0.01  -0.00    -0.03  -0.07  -0.02
  34   6    -0.09  -0.01   0.13    -0.07   0.01   0.03    -0.03  -0.09  -0.10
  35   6    -0.10  -0.01   0.13    -0.12   0.02   0.12    -0.05  -0.07  -0.12
  36   6    -0.07  -0.00   0.09    -0.14   0.01   0.16    -0.08  -0.03  -0.05
  37   6    -0.04  -0.01   0.05    -0.12   0.01   0.11    -0.07  -0.02  -0.00
  38   6    -0.04  -0.01   0.05    -0.08   0.01   0.04    -0.04  -0.03  -0.00
  39   1    -0.03   0.01  -0.03    -0.09   0.00  -0.07     0.02   0.01   0.02
  40   1    -0.00   0.00  -0.04    -0.03  -0.00  -0.10     0.02   0.02   0.03
  41   1    -0.01   0.00  -0.04    -0.03  -0.00  -0.10    -0.01   0.02   0.03
  42   1     0.04  -0.02   0.01     0.07  -0.01   0.02    -0.03  -0.02  -0.01
  43   1     0.03  -0.01  -0.01     0.07  -0.01  -0.04    -0.04  -0.01   0.02
  44   1     0.04  -0.01  -0.02     0.07  -0.01  -0.04    -0.02  -0.01   0.00
  45   1     0.01  -0.00  -0.02    -0.05   0.00   0.04     0.05  -0.01  -0.05
  46   1     0.00  -0.00   0.00    -0.07   0.01   0.07     0.06  -0.02  -0.04
  47   1    -0.02  -0.00   0.04    -0.05   0.01   0.03    -0.00  -0.03   0.05
  48   1    -0.03  -0.00   0.05    -0.01   0.00  -0.02    -0.04  -0.03   0.09
  49   1     0.02  -0.01   0.02     0.00   0.00  -0.03     0.01  -0.14  -0.01
  50   1     0.04  -0.00  -0.01     0.01  -0.00  -0.03     0.02  -0.10  -0.02
  51   1     0.02   0.00  -0.05     0.00  -0.01  -0.04     0.01   0.02  -0.02
  52   1    -0.04   0.01  -0.09     0.02  -0.00  -0.01    -0.04   0.06   0.01
  53   1    -0.04   0.01  -0.08     0.05  -0.01   0.04    -0.06   0.04   0.05
  54   1     0.00   0.00  -0.01     0.06  -0.00   0.06    -0.05  -0.00   0.06
  55   1     0.03  -0.00   0.04     0.04  -0.00   0.03    -0.02  -0.02   0.03
  56   1     0.01  -0.01   0.13     0.03   0.01  -0.08    -0.01  -0.03  -0.03
  57   1    -0.05  -0.01   0.10     0.07   0.01  -0.06     0.03  -0.00  -0.02
  58   1     0.02  -0.01   0.13     0.03   0.01  -0.08     0.02  -0.02  -0.04
  59   1     0.13   0.00   0.07    -0.05   0.00  -0.03    -0.01  -0.02  -0.02
  60   1     0.13   0.01  -0.01    -0.05  -0.01   0.01    -0.03  -0.01   0.01
  61   1     0.13   0.00   0.07    -0.05  -0.00  -0.04    -0.04  -0.03  -0.01
  62   1     0.04  -0.00   0.05     0.04  -0.00   0.04     0.05  -0.01   0.00
  63   1     0.02   0.00  -0.00     0.06  -0.01   0.07     0.09   0.01  -0.00
  64   1    -0.03   0.01  -0.08     0.05  -0.01   0.05     0.07   0.05  -0.02
  65   1    -0.04   0.01  -0.09     0.02  -0.00  -0.01     0.02   0.07  -0.03
  66   1    -0.03   0.00  -0.01    -0.01   0.01  -0.03    -0.02   0.07   0.01
  67   1    -0.03  -0.00   0.05    -0.02   0.00  -0.00    -0.00  -0.03  -0.04
  68   1    -0.03  -0.00   0.05    -0.04   0.01   0.04    -0.01  -0.02  -0.05
  69   1    -0.02  -0.00   0.03    -0.05   0.00   0.07    -0.03  -0.00  -0.01
  70   1    -0.01  -0.00   0.00    -0.04   0.00   0.03    -0.03   0.00   0.01
                      7                      8                      9
                        a                      a                      a 
 Frequencies --    56.6170                61.1643                78.3691
 Red. masses --    10.1961                10.4770                 9.8749
 Frc consts  --     0.0000                 0.0000                 0.0000
 IR Inten    --     0.7269                 0.4073                 0.5141
 Raman Activ --     0.0000                 0.0000                 0.0000
 Depolar     --     0.0000                 0.0000                 0.0000
 Atom AN      X      Y      Z        X      Y      Z        X      Y      Z
   1   6    -0.05   0.00  -0.16    -0.05   0.04  -0.14     0.01   0.14  -0.01
   2   6     0.02  -0.01  -0.00     0.00   0.00   0.00    -0.00   0.00   0.00
   3   6     0.18  -0.09  -0.02     0.16   0.03  -0.01    -0.01  -0.14   0.00
   4   6    -0.03   0.03   0.00     0.02  -0.03   0.07     0.03   0.00  -0.07
   5   6    -0.10   0.01   0.03    -0.01  -0.01   0.21     0.14  -0.00  -0.22
   6   6    -0.14   0.04   0.02     0.03  -0.04   0.22     0.08  -0.01  -0.12
   7   6    -0.10   0.09  -0.03     0.13  -0.11   0.05    -0.12   0.01   0.20
   8   6    -0.03   0.10  -0.06     0.16  -0.14  -0.09    -0.19   0.02   0.29
   9   6     0.01   0.07  -0.05     0.09  -0.10  -0.07    -0.07   0.02   0.10
  10   7     0.07   0.09  -0.06     0.07  -0.14  -0.15     0.00   0.02  -0.02
  11   6     0.03   0.09  -0.01     0.04  -0.14  -0.08     0.00   0.03  -0.01
  12   6    -0.03  -0.19  -0.06    -0.03   0.02  -0.06    -0.01   0.14   0.01
  13   6    -0.07  -0.37  -0.04    -0.07   0.23   0.05    -0.01   0.18   0.03
  14   6    -0.03  -0.27   0.03    -0.03   0.26   0.12    -0.02   0.08   0.01
  15   6     0.03   0.01   0.09     0.04   0.05   0.08    -0.00  -0.05  -0.01
  16   7     0.06   0.02   0.15     0.08   0.05   0.14    -0.01  -0.06  -0.01
  17   6    -0.00   0.01   0.06     0.02   0.04   0.07     0.02  -0.05  -0.01
  18   6    -0.04   0.02   0.03     0.02   0.05   0.11     0.06  -0.06   0.01
  19   6    -0.09   0.01  -0.04    -0.05   0.04   0.02     0.07  -0.04  -0.01
  20   6    -0.11  -0.00  -0.07    -0.12   0.03  -0.10     0.04  -0.02  -0.05
  21   6    -0.08  -0.01  -0.04    -0.10   0.02  -0.11     0.02  -0.01  -0.05
  22   6    -0.03  -0.01   0.01    -0.03   0.02  -0.02     0.01  -0.02  -0.02
  23   6    -0.01  -0.01   0.02     0.01   0.01   0.01    -0.00  -0.01   0.00
  24   6    -0.05  -0.01   0.09    -0.03  -0.03   0.09     0.00  -0.02  -0.01
  25   6     0.08  -0.05   0.02     0.09   0.03   0.02    -0.02   0.04   0.00
  26   6    -0.02   0.00  -0.04     0.01   0.03  -0.01    -0.01  -0.03   0.03
  27   6    -0.06  -0.00  -0.14    -0.01   0.02  -0.08    -0.01  -0.02   0.08
  28   6    -0.06   0.01  -0.16    -0.01   0.04  -0.12    -0.04  -0.03   0.06
  29   6     0.01   0.02  -0.04     0.01   0.05  -0.07    -0.08  -0.05  -0.01
  30   6     0.05   0.02   0.07     0.04   0.05   0.01    -0.07  -0.06  -0.04
  31   6     0.03   0.01   0.05     0.04   0.04   0.05    -0.03  -0.05  -0.01
  32   6     0.07   0.20   0.07     0.07  -0.14  -0.02    -0.01  -0.06  -0.02
  33   6     0.09   0.06  -0.04     0.00  -0.09  -0.12     0.07   0.01  -0.11
  34   6     0.18   0.07  -0.12    -0.03  -0.12  -0.16     0.20   0.01  -0.32
  35   6     0.15   0.06   0.00    -0.13  -0.08  -0.06     0.15   0.01  -0.20
  36   6     0.05   0.02   0.20    -0.20  -0.01   0.07    -0.04   0.02   0.16
  37   6    -0.01   0.01   0.21    -0.16   0.01   0.09    -0.12   0.01   0.26
  38   6     0.02   0.02   0.08    -0.07  -0.03   0.01    -0.04   0.01   0.08
  39   1    -0.05   0.01  -0.04    -0.05   0.00  -0.04     0.00   0.05  -0.00
  40   1    -0.01  -0.01  -0.07     0.00   0.02  -0.05     0.03   0.05  -0.02
  41   1    -0.00  -0.00  -0.06    -0.02   0.02  -0.06    -0.02   0.05   0.00
  42   1     0.07  -0.03   0.03     0.06  -0.00   0.02    -0.00  -0.05   0.00
  43   1     0.07  -0.04  -0.01     0.05   0.01  -0.02    -0.00  -0.05   0.03
  44   1     0.06  -0.03  -0.03     0.07   0.02  -0.01    -0.01  -0.05  -0.03
  45   1    -0.04  -0.01   0.02    -0.02   0.01   0.09     0.07  -0.00  -0.12
  46   1    -0.06   0.01   0.02    -0.00  -0.01   0.10     0.05  -0.00  -0.07
  47   1    -0.04   0.03  -0.01     0.05  -0.04   0.01    -0.06   0.01   0.10
  48   1     0.00   0.04  -0.03     0.07  -0.05  -0.06    -0.09   0.00   0.14
  49   1    -0.02  -0.08  -0.04    -0.02   0.00  -0.03    -0.00   0.06   0.01
  50   1    -0.03  -0.17  -0.03    -0.04   0.11   0.02    -0.00   0.08   0.01
  51   1    -0.02  -0.12   0.01    -0.02   0.12   0.06    -0.00   0.03   0.01
  52   1    -0.01   0.01   0.01     0.02   0.02   0.06     0.02  -0.02   0.01
  53   1    -0.04   0.01  -0.02    -0.02   0.01   0.01     0.03  -0.02   0.00
  54   1    -0.04  -0.00  -0.03    -0.05   0.01  -0.05     0.01  -0.00  -0.02
  55   1    -0.03  -0.01  -0.02    -0.04   0.00  -0.05     0.00   0.00  -0.02
  56   1    -0.01  -0.01   0.04    -0.01  -0.01   0.03     0.00  -0.00  -0.01
  57   1    -0.03   0.00   0.03    -0.03  -0.01   0.02     0.00  -0.02  -0.00
  58   1    -0.01  -0.00   0.03     0.00  -0.01   0.04    -0.00  -0.00   0.00
  59   1     0.03  -0.02   0.01     0.04   0.00   0.02    -0.01   0.01   0.01
  60   1     0.03  -0.01  -0.01     0.03   0.02  -0.01    -0.01   0.01   0.00
  61   1     0.03  -0.02   0.02     0.03   0.01   0.01    -0.01   0.02  -0.01
  62   1    -0.03  -0.00  -0.06    -0.01   0.00  -0.03     0.00  -0.00   0.03
  63   1    -0.03   0.00  -0.07    -0.01   0.01  -0.05    -0.01  -0.01   0.03
  64   1     0.01   0.01  -0.01     0.00   0.02  -0.03    -0.03  -0.02  -0.01
  65   1     0.03   0.01   0.05     0.02   0.02   0.01    -0.03  -0.02  -0.03
  66   1     0.03   0.11   0.03     0.04  -0.08  -0.01    -0.00  -0.04  -0.01
  67   1     0.08   0.03  -0.08     0.01  -0.04  -0.08     0.09   0.01  -0.16
  68   1     0.06   0.02  -0.02    -0.05  -0.03  -0.03     0.07   0.00  -0.11
  69   1     0.00   0.00   0.09    -0.08   0.00   0.04    -0.03   0.00   0.09
  70   1    -0.02  -0.01   0.09    -0.06   0.02   0.05    -0.07   0.00   0.13
                     10                     11                     12
                        a                      a                      a 
 Frequencies --    93.4139                95.3327               102.9624
 Red. masses --     9.8017                 9.6597                10.0923
 Frc consts  --     0.0000                 0.0000                 0.0000
 IR Inten    --     3.2312                 0.3607                 1.3914
 Raman Activ --     0.0000                 0.0000                 0.0000
 Depolar     --     0.0000                 0.0000                 0.0000
 Atom AN      X      Y      Z        X      Y      Z        X      Y      Z
   1   6     0.09  -0.01   0.09    -0.03  -0.02  -0.03    -0.14   0.02  -0.09
   2   6     0.01  -0.00  -0.10    -0.00   0.01   0.03    -0.06   0.00   0.10
   3   6    -0.20   0.01  -0.07     0.07   0.02   0.03     0.14  -0.02   0.08
   4   6     0.02  -0.00  -0.13    -0.02   0.01   0.05    -0.08   0.00   0.13
   5   6     0.01  -0.00  -0.12    -0.04   0.01   0.06    -0.02  -0.00   0.04
   6   6    -0.09   0.01   0.03    -0.00   0.01  -0.01     0.08  -0.01  -0.13
   7   6    -0.19   0.02   0.19     0.06   0.02  -0.11     0.12  -0.01  -0.18
   8   6    -0.14   0.02   0.13     0.06   0.02  -0.10     0.03  -0.00  -0.05
   9   6    -0.03   0.01  -0.04     0.02   0.02  -0.01    -0.06   0.00   0.10
  10   7     0.01   0.01  -0.08    -0.00   0.02   0.03    -0.09   0.00   0.14
  11   6     0.02   0.02  -0.07    -0.01   0.01   0.03    -0.05  -0.00   0.07
  12   6    -0.02  -0.02  -0.07     0.00  -0.06   0.02     0.04  -0.01   0.07
  13   6    -0.04  -0.04  -0.04     0.00  -0.10   0.00     0.08   0.00  -0.01
  14   6    -0.02  -0.03  -0.00     0.00  -0.07   0.00     0.04   0.02  -0.08
  15   6     0.03   0.00  -0.00    -0.01  -0.01   0.01    -0.05   0.01  -0.08
  16   7     0.06  -0.01   0.05    -0.02   0.00   0.00    -0.09   0.02  -0.16
  17   6     0.07  -0.01   0.06     0.03  -0.01   0.08    -0.05   0.01  -0.07
  18   6     0.20  -0.03   0.27     0.12  -0.02   0.23     0.06  -0.01   0.12
  19   6     0.17  -0.02   0.20     0.08  -0.01   0.16     0.12  -0.02   0.23
  20   6    -0.00   0.01  -0.11    -0.07   0.01  -0.11     0.04  -0.01   0.09
  21   6    -0.10   0.02  -0.26    -0.12   0.01  -0.19    -0.07   0.01  -0.10
  22   6    -0.04   0.01  -0.14    -0.04   0.00  -0.05    -0.10   0.01  -0.15
  23   6     0.01   0.00  -0.07    -0.00  -0.00   0.03    -0.07   0.01  -0.11
  24   6    -0.07  -0.09   0.12     0.04  -0.18  -0.06    -0.18  -0.03   0.15
  25   6     0.22   0.08  -0.04    -0.10   0.18   0.04     0.21   0.03  -0.07
  26   6     0.00  -0.00  -0.07     0.06  -0.01   0.14    -0.09   0.01  -0.15
  27   6     0.00  -0.00  -0.08     0.16  -0.02   0.30    -0.05   0.01  -0.09
  28   6     0.04  -0.00  -0.02     0.06  -0.00   0.12     0.06  -0.00   0.10
  29   6     0.09  -0.01   0.06    -0.17   0.03  -0.28     0.12  -0.01   0.21
  30   6     0.09  -0.00   0.06    -0.22   0.03  -0.35     0.06  -0.01   0.09
  31   6     0.04  -0.00   0.00    -0.06   0.01  -0.08    -0.05   0.01  -0.08
  32   6     0.04   0.03  -0.03    -0.01   0.01   0.03    -0.08   0.01  -0.00
  33   6    -0.02   0.01  -0.03     0.00   0.02   0.03    -0.06   0.00   0.10
  34   6    -0.11   0.01   0.13     0.03   0.02   0.01     0.02  -0.00  -0.07
  35   6    -0.15   0.02   0.19     0.05   0.01  -0.02     0.10  -0.01  -0.21
  36   6    -0.07   0.01   0.05     0.05   0.00  -0.02     0.06  -0.01  -0.13
  37   6     0.02   0.00  -0.10     0.03   0.00   0.01    -0.03   0.00   0.04
  38   6     0.03   0.00  -0.11     0.00   0.01   0.03    -0.08   0.01   0.13
  39   1     0.07  -0.00   0.02    -0.02  -0.00  -0.01    -0.08   0.01  -0.02
  40   1     0.01  -0.00   0.04    -0.01  -0.01  -0.01    -0.03   0.00  -0.05
  41   1     0.02  -0.01   0.05    -0.00  -0.01  -0.02    -0.03   0.00  -0.05
  42   1    -0.07   0.01  -0.06     0.03   0.01   0.02     0.06  -0.01   0.06
  43   1    -0.07   0.01   0.00     0.03   0.00  -0.00     0.05  -0.01   0.00
  44   1    -0.07   0.00  -0.00     0.02   0.00   0.00     0.05  -0.01   0.00
  45   1     0.02  -0.00  -0.06    -0.02   0.00   0.03    -0.01  -0.00   0.02
  46   1    -0.03   0.00   0.02    -0.01   0.00  -0.00     0.04  -0.01  -0.06
  47   1    -0.09   0.01   0.10     0.03   0.01  -0.05     0.06  -0.00  -0.10
  48   1    -0.06   0.00   0.06     0.03   0.01  -0.04     0.02   0.00  -0.02
  49   1    -0.01  -0.01  -0.03     0.00  -0.02   0.01     0.02  -0.01   0.04
  50   1    -0.02  -0.02  -0.01     0.00  -0.04  -0.00     0.04   0.00  -0.00
  51   1    -0.01  -0.02   0.01     0.00  -0.03  -0.00     0.02   0.01  -0.04
  52   1     0.09  -0.01   0.14     0.06  -0.01   0.11     0.03  -0.00   0.06
  53   1     0.08  -0.01   0.11     0.04  -0.01   0.08     0.07  -0.01   0.12
  54   1    -0.01   0.00  -0.06    -0.04   0.00  -0.07     0.02  -0.00   0.05
  55   1    -0.06   0.01  -0.13    -0.06   0.01  -0.10    -0.03   0.00  -0.05
  56   1    -0.02  -0.03   0.05    -0.01  -0.05  -0.06    -0.04  -0.01   0.07
  57   1    -0.06  -0.04   0.03     0.03  -0.09  -0.02    -0.11  -0.01   0.04
  58   1    -0.00  -0.03   0.07     0.03  -0.06   0.00    -0.04  -0.01   0.08
  59   1     0.08   0.02   0.02    -0.02   0.05   0.04     0.08   0.00   0.01
  60   1     0.08   0.04  -0.05    -0.04   0.09   0.03     0.09   0.02  -0.07
  61   1     0.07   0.03  -0.00    -0.05   0.06  -0.03     0.08   0.01   0.01
  62   1    -0.01  -0.00  -0.03     0.09  -0.01   0.16    -0.03   0.00  -0.04
  63   1     0.01  -0.00  -0.01     0.04  -0.00   0.07     0.03  -0.00   0.05
  64   1     0.04  -0.00   0.03    -0.09   0.01  -0.14     0.07  -0.01   0.11
  65   1     0.03  -0.00   0.03    -0.11   0.02  -0.17     0.03  -0.00   0.05
  66   1     0.02   0.02  -0.01    -0.00   0.01   0.01    -0.04   0.00  -0.00
  67   1    -0.05   0.00   0.06     0.01   0.01   0.00     0.01   0.00  -0.03
  68   1    -0.07   0.01   0.10     0.02   0.00  -0.01     0.05  -0.00  -0.10
  69   1    -0.02   0.00   0.02     0.02  -0.00  -0.01     0.03  -0.00  -0.07
  70   1     0.02   0.00  -0.05     0.01  -0.00  -0.00    -0.02   0.00   0.02
                     13                     14                     15
                        a                      a                      a 
 Frequencies --   129.5808               136.2786               137.9623
 Red. masses --     2.5821                10.4834                 3.6292
 Frc consts  --     0.0000                 0.0000                 0.0000
 IR Inten    --     0.0064                 1.2006                 0.0081
 Raman Activ --     0.0000                 0.0000                 0.0000
 Depolar     --     0.0000                 0.0000                 0.0000
 Atom AN      X      Y      Z        X      Y      Z        X      Y      Z
   1   6    -0.01  -0.00  -0.00     0.19  -0.06   0.06     0.08   0.23   0.02
   2   6    -0.00   0.00   0.00     0.13  -0.00  -0.08     0.03  -0.00  -0.01
   3   6     0.00   0.00   0.00     0.00   0.07  -0.07    -0.02  -0.23  -0.01
   4   6    -0.00   0.00   0.00     0.12   0.01  -0.08     0.08  -0.01  -0.11
   5   6    -0.00  -0.00   0.00     0.05   0.03   0.06    -0.01   0.01   0.04
   6   6     0.00  -0.00  -0.01     0.00   0.02   0.18    -0.09   0.02   0.16
   7   6     0.00   0.00  -0.01     0.06   0.00   0.09    -0.03   0.01   0.07
   8   6    -0.00   0.00  -0.00     0.13  -0.02  -0.07     0.06  -0.00  -0.07
   9   6    -0.00   0.00   0.00     0.13   0.00  -0.12     0.08  -0.00  -0.11
  10   7    -0.00   0.00   0.00     0.08  -0.00  -0.09     0.02  -0.00  -0.01
  11   6    -0.00  -0.00   0.00     0.01  -0.00  -0.01     0.00  -0.00   0.00
  12   6    -0.00   0.00   0.00     0.02  -0.01  -0.02     0.01  -0.00   0.00
  13   6    -0.00   0.00   0.00     0.03  -0.01  -0.04     0.01   0.00  -0.00
  14   6    -0.00  -0.00   0.00     0.02   0.00  -0.07     0.01   0.01  -0.01
  15   6     0.00  -0.00   0.00    -0.03   0.00  -0.06    -0.01  -0.00  -0.01
  16   7     0.00  -0.00   0.01    -0.12   0.02  -0.17    -0.02   0.00  -0.03
  17   6     0.04  -0.00   0.06    -0.14   0.00  -0.12    -0.03   0.00  -0.02
  18   6     0.04  -0.01   0.07    -0.14   0.02  -0.05    -0.03   0.00  -0.01
  19   6    -0.01   0.00  -0.03    -0.06  -0.01   0.14    -0.01  -0.00   0.03
  20   6    -0.06   0.01  -0.12    -0.02  -0.03   0.21    -0.00  -0.01   0.04
  21   6    -0.03   0.01  -0.06    -0.07  -0.03   0.06    -0.01  -0.01   0.01
  22   6     0.03  -0.00   0.06    -0.12  -0.01  -0.08    -0.02  -0.00  -0.02
  23   6     0.00   0.00   0.00    -0.12   0.00  -0.06    -0.02   0.00  -0.01
  24   6    -0.01   0.18   0.02    -0.19  -0.01   0.07    -0.04  -0.00   0.01
  25   6     0.01  -0.18  -0.02    -0.01   0.01  -0.05    -0.00   0.00  -0.01
  26   6    -0.03   0.00  -0.05    -0.12   0.02  -0.08    -0.02   0.00  -0.02
  27   6     0.04  -0.01   0.06    -0.05   0.02   0.08    -0.01   0.00   0.02
  28   6     0.07  -0.01   0.11     0.00   0.00   0.21    -0.00  -0.00   0.04
  29   6     0.02  -0.00   0.02    -0.06  -0.01   0.11    -0.01  -0.00   0.02
  30   6    -0.04   0.01  -0.07    -0.14  -0.00  -0.07    -0.03  -0.00  -0.02
  31   6    -0.03   0.00  -0.05    -0.14   0.02  -0.12    -0.03   0.00  -0.03
  32   6    -0.00  -0.00   0.00    -0.03  -0.01  -0.04    -0.00  -0.00  -0.00
  33   6    -0.00   0.00   0.00     0.15  -0.01  -0.15    -0.02   0.00   0.05
  34   6    -0.00   0.00   0.00     0.15   0.00  -0.07    -0.01   0.00   0.04
  35   6    -0.00   0.00  -0.00     0.06   0.00   0.15     0.04  -0.00  -0.04
  36   6     0.00   0.00  -0.01     0.01  -0.00   0.25     0.06  -0.01  -0.08
  37   6    -0.00   0.00  -0.00     0.07  -0.02   0.06     0.02  -0.00  -0.02
  38   6    -0.00   0.00   0.00     0.14  -0.02  -0.13    -0.02   0.00   0.07
  39   1    -0.00  -0.00  -0.00     0.08  -0.09   0.02     0.08   0.41   0.00
  40   1    -0.00   0.00  -0.00     0.06   0.01   0.09    -0.08  -0.07  -0.27
  41   1    -0.00   0.00  -0.00     0.04   0.01  -0.02     0.08  -0.09   0.29
  42   1     0.00   0.00   0.00    -0.00   0.09  -0.05    -0.05  -0.42  -0.00
  43   1     0.00  -0.00  -0.00     0.04  -0.01  -0.02    -0.28   0.12   0.06
  44   1    -0.00  -0.00   0.00    -0.07   0.00   0.01     0.30   0.05  -0.07
  45   1    -0.00  -0.00   0.00     0.01   0.01   0.03    -0.01   0.00   0.02
  46   1     0.00  -0.00  -0.00    -0.02   0.01   0.09    -0.05   0.01   0.09
  47   1     0.00   0.00  -0.00     0.01  -0.00   0.04    -0.02   0.00   0.04
  48   1    -0.00   0.00   0.00     0.05  -0.01  -0.04     0.03  -0.00  -0.04
  49   1    -0.00   0.00   0.00     0.01  -0.00  -0.00     0.00  -0.00   0.00
  50   1    -0.00   0.00   0.00     0.02  -0.01  -0.01     0.01   0.00  -0.00
  51   1    -0.00  -0.00   0.00     0.01   0.00  -0.03     0.00   0.00  -0.00
  52   1     0.02  -0.00   0.03    -0.05   0.01  -0.03    -0.01   0.00  -0.01
  53   1    -0.00   0.00  -0.01    -0.01  -0.00   0.06    -0.00  -0.00   0.01
  54   1    -0.04   0.01  -0.07     0.01  -0.01   0.11     0.00  -0.00   0.02
  55   1    -0.02   0.00  -0.04    -0.01  -0.02   0.03    -0.00  -0.00   0.01
  56   1    -0.10  -0.15   0.28    -0.05  -0.01   0.05    -0.01  -0.00   0.01
  57   1    -0.02   0.42   0.04    -0.09   0.01   0.02    -0.02   0.00   0.00
  58   1     0.11  -0.08  -0.31    -0.04  -0.01   0.03    -0.01  -0.00   0.00
  59   1    -0.33   0.10  -0.05    -0.00   0.01  -0.00    -0.00   0.00  -0.00
  60   1     0.02  -0.44  -0.04     0.01  -0.00  -0.04     0.00  -0.00  -0.01
  61   1     0.31   0.13   0.07     0.01   0.01   0.00     0.00   0.00   0.00
  62   1     0.02  -0.00   0.04    -0.01   0.01   0.04    -0.00   0.00   0.01
  63   1     0.04  -0.00   0.06     0.02  -0.00   0.11     0.00  -0.00   0.02
  64   1     0.01  -0.00   0.01    -0.01  -0.01   0.05    -0.00  -0.00   0.01
  65   1    -0.02   0.00  -0.03    -0.05  -0.00  -0.04    -0.01  -0.00  -0.01
  66   1    -0.00  -0.00   0.00    -0.01  -0.00  -0.01    -0.00  -0.00  -0.00
  67   1    -0.00  -0.00   0.00     0.06   0.01  -0.04    -0.00   0.00   0.02
  68   1    -0.00  -0.00  -0.00     0.01   0.00   0.07     0.02  -0.00  -0.02
  69   1     0.00   0.00  -0.00    -0.02  -0.00   0.13     0.03  -0.00  -0.05
  70   1    -0.00   0.00  -0.00     0.01  -0.01   0.03     0.01  -0.00  -0.01
                     16                     17                     18
                        a                      a                      a 
 Frequencies --   187.1723               191.4243               202.6307
 Red. masses --    10.8018                 1.2008                 3.1731
 Frc consts  --     0.0000                 0.0000                 0.0000
 IR Inten    --     0.7671                 0.0105                 0.5335
 Raman Activ --     0.0000                 0.0000                 0.0000
 Depolar     --     0.0000                 0.0000                 0.0000
 Atom AN      X      Y      Z        X      Y      Z        X      Y      Z
   1   6    -0.06  -0.03   0.02     0.00  -0.00   0.00     0.04   0.12   0.01
   2   6    -0.02  -0.00   0.10     0.00   0.00   0.00     0.02   0.00  -0.01
   3   6     0.08   0.01   0.10     0.00   0.00   0.00     0.02   0.02  -0.01
   4   6    -0.06   0.04   0.11     0.00   0.00   0.00     0.04  -0.02  -0.04
   5   6     0.07   0.06   0.04    -0.00   0.00   0.00    -0.02  -0.04  -0.05
   6   6     0.22   0.01  -0.04    -0.00   0.00  -0.00    -0.11  -0.01   0.02
   7   6     0.14  -0.03   0.07    -0.00   0.00  -0.00    -0.09   0.01  -0.01
   8   6     0.01  -0.04   0.15    -0.00   0.00  -0.00     0.01   0.02  -0.07
   9   6    -0.05   0.02   0.07     0.00   0.00  -0.00     0.04  -0.01  -0.04
  10   7     0.02   0.02  -0.16     0.00   0.00  -0.00     0.01  -0.01   0.04
  11   6     0.05   0.01  -0.29     0.00  -0.00  -0.00     0.03  -0.03   0.01
  12   6    -0.02   0.02  -0.29     0.00  -0.03  -0.01     0.12  -0.07   0.01
  13   6    -0.06   0.02  -0.23     0.00   0.00  -0.00     0.13   0.00  -0.02
  14   6    -0.07   0.04  -0.21     0.00   0.04   0.00     0.11   0.07  -0.05
  15   6    -0.03   0.02  -0.20     0.00   0.02  -0.00     0.03   0.01  -0.05
  16   7     0.02   0.01  -0.06     0.00   0.02  -0.00     0.01   0.00  -0.07
  17   6     0.02  -0.01   0.05    -0.00   0.01   0.00     0.02  -0.01   0.01
  18   6    -0.03   0.02   0.12    -0.00   0.01   0.00    -0.01   0.01   0.05
  19   6    -0.11  -0.00   0.07     0.00   0.01   0.00    -0.06  -0.00   0.04
  20   6    -0.16  -0.03  -0.02     0.00   0.01   0.00    -0.08  -0.02  -0.00
  21   6    -0.08  -0.06   0.01     0.00   0.01  -0.00    -0.03  -0.04  -0.00
  22   6     0.02  -0.03   0.06    -0.00   0.00   0.00     0.02  -0.02   0.02
  23   6     0.01  -0.01   0.07     0.00  -0.00   0.00     0.02  -0.01   0.03
  24   6     0.03  -0.01   0.02     0.00  -0.08  -0.01     0.04  -0.01  -0.01
  25   6    -0.06  -0.00   0.07     0.00  -0.07  -0.01    -0.01   0.00   0.03
  26   6     0.02   0.02   0.07     0.00   0.01   0.00     0.03   0.01   0.04
  27   6    -0.07   0.05   0.02    -0.01   0.01   0.01    -0.04   0.03   0.02
  28   6    -0.16   0.02  -0.02    -0.01   0.01   0.00    -0.11   0.01  -0.01
  29   6    -0.11  -0.02   0.06    -0.01   0.01   0.01    -0.08  -0.02   0.04
  30   6    -0.01  -0.04   0.11    -0.00   0.01   0.01    -0.01  -0.04   0.07
  31   6     0.03   0.01   0.06     0.00   0.01   0.00     0.02  -0.00   0.02
  32   6     0.03   0.01  -0.30     0.00   0.02  -0.00     0.02  -0.02  -0.03
  33   6    -0.01  -0.00   0.04    -0.00   0.00   0.00    -0.02  -0.01   0.05
  34   6     0.04   0.04   0.13     0.00   0.00   0.00    -0.04  -0.02   0.01
  35   6     0.11   0.00   0.13     0.00   0.00   0.00    -0.02  -0.01  -0.07
  36   6     0.18  -0.05  -0.00     0.00   0.00  -0.00    -0.03   0.01  -0.05
  37   6     0.10  -0.08  -0.00     0.00   0.00  -0.00    -0.03   0.02   0.02
  38   6    -0.02  -0.02   0.07     0.00   0.00   0.00    -0.01   0.01   0.03
  39   1    -0.03   0.03   0.01     0.00   0.00   0.00     0.06   0.36   0.00
  40   1    -0.03  -0.03  -0.03    -0.00  -0.00  -0.00    -0.10  -0.10  -0.25
  41   1     0.00  -0.03   0.02     0.00  -0.00   0.00     0.08  -0.12   0.26
  42   1     0.03  -0.03   0.05     0.00   0.00   0.00     0.05   0.40  -0.01
  43   1     0.01   0.02   0.02     0.00  -0.00  -0.00     0.32  -0.23  -0.04
  44   1     0.06   0.01   0.02    -0.00  -0.00   0.00    -0.36  -0.14   0.04
  45   1     0.03   0.04   0.01    -0.00  -0.00   0.00    -0.00  -0.03  -0.02
  46   1     0.10   0.00  -0.05    -0.00   0.00  -0.00    -0.05  -0.00   0.02
  47   1     0.05  -0.01   0.03    -0.00   0.00  -0.00    -0.04   0.01   0.00
  48   1    -0.02  -0.03   0.07    -0.00   0.00   0.00     0.01   0.02  -0.03
  49   1    -0.02   0.01  -0.10     0.00  -0.02  -0.00     0.04  -0.04   0.01
  50   1    -0.03   0.01  -0.07     0.00  -0.00  -0.00     0.05   0.00  -0.00
  51   1    -0.02   0.02  -0.06     0.00   0.02   0.00     0.04   0.04  -0.03
  52   1    -0.00   0.02   0.05    -0.00   0.00   0.00     0.00   0.01   0.02
  53   1    -0.04   0.00   0.03     0.00   0.00   0.00    -0.02   0.00   0.02
  54   1    -0.07  -0.01  -0.03    -0.00   0.00   0.00    -0.04  -0.01  -0.01
  55   1    -0.03  -0.03  -0.01     0.00   0.01   0.00    -0.01  -0.02  -0.00
  56   1    -0.00  -0.01   0.01     0.13   0.21  -0.31     0.00  -0.01   0.00
  57   1     0.02   0.01   0.01     0.03  -0.44  -0.04     0.02   0.01   0.00
  58   1     0.01  -0.01  -0.01    -0.14   0.13   0.34     0.01  -0.01  -0.02
  59   1    -0.02  -0.00   0.01    -0.35   0.15  -0.03    -0.00   0.00   0.01
  60   1    -0.02  -0.00   0.03     0.02  -0.43  -0.04    -0.00   0.00   0.01
  61   1    -0.02  -0.00   0.01     0.33   0.18   0.07    -0.00   0.00   0.01
  62   1    -0.03   0.03   0.00    -0.00   0.01   0.00    -0.01   0.02   0.01
  63   1    -0.07   0.01  -0.03    -0.00   0.00  -0.00    -0.05   0.01  -0.02
  64   1    -0.04  -0.01   0.02    -0.00   0.00   0.00    -0.03  -0.01   0.01
  65   1     0.01  -0.03   0.05     0.00   0.00   0.00     0.01  -0.02   0.03
  66   1     0.02   0.00  -0.09     0.00   0.01   0.00    -0.00  -0.01  -0.01
  67   1     0.00   0.03   0.06     0.00   0.00   0.00    -0.01  -0.01   0.00
  68   1     0.03   0.01   0.06     0.00   0.00   0.00    -0.00  -0.01  -0.04
  69   1     0.08  -0.02  -0.02     0.00   0.00  -0.00    -0.01   0.01  -0.02
  70   1     0.03  -0.04  -0.01     0.00   0.00  -0.00    -0.01   0.01   0.01
                     19                     20                     21
                        a                      a                      a 
 Frequencies --   203.2519               211.3400               218.6202
 Red. masses --     8.1119                 8.6784                 9.0742
 Frc consts  --     0.0000                 0.0000                 0.0000
 IR Inten    --     1.1987                 0.0700                 1.1719
 Raman Activ --     0.0000                 0.0000                 0.0000
 Depolar     --     0.0000                 0.0000                 0.0000
 Atom AN      X      Y      Z        X      Y      Z        X      Y      Z
   1   6    -0.06  -0.04  -0.02     0.01   0.20   0.04    -0.03  -0.04   0.02
   2   6    -0.04   0.00   0.03     0.00   0.00   0.08    -0.01   0.01   0.05
   3   6     0.00   0.11   0.02     0.06  -0.22   0.07     0.05   0.04   0.04
   4   6    -0.07   0.02   0.08     0.08   0.01  -0.10    -0.03   0.01   0.06
   5   6     0.02   0.04   0.07     0.08   0.01  -0.10    -0.04  -0.02  -0.01
   6   6     0.17  -0.01  -0.04    -0.04   0.02   0.11    -0.02   0.00  -0.12
   7   6     0.13  -0.04   0.01    -0.07   0.02   0.16    -0.06   0.04  -0.04
   8   6    -0.01  -0.05   0.12     0.08   0.00  -0.09    -0.07   0.06   0.05
   9   6    -0.07  -0.00   0.07     0.11   0.01  -0.17    -0.01   0.02   0.05
  10   7    -0.03  -0.00  -0.09     0.05   0.01  -0.11     0.07   0.01  -0.06
  11   6    -0.06   0.00  -0.04     0.02  -0.01  -0.11     0.07  -0.03  -0.06
  12   6    -0.23   0.03  -0.04    -0.11  -0.03  -0.12     0.01  -0.17  -0.08
  13   6    -0.26  -0.01   0.03    -0.16  -0.00  -0.02    -0.02  -0.00   0.02
  14   6    -0.22  -0.05   0.12    -0.12   0.02   0.08     0.02   0.17   0.13
  15   6    -0.05  -0.02   0.11     0.01  -0.01   0.06     0.08   0.03   0.10
  16   7    -0.02  -0.01   0.13     0.04  -0.01   0.10     0.08  -0.02   0.09
  17   6    -0.03   0.01  -0.02    -0.02   0.00  -0.02    -0.09   0.00  -0.19
  18   6     0.02  -0.03  -0.11    -0.02  -0.01  -0.08    -0.14   0.02  -0.25
  19   6     0.11   0.00  -0.09     0.02  -0.00  -0.03     0.04  -0.02   0.10
  20   6     0.17   0.04   0.01     0.07   0.01   0.05     0.14  -0.04   0.28
  21   6     0.07   0.08   0.00     0.02   0.02   0.01    -0.03  -0.02  -0.06
  22   6    -0.04   0.03  -0.04    -0.03   0.01  -0.04    -0.09  -0.00  -0.21
  23   6    -0.04   0.01  -0.07    -0.04   0.00  -0.06    -0.01  -0.00  -0.07
  24   6    -0.08   0.02   0.01    -0.07   0.01   0.01    -0.01  -0.22  -0.07
  25   6     0.02  -0.01  -0.07     0.01  -0.00  -0.05     0.07   0.22  -0.05
  26   6    -0.06  -0.02  -0.07    -0.04  -0.00  -0.06     0.07  -0.01   0.08
  27   6     0.07  -0.06  -0.04     0.02  -0.02   0.00     0.02   0.01   0.10
  28   6     0.21  -0.02   0.03     0.08  -0.01   0.07    -0.13  -0.01  -0.07
  29   6     0.14   0.04  -0.07     0.03   0.01  -0.02    -0.14  -0.03  -0.09
  30   6     0.00   0.07  -0.13    -0.04   0.02  -0.09     0.04  -0.06   0.11
  31   6    -0.05   0.00  -0.04    -0.03  -0.00  -0.03     0.09  -0.03   0.12
  32   6    -0.04  -0.02   0.05     0.05  -0.02  -0.03     0.10   0.01   0.03
  33   6     0.02  -0.01  -0.07    -0.10   0.00   0.20     0.03   0.01  -0.02
  34   6     0.06   0.02   0.00    -0.10   0.01   0.23    -0.02   0.00   0.00
  35   6     0.06  -0.00   0.13     0.09  -0.01  -0.09    -0.05   0.02   0.03
  36   6     0.08  -0.04   0.09     0.16  -0.03  -0.22    -0.02   0.03  -0.03
  37   6     0.07  -0.07  -0.03    -0.02  -0.01   0.09     0.01   0.03  -0.04
  38   6    -0.00  -0.02  -0.04    -0.09   0.00   0.21     0.02   0.02   0.01
  39   1     0.00   0.25  -0.01    -0.02  -0.10   0.01    -0.01   0.00   0.01
  40   1    -0.13  -0.13  -0.22     0.11   0.15   0.14    -0.02  -0.02  -0.01
  41   1     0.07  -0.16   0.19    -0.07   0.17  -0.12     0.01  -0.03   0.02
  42   1     0.02   0.15   0.01     0.04   0.07   0.04     0.02  -0.03   0.03
  43   1     0.09  -0.03  -0.02     0.14  -0.17   0.03    -0.01   0.04   0.00
  44   1    -0.10  -0.00   0.03    -0.12  -0.14  -0.01     0.06   0.03   0.01
  45   1     0.00   0.03   0.03     0.04   0.00  -0.05    -0.01  -0.02  -0.00
  46   1     0.08  -0.00  -0.04    -0.03   0.01   0.06     0.00  -0.00  -0.06
  47   1     0.06  -0.02  -0.01    -0.05   0.01   0.10    -0.02   0.02  -0.02
  48   1    -0.02  -0.03   0.05     0.03  -0.00  -0.04    -0.03   0.03   0.03
  49   1    -0.08   0.02  -0.04    -0.05  -0.01  -0.06    -0.00  -0.10  -0.05
  50   1    -0.10  -0.00   0.01    -0.07   0.00  -0.00    -0.03  -0.00   0.01
  51   1    -0.08  -0.03   0.06    -0.05   0.01   0.05    -0.00   0.09   0.06
  52   1    -0.00  -0.03  -0.05    -0.01  -0.01  -0.03    -0.06   0.02  -0.11
  53   1     0.04  -0.00  -0.04     0.01  -0.00  -0.02     0.03  -0.01   0.07
  54   1     0.07   0.02   0.02     0.04   0.00   0.04     0.09  -0.02   0.17
  55   1     0.03   0.04   0.01     0.01   0.01   0.01    -0.02  -0.01  -0.03
  56   1    -0.01   0.02   0.00    -0.01   0.01   0.01    -0.08  -0.16   0.06
  57   1    -0.04  -0.01  -0.00    -0.04  -0.00  -0.00    -0.01   0.05  -0.01
  58   1    -0.03   0.01   0.03    -0.02   0.01   0.02     0.08  -0.13  -0.12
  59   1     0.02  -0.01  -0.02     0.01  -0.00  -0.01    -0.08   0.13   0.03
  60   1     0.01   0.01  -0.03     0.01   0.01  -0.02     0.04  -0.03  -0.04
  61   1     0.00  -0.01  -0.01     0.00  -0.00  -0.01     0.13   0.14  -0.02
  62   1     0.02  -0.04  -0.01     0.01  -0.01   0.00     0.02   0.01   0.05
  63   1     0.09  -0.01   0.04     0.04  -0.01   0.05    -0.07   0.00  -0.05
  64   1     0.05   0.02  -0.02     0.01   0.00  -0.01    -0.07  -0.01  -0.07
  65   1    -0.01   0.05  -0.05    -0.02   0.01  -0.04     0.02  -0.03   0.05
  66   1     0.01  -0.00   0.01     0.04  -0.01  -0.01     0.05   0.00   0.01
  67   1     0.02   0.02  -0.00    -0.05   0.01   0.11    -0.01  -0.01   0.00
  68   1     0.01   0.00   0.07     0.05  -0.00  -0.06    -0.03   0.00   0.02
  69   1     0.02  -0.02   0.04     0.09  -0.01  -0.14    -0.01   0.01  -0.02
  70   1     0.02  -0.04  -0.02    -0.02  -0.00   0.05     0.01   0.02  -0.02
                     22                     23                     24
                        a                      a                      a 
 Frequencies --   219.4545               226.8420               237.3935
 Red. masses --     9.4495                10.0920                 9.4411
 Frc consts  --     0.0000                 0.0000                 0.0000
 IR Inten    --     1.3083                 4.2422                 1.9622
 Raman Activ --     0.0000                 0.0000                 0.0000
 Depolar     --     0.0000                 0.0000                 0.0000
 Atom AN      X      Y      Z        X      Y      Z        X      Y      Z
   1   6     0.01   0.05  -0.05    -0.03  -0.05   0.05    -0.21   0.07  -0.27
   2   6    -0.00  -0.02  -0.06    -0.01  -0.02   0.07    -0.13   0.02  -0.09
   3   6    -0.08  -0.05  -0.05     0.08  -0.01   0.06    -0.35   0.02  -0.08
   4   6     0.03  -0.01  -0.08    -0.02  -0.03   0.07    -0.05  -0.01  -0.06
   5   6     0.06   0.02   0.02    -0.02  -0.05  -0.01     0.05   0.05   0.03
   6   6     0.06  -0.02   0.16     0.01  -0.05  -0.10     0.10  -0.01   0.11
   7   6     0.10  -0.07   0.07    -0.05  -0.03  -0.01     0.11  -0.06   0.07
   8   6     0.09  -0.10  -0.05    -0.06  -0.01   0.06     0.04  -0.10  -0.02
   9   6     0.01  -0.04  -0.06     0.00  -0.04   0.03    -0.03  -0.03  -0.05
  10   7    -0.09  -0.03   0.05     0.11  -0.04  -0.11    -0.03   0.01   0.03
  11   6    -0.09   0.06   0.07     0.11   0.07  -0.07    -0.02  -0.01   0.06
  12   6    -0.06   0.31   0.11     0.07   0.40   0.00     0.00  -0.06   0.07
  13   6    -0.03   0.00  -0.01     0.02   0.01   0.01     0.01  -0.03   0.06
  14   6    -0.06  -0.31  -0.14     0.07  -0.41   0.01     0.03   0.02   0.08
  15   6    -0.09  -0.05  -0.08     0.12  -0.09   0.08     0.03  -0.00   0.06
  16   7    -0.09   0.03  -0.07     0.13   0.02   0.13     0.04  -0.00   0.03
  17   6    -0.07   0.04  -0.07     0.04   0.04   0.00     0.04   0.03  -0.01
  18   6    -0.03   0.02  -0.06    -0.09   0.10  -0.00    -0.03   0.07   0.01
  19   6     0.07   0.02   0.09    -0.16   0.05   0.07    -0.11   0.03   0.05
  20   6     0.06   0.04   0.06    -0.12  -0.02   0.15    -0.10  -0.02   0.07
  21   6    -0.04   0.05  -0.07    -0.06  -0.06   0.04    -0.03  -0.05   0.02
  22   6    -0.05   0.03  -0.04     0.01   0.01  -0.05     0.05   0.02  -0.03
  23   6     0.01   0.01   0.06     0.00   0.03  -0.08     0.10   0.01  -0.08
  24   6     0.04  -0.15   0.02    -0.00   0.06  -0.08     0.17   0.05  -0.22
  25   6    -0.07   0.16   0.07     0.13   0.01  -0.08     0.29   0.01  -0.07
  26   6     0.08  -0.00   0.15    -0.02   0.04  -0.08     0.04  -0.01  -0.05
  27   6     0.07  -0.02   0.01    -0.01   0.06   0.02    -0.04   0.04   0.03
  28   6    -0.02   0.03  -0.26     0.01   0.03   0.14    -0.09  -0.01   0.10
  29   6     0.06   0.07  -0.12    -0.05   0.02   0.03    -0.11  -0.06   0.05
  30   6     0.15   0.07   0.17    -0.07   0.01  -0.09    -0.04  -0.08  -0.03
  31   6     0.06   0.02   0.14     0.00   0.04  -0.04     0.04  -0.03  -0.04
  32   6    -0.12   0.00  -0.01     0.17  -0.02   0.00     0.01  -0.03   0.09
  33   6    -0.04  -0.03   0.01     0.05  -0.04  -0.04    -0.06   0.05  -0.00
  34   6     0.01  -0.01   0.00    -0.08  -0.08  -0.02     0.03   0.10   0.04
  35   6     0.07  -0.03  -0.03    -0.15  -0.04  -0.05     0.15   0.04   0.06
  36   6     0.03  -0.04   0.02    -0.11   0.01  -0.12     0.14  -0.02   0.06
  37   6    -0.02  -0.05   0.05    -0.05   0.05  -0.03     0.04  -0.06   0.04
  38   6    -0.03  -0.03  -0.01     0.01  -0.01   0.03    -0.07   0.03  -0.03
  39   1     0.00   0.00  -0.01    -0.00   0.03   0.01    -0.13   0.01  -0.07
  40   1     0.02   0.03  -0.00    -0.03  -0.03  -0.02    -0.03   0.03  -0.10
  41   1    -0.01   0.03  -0.02     0.01  -0.03   0.04    -0.06   0.03  -0.13
  42   1    -0.03   0.04  -0.03     0.03  -0.00   0.04    -0.13   0.02  -0.09
  43   1     0.01  -0.05  -0.00     0.03  -0.00   0.00    -0.11  -0.00   0.01
  44   1    -0.08  -0.04  -0.01     0.03  -0.00   0.01    -0.14  -0.00   0.01
  45   1     0.02   0.03   0.00    -0.01  -0.02   0.00     0.02   0.04   0.01
  46   1     0.01   0.00   0.08     0.02  -0.02  -0.05     0.03   0.00   0.05
  47   1     0.04  -0.03   0.03    -0.02  -0.00   0.00     0.04  -0.03   0.03
  48   1     0.03  -0.05  -0.03    -0.02   0.01   0.03     0.01  -0.06  -0.01
  49   1    -0.01   0.18   0.06     0.01   0.23   0.01     0.00  -0.03   0.02
  50   1     0.01   0.00  -0.00    -0.02   0.01   0.00     0.00  -0.01   0.02
  51   1    -0.01  -0.17  -0.07     0.01  -0.23  -0.00     0.01   0.01   0.03
  52   1    -0.01  -0.00  -0.03    -0.03   0.06  -0.01    -0.01   0.05   0.00
  53   1     0.04   0.00   0.06    -0.07   0.02   0.02    -0.05   0.02   0.02
  54   1     0.03   0.01   0.04    -0.04  -0.02   0.07    -0.04  -0.01   0.03
  55   1    -0.02   0.02  -0.04    -0.01  -0.05   0.01    -0.01  -0.04   0.01
  56   1    -0.04  -0.10   0.04     0.01   0.04  -0.05     0.04   0.02  -0.09
  57   1     0.01   0.02   0.01     0.01  -0.01  -0.02     0.10   0.01  -0.06
  58   1     0.07  -0.09  -0.05    -0.02   0.03  -0.00     0.03   0.02  -0.09
  59   1    -0.12   0.10   0.03     0.05   0.00  -0.01     0.11  -0.00   0.01
  60   1    -0.02  -0.04   0.03     0.05   0.01  -0.05     0.11   0.02  -0.07
  61   1     0.06   0.11   0.00     0.05  -0.00  -0.00     0.10  -0.00   0.01
  62   1     0.03  -0.02   0.01    -0.00   0.03   0.01    -0.01   0.04   0.01
  63   1    -0.04   0.01  -0.15     0.02   0.01   0.08    -0.03   0.00   0.05
  64   1     0.01   0.03  -0.07    -0.02   0.00   0.01    -0.04  -0.03   0.02
  65   1     0.06   0.03   0.08    -0.03  -0.01  -0.04    -0.01  -0.05  -0.02
  66   1    -0.06   0.00  -0.00     0.08  -0.00   0.00     0.00  -0.01   0.02
  67   1     0.00   0.01   0.00    -0.03  -0.04   0.02     0.01   0.06   0.01
  68   1     0.03  -0.01  -0.02    -0.07  -0.02  -0.00     0.06   0.02   0.02
  69   1     0.01  -0.02   0.01    -0.04   0.01  -0.05     0.06  -0.02   0.02
  70   1    -0.01  -0.03   0.02    -0.02   0.04  -0.00     0.01  -0.05   0.01
                     25                     26                     27
                        a                      a                      a 
 Frequencies --   246.3092               271.2403               301.5990
 Red. masses --     9.7061                10.4297                 9.2150
 Frc consts  --     0.0000                 0.0000                 0.0000
 IR Inten    --     0.7650                 1.7749                 1.8789
 Raman Activ --     0.0000                 0.0000                 0.0000
 Depolar     --     0.0000                 0.0000                 0.0000
 Atom AN      X      Y      Z        X      Y      Z        X      Y      Z
   1   6     0.22  -0.03   0.22     0.01   0.10   0.01     0.01   0.46   0.01
   2   6     0.12  -0.01   0.02     0.00   0.04   0.00    -0.03   0.01   0.05
   3   6     0.27  -0.02   0.02     0.02   0.10   0.00     0.08   0.42   0.04
   4   6     0.05   0.03   0.00     0.01   0.01   0.03     0.05  -0.09   0.06
   5   6    -0.01   0.01  -0.00    -0.03  -0.02  -0.07    -0.05  -0.14  -0.01
   6   6    -0.05   0.03   0.01    -0.11   0.03  -0.07    -0.10  -0.10  -0.10
   7   6    -0.01   0.04  -0.04    -0.11   0.07  -0.05    -0.15  -0.07  -0.06
   8   6     0.02   0.05  -0.02    -0.03   0.09  -0.01    -0.06  -0.04  -0.02
   9   6     0.00   0.03   0.03    -0.00   0.04   0.08     0.04  -0.09  -0.03
  10   7    -0.11   0.01   0.05    -0.01   0.01   0.03     0.02  -0.10  -0.05
  11   6    -0.13   0.00   0.05    -0.00  -0.22  -0.02    -0.01  -0.02   0.01
  12   6    -0.23  -0.02   0.04    -0.00  -0.07   0.02    -0.00   0.04   0.02
  13   6    -0.19   0.00   0.00     0.01  -0.15  -0.00     0.00   0.04   0.01
  14   6    -0.23   0.02  -0.02    -0.00  -0.06   0.01     0.00  -0.05  -0.01
  15   6    -0.13   0.01  -0.05    -0.00  -0.21  -0.02    -0.00   0.05   0.01
  16   7    -0.11  -0.00  -0.06    -0.01   0.01   0.02    -0.01   0.03  -0.01
  17   6     0.01   0.05  -0.01     0.01   0.05  -0.01    -0.02   0.02   0.01
  18   6     0.01   0.06   0.04    -0.04   0.08   0.02     0.02  -0.00  -0.00
  19   6    -0.05   0.03   0.04    -0.08   0.05   0.06     0.05   0.02  -0.02
  20   6    -0.07   0.02  -0.01    -0.08   0.02   0.05     0.04   0.04  -0.03
  21   6    -0.03   0.00   0.01    -0.04  -0.01   0.02     0.01   0.05  -0.00
  22   6     0.05   0.04   0.01     0.01   0.03  -0.01    -0.02   0.02   0.02
  23   6     0.14   0.01  -0.04     0.00   0.04   0.01     0.00  -0.01   0.00
  24   6     0.26   0.04  -0.26     0.00   0.09   0.01     0.01  -0.15  -0.02
  25   6     0.33   0.01  -0.03    -0.00   0.10   0.01     0.01  -0.14  -0.01
  26   6     0.05  -0.04  -0.01    -0.01   0.01   0.02     0.02   0.03  -0.01
  27   6    -0.03  -0.00   0.01     0.04  -0.02  -0.04    -0.02   0.05   0.01
  28   6    -0.08  -0.03  -0.00     0.10   0.03  -0.07    -0.05   0.03   0.03
  29   6    -0.05  -0.05   0.04     0.11   0.06  -0.04    -0.05   0.01   0.03
  30   6     0.01  -0.07   0.02     0.04   0.08   0.00    -0.01  -0.00   0.01
  31   6     0.02  -0.04  -0.03    -0.01   0.03   0.04     0.01   0.02  -0.02
  32   6    -0.19   0.01   0.01    -0.02  -0.70  -0.11    -0.01   0.12   0.03
  33   6    -0.01  -0.04   0.02    -0.02   0.04  -0.01    -0.01  -0.08  -0.07
  34   6     0.01  -0.05  -0.03     0.05   0.07   0.01     0.04  -0.05   0.02
  35   6    -0.02  -0.03  -0.04     0.09   0.05   0.06     0.10  -0.10   0.11
  36   6    -0.06  -0.02   0.03     0.09   0.02   0.06     0.12  -0.13   0.03
  37   6    -0.02  -0.01  -0.00     0.04  -0.01   0.01     0.02  -0.15  -0.00
  38   6     0.04  -0.04  -0.01    -0.01   0.03  -0.02    -0.08  -0.08  -0.03
  39   1     0.13  -0.02   0.06     0.00   0.02   0.00    -0.01   0.12   0.00
  40   1     0.05  -0.01   0.10     0.02   0.04   0.01     0.11   0.18   0.01
  41   1     0.05  -0.01   0.10    -0.01   0.04  -0.01    -0.08   0.21  -0.02
  42   1     0.10  -0.01   0.05     0.00   0.01   0.00     0.03   0.11   0.02
  43   1     0.09  -0.01  -0.02    -0.02   0.05  -0.01    -0.02   0.18  -0.07
  44   1     0.10  -0.01  -0.02     0.03   0.04   0.01     0.08   0.17   0.08
  45   1    -0.01  -0.01  -0.00    -0.00  -0.03  -0.04    -0.02  -0.06   0.00
  46   1    -0.02   0.01   0.01    -0.04   0.00  -0.03    -0.04  -0.04  -0.04
  47   1    -0.00   0.01  -0.02    -0.04   0.03  -0.02    -0.06  -0.01  -0.01
  48   1     0.01   0.02  -0.01     0.01   0.04  -0.02    -0.02   0.02   0.01
  49   1    -0.07  -0.01   0.00     0.00   0.03   0.02     0.00   0.02   0.01
  50   1    -0.04  -0.00   0.00     0.00  -0.04   0.00     0.00   0.02   0.00
  51   1    -0.07   0.01   0.00     0.00   0.04   0.01     0.00  -0.04  -0.01
  52   1     0.01   0.03   0.02    -0.01   0.03   0.01     0.00  -0.01  -0.00
  53   1    -0.02   0.01   0.02    -0.03   0.02   0.02     0.02   0.00  -0.01
  54   1    -0.03   0.00  -0.01    -0.03  -0.00   0.02     0.02   0.02  -0.01
  55   1    -0.01  -0.01   0.00    -0.01  -0.02   0.00     0.00   0.02  -0.00
  56   1     0.06   0.02  -0.12     0.01   0.04  -0.01    -0.02  -0.06  -0.01
  57   1     0.15   0.02  -0.07     0.00   0.02   0.00     0.01  -0.04  -0.00
  58   1     0.05   0.01  -0.12    -0.01   0.04   0.01     0.03  -0.06  -0.01
  59   1     0.12  -0.00   0.02    -0.02   0.04   0.01     0.02  -0.06  -0.03
  60   1     0.12   0.01  -0.07    -0.00   0.01   0.00     0.00  -0.03  -0.00
  61   1     0.11   0.00   0.02     0.02   0.04  -0.00    -0.01  -0.06   0.02
  62   1    -0.01   0.02   0.00     0.01  -0.02  -0.02    -0.01   0.02   0.01
  63   1    -0.03  -0.00  -0.01     0.04   0.00  -0.03    -0.02   0.01   0.01
  64   1    -0.02  -0.02   0.02     0.04   0.03  -0.02    -0.02  -0.00   0.01
  65   1     0.01  -0.04   0.01     0.01   0.03  -0.00    -0.00  -0.01   0.00
  66   1    -0.08   0.01   0.00    -0.01  -0.30  -0.05    -0.00   0.06   0.01
  67   1     0.01  -0.02  -0.02     0.01   0.03   0.00     0.01   0.01   0.01
  68   1    -0.00  -0.01  -0.02     0.03   0.02   0.02     0.03  -0.02   0.06
  69   1    -0.03  -0.00   0.02     0.03  -0.00   0.02     0.05  -0.05   0.01
  70   1    -0.00   0.01  -0.00     0.01  -0.02   0.00     0.00  -0.06   0.00
                     28                     29                     30
                        a                      a                      a 
 Frequencies --   307.3068               316.4137               321.0487
 Red. masses --     9.2040                 9.1128                10.7421
 Frc consts  --     0.0000                 0.0000                 0.0000
 IR Inten    --     0.4489                 0.0606                 0.5368
 Raman Activ --     0.0000                 0.0000                 0.0000
 Depolar     --     0.0000                 0.0000                 0.0000
 Atom AN      X      Y      Z        X      Y      Z        X      Y      Z
   1   6     0.00  -0.12  -0.00     0.09   0.38   0.01     0.22  -0.01  -0.02
   2   6     0.01   0.00  -0.02     0.02  -0.01  -0.04     0.12  -0.03  -0.21
   3   6    -0.02  -0.12  -0.02    -0.05  -0.40  -0.04    -0.06   0.16  -0.20
   4   6    -0.01   0.03  -0.01    -0.05   0.00   0.07     0.03  -0.02  -0.04
   5   6     0.01   0.04  -0.01    -0.14   0.01   0.22    -0.03  -0.02   0.03
   6   6     0.01   0.04   0.03    -0.04   0.00   0.07    -0.08  -0.01   0.11
   7   6     0.03   0.03   0.01     0.14  -0.01  -0.20     0.08  -0.02  -0.14
   8   6     0.02   0.03   0.00    -0.07   0.01   0.12    -0.01  -0.00   0.02
   9   6    -0.02   0.03   0.04    -0.17   0.01   0.27    -0.16  -0.00   0.24
  10   7    -0.01   0.03   0.03    -0.03   0.01   0.03    -0.14   0.00   0.20
  11   6     0.00  -0.04  -0.01     0.01   0.01  -0.02     0.04   0.02  -0.12
  12   6     0.00   0.04   0.00     0.01   0.00  -0.02     0.02   0.03  -0.12
  13   6     0.00  -0.07  -0.01    -0.00  -0.00  -0.01    -0.04   0.02  -0.06
  14   6    -0.00  -0.02  -0.00     0.00   0.01  -0.00    -0.03   0.00  -0.04
  15   6     0.00   0.01   0.00     0.01   0.01  -0.00     0.02   0.01  -0.03
  16   7     0.01   0.10   0.04     0.03  -0.00   0.04     0.18  -0.02   0.22
  17   6    -0.03   0.08   0.04     0.01  -0.00   0.01     0.08  -0.01   0.07
  18   6     0.03   0.05  -0.01    -0.00  -0.00  -0.00     0.01   0.00  -0.00
  19   6     0.10   0.10  -0.07    -0.01  -0.00  -0.01    -0.05  -0.01  -0.06
  20   6     0.11   0.14  -0.04     0.00  -0.01   0.01     0.02  -0.04   0.07
  21   6     0.03   0.16   0.01     0.00  -0.01   0.00     0.03  -0.04   0.03
  22   6    -0.07   0.09   0.04     0.00  -0.01  -0.01     0.01  -0.02  -0.05
  23   6    -0.01  -0.00  -0.02    -0.01   0.00  -0.02    -0.05   0.00  -0.10
  24   6     0.01  -0.45  -0.04    -0.02   0.01   0.01    -0.12   0.02   0.03
  25   6     0.03  -0.43  -0.06    -0.00   0.01  -0.02    -0.01   0.02  -0.10
  26   6     0.05   0.10  -0.03     0.00   0.00  -0.01     0.00   0.02  -0.04
  27   6    -0.05   0.15   0.03     0.00   0.00   0.00     0.03   0.02   0.05
  28   6    -0.11   0.12   0.09     0.00  -0.00   0.01     0.02   0.01   0.07
  29   6    -0.12   0.08   0.07    -0.01  -0.00  -0.01    -0.06  -0.00  -0.07
  30   6    -0.04   0.04   0.02     0.00  -0.00  -0.00     0.01  -0.01  -0.00
  31   6     0.03   0.09  -0.00     0.01  -0.00   0.01     0.08  -0.00   0.07
  32   6    -0.00  -0.21  -0.05     0.01   0.01  -0.02     0.06   0.05  -0.12
  33   6    -0.00   0.03   0.02     0.09  -0.01  -0.17    -0.19  -0.01   0.31
  34   6    -0.01   0.03  -0.01     0.05  -0.00  -0.11    -0.04  -0.00   0.07
  35   6    -0.01   0.04  -0.03    -0.09   0.01   0.15     0.13  -0.04  -0.19
  36   6    -0.02   0.04   0.00     0.01   0.00  -0.03    -0.05  -0.04   0.13
  37   6    -0.00   0.04   0.00     0.11  -0.01  -0.21    -0.07  -0.05   0.13
  38   6     0.02   0.03   0.00     0.04  -0.01  -0.09    -0.01  -0.03  -0.03
  39   1     0.01  -0.03  -0.00     0.04   0.05   0.00     0.12  -0.00  -0.01
  40   1    -0.03  -0.05   0.00     0.13   0.17   0.05     0.05  -0.00   0.02
  41   1     0.02  -0.05   0.01    -0.07   0.20  -0.03     0.05  -0.00   0.03
  42   1    -0.01  -0.03  -0.01    -0.01  -0.06  -0.01    -0.04   0.04  -0.11
  43   1     0.00  -0.05   0.02     0.06  -0.20   0.06    -0.06   0.08  -0.06
  44   1    -0.02  -0.05  -0.03    -0.11  -0.18  -0.08    -0.01   0.07  -0.00
  45   1     0.01   0.01  -0.01    -0.04   0.00   0.06     0.00  -0.01  -0.01
  46   1     0.00   0.01   0.01    -0.01   0.00   0.01    -0.04  -0.00   0.06
  47   1     0.02   0.01  -0.01     0.10  -0.01  -0.15     0.07  -0.01  -0.11
  48   1     0.01   0.00  -0.01    -0.01   0.00   0.02     0.01   0.00  -0.02
  49   1     0.00   0.04   0.01     0.00  -0.00  -0.01    -0.00   0.02  -0.05
  50   1    -0.00  -0.04  -0.01    -0.00  -0.00  -0.00    -0.02   0.01  -0.02
  51   1    -0.00   0.00   0.00    -0.00   0.00   0.00    -0.01  -0.00  -0.01
  52   1     0.01  -0.01  -0.00    -0.00   0.00  -0.00    -0.00   0.01  -0.01
  53   1     0.04   0.02  -0.03    -0.01  -0.00  -0.01    -0.04   0.00  -0.04
  54   1     0.04   0.05  -0.02     0.00  -0.00   0.01     0.01  -0.01   0.04
  55   1     0.01   0.06   0.01     0.00  -0.00   0.00     0.01  -0.02   0.01
  56   1    -0.09  -0.20  -0.01    -0.00   0.00   0.01    -0.02   0.01   0.03
  57   1    -0.00  -0.12  -0.01    -0.01   0.00   0.00    -0.08   0.00   0.00
  58   1     0.10  -0.18  -0.02    -0.01   0.00   0.01    -0.03   0.01   0.03
  59   1     0.06  -0.17  -0.10    -0.00   0.00  -0.00     0.00   0.01  -0.02
  60   1     0.01  -0.11  -0.02    -0.00   0.00  -0.00     0.00   0.01  -0.04
  61   1    -0.04  -0.19   0.06     0.00   0.00  -0.01     0.00   0.01  -0.03
  62   1    -0.01   0.06   0.01     0.00   0.00   0.00     0.01   0.01   0.02
  63   1    -0.04   0.04   0.03     0.00  -0.00   0.01     0.01   0.00   0.04
  64   1    -0.05   0.01   0.03    -0.01  -0.00  -0.01    -0.04  -0.00  -0.05
  65   1    -0.01  -0.02  -0.00    -0.00  -0.00  -0.00    -0.00  -0.01  -0.01
  66   1    -0.00  -0.10  -0.02     0.01   0.00  -0.00     0.03   0.02  -0.03
  67   1    -0.00   0.00  -0.00     0.01  -0.00  -0.03    -0.00   0.00  -0.00
  68   1    -0.00   0.01  -0.01    -0.06   0.01   0.11     0.09  -0.01  -0.15
  69   1    -0.01   0.01   0.00    -0.01   0.00   0.01    -0.02  -0.01   0.06
  70   1    -0.00   0.01   0.00     0.03  -0.00  -0.06    -0.01  -0.02   0.02
                     31                     32                     33
                        a                      a                      a 
 Frequencies --   328.9893               343.2840               352.8007
 Red. masses --     8.9665                 9.7071                 9.7360
 Frc consts  --     0.0000                 0.0000                 0.0000
 IR Inten    --     0.1397                 0.0576                 6.4744
 Raman Activ --     0.0000                 0.0000                 0.0000
 Depolar     --     0.0000                 0.0000                 0.0000
 Atom AN      X      Y      Z        X      Y      Z        X      Y      Z
   1   6    -0.00   0.00   0.00     0.10   0.00  -0.04    -0.12   0.01   0.01
   2   6    -0.00   0.00   0.00     0.06  -0.01  -0.09    -0.05  -0.01   0.12
   3   6     0.00  -0.00   0.00    -0.05   0.02  -0.08     0.02  -0.00   0.13
   4   6    -0.00   0.00   0.00     0.02  -0.01  -0.01    -0.00  -0.02   0.07
   5   6     0.00  -0.00  -0.00    -0.08  -0.00   0.11     0.21  -0.06  -0.29
   6   6    -0.00   0.00  -0.00    -0.00  -0.01  -0.02    -0.09  -0.01   0.14
   7   6    -0.00   0.00   0.00     0.04  -0.01  -0.09    -0.05   0.03   0.11
   8   6     0.00   0.00  -0.00    -0.06   0.01   0.09     0.19   0.02  -0.21
   9   6     0.00   0.00  -0.00    -0.02  -0.00   0.04    -0.05   0.02   0.18
  10   7     0.00   0.00  -0.00     0.03  -0.00  -0.03    -0.09   0.01   0.16
  11   6    -0.00  -0.00   0.00     0.03   0.01  -0.04     0.01  -0.02  -0.05
  12   6    -0.00   0.00   0.00    -0.01   0.00  -0.04    -0.01   0.01  -0.04
  13   6    -0.00  -0.00   0.00    -0.04   0.00   0.01    -0.04   0.05  -0.01
  14   6    -0.00  -0.00   0.00    -0.00  -0.01   0.05    -0.04  -0.02  -0.02
  15   6    -0.00   0.00   0.00     0.03  -0.01   0.05     0.00   0.00  -0.02
  16   7    -0.00   0.00  -0.00     0.00  -0.00   0.00     0.09  -0.01   0.11
  17   6    -0.09   0.01  -0.16    -0.05   0.01  -0.10     0.03  -0.00   0.00
  18   6    -0.08   0.01  -0.14    -0.11   0.02  -0.21    -0.04   0.02  -0.10
  19   6     0.10  -0.01   0.17     0.11  -0.01   0.20     0.02  -0.01   0.06
  20   6    -0.00   0.01  -0.01     0.01  -0.00   0.02     0.01  -0.02   0.04
  21   6    -0.15   0.02  -0.27    -0.15   0.02  -0.28    -0.05  -0.02  -0.12
  22   6    -0.05   0.01  -0.09     0.04  -0.00   0.05     0.03  -0.01   0.00
  23   6     0.00  -0.00  -0.00     0.13  -0.01   0.23     0.05  -0.00   0.05
  24   6    -0.02   0.38   0.04     0.25  -0.00   0.04     0.06  -0.00   0.04
  25   6     0.02  -0.40  -0.04    -0.09  -0.04   0.23    -0.05  -0.00   0.05
  26   6     0.06  -0.00   0.09     0.03  -0.00   0.06     0.03   0.01  -0.00
  27   6     0.16  -0.01   0.26    -0.16   0.02  -0.27    -0.06   0.03  -0.11
  28   6     0.00   0.00   0.01     0.00   0.00   0.02     0.01   0.01   0.05
  29   6    -0.10   0.01  -0.17     0.11  -0.01   0.20     0.02  -0.01   0.06
  30   6     0.08  -0.01   0.14    -0.13   0.02  -0.20    -0.05  -0.00  -0.10
  31   6     0.10  -0.01   0.15    -0.06   0.01  -0.09     0.02   0.00  -0.01
  32   6    -0.00  -0.00   0.00     0.06  -0.00   0.01     0.02   0.07  -0.04
  33   6     0.00   0.00  -0.01    -0.00  -0.01   0.05    -0.10   0.01   0.13
  34   6     0.00   0.00  -0.00    -0.04  -0.01   0.10     0.10   0.00  -0.25
  35   6    -0.00   0.00   0.00     0.04  -0.01  -0.09    -0.07   0.00   0.10
  36   6     0.00  -0.00  -0.00     0.00   0.00  -0.02    -0.08  -0.02   0.13
  37   6     0.00  -0.00  -0.00    -0.05   0.02   0.13     0.15  -0.06  -0.31
  38   6    -0.00   0.00  -0.00     0.03   0.00  -0.01    -0.05  -0.02   0.04
  39   1    -0.00   0.00   0.00     0.04  -0.00  -0.01    -0.07   0.01   0.01
  40   1    -0.00  -0.00  -0.00     0.03   0.00  -0.00    -0.02   0.00  -0.02
  41   1    -0.00  -0.00  -0.00     0.02   0.00  -0.00    -0.02  -0.00  -0.02
  42   1     0.00  -0.00   0.00    -0.03   0.01  -0.06     0.01  -0.00   0.05
  43   1     0.00  -0.00   0.00    -0.03   0.01  -0.01     0.01   0.00   0.02
  44   1     0.00  -0.00   0.00    -0.02   0.01  -0.00     0.01  -0.00   0.02
  45   1     0.00  -0.00  -0.00    -0.04  -0.00   0.05     0.12  -0.03  -0.17
  46   1     0.00   0.00  -0.00     0.00  -0.00  -0.01    -0.05  -0.00   0.07
  47   1    -0.00   0.00   0.00     0.03  -0.00  -0.05    -0.02   0.01   0.02
  48   1     0.00   0.00  -0.00    -0.03   0.01   0.05     0.12   0.01  -0.16
  49   1    -0.00   0.00   0.00    -0.01   0.00  -0.02    -0.01   0.01  -0.02
  50   1    -0.00  -0.00  -0.00    -0.03   0.00   0.00    -0.01   0.03   0.00
  51   1    -0.00  -0.00   0.00    -0.01  -0.00   0.03    -0.01  -0.01  -0.00
  52   1    -0.03   0.00  -0.05    -0.06   0.01  -0.11    -0.03   0.01  -0.05
  53   1     0.08  -0.01   0.13     0.08  -0.01   0.14     0.01  -0.00   0.04
  54   1     0.02  -0.00   0.03     0.01  -0.00   0.03     0.01  -0.01   0.03
  55   1    -0.05   0.01  -0.09    -0.07   0.01  -0.13    -0.03  -0.01  -0.06
  56   1     0.09   0.19  -0.01     0.05  -0.00  -0.02     0.02  -0.00   0.01
  57   1    -0.01   0.06   0.01     0.13   0.00   0.02     0.02  -0.00   0.01
  58   1    -0.11   0.17   0.05     0.05   0.00  -0.02     0.02   0.00   0.01
  59   1     0.09  -0.18  -0.09    -0.05  -0.01   0.03    -0.03  -0.00  -0.00
  60   1     0.00  -0.07  -0.00    -0.05  -0.02   0.12    -0.03  -0.00   0.04
  61   1    -0.07  -0.21   0.05    -0.05  -0.01   0.03    -0.03   0.00  -0.00
  62   1     0.05  -0.01   0.09    -0.08   0.01  -0.13    -0.03   0.02  -0.05
  63   1    -0.02   0.00  -0.03     0.01  -0.00   0.03     0.01   0.00   0.03
  64   1    -0.08   0.01  -0.13     0.08  -0.01   0.13     0.01  -0.01   0.04
  65   1     0.03  -0.00   0.05    -0.06   0.01  -0.10    -0.03  -0.00  -0.05
  66   1    -0.00  -0.00   0.00     0.03  -0.00   0.00     0.01   0.04  -0.01
  67   1     0.00  -0.00  -0.00    -0.03  -0.01   0.06     0.08  -0.00  -0.17
  68   1    -0.00   0.00   0.00     0.02  -0.01  -0.05    -0.02   0.00   0.03
  69   1     0.00  -0.00  -0.00     0.00   0.00  -0.01    -0.04  -0.01   0.07
  70   1     0.00  -0.00  -0.00    -0.03   0.01   0.06     0.09  -0.02  -0.18
                     34                     35                     36
                        a                      a                      a 
 Frequencies --   357.8156               364.6347               379.6326
 Red. masses --     9.4386                 9.5426                 9.6165
 Frc consts  --     0.0000                 0.0000                 0.0000
 IR Inten    --     2.6666                 2.4775                 0.6876
 Raman Activ --     0.0000                 0.0000                 0.0000
 Depolar     --     0.0000                 0.0000                 0.0000
 Atom AN      X      Y      Z        X      Y      Z        X      Y      Z
   1   6     0.02   0.00  -0.30    -0.01   0.00   0.08    -0.01  -0.04   0.03
   2   6     0.19  -0.02   0.09    -0.05   0.01  -0.03    -0.02   0.00  -0.01
   3   6    -0.26   0.03   0.14     0.07  -0.01  -0.05     0.03   0.05  -0.02
   4   6     0.16  -0.03   0.13    -0.05  -0.00  -0.03    -0.08   0.03   0.07
   5   6     0.06  -0.10   0.02    -0.01   0.01  -0.03     0.17   0.02  -0.27
   6   6    -0.09   0.02  -0.03     0.01  -0.02   0.03    -0.10   0.04   0.20
   7   6    -0.05   0.14  -0.06     0.02  -0.05   0.01     0.04   0.00  -0.02
   8   6     0.09   0.19   0.05    -0.01  -0.05  -0.02     0.07  -0.01  -0.13
   9   6     0.14   0.04   0.18    -0.06  -0.02  -0.01    -0.25   0.02   0.34
  10   7     0.12  -0.01   0.04    -0.02   0.00  -0.01    -0.02   0.00  -0.04
  11   6     0.07  -0.01  -0.03     0.04   0.00  -0.10    -0.01   0.04   0.00
  12   6    -0.06   0.01  -0.06     0.21   0.01  -0.09     0.02   0.03  -0.00
  13   6    -0.08   0.02  -0.02     0.14   0.02  -0.02     0.01  -0.06  -0.01
  14   6    -0.13   0.00  -0.06     0.17  -0.00  -0.02     0.04   0.05   0.03
  15   6    -0.06   0.00  -0.06    -0.03  -0.01   0.03     0.01   0.06   0.04
  16   7    -0.09  -0.00  -0.04    -0.07  -0.02   0.12    -0.01  -0.00  -0.02
  17   6    -0.07  -0.02   0.01    -0.16  -0.09   0.11    -0.02  -0.01  -0.00
  18   6    -0.00  -0.06   0.04    -0.07  -0.19  -0.01    -0.01  -0.01   0.01
  19   6     0.02  -0.03  -0.03     0.09  -0.12  -0.06     0.01  -0.00  -0.00
  20   6     0.02   0.02  -0.03     0.10   0.01  -0.03     0.00   0.01  -0.01
  21   6    -0.01   0.04   0.05    -0.08   0.08   0.02    -0.00   0.02   0.01
  22   6    -0.07   0.01   0.03    -0.18  -0.01   0.10    -0.01   0.01   0.01
  23   6    -0.07  -0.00   0.02    -0.19  -0.02   0.11     0.00  -0.00   0.00
  24   6    -0.01   0.01  -0.10    -0.01   0.03  -0.28     0.01   0.01   0.00
  25   6     0.09  -0.00   0.04     0.24  -0.01   0.16    -0.00   0.01   0.00
  26   6    -0.06  -0.02   0.03    -0.18  -0.03   0.11     0.01  -0.01  -0.01
  27   6     0.00  -0.04   0.04    -0.07  -0.10   0.01     0.01  -0.01   0.00
  28   6     0.02  -0.01  -0.04     0.09   0.00  -0.03    -0.01  -0.02  -0.00
  29   6     0.02   0.04  -0.02     0.07   0.13  -0.03    -0.00  -0.03   0.00
  30   6    -0.00   0.05   0.05    -0.08   0.18   0.04     0.01  -0.03  -0.01
  31   6    -0.07   0.01   0.02    -0.16   0.05   0.14     0.00  -0.02  -0.03
  32   6    -0.02   0.03  -0.10     0.08   0.03  -0.09     0.02   0.02   0.03
  33   6     0.19  -0.09   0.08    -0.07   0.03   0.02     0.19  -0.03  -0.38
  34   6     0.03  -0.20   0.04    -0.00   0.06  -0.03    -0.08  -0.01   0.14
  35   6    -0.09  -0.12  -0.05     0.03   0.04   0.01    -0.01  -0.03   0.04
  36   6    -0.08   0.00  -0.06     0.01   0.01   0.03     0.11  -0.05  -0.19
  37   6     0.06   0.08   0.06    -0.01  -0.01  -0.04    -0.16  -0.02   0.28
  38   6     0.19  -0.01   0.08    -0.06   0.01  -0.02     0.02  -0.02  -0.10
  39   1    -0.13   0.02  -0.08     0.04  -0.01   0.02     0.01   0.02   0.01
  40   1     0.04  -0.01  -0.16    -0.01   0.00   0.05    -0.01  -0.02  -0.01
  41   1     0.04  -0.00  -0.15    -0.01   0.00   0.04    -0.00  -0.02   0.04
  42   1    -0.13   0.01  -0.09     0.04  -0.00   0.02     0.01  -0.01   0.01
  43   1    -0.12   0.02   0.11     0.03  -0.00  -0.03    -0.01   0.03  -0.01
  44   1    -0.12   0.01   0.10     0.03  -0.00  -0.03     0.04   0.03  -0.01
  45   1     0.02  -0.07  -0.01     0.00   0.01  -0.01     0.12   0.01  -0.18
  46   1    -0.06  -0.01  -0.03     0.01  -0.00   0.02    -0.05   0.02   0.10
  47   1    -0.03   0.06  -0.05     0.01  -0.02   0.00     0.06  -0.01  -0.07
  48   1     0.04   0.10  -0.00    -0.00  -0.03  -0.01     0.10  -0.01  -0.15
  49   1    -0.03   0.01  -0.04     0.06   0.00  -0.02     0.01  -0.01   0.00
  50   1    -0.02   0.02  -0.00     0.02   0.01  -0.00    -0.00  -0.05  -0.01
  51   1    -0.04  -0.00  -0.02     0.06   0.01  -0.03     0.01   0.01   0.01
  52   1     0.00  -0.03   0.02    -0.02  -0.10  -0.01    -0.00  -0.01   0.00
  53   1     0.01  -0.01  -0.02     0.05  -0.05  -0.03     0.01  -0.00  -0.00
  54   1     0.01   0.01  -0.02     0.06   0.02  -0.01     0.00   0.01  -0.01
  55   1     0.00   0.02   0.03    -0.03   0.06   0.00     0.00   0.01   0.00
  56   1    -0.01   0.01  -0.05    -0.03   0.02  -0.15     0.01   0.01   0.00
  57   1     0.04   0.00  -0.03     0.13   0.02  -0.07     0.00   0.00   0.00
  58   1    -0.01   0.00  -0.05    -0.04   0.01  -0.15    -0.00   0.01   0.00
  59   1     0.04  -0.00   0.03     0.12  -0.01   0.11    -0.00   0.01   0.01
  60   1     0.05   0.01  -0.03     0.13   0.01  -0.08    -0.00   0.00   0.00
  61   1     0.04  -0.00   0.04     0.11  -0.00   0.11    -0.00   0.01  -0.00
  62   1     0.01  -0.03   0.02    -0.02  -0.06  -0.01     0.00   0.00   0.00
  63   1     0.01  -0.01  -0.02     0.06  -0.01  -0.02    -0.00  -0.00   0.00
  64   1     0.01   0.02  -0.01     0.04   0.06  -0.02    -0.00  -0.01   0.00
  65   1     0.00   0.03   0.03    -0.04   0.10   0.01     0.01  -0.01   0.00
  66   1    -0.02   0.02  -0.03     0.06   0.01  -0.02     0.01  -0.01   0.00
  67   1    -0.00  -0.11   0.03     0.01   0.03  -0.02    -0.09   0.00   0.17
  68   1    -0.06  -0.05  -0.03     0.02   0.02   0.00    -0.04  -0.00   0.09
  69   1    -0.05   0.02  -0.03     0.01  -0.00   0.02     0.06  -0.02  -0.10
  70   1     0.01   0.06   0.03     0.00  -0.01  -0.02    -0.11  -0.00   0.19
                     37                     38                     39
                        a                      a                      a 
 Frequencies --   383.6400               386.0831               394.0411
 Red. masses --    11.2672                11.2533                10.6995
 Frc consts  --     0.0000                 0.0000                 0.0000
 IR Inten    --     2.9276                 1.5212                 0.4862
 Raman Activ --     0.0000                 0.0000                 0.0000
 Depolar     --     0.0000                 0.0000                 0.0000
 Atom AN      X      Y      Z        X      Y      Z        X      Y      Z
   1   6    -0.01   0.00   0.00     0.01   0.01  -0.02     0.03  -0.06   0.01
[...]
  50   1     0.00  -0.01   0.03     0.00  -0.01   0.03     0.00  -0.00   0.01
  51   1    -0.01   0.00  -0.00    -0.00   0.00  -0.00     0.02  -0.00   0.01
  52   1     0.08   0.01  -0.05     0.03   0.00  -0.02     0.24   0.02  -0.13
  53   1    -0.13  -0.28   0.05    -0.05  -0.10   0.02    -0.12  -0.25   0.05
  54   1    -0.00   0.00   0.00     0.00  -0.01  -0.00     0.29  -0.53  -0.20
  55   1    -0.26  -0.01   0.15    -0.10  -0.01   0.06     0.36   0.02  -0.20
  56   1    -0.02   0.02   0.01    -0.01   0.01   0.00     0.02  -0.02  -0.01
  57   1     0.00  -0.00  -0.00     0.00   0.00  -0.00    -0.00   0.00   0.00
  58   1     0.00   0.00  -0.00    -0.02  -0.04   0.01    -0.01  -0.01   0.00
  59   1     0.00   0.00  -0.00    -0.02  -0.04   0.01    -0.01  -0.01   0.00
  60   1     0.00  -0.00   0.00     0.00   0.00   0.00    -0.00   0.00   0.00
  61   1    -0.02   0.02   0.01    -0.01   0.01   0.00     0.02  -0.02  -0.01
  62   1     0.06   0.01  -0.03    -0.40  -0.07   0.23    -0.16  -0.03   0.09
  63   1     0.00   0.01  -0.00    -0.01  -0.02   0.00    -0.12  -0.30   0.05
  64   1     0.04  -0.06  -0.03    -0.26   0.40   0.18     0.08  -0.12  -0.05
  65   1    -0.02  -0.00   0.01     0.12   0.02  -0.07    -0.11  -0.02   0.06
  66   1     0.00  -0.01   0.05     0.00  -0.02   0.10     0.00  -0.00   0.01
  67   1    -0.27   0.02  -0.14    -0.03   0.00  -0.02     0.02  -0.00   0.01
  68   1     0.27  -0.67   0.17     0.04  -0.09   0.02     0.00  -0.01   0.00
  69   1     0.11   0.18   0.05     0.02   0.02   0.01     0.02   0.02   0.01
  70   1     0.06  -0.00   0.03     0.01  -0.00   0.00     0.00  -0.00   0.00
                    196                    197                    198
                        a                      a                      a 
 Frequencies --  3095.5835              3099.4099              3100.0958
 Red. masses --     1.8814                 1.8235                 1.8324
 Frc consts  --     0.0000                 0.0000                 0.0000
 IR Inten    --    71.2655                95.8516                23.7105
 Raman Activ --     0.0000                 0.0000                 0.0000
 Depolar     --     0.0000                 0.0000                 0.0000
 Atom AN      X      Y      Z        X      Y      Z        X      Y      Z
   1   6     0.00  -0.00   0.00     0.00   0.00  -0.00     0.00   0.00  -0.00
   2   6     0.00   0.00   0.00     0.00   0.00   0.00    -0.00   0.00  -0.00
   3   6     0.00  -0.00   0.00     0.00   0.00   0.00     0.00   0.00  -0.00
   4   6     0.00  -0.00   0.00    -0.00   0.00  -0.00     0.00  -0.00   0.00
   5   6    -0.00   0.00  -0.00     0.01  -0.00   0.01    -0.03   0.01  -0.02
   6   6    -0.01   0.02  -0.00     0.01  -0.04   0.01    -0.03   0.11  -0.03
   7   6    -0.00  -0.00  -0.00     0.02   0.03   0.01    -0.03  -0.04  -0.02
   8   6    -0.01   0.00  -0.00     0.08  -0.01   0.05    -0.14   0.03  -0.10
   9   6     0.00   0.00   0.00     0.00  -0.00   0.00    -0.00   0.00  -0.00
  10   7    -0.00  -0.00  -0.00     0.00   0.00   0.00    -0.00  -0.00  -0.00
  11   6    -0.00   0.00  -0.00     0.01   0.00  -0.00     0.00   0.00   0.00
  12   6    -0.01  -0.00   0.01     0.15   0.02  -0.09     0.02   0.00  -0.01
  13   6    -0.00   0.00  -0.00     0.01   0.01  -0.03     0.00   0.00  -0.00
  14   6    -0.01   0.00  -0.01     0.09  -0.01   0.05     0.01  -0.00   0.01
  15   6    -0.00   0.00  -0.00     0.01  -0.00   0.00     0.00  -0.00   0.00
  16   7    -0.00  -0.00   0.00    -0.00  -0.00  -0.00    -0.00   0.00  -0.00
  17   6    -0.00   0.00   0.00     0.00  -0.00  -0.00     0.00  -0.00  -0.00
  18   6    -0.03  -0.00   0.02     0.02   0.00  -0.01     0.01   0.00  -0.01
  19   6     0.02   0.04  -0.01     0.01   0.02  -0.00     0.00   0.01  -0.00
  20   6    -0.04   0.08   0.03    -0.01   0.01   0.01    -0.00   0.01   0.00
  21   6    -0.05  -0.00   0.03    -0.01  -0.00   0.00    -0.00  -0.00   0.00
  22   6    -0.00  -0.00  -0.00    -0.00  -0.00   0.00    -0.00  -0.00   0.00
  23   6    -0.00  -0.00   0.00    -0.00  -0.00   0.00    -0.00  -0.00   0.00
  24   6    -0.01  -0.00   0.00    -0.00  -0.00   0.00    -0.00   0.00   0.00
  25   6    -0.01  -0.00   0.00    -0.00  -0.00   0.00     0.00   0.00   0.00
  26   6    -0.00   0.00   0.00    -0.00   0.00   0.00     0.00  -0.00  -0.00
  27   6    -0.10  -0.02   0.06    -0.01  -0.00   0.00     0.01   0.00  -0.00
  28   6    -0.07  -0.18   0.03    -0.01  -0.02   0.00     0.01   0.02  -0.00
  29   6     0.05  -0.07  -0.03     0.01  -0.01  -0.01    -0.01   0.02   0.01
  30   6    -0.06  -0.01   0.03     0.02   0.00  -0.01    -0.03  -0.01   0.02
  31   6    -0.00  -0.00   0.00     0.00   0.00  -0.00    -0.00  -0.00   0.00
  32   6     0.00   0.00  -0.01    -0.01   0.00  -0.00    -0.00  -0.00   0.01
  33   6     0.00   0.00   0.00     0.00   0.00   0.00     0.00   0.00   0.00
  34   6     0.00   0.00   0.00     0.10  -0.01   0.05     0.10  -0.01   0.05
  35   6     0.00  -0.00   0.00     0.01  -0.03   0.01     0.01  -0.02   0.00
  36   6    -0.01  -0.01  -0.00     0.03   0.05   0.01     0.05   0.08   0.02
  37   6    -0.00  -0.00  -0.00     0.02  -0.00   0.01     0.02  -0.00   0.01
  38   6     0.00   0.00   0.00    -0.00  -0.00  -0.00    -0.00  -0.00  -0.00
  39   1     0.00  -0.00   0.00     0.00   0.00   0.00    -0.00   0.00  -0.00
  40   1    -0.00   0.00  -0.00    -0.00   0.00  -0.00     0.00  -0.01   0.00
  41   1    -0.00  -0.00  -0.00    -0.00  -0.00  -0.00    -0.00  -0.00  -0.00
  42   1     0.00  -0.00  -0.00     0.00  -0.00  -0.00    -0.00   0.00   0.00
  43   1    -0.00  -0.00  -0.00    -0.00  -0.01  -0.00    -0.00  -0.00  -0.00
  44   1    -0.00   0.00  -0.00    -0.00   0.00  -0.00     0.00  -0.01   0.00
  45   1     0.00  -0.00   0.00    -0.04   0.01  -0.03     0.09  -0.02   0.06
  46   1     0.02  -0.06   0.02    -0.04   0.14  -0.04     0.12  -0.39   0.10
  47   1     0.01   0.01   0.01    -0.06  -0.09  -0.03     0.08   0.12   0.05
  48   1     0.02  -0.00   0.01    -0.27   0.05  -0.19     0.51  -0.09   0.35
  49   1     0.03   0.00  -0.02    -0.53  -0.06   0.30    -0.07  -0.01   0.04
  50   1     0.00  -0.00   0.01     0.00  -0.02   0.09    -0.00  -0.00   0.01
  51   1     0.04  -0.00   0.02    -0.33   0.04  -0.18    -0.04   0.00  -0.02
  52   1     0.12   0.01  -0.06    -0.08  -0.00   0.04    -0.04  -0.00   0.02
  53   1    -0.06  -0.12   0.02    -0.03  -0.06   0.01    -0.01  -0.03   0.01
  54   1     0.14  -0.26  -0.10     0.03  -0.05  -0.02     0.02  -0.03  -0.01
  55   1     0.18   0.01  -0.10     0.02   0.00  -0.01     0.02   0.00  -0.01
  56   1     0.01  -0.01  -0.01     0.00  -0.00  -0.00     0.00  -0.00  -0.00
  57   1    -0.00  -0.00   0.00     0.00   0.00  -0.00    -0.00  -0.00   0.00
  58   1     0.01   0.02  -0.01     0.00   0.00  -0.00    -0.00  -0.00   0.00
  59   1     0.01   0.03  -0.01     0.00   0.00  -0.00    -0.00  -0.00   0.00
  60   1    -0.00  -0.00   0.00     0.00  -0.00   0.00    -0.00  -0.00  -0.00
  61   1     0.01  -0.01  -0.01     0.00  -0.00  -0.00     0.00  -0.00  -0.00
  62   1     0.35   0.06  -0.20     0.03   0.00  -0.01    -0.02  -0.00   0.01
  63   1     0.23   0.59  -0.10     0.02   0.05  -0.01    -0.02  -0.06   0.01
  64   1    -0.15   0.24   0.11    -0.03   0.05   0.02     0.04  -0.06  -0.03
  65   1     0.21   0.03  -0.12    -0.07  -0.01   0.04     0.11   0.02  -0.07
  66   1     0.00  -0.00   0.02     0.00  -0.00   0.01     0.00   0.00  -0.02
  67   1    -0.00   0.00  -0.00    -0.34   0.02  -0.18    -0.35   0.03  -0.18
  68   1    -0.00   0.01  -0.00    -0.04   0.09  -0.02    -0.02   0.05  -0.01
  69   1     0.03   0.04   0.01    -0.12  -0.19  -0.05    -0.17  -0.28  -0.08
  70   1     0.00  -0.00   0.00    -0.06   0.00  -0.03    -0.08   0.00  -0.04
                    199                    200                    201
                        a                      a                      a 
 Frequencies --  3100.7921              3103.7083              3104.7190
 Red. masses --     1.8212                 1.8623                 1.8683
 Frc consts  --     0.0000                 0.0000                 0.0000
 IR Inten    --    23.5244               389.6796                28.5618
 Raman Activ --     0.0000                 0.0000                 0.0000
 Depolar     --     0.0000                 0.0000                 0.0000
 Atom AN      X      Y      Z        X      Y      Z        X      Y      Z
   1   6     0.00   0.00   0.00     0.00  -0.00  -0.00     0.00   0.00  -0.00
   2   6     0.00   0.00   0.00    -0.00   0.00  -0.00    -0.00   0.00  -0.00
   3   6     0.00   0.00   0.00    -0.00   0.00   0.00    -0.00   0.00   0.00
   4   6    -0.00   0.00  -0.00     0.00  -0.00   0.00     0.00  -0.00   0.00
   5   6     0.01  -0.00   0.01    -0.02   0.00  -0.01    -0.03   0.01  -0.02
   6   6     0.02  -0.06   0.02    -0.02   0.08  -0.02    -0.04   0.12  -0.03
   7   6     0.01   0.01   0.01     0.02   0.03   0.01     0.03   0.05   0.02
   8   6     0.07  -0.01   0.05     0.03  -0.01   0.02     0.04  -0.01   0.03
   9   6     0.00  -0.00   0.00    -0.00  -0.00   0.00     0.00  -0.00   0.00
  10   7     0.00  -0.00   0.00     0.00  -0.00   0.00     0.00  -0.00   0.00
  11   6    -0.01   0.00   0.00    -0.00   0.00  -0.00     0.00  -0.00   0.00
  12   6    -0.13  -0.01   0.07     0.00  -0.00   0.00     0.04   0.00  -0.02
  13   6    -0.01  -0.00   0.02    -0.00   0.00  -0.02    -0.00   0.01  -0.03
  14   6    -0.07   0.01  -0.04    -0.08   0.01  -0.04    -0.08   0.01  -0.04
  15   6    -0.00  -0.00   0.00    -0.01  -0.00  -0.00    -0.00   0.00  -0.00
  16   7     0.00  -0.00   0.00     0.00   0.00  -0.00     0.00  -0.00  -0.00
  17   6     0.00  -0.00  -0.00     0.00  -0.00  -0.00    -0.00   0.00   0.00
  18   6    -0.00   0.00   0.00     0.14   0.01  -0.08    -0.13  -0.01   0.07
  19   6     0.00  -0.00  -0.00     0.03   0.06  -0.01    -0.03  -0.06   0.01
  20   6    -0.00   0.00   0.00    -0.01   0.02   0.01     0.02  -0.03  -0.01
  21   6    -0.00  -0.00   0.00    -0.00  -0.00   0.00     0.01   0.00  -0.01
  22   6    -0.00   0.00   0.00    -0.00   0.00   0.00     0.00   0.00  -0.00
  23   6     0.00   0.00  -0.00     0.00  -0.00  -0.00     0.00   0.00  -0.00
  24   6    -0.00  -0.00  -0.00     0.00   0.00  -0.00     0.00   0.00  -0.00
  25   6    -0.00  -0.00   0.00     0.00   0.00  -0.00     0.00   0.00  -0.00
  26   6    -0.00  -0.00   0.00     0.00  -0.00  -0.00    -0.00  -0.00   0.00
  27   6    -0.00  -0.00   0.00     0.00   0.00  -0.00    -0.00  -0.00   0.00
  28   6    -0.00  -0.00   0.00    -0.00  -0.00   0.00    -0.01  -0.01   0.00
  29   6     0.00  -0.00  -0.00     0.01  -0.01  -0.01     0.02  -0.03  -0.01
  30   6     0.00   0.00  -0.00     0.05   0.01  -0.03     0.08   0.01  -0.05
  31   6     0.00   0.00  -0.00     0.00   0.00  -0.00     0.00   0.00  -0.00
  32   6     0.01   0.00  -0.01     0.00  -0.00   0.00     0.00   0.00   0.00
  33   6     0.00   0.00   0.00     0.00   0.00   0.00     0.00   0.00   0.00
  34   6     0.11  -0.01   0.06     0.06  -0.00   0.03     0.01  -0.00   0.00
  35   6     0.01  -0.01   0.00     0.02  -0.07   0.02     0.00   0.00   0.00
  36   6     0.06   0.11   0.03    -0.06  -0.09  -0.03     0.01   0.01   0.00
  37   6     0.03  -0.00   0.02    -0.02  -0.00  -0.01     0.00  -0.00   0.00
  38   6    -0.00  -0.00  -0.00     0.00   0.00   0.00    -0.00  -0.00  -0.00
  39   1     0.00   0.00  -0.00     0.00  -0.00   0.00     0.00   0.00   0.00
  40   1    -0.00   0.00  -0.00    -0.00   0.00  -0.00     0.00  -0.00   0.00
  41   1    -0.00  -0.00  -0.00    -0.00  -0.00  -0.00    -0.00  -0.00  -0.00
  42   1    -0.00   0.00   0.00     0.00  -0.00  -0.00     0.00  -0.00  -0.00
  43   1    -0.00  -0.00  -0.00    -0.00  -0.00  -0.00    -0.00  -0.00  -0.00
  44   1    -0.00   0.00  -0.00    -0.00   0.00  -0.00     0.00  -0.00   0.00
  45   1    -0.05   0.01  -0.03     0.05  -0.01   0.03     0.08  -0.02   0.05
  46   1    -0.06   0.21  -0.06     0.08  -0.28   0.07     0.13  -0.43   0.12
  47   1    -0.03  -0.04  -0.02    -0.07  -0.11  -0.04    -0.11  -0.17  -0.07
  48   1    -0.23   0.04  -0.16    -0.10   0.02  -0.07    -0.15   0.03  -0.10
  49   1     0.45   0.05  -0.26     0.00   0.00  -0.00    -0.14  -0.01   0.08
  50   1    -0.00   0.01  -0.07     0.00  -0.01   0.07     0.00  -0.02   0.10
  51   1     0.25  -0.03   0.14     0.29  -0.03   0.16     0.26  -0.03   0.14
  52   1     0.00  -0.00  -0.00    -0.49  -0.03   0.27     0.47   0.03  -0.26
  53   1     0.00   0.00  -0.00    -0.08  -0.17   0.03     0.09   0.20  -0.04
  54   1     0.00  -0.00  -0.00     0.04  -0.07  -0.03    -0.06   0.11   0.04
  55   1     0.00   0.00  -0.00     0.01   0.00  -0.01    -0.04  -0.00   0.03
  56   1     0.00  -0.00  -0.00    -0.00   0.00   0.00    -0.00   0.00   0.00
  57   1    -0.00  -0.00   0.00     0.00   0.00  -0.00     0.00   0.00   0.00
  58   1     0.00   0.00  -0.00    -0.00  -0.00   0.00    -0.00  -0.00   0.00
  59   1     0.00   0.00  -0.00    -0.00  -0.00   0.00    -0.00  -0.00   0.00
  60   1     0.00  -0.00   0.00     0.00   0.00   0.00     0.00   0.00  -0.00
  61   1     0.00  -0.00  -0.00    -0.00   0.00   0.00    -0.00   0.00   0.00
  62   1     0.01   0.00  -0.00    -0.01  -0.00   0.01     0.01   0.00  -0.01
  63   1     0.00   0.01  -0.00     0.00   0.00  -0.00     0.02   0.04  -0.01
  64   1    -0.01   0.01   0.00    -0.02   0.04   0.02    -0.05   0.08   0.04
  65   1    -0.02  -0.00   0.01    -0.17  -0.03   0.10    -0.29  -0.05   0.17
  66   1    -0.00  -0.01   0.04    -0.00   0.00  -0.01    -0.00   0.00  -0.00
  67   1    -0.41   0.03  -0.21    -0.22   0.02  -0.11    -0.03   0.00  -0.02
  68   1    -0.02   0.04  -0.01    -0.09   0.21  -0.05     0.00  -0.00   0.00
  69   1    -0.23  -0.37  -0.10     0.21   0.33   0.09    -0.03  -0.05  -0.01
  70   1    -0.10   0.01  -0.06     0.07  -0.00   0.04    -0.02   0.00  -0.01
                    202                    203                    204
                        a                      a                      a 
 Frequencies --  3105.3266              3106.4167              3107.5933
 Red. masses --     1.8783                 1.8645                 1.8788
 Frc consts  --     0.0000                 0.0000                 0.0000
 IR Inten    --    58.3920                30.7402                23.6895
 Raman Activ --     0.0000                 0.0000                 0.0000
 Depolar     --     0.0000                 0.0000                 0.0000
 Atom AN      X      Y      Z        X      Y      Z        X      Y      Z
   1   6     0.00   0.00   0.00    -0.00  -0.00  -0.00     0.00  -0.00   0.00
   2   6     0.00   0.00  -0.00    -0.00   0.00   0.00     0.00  -0.00   0.00
   3   6     0.00   0.00  -0.00    -0.00  -0.00  -0.00     0.00  -0.00   0.00
   4   6     0.00  -0.00   0.00    -0.00   0.00  -0.00     0.00   0.00   0.00
   5   6    -0.02   0.01  -0.01     0.00  -0.00   0.00     0.02  -0.00   0.01
   6   6    -0.03   0.10  -0.03     0.01  -0.03   0.01     0.03  -0.09   0.03
   7   6     0.03   0.04   0.02    -0.02  -0.03  -0.01    -0.03  -0.05  -0.02
   8   6     0.04  -0.01   0.03    -0.05   0.01  -0.04    -0.06   0.01  -0.04
   9   6     0.00  -0.00   0.00    -0.00   0.00  -0.00    -0.00   0.00  -0.00
  10   7    -0.00   0.00  -0.00     0.00  -0.00   0.00    -0.00   0.00  -0.00
  11   6    -0.00  -0.00  -0.00    -0.00   0.00  -0.00     0.00  -0.00   0.00
  12   6    -0.04  -0.00   0.02    -0.07  -0.01   0.04     0.07   0.01  -0.04
  13   6     0.00  -0.01   0.03     0.00  -0.01   0.05    -0.00   0.01  -0.05
  14   6     0.06  -0.01   0.03     0.11  -0.01   0.06    -0.12   0.01  -0.06
  15   6     0.00  -0.00  -0.00     0.00   0.00  -0.00    -0.01  -0.00   0.00
  16   7     0.00  -0.00  -0.00    -0.00  -0.00  -0.00     0.00   0.00  -0.00
  17   6     0.00  -0.00  -0.00    -0.00   0.00   0.00     0.00  -0.00  -0.00
  18   6     0.09   0.01  -0.05    -0.02  -0.00   0.01     0.04   0.00  -0.02
  19   6     0.02   0.04  -0.01    -0.00  -0.01   0.00     0.01   0.02  -0.00
  20   6    -0.01   0.02   0.01     0.00  -0.00  -0.00    -0.01   0.01   0.00
  21   6    -0.01  -0.00   0.00     0.00   0.00  -0.00    -0.01  -0.00   0.00
  22   6    -0.00   0.00   0.00     0.00   0.00  -0.00    -0.00  -0.00   0.00
  23   6     0.00  -0.00  -0.00     0.00   0.00  -0.00    -0.00   0.00  -0.00
  24   6    -0.00   0.00   0.00     0.00   0.00   0.00    -0.00   0.00  -0.00
  25   6    -0.00   0.00   0.00    -0.00   0.00  -0.00    -0.00  -0.00   0.00
  26   6    -0.00  -0.00   0.00    -0.00  -0.00   0.00    -0.00  -0.00   0.00
  27   6    -0.00  -0.00   0.00    -0.01  -0.00   0.01    -0.01  -0.00   0.00
  28   6    -0.01  -0.01   0.00    -0.01  -0.03   0.01    -0.01  -0.02   0.00
  29   6     0.01  -0.02  -0.01     0.04  -0.06  -0.03     0.02  -0.04  -0.02
  30   6     0.05   0.01  -0.03     0.16   0.02  -0.09     0.10   0.02  -0.06
  31   6     0.00   0.00  -0.00     0.00   0.01  -0.00     0.00   0.00  -0.00
  32   6    -0.00  -0.00   0.00    -0.00   0.00   0.00     0.00  -0.00   0.01
  33   6    -0.00  -0.00  -0.00     0.00   0.00   0.00    -0.00  -0.00  -0.00
  34   6    -0.10   0.00  -0.05     0.04  -0.00   0.02    -0.05   0.00  -0.03
  35   6    -0.03   0.08  -0.02     0.01  -0.03   0.01    -0.02   0.04  -0.01
  36   6     0.07   0.10   0.03    -0.03  -0.04  -0.01     0.04   0.06   0.02
  37   6     0.03   0.00   0.01    -0.01  -0.00  -0.01     0.02  -0.00   0.01
  38   6    -0.00  -0.00  -0.00     0.00   0.00   0.00     0.00  -0.00   0.00
  39   1    -0.00   0.00  -0.00    -0.00   0.00  -0.00     0.00  -0.00   0.00
  40   1     0.00  -0.00   0.00     0.00  -0.00   0.00    -0.00   0.00  -0.00
  41   1    -0.00  -0.00  -0.00     0.00   0.00   0.00    -0.00  -0.00  -0.00
  42   1    -0.00   0.00   0.00    -0.00   0.00  -0.00     0.00  -0.00   0.00
  43   1    -0.00  -0.00  -0.00     0.00   0.00   0.00    -0.00  -0.00  -0.00
  44   1     0.00  -0.00   0.00     0.00  -0.00   0.00    -0.00   0.00  -0.00
  45   1     0.07  -0.01   0.04    -0.01   0.00  -0.01    -0.06   0.01  -0.04
  46   1     0.10  -0.34   0.09    -0.03   0.10  -0.03    -0.10   0.33  -0.09
  47   1    -0.09  -0.14  -0.05     0.06   0.09   0.03     0.11   0.16   0.07
  48   1    -0.13   0.03  -0.09     0.18  -0.03   0.13     0.22  -0.04   0.15
  49   1     0.13   0.01  -0.07     0.24   0.03  -0.13    -0.25  -0.03   0.14
  50   1    -0.00   0.02  -0.09    -0.00   0.03  -0.15     0.00  -0.03   0.16
  51   1    -0.22   0.02  -0.12    -0.37   0.04  -0.20     0.42  -0.05   0.23
  52   1    -0.31  -0.02   0.17     0.08   0.00  -0.04    -0.13  -0.01   0.07
  53   1    -0.06  -0.12   0.02     0.01   0.03  -0.01    -0.03  -0.06   0.01
  54   1     0.04  -0.06  -0.02    -0.01   0.01   0.00     0.02  -0.03  -0.01
  55   1     0.02   0.00  -0.01    -0.01  -0.00   0.00     0.02   0.00  -0.01
  56   1     0.00  -0.00  -0.00     0.00  -0.00   0.00     0.00  -0.00  -0.00
  57   1     0.00   0.00  -0.00     0.00   0.00  -0.00    -0.00  -0.00   0.00
  58   1     0.00   0.00  -0.00    -0.00  -0.00   0.00     0.00   0.00  -0.00
  59   1     0.00   0.00  -0.00    -0.00  -0.00   0.00     0.00   0.00  -0.00
  60   1     0.00   0.00   0.00     0.00   0.00   0.00    -0.00  -0.00   0.00
  61   1     0.00  -0.00  -0.00    -0.00   0.00  -0.00     0.00  -0.00  -0.00
  62   1     0.01   0.00  -0.01     0.03   0.00  -0.02     0.03   0.00  -0.02
  63   1     0.02   0.04  -0.01     0.04   0.10  -0.02     0.03   0.07  -0.01
  64   1    -0.04   0.06   0.03    -0.11   0.18   0.08    -0.07   0.11   0.05
  65   1    -0.18  -0.03   0.11    -0.55  -0.09   0.33    -0.33  -0.05   0.20
  66   1    -0.00   0.00  -0.01     0.00   0.00  -0.00    -0.00   0.01  -0.04
  67   1     0.35  -0.02   0.18    -0.15   0.01  -0.08     0.17  -0.01   0.09
  68   1     0.11  -0.26   0.07    -0.04   0.11  -0.03     0.06  -0.14   0.04
  69   1    -0.22  -0.36  -0.10     0.09   0.15   0.04    -0.13  -0.20  -0.06
  70   1    -0.08   0.00  -0.04     0.04  -0.00   0.02    -0.05   0.00  -0.03
