 Entering Gaussian System
 *********************************************
 Gaussian 98:
 frequency output generated by the xtb code
 *********************************************
                         Standard orientation:
 --------------------------------------------------------------------
  Center     Atomic     Atomic              Coordinates (Angstroms)
  Number     Number      Type              X           Y           Z
 --------------------------------------------------------------------
    1          6             0        0.091498    4.678333    1.064162
    2          6             0       -0.598132    4.213453   -0.225323
    3          6             0       -1.819239    5.088166   -0.508093
    4          6             0       -0.922590    2.742987   -0.129022
    5          6             0       -2.104947    2.250357    0.233718
    6          6             0       -2.392962    0.824537    0.290101
    7          6             0       -3.709075    0.530605    0.992935
    8          6             0       -4.906485    0.673537    0.046463
    9          6             0       -3.783481   -0.794855    1.749249
   10          6             0       -1.538591   -0.064812   -0.255218
   11          6             0       -1.943473   -1.475348   -0.474379
   12          6             0       -2.931990   -1.752754   -1.420296
   13          6             0       -3.352589   -3.046950   -1.666119
   14          6             0       -2.792088   -4.104343   -0.969671
   15          6             0       -1.816447   -3.847187   -0.023172
   16          6             0       -1.400824   -2.550002    0.221771
   17          6             0       -0.183392    0.378155   -0.804402
   18          6             0       -0.182162    0.369358   -2.364320
   19          6             0       -1.324110    1.209678   -2.938959
   20          6             0       -0.170386   -1.012572   -3.015772
   21         15             0        1.123525   -0.901610   -0.175857
   22          6             0        2.723973   -0.306217   -1.015473
   23          6             0        3.620713    0.724757   -0.333391
   24          6             0        4.785597    1.086778   -1.256558
   25          6             0        5.606888   -0.150975   -1.603948
   26          6             0        4.720881   -1.207793   -2.256710
   27          6             0        3.548562   -1.556993   -1.344044
   28          6             0        1.451159   -0.388319    1.620990
   29          6             0        0.217505   -0.196413    2.502308
   30          6             0        0.646414    0.214759    3.910756
   31          6             0        1.537790   -0.856040    4.533159
   32          6             0        2.754862   -1.111692    3.649207
   33          6             0        2.322850   -1.488858    2.234262
   34          6             0        0.217757    1.791510   -0.336704
   35          1             0        0.328653    5.738540    1.003705
   36          1             0        1.015174    4.129331    1.230550
   37          1             0       -0.564243    4.517286    1.917556
   38          1             0        0.110339    4.346720   -1.053458
   39          1             0       -2.374130    4.710046   -1.364226
   40          1             0       -2.483494    5.118841    0.352176
   41          1             0       -1.502470    6.106563   -0.724736
   42          1             0       -2.929457    2.907378    0.466195
   43          1             0       -3.805870    1.321591    1.749971
   44          1             0       -5.832375    0.698772    0.618601
   45          1             0       -4.955421   -0.167929   -0.638836
   46          1             0       -4.834560    1.592002   -0.533048
   47          1             0       -3.909981   -1.637832    1.077421
   48          1             0       -4.635942   -0.772712    2.426977
   49          1             0       -2.882772   -0.950703    2.337497
   50          1             0       -3.373042   -0.941397   -1.981068
   51          1             0       -4.119873   -3.229787   -2.405893
   52          1             0       -3.116856   -5.117055   -1.160582
   53          1             0       -1.377258   -4.661826    0.535075
   54          1             0       -0.660624   -2.376768    0.986186
   55          1             0        0.744640    0.868551   -2.673289
   56          1             0       -1.247269    2.244544   -2.616513
   57          1             0       -1.285780    1.183241   -4.026778
   58          1             0       -2.289452    0.829363   -2.619966
   59          1             0        0.568975   -1.656888   -2.541864
   60          1             0        0.086360   -0.915237   -4.070009
   61          1             0       -1.137164   -1.498558   -2.944280
   62          1             0        2.401824    0.114498   -1.973624
   63          1             0        4.028308    0.317608    0.594028
   64          1             0        3.063582    1.632692   -0.097037
   65          1             0        5.421565    1.829585   -0.767972
   66          1             0        4.397364    1.533393   -2.175924
   67          1             0        6.424249    0.119972   -2.276513
   68          1             0        6.047321   -0.561088   -0.691431
   69          1             0        4.337970   -0.824766   -3.206375
   70          1             0        5.305273   -2.105950   -2.470484
   71          1             0        2.910490   -2.301386   -1.828692
   72          1             0        3.931072   -2.005755   -0.424234
   73          1             0        2.025046    0.544575    1.634925
   74          1             0       -0.449069    0.559553    2.086504
   75          1             0       -0.344010   -1.129693    2.572482
   76          1             0        1.191165    1.161803    3.866214
   77          1             0       -0.239096    0.369766    4.531982
   78          1             0        1.859155   -0.544282    5.529882
   79          1             0        0.967699   -1.782360    4.640289
   80          1             0        3.365055   -1.911752    4.075738
   81          1             0        3.369552   -0.208065    3.611127
   82          1             0        1.757565   -2.424761    2.261016
   83          1             0        3.207152   -1.661203    1.617094
   84          1             0        0.741890    1.734241    0.619403
   85          1             0        0.923095    2.214682   -1.056646
 --------------------------------------------------------------------
     1 basis functions        1 primitive gaussians
     1 alpha electrons        1 beta electrons
 
 Harmonic frequencies (cm**-1), IR intensities (km*mol⁻¹),
 Raman scattering activities (A**4/amu), Raman depolarization ratios,
 reduced masses (AMU), force constants (mDyne/A) and normal coordinates:
                      1                      2                      3
                        a                      a                      a 
 Frequencies --    22.1756                29.3596                34.3223
 Red. masses --     9.7603                 8.5486                10.0219
 Frc consts  --     0.0000                 0.0000                 0.0000
 IR Inten    --     0.0096                 0.0685                 0.1380
 Raman Activ --     0.0000                 0.0000                 0.0000
 Depolar     --     0.0000                 0.0000                 0.0000
 Atom AN      X      Y      Z        X      Y      Z        X      Y      Z
   1   6     0.19   0.11  -0.41    -0.49   0.10   0.27     0.09  -0.18   0.19
   2   6    -0.01  -0.01  -0.27     0.03   0.01   0.02     0.13  -0.03   0.12
   3   6    -0.05  -0.03  -0.16     0.10  -0.06  -0.50     0.17   0.03   0.15
   4   6     0.01  -0.00  -0.09     0.04   0.00  -0.01     0.08  -0.03  -0.02
   5   6     0.01   0.01  -0.05     0.04   0.01   0.00     0.07  -0.01  -0.01
   6   6     0.03   0.01   0.03     0.03   0.02   0.02     0.03  -0.01  -0.04
   7   6     0.06   0.03   0.10     0.04   0.03   0.04     0.03   0.04  -0.03
   8   6     0.00   0.02   0.16     0.02   0.06   0.08     0.03   0.20  -0.01
   9   6     0.09   0.04   0.12     0.04   0.03   0.04    -0.08  -0.00  -0.11
  10   6     0.01  -0.01   0.03     0.02   0.01   0.02     0.02  -0.03  -0.04
  11   6    -0.02   0.00   0.03     0.00   0.01   0.02     0.01  -0.04   0.03
  12   6    -0.08   0.05   0.07    -0.03   0.04   0.05    -0.05  -0.08   0.10
  13   6    -0.12   0.06   0.06    -0.07   0.05   0.05    -0.07  -0.09   0.19
  14   6    -0.10   0.03  -0.00    -0.07   0.03   0.03    -0.04  -0.06   0.21
  15   6    -0.04  -0.01  -0.05    -0.03   0.01  -0.00     0.03  -0.02   0.13
  16   6     0.00  -0.03  -0.04     0.01  -0.00  -0.01     0.05  -0.01   0.04
  17   6     0.00  -0.02   0.01     0.02  -0.01   0.00     0.01  -0.05  -0.08
  18   6    -0.01  -0.03   0.01     0.01  -0.01   0.00    -0.04  -0.12  -0.08
  19   6    -0.01  -0.04   0.00     0.01   0.00   0.01    -0.07  -0.16  -0.07
  20   6    -0.02  -0.04   0.02    -0.02  -0.02   0.01    -0.05  -0.15  -0.02
  21  15     0.03  -0.01  -0.01     0.04  -0.01  -0.02     0.06  -0.00  -0.10
  22   6     0.02   0.08   0.05     0.02   0.01  -0.00     0.02   0.08  -0.03
  23   6    -0.00   0.05   0.13     0.02  -0.00   0.02    -0.00   0.07   0.02
  24   6     0.00   0.14   0.17     0.02   0.02   0.03    -0.01   0.15   0.04
  25   6     0.03   0.18   0.09     0.02   0.03  -0.00     0.03   0.19  -0.01
  26   6     0.05   0.21   0.01     0.02   0.04  -0.03     0.06   0.19  -0.05
  27   6     0.05   0.12  -0.03     0.02   0.02  -0.04     0.06   0.12  -0.07
  28   6    -0.02  -0.07   0.02     0.02  -0.03  -0.00    -0.03   0.00  -0.05
  29   6    -0.03  -0.12   0.02     0.02  -0.04  -0.00    -0.04   0.13  -0.10
  30   6    -0.04  -0.20   0.04     0.02  -0.08   0.01    -0.06   0.07  -0.08
  31   6    -0.04  -0.22  -0.00     0.01  -0.10  -0.01    -0.19  -0.02  -0.05
  32   6    -0.03  -0.16  -0.00     0.01  -0.09  -0.02    -0.17  -0.11   0.01
  33   6    -0.01  -0.09  -0.03     0.01  -0.05  -0.02    -0.14  -0.06  -0.01
  34   6     0.01  -0.02   0.01     0.03  -0.01  -0.01     0.04  -0.04  -0.15
  35   1     0.05   0.03  -0.16    -0.13   0.03   0.08     0.03  -0.05   0.09
  36   1     0.06   0.03  -0.14    -0.16   0.03   0.20     0.02  -0.06   0.05
  37   1     0.09   0.06  -0.09    -0.24   0.05   0.00     0.02  -0.07   0.04
  38   1    -0.04  -0.03  -0.11     0.10  -0.00   0.08     0.05   0.01   0.05
  39   1    -0.05  -0.03  -0.02     0.13  -0.05  -0.20     0.05   0.04   0.03
  40   1     0.02   0.01  -0.02    -0.07  -0.01  -0.22     0.04  -0.00   0.04
  41   1    -0.02  -0.01  -0.08     0.04  -0.02  -0.14     0.06   0.01   0.07
  42   1     0.00   0.00  -0.03     0.01   0.01   0.00     0.03   0.00   0.02
  43   1     0.03   0.01   0.03     0.02   0.01   0.02     0.03  -0.00   0.01
  44   1     0.01   0.01   0.06     0.01   0.02   0.03     0.01   0.06  -0.00
  45   1    -0.01   0.00   0.06    -0.00   0.02   0.02    -0.01   0.08  -0.03
  46   1    -0.01   0.00   0.04     0.01   0.02   0.02     0.02   0.07   0.02
  47   1     0.02   0.01   0.04     0.00   0.01   0.01    -0.05   0.01  -0.05
  48   1     0.03   0.01   0.05     0.02   0.01   0.02    -0.02   0.01  -0.03
  49   1     0.03   0.01   0.02     0.01   0.00   0.00    -0.02  -0.04  -0.04
  50   1    -0.03   0.02   0.03    -0.01   0.01   0.02    -0.02  -0.03   0.03
  51   1    -0.05   0.03   0.03    -0.03   0.02   0.02    -0.04  -0.03   0.07
  52   1    -0.04   0.01  -0.00    -0.03   0.01   0.01    -0.02  -0.02   0.08
  53   1    -0.01  -0.01  -0.03    -0.01  -0.00  -0.01     0.02   0.00   0.04
  54   1     0.02  -0.02  -0.02     0.01  -0.01  -0.01     0.03   0.01  -0.01
  55   1    -0.00  -0.01  -0.00     0.00  -0.01  -0.00    -0.02  -0.04  -0.04
  56   1    -0.00  -0.01  -0.00     0.01   0.00  -0.00    -0.03  -0.05  -0.02
  57   1    -0.01  -0.02   0.00    -0.00  -0.00   0.00    -0.02  -0.04  -0.02
  58   1    -0.00  -0.01   0.01     0.00   0.01   0.01    -0.02  -0.06  -0.02
  59   1     0.01  -0.00  -0.00    -0.00  -0.01  -0.00     0.01  -0.03  -0.01
  60   1    -0.02  -0.01   0.00    -0.01  -0.01   0.00    -0.04  -0.06  -0.01
  61   1    -0.00  -0.02   0.02    -0.01  -0.00   0.01    -0.01  -0.06   0.03
  62   1     0.01   0.04   0.02     0.01   0.01   0.00     0.01   0.03  -0.00
  63   1    -0.00  -0.00   0.03     0.01  -0.01   0.00     0.00   0.01   0.00
  64   1    -0.01   0.01   0.06     0.01  -0.00   0.01    -0.01   0.02   0.02
  65   1    -0.01   0.03   0.07     0.01   0.00   0.01    -0.01   0.04   0.02
  66   1     0.00   0.06   0.06     0.01   0.01   0.01    -0.00   0.05   0.02
  67   1     0.01   0.07   0.03     0.01   0.01   0.00     0.01   0.07   0.00
  68   1     0.01   0.03   0.02     0.01   0.00  -0.00     0.01   0.05  -0.01
  69   1     0.02   0.08   0.01     0.01   0.02  -0.01     0.02   0.06  -0.01
  70   1     0.02   0.07  -0.02     0.01   0.01  -0.01     0.02   0.06  -0.02
  71   1     0.02   0.04  -0.03     0.01   0.01  -0.02     0.03   0.03  -0.03
  72   1     0.01   0.02  -0.02     0.01  -0.00  -0.01     0.02   0.03  -0.02
  73   1    -0.01  -0.02   0.02     0.01  -0.01   0.00     0.01  -0.01  -0.01
  74   1    -0.01  -0.03   0.01     0.01  -0.00   0.00     0.02   0.06  -0.03
  75   1    -0.01  -0.04  -0.01     0.00  -0.01  -0.01    -0.04   0.06  -0.04
  76   1    -0.01  -0.06   0.03     0.01  -0.02   0.01     0.01   0.01  -0.01
  77   1    -0.01  -0.07   0.01     0.01  -0.02   0.00    -0.02   0.05  -0.03
  78   1    -0.02  -0.08   0.01     0.00  -0.04  -0.00    -0.06  -0.02  -0.01
  79   1    -0.01  -0.07  -0.02     0.00  -0.03  -0.01    -0.08   0.01  -0.03
  80   1    -0.01  -0.05  -0.01     0.00  -0.03  -0.01    -0.07  -0.05   0.01
  81   1    -0.01  -0.04   0.02     0.01  -0.03   0.00    -0.03  -0.05   0.01
  82   1    -0.00  -0.03  -0.02     0.00  -0.01  -0.01    -0.06  -0.01  -0.01
  83   1    -0.00  -0.01  -0.01     0.00  -0.01  -0.01    -0.04  -0.04   0.00
  84   1    -0.02  -0.01   0.02     0.01  -0.00  -0.00     0.05  -0.00  -0.07
  85   1     0.02  -0.02   0.02     0.01  -0.01  -0.00    -0.01  -0.01  -0.07
                      4                      5                      6
                        a                      a                      a 
 Frequencies --    39.8104                44.8017                52.1266
 Red. masses --     9.8831                 9.8543                 8.8969
 Frc consts  --     0.0000                 0.0000                 0.0000
 IR Inten    --     0.0581                 0.0240                 0.0721
 Raman Activ --     0.0000                 0.0000                 0.0000
 Depolar     --     0.0000                 0.0000                 0.0000
 Atom AN      X      Y      Z        X      Y      Z        X      Y      Z
   1   6    -0.02  -0.03   0.04    -0.05   0.07  -0.02     0.04  -0.12   0.13
   2   6    -0.02  -0.02   0.04    -0.05   0.05  -0.01     0.08  -0.01   0.06
   3   6    -0.05  -0.04   0.07    -0.08   0.02   0.01     0.13   0.05   0.06
   4   6     0.01  -0.03   0.01    -0.02   0.04  -0.01     0.02  -0.00  -0.03
   5   6     0.05  -0.05   0.10     0.00   0.02   0.02    -0.00   0.01  -0.09
   6   6     0.06  -0.05   0.07     0.03   0.02   0.03    -0.01   0.02  -0.08
   7   6     0.13  -0.08   0.19     0.07  -0.03   0.09    -0.01   0.00  -0.07
   8   6     0.03   0.02   0.34     0.03  -0.24   0.11    -0.01  -0.46  -0.13
   9   6     0.18  -0.14   0.09     0.22   0.04   0.22     0.22   0.19   0.28
  10   6     0.03  -0.03  -0.02     0.02   0.04  -0.01    -0.01   0.01  -0.06
  11   6    -0.01  -0.01  -0.07     0.06   0.02   0.02    -0.04   0.01  -0.04
  12   6    -0.10   0.09  -0.00     0.08  -0.03   0.01    -0.02   0.02  -0.06
  13   6    -0.17   0.13  -0.06     0.15  -0.05   0.01    -0.10   0.03   0.00
  14   6    -0.15   0.06  -0.17     0.19  -0.02   0.02    -0.20   0.04   0.09
  15   6    -0.07  -0.04  -0.23     0.16   0.03   0.04    -0.19   0.03   0.08
  16   6     0.00  -0.07  -0.18     0.09   0.05   0.04    -0.11   0.01   0.02
  17   6     0.02  -0.02  -0.05    -0.00   0.06  -0.05     0.00  -0.01  -0.04
  18   6     0.01  -0.08  -0.05    -0.03   0.06  -0.05     0.04  -0.00  -0.04
  19   6     0.03  -0.06  -0.06    -0.05   0.05  -0.02     0.06   0.01  -0.05
  20   6    -0.03  -0.10  -0.01    -0.02   0.07  -0.05     0.03  -0.00  -0.04
  21  15     0.06   0.02  -0.02    -0.03   0.10  -0.08    -0.02  -0.05  -0.04
  22   6     0.04  -0.02  -0.02    -0.00   0.03  -0.04    -0.00  -0.01   0.01
  23   6     0.00   0.05  -0.09     0.08  -0.08   0.04    -0.07   0.06  -0.02
  24   6     0.03  -0.01  -0.07     0.14  -0.14   0.09    -0.08   0.10  -0.02
  25   6     0.07  -0.03   0.08     0.03  -0.19   0.03    -0.01   0.13   0.03
  26   6     0.11  -0.10   0.14    -0.05  -0.06  -0.06     0.06   0.05   0.07
  27   6     0.07  -0.04   0.11    -0.10  -0.02  -0.11     0.07   0.02   0.07
  28   6     0.01   0.08  -0.03    -0.05   0.04  -0.03    -0.01  -0.04  -0.02
  29   6    -0.04   0.06  -0.09    -0.05   0.21  -0.07    -0.01  -0.05  -0.01
  30   6    -0.14   0.09  -0.07    -0.03   0.10  -0.04    -0.00  -0.01  -0.03
  31   6    -0.13   0.14  -0.01    -0.23  -0.06  -0.04     0.03   0.02  -0.02
  32   6    -0.07   0.18   0.06    -0.22  -0.20   0.01     0.02   0.02  -0.03
  33   6     0.02   0.13   0.04    -0.21  -0.09  -0.03     0.01  -0.01  -0.02
  34   6     0.01   0.00  -0.11    -0.00   0.07  -0.06     0.01  -0.02  -0.01
  35   1    -0.01  -0.01   0.02    -0.02   0.02  -0.00     0.02  -0.04   0.06
  36   1    -0.00  -0.00   0.01    -0.01   0.03  -0.01     0.00  -0.05   0.04
  37   1    -0.00  -0.02   0.01    -0.01   0.01  -0.00    -0.00  -0.05   0.02
  38   1    -0.01   0.01   0.01    -0.02   0.02  -0.01     0.04   0.00   0.03
  39   1    -0.02  -0.01   0.02    -0.03   0.00   0.01     0.05   0.04   0.00
  40   1    -0.01  -0.02   0.02    -0.02   0.00   0.01     0.02   0.01   0.01
  41   1    -0.02  -0.01   0.02    -0.03   0.01   0.00     0.05   0.02   0.04
  42   1     0.02  -0.02   0.06    -0.00   0.00   0.01    -0.00   0.01  -0.04
  43   1     0.07  -0.04   0.08     0.00   0.01   0.00    -0.05   0.05  -0.08
  44   1     0.03  -0.01   0.13     0.01  -0.07   0.04    -0.00  -0.09  -0.04
  45   1    -0.02   0.03   0.07     0.02  -0.10   0.06     0.01  -0.21   0.06
  46   1    -0.01   0.02   0.12    -0.02  -0.09  -0.00    -0.02  -0.20  -0.14
  47   1     0.02  -0.02   0.01     0.09  -0.01   0.09     0.13  -0.01   0.15
  48   1     0.08  -0.05   0.06     0.06   0.00   0.06     0.05   0.06   0.06
  49   1     0.07  -0.06  -0.01     0.07   0.06   0.07     0.06   0.16   0.11
  50   1    -0.03   0.04   0.03     0.02  -0.01  -0.00     0.02   0.00  -0.04
  51   1    -0.07   0.06  -0.00     0.05  -0.03  -0.00    -0.03   0.01  -0.00
  52   1    -0.06   0.02  -0.06     0.07  -0.01   0.00    -0.08   0.01   0.04
  53   1    -0.02  -0.03  -0.09     0.05   0.01   0.01    -0.07   0.01   0.04
  54   1     0.02  -0.04  -0.06     0.02   0.02   0.02    -0.03   0.00   0.00
  55   1     0.01  -0.03  -0.02    -0.01   0.02  -0.02     0.01  -0.00  -0.01
  56   1     0.01  -0.02  -0.02    -0.02   0.01  -0.01     0.02   0.00  -0.01
  57   1     0.01  -0.02  -0.02    -0.02   0.01  -0.01     0.02   0.00  -0.02
  58   1     0.01  -0.01  -0.02    -0.01   0.01   0.00     0.01   0.01  -0.02
  59   1    -0.02  -0.03   0.01    -0.01   0.02  -0.02     0.02   0.00  -0.02
  60   1     0.00  -0.04  -0.00    -0.01   0.02  -0.02    -0.00   0.00  -0.01
  61   1    -0.01  -0.02  -0.01    -0.01   0.02  -0.02     0.01  -0.00  -0.00
  62   1     0.02  -0.03  -0.02     0.01   0.04  -0.00     0.00  -0.02  -0.01
  63   1    -0.01   0.04  -0.01     0.00  -0.05   0.01    -0.01   0.03  -0.00
  64   1    -0.01   0.02  -0.06     0.04  -0.01   0.02    -0.03   0.01  -0.01
  65   1    -0.00   0.01  -0.03     0.06  -0.07   0.04    -0.04   0.05  -0.01
  66   1     0.02  -0.03  -0.04     0.06  -0.01   0.03    -0.03   0.01  -0.01
  67   1     0.03  -0.03   0.03     0.02  -0.06   0.02    -0.01   0.05   0.01
  68   1     0.01   0.02   0.04    -0.01  -0.09   0.01     0.01   0.06   0.01
  69   1     0.04  -0.06   0.02     0.00   0.01  -0.01     0.02  -0.00   0.01
  70   1     0.04  -0.03   0.07    -0.04  -0.03  -0.03     0.04   0.02   0.03
  71   1     0.03  -0.02   0.04    -0.05   0.02  -0.05     0.04  -0.01   0.03
  72   1     0.01   0.01   0.05    -0.05  -0.03  -0.04     0.03   0.02   0.03
  73   1    -0.01   0.03  -0.01     0.02  -0.01  -0.00    -0.01  -0.01  -0.01
  74   1    -0.01   0.01  -0.04     0.02   0.09  -0.02    -0.01  -0.02  -0.01
  75   1    -0.01   0.01  -0.04    -0.06   0.09  -0.03     0.01  -0.02   0.01
  76   1    -0.05   0.03  -0.02     0.04   0.00   0.00    -0.01   0.00  -0.02
  77   1    -0.05   0.02  -0.04    -0.01   0.07  -0.02     0.00  -0.00  -0.01
  78   1    -0.06   0.05   0.00    -0.07  -0.04  -0.00     0.01   0.02  -0.01
  79   1    -0.03   0.03  -0.01    -0.11   0.01  -0.03     0.02   0.00   0.00
  80   1    -0.02   0.06   0.03    -0.10  -0.09   0.00     0.01   0.01  -0.01
  81   1    -0.03   0.06   0.02    -0.03  -0.08   0.02     0.00   0.01  -0.02
  82   1     0.02   0.03   0.01    -0.10  -0.00  -0.02     0.01  -0.01   0.00
  83   1     0.02   0.05   0.03    -0.06  -0.05   0.00     0.00  -0.00  -0.01
  84   1     0.03   0.01  -0.05     0.02   0.02  -0.03    -0.00  -0.01  -0.00
  85   1    -0.02   0.01  -0.06    -0.01   0.02  -0.03     0.01  -0.01   0.00
                      7                      8                      9
                        a                      a                      a 
 Frequencies --    54.7957                61.0584                67.3319
 Red. masses --     9.4615                10.1495                10.5612
 Frc consts  --     0.0000                 0.0000                 0.0000
 IR Inten    --     0.1660                 0.0007                 0.0848
 Raman Activ --     0.0000                 0.0000                 0.0000
 Depolar     --     0.0000                 0.0000                 0.0000
 Atom AN      X      Y      Z        X      Y      Z        X      Y      Z
   1   6     0.03   0.06  -0.04    -0.09   0.08  -0.04    -0.06   0.04  -0.02
   2   6     0.03   0.01  -0.03    -0.14   0.05  -0.00    -0.09   0.01   0.01
   3   6     0.03   0.00  -0.06    -0.20  -0.01   0.08    -0.15  -0.05   0.07
   4   6     0.03   0.02   0.01    -0.06   0.03   0.00    -0.01  -0.01   0.02
   5   6     0.03   0.02   0.02    -0.05  -0.01  -0.01     0.00  -0.05   0.00
   6   6     0.03   0.02   0.03     0.00  -0.02  -0.03     0.04  -0.06  -0.03
   7   6     0.02   0.03   0.02    -0.01  -0.05  -0.05     0.03  -0.10  -0.07
   8   6     0.03   0.01  -0.01     0.01   0.03  -0.05     0.05  -0.09  -0.10
   9   6     0.01   0.03   0.02    -0.05  -0.09  -0.12     0.01  -0.11  -0.10
  10   6     0.02   0.02   0.04     0.03   0.02  -0.03     0.08  -0.02  -0.03
  11   6     0.03   0.02   0.03     0.04   0.01   0.00     0.05  -0.01  -0.04
  12   6     0.07   0.02  -0.01     0.01  -0.01   0.04     0.02   0.04  -0.03
  13   6     0.11   0.01  -0.06    -0.09  -0.01   0.17    -0.14   0.08   0.06
  14   6     0.11   0.01  -0.07    -0.16   0.02   0.27    -0.28   0.06   0.15
  15   6     0.06   0.01  -0.02    -0.09   0.04   0.20    -0.21   0.00   0.09
  16   6     0.02   0.01   0.03     0.01   0.03   0.06    -0.04  -0.03  -0.01
  17   6     0.03   0.01   0.04     0.02   0.07  -0.03     0.08   0.02   0.02
  18   6     0.04  -0.01   0.04     0.01   0.10  -0.03     0.13   0.00   0.02
  19   6     0.05  -0.01   0.02     0.01   0.11  -0.01     0.15   0.01  -0.02
  20   6     0.06  -0.01   0.05    -0.01   0.11  -0.05     0.14  -0.01   0.05
  21  15     0.01  -0.00   0.12     0.04   0.09  -0.12     0.14   0.08   0.13
  22   6    -0.02  -0.07   0.01     0.05  -0.01  -0.07     0.07   0.03   0.04
  23   6    -0.08   0.12  -0.20    -0.01   0.10  -0.14     0.18  -0.08   0.06
  24   6    -0.22   0.11  -0.39     0.07  -0.03  -0.08     0.10  -0.04  -0.02
  25   6    -0.11   0.15  -0.27     0.12  -0.07   0.20    -0.01  -0.04  -0.28
  26   6    -0.04  -0.09   0.03     0.20  -0.16   0.24    -0.14   0.06  -0.27
  27   6     0.09  -0.06   0.21     0.09  -0.04   0.14    -0.03   0.02  -0.15
  28   6     0.03   0.02   0.07     0.06   0.02  -0.07     0.06   0.09   0.07
  29   6     0.00   0.08   0.02     0.06   0.01  -0.06     0.01   0.05   0.01
  30   6    -0.06  -0.07   0.08     0.07  -0.11  -0.02    -0.10  -0.03   0.06
  31   6    -0.20  -0.20   0.06     0.01  -0.19  -0.09    -0.13  -0.05   0.06
  32   6    -0.15  -0.19   0.13     0.02  -0.15  -0.08    -0.06   0.04   0.14
  33   6    -0.05  -0.04   0.06     0.04  -0.03  -0.12     0.05   0.10   0.09
  34   6     0.03   0.01   0.02    -0.03   0.07  -0.01     0.03   0.04   0.02
  35   1     0.01   0.02  -0.02    -0.04   0.03  -0.01    -0.04   0.02  -0.01
  36   1     0.01   0.02  -0.01    -0.01   0.04  -0.03    -0.00   0.03  -0.02
  37   1     0.01   0.03  -0.01    -0.01   0.01  -0.00    -0.00  -0.00   0.00
  38   1     0.01  -0.00  -0.01    -0.06   0.03  -0.01    -0.04   0.01  -0.01
  39   1     0.01  -0.01  -0.01    -0.07  -0.01   0.03    -0.05  -0.02   0.03
  40   1     0.01   0.01  -0.02    -0.04  -0.01   0.04    -0.03  -0.02   0.03
  41   1     0.01  -0.00  -0.03    -0.08   0.00   0.02    -0.06  -0.01   0.01
  42   1     0.01   0.01   0.00    -0.02  -0.01   0.00    -0.01  -0.02   0.00
  43   1    -0.00   0.01   0.00     0.00  -0.03  -0.00    -0.00  -0.03  -0.02
  44   1     0.01   0.00  -0.01    -0.00  -0.00  -0.02     0.01  -0.03  -0.03
  45   1     0.02   0.00  -0.00     0.00   0.02  -0.03     0.02  -0.03  -0.03
  46   1     0.01   0.00  -0.01     0.01   0.02   0.00     0.02  -0.03  -0.03
  47   1     0.01   0.01   0.01    -0.03  -0.01  -0.05    -0.00  -0.03  -0.03
  48   1    -0.00   0.01  -0.00    -0.01  -0.02  -0.03     0.00  -0.03  -0.03
  49   1    -0.00   0.01   0.02    -0.01  -0.05  -0.04     0.00  -0.04  -0.03
  50   1     0.02   0.01  -0.00     0.01  -0.01  -0.01     0.04   0.02  -0.02
  51   1     0.04   0.00  -0.03    -0.04  -0.01   0.06    -0.05   0.04   0.02
  52   1     0.04   0.00  -0.03    -0.07   0.01   0.11    -0.13   0.03   0.07
  53   1     0.02   0.00  -0.01    -0.04   0.02   0.07    -0.09  -0.00   0.04
  54   1    -0.01   0.00   0.02     0.02   0.01   0.00     0.01  -0.02  -0.02
  55   1     0.01  -0.00   0.01     0.01   0.03  -0.01     0.04  -0.00   0.01
  56   1     0.01  -0.00   0.00     0.01   0.03   0.00     0.04   0.00  -0.01
  57   1     0.02  -0.01   0.01     0.00   0.04  -0.00     0.05  -0.00  -0.01
  58   1     0.01  -0.00   0.01     0.00   0.03  -0.00     0.04   0.01  -0.01
  59   1     0.01  -0.01   0.03     0.01   0.03  -0.03     0.03  -0.00   0.03
  60   1     0.03  -0.01   0.02    -0.02   0.04  -0.02     0.05  -0.01   0.02
  61   1     0.01   0.00   0.00     0.00   0.03   0.00     0.04   0.00   0.00
  62   1    -0.02  -0.08  -0.02     0.03  -0.04  -0.04     0.01   0.04   0.03
  63   1     0.02   0.08  -0.05    -0.03   0.07  -0.02     0.07  -0.05  -0.00
  64   1    -0.04   0.02  -0.08    -0.01   0.03  -0.09     0.07  -0.02   0.06
  65   1    -0.07   0.08  -0.17     0.00   0.02  -0.04     0.06  -0.04   0.00
  66   1    -0.11  -0.03  -0.12     0.05  -0.05  -0.06     0.01   0.03   0.02
  67   1    -0.06   0.04  -0.12     0.06  -0.05   0.08    -0.03  -0.00  -0.11
  68   1     0.02   0.11  -0.07     0.00   0.02   0.09     0.03  -0.05  -0.11
  69   1    -0.05  -0.10  -0.00     0.09  -0.08   0.04    -0.07   0.05  -0.05
  70   1     0.02  -0.02   0.04     0.07  -0.05   0.12    -0.06   0.02  -0.13
  71   1     0.04  -0.07   0.12     0.04  -0.03   0.04    -0.03   0.02  -0.03
  72   1     0.07   0.05   0.08    -0.00   0.01   0.07     0.02  -0.01  -0.06
  73   1     0.02  -0.00   0.02     0.02   0.00  -0.02     0.01   0.03   0.03
  74   1     0.03   0.05   0.01     0.03   0.02  -0.00     0.01   0.02   0.00
  75   1    -0.03   0.04  -0.02     0.01   0.01  -0.03     0.00   0.01  -0.03
  76   1     0.01  -0.03   0.06     0.03  -0.04   0.02    -0.03  -0.01   0.05
  77   1    -0.03  -0.01   0.01     0.02  -0.03  -0.01    -0.04  -0.02   0.00
  78   1    -0.08  -0.10   0.03    -0.00  -0.09  -0.02    -0.06  -0.03   0.03
  79   1    -0.08  -0.05  -0.03    -0.01  -0.05  -0.06    -0.04  -0.02  -0.01
  80   1    -0.06  -0.08   0.03    -0.00  -0.06  -0.04    -0.02   0.01   0.04
  81   1    -0.03  -0.06   0.08     0.01  -0.05   0.00    -0.03   0.02   0.07
  82   1    -0.02  -0.01  -0.02     0.01  -0.01  -0.06     0.02   0.02   0.00
  83   1    -0.00  -0.00   0.03     0.01   0.00  -0.03     0.03   0.04   0.04
  84   1     0.01   0.01   0.01    -0.01   0.02  -0.00     0.01   0.02   0.01
  85   1     0.01   0.00   0.00    -0.01   0.03  -0.00     0.01   0.02   0.01
                     10                     11                     12
                        a                      a                      a 
 Frequencies --    77.1738                88.4702                99.5151
 Red. masses --     9.6554                10.1694                 9.1191
 Frc consts  --     0.0000                 0.0000                 0.0000
 IR Inten    --     0.0427                 0.1524                 0.2726
 Raman Activ --     0.0000                 0.0000                 0.0000
 Depolar     --     0.0000                 0.0000                 0.0000
 Atom AN      X      Y      Z        X      Y      Z        X      Y      Z
   1   6    -0.00  -0.09   0.08     0.07   0.01  -0.02    -0.01  -0.02   0.04
   2   6     0.01   0.04   0.03     0.08  -0.04  -0.01     0.02   0.04   0.00
   3   6     0.05   0.11   0.07     0.11  -0.02  -0.08     0.04   0.08   0.01
   4   6    -0.04   0.05  -0.07     0.05  -0.02   0.04    -0.01   0.05  -0.05
   5   6    -0.06   0.06  -0.13     0.03  -0.02  -0.01    -0.00   0.04  -0.03
   6   6    -0.06   0.06  -0.08     0.03  -0.02  -0.00     0.03   0.03  -0.03
   7   6    -0.06   0.10  -0.06     0.04  -0.02   0.01     0.11  -0.01   0.10
   8   6    -0.09  -0.01  -0.05     0.03   0.01   0.02     0.01   0.10   0.25
   9   6    -0.00   0.16   0.06     0.03  -0.03  -0.01     0.16  -0.08  -0.02
  10   6    -0.03   0.02   0.01     0.04  -0.03   0.02    -0.01   0.05  -0.12
  11   6    -0.01   0.01   0.05     0.06  -0.04   0.04     0.00   0.04  -0.07
  12   6    -0.08  -0.01   0.13     0.04  -0.06   0.08     0.09  -0.06  -0.13
  13   6    -0.02  -0.02   0.10     0.02  -0.07   0.13     0.13  -0.09  -0.05
  14   6     0.12  -0.03  -0.02     0.04  -0.06   0.14     0.04  -0.02   0.13
  15   6     0.18  -0.01  -0.09     0.08  -0.04   0.09    -0.06   0.08   0.20
  16   6     0.11   0.00  -0.05     0.10  -0.03   0.03    -0.06   0.10   0.08
  17   6    -0.03   0.02   0.00     0.03   0.00   0.03    -0.01   0.05  -0.10
  18   6    -0.05  -0.07   0.00    -0.01   0.17   0.03     0.09   0.04  -0.10
  19   6    -0.07  -0.12  -0.04     0.01   0.30   0.15     0.00  -0.13  -0.17
  20   6    -0.04  -0.11   0.09    -0.13   0.24  -0.11     0.33   0.04  -0.09
  21  15     0.06   0.14   0.05     0.02  -0.11  -0.13    -0.15   0.01  -0.01
  22   6     0.01   0.07  -0.04     0.01  -0.04  -0.05    -0.06  -0.03   0.05
  23   6     0.06   0.04  -0.06    -0.01  -0.03  -0.04    -0.07  -0.03   0.06
  24   6     0.12  -0.08  -0.03    -0.02  -0.00  -0.05    -0.09  -0.02   0.03
  25   6     0.04  -0.15   0.03     0.01   0.02  -0.06    -0.10  -0.01  -0.02
  26   6    -0.02  -0.08  -0.01     0.03  -0.01  -0.04    -0.11  -0.02   0.01
  27   6    -0.07   0.01  -0.04     0.04  -0.03  -0.04    -0.07  -0.03   0.05
  28   6     0.05   0.13   0.02    -0.07  -0.10  -0.05    -0.11  -0.00   0.00
  29   6    -0.02  -0.11  -0.01    -0.15  -0.23  -0.12    -0.10  -0.13   0.05
  30   6    -0.19  -0.28   0.09    -0.31  -0.06  -0.13    -0.10  -0.15   0.05
  31   6    -0.08  -0.25  -0.02    -0.18   0.11  -0.01     0.04  -0.07  -0.01
  32   6     0.04   0.12   0.04    -0.11   0.21   0.05     0.03   0.08  -0.07
  33   6     0.21   0.22  -0.04     0.02   0.04   0.05     0.01   0.06  -0.05
  34   6    -0.04   0.03  -0.05     0.05  -0.04   0.14    -0.02   0.04  -0.05
  35   1     0.00  -0.02   0.05     0.03   0.00  -0.03     0.00  -0.01   0.03
  36   1    -0.00  -0.03   0.02     0.01  -0.00   0.01    -0.01  -0.01   0.01
  37   1    -0.01  -0.04   0.02     0.01   0.03  -0.01    -0.01  -0.01   0.00
  38   1     0.01   0.02   0.02     0.03  -0.03  -0.00     0.01   0.02   0.01
  39   1     0.02   0.06   0.01     0.04  -0.01  -0.03     0.02   0.04  -0.01
  40   1     0.01   0.02   0.02     0.02   0.00  -0.03     0.00   0.01  -0.00
  41   1     0.03   0.03   0.05     0.04  -0.01  -0.03     0.02   0.03   0.02
  42   1    -0.02   0.02  -0.05     0.00  -0.00  -0.02    -0.00   0.01  -0.00
  43   1    -0.02   0.05  -0.04     0.02  -0.01   0.01     0.06  -0.02   0.06
  44   1    -0.02   0.04  -0.01     0.01  -0.00   0.01     0.02  -0.07   0.10
  45   1    -0.04  -0.04   0.03     0.01   0.01   0.00     0.03   0.09  -0.01
  46   1    -0.02  -0.03  -0.06     0.01   0.01   0.01    -0.06   0.09   0.16
  47   1     0.02   0.03   0.04     0.00  -0.00  -0.00    -0.01   0.00  -0.03
  48   1    -0.01   0.05   0.01     0.01  -0.01   0.00     0.09  -0.03   0.04
  49   1    -0.00   0.08   0.03     0.01  -0.01  -0.01     0.08  -0.07  -0.07
  50   1    -0.05  -0.00   0.06     0.01  -0.02   0.02     0.03  -0.03  -0.07
  51   1    -0.02  -0.01   0.05    -0.00  -0.03   0.05     0.06  -0.05  -0.03
  52   1     0.05  -0.01  -0.02     0.00  -0.02   0.06     0.01  -0.01   0.06
  53   1     0.09  -0.00  -0.05     0.03  -0.01   0.03    -0.04   0.04   0.10
  54   1     0.05  -0.00  -0.03     0.04  -0.01  -0.00    -0.04   0.05   0.04
  55   1    -0.02  -0.02  -0.01     0.00   0.04   0.01     0.01   0.05  -0.01
  56   1    -0.03  -0.03  -0.02     0.04   0.08   0.05    -0.08  -0.05   0.00
  57   1    -0.01  -0.05  -0.01    -0.03   0.09   0.04     0.06   0.02  -0.05
  58   1    -0.02  -0.04  -0.01     0.00   0.11   0.07     0.01  -0.11  -0.12
  59   1    -0.02  -0.02   0.04    -0.04   0.04  -0.06     0.18   0.07  -0.08
  60   1    -0.00  -0.05   0.02    -0.05   0.09  -0.03     0.02   0.03  -0.04
  61   1    -0.01  -0.03   0.03    -0.05   0.09  -0.03     0.14  -0.07   0.04
  62   1     0.00   0.02  -0.01     0.00  -0.02  -0.02    -0.01  -0.01   0.01
  63   1    -0.00   0.02  -0.01    -0.00  -0.01  -0.01    -0.01  -0.01   0.01
  64   1     0.03   0.02  -0.04    -0.01  -0.01  -0.01    -0.02  -0.01   0.02
  65   1     0.04  -0.03  -0.01    -0.01   0.00  -0.02    -0.02  -0.01   0.01
  66   1     0.05  -0.02  -0.02    -0.01  -0.00  -0.01    -0.03   0.00   0.01
  67   1     0.03  -0.06   0.02    -0.00   0.01  -0.02    -0.04   0.00  -0.01
  68   1    -0.01  -0.05   0.02     0.01   0.01  -0.02    -0.02  -0.00  -0.01
  69   1     0.01  -0.01  -0.01     0.01  -0.01  -0.01    -0.04  -0.00   0.01
  70   1    -0.02  -0.04   0.00     0.02   0.00  -0.01    -0.03  -0.00  -0.00
  71   1    -0.03   0.02  -0.02     0.01  -0.01  -0.01    -0.02  -0.01   0.02
  72   1    -0.04  -0.01  -0.01     0.01  -0.00  -0.01    -0.01  -0.00   0.01
  73   1    -0.03   0.06   0.02    -0.05  -0.01  -0.01    -0.05   0.01   0.00
  74   1    -0.02  -0.03   0.01    -0.07  -0.11  -0.06    -0.05  -0.05   0.02
  75   1     0.02  -0.05  -0.05     0.00  -0.09  -0.02    -0.00  -0.05   0.02
  76   1    -0.09  -0.06   0.08    -0.13   0.01  -0.04    -0.06  -0.02   0.02
  77   1    -0.08  -0.15   0.01    -0.11  -0.05  -0.06    -0.03  -0.08   0.02
  78   1    -0.07  -0.11   0.02    -0.08   0.07  -0.01     0.01  -0.02  -0.00
  79   1     0.02  -0.11  -0.07    -0.02   0.01   0.01     0.04  -0.04  -0.01
  80   1     0.05   0.05  -0.01    -0.01   0.10   0.04     0.04   0.04  -0.03
  81   1    -0.04   0.07   0.06    -0.07   0.08   0.00    -0.02   0.04  -0.02
  82   1     0.11   0.03  -0.06     0.04  -0.01   0.03     0.02   0.00  -0.01
  83   1     0.08   0.13   0.00     0.02   0.03   0.03    -0.00   0.04  -0.03
  84   1    -0.01   0.02  -0.01    -0.02  -0.03   0.06    -0.02  -0.00  -0.01
  85   1    -0.01   0.00  -0.02     0.04  -0.01   0.07     0.01   0.02  -0.00
                     13                     14                     15
                        a                      a                      a 
 Frequencies --   108.5376               110.3725               127.5971
 Red. masses --     8.2033                 8.0481                 9.5058
 Frc consts  --     0.0000                 0.0000                 0.0000
 IR Inten    --     0.2078                 0.4603                 0.0281
 Raman Activ --     0.0000                 0.0000                 0.0000
 Depolar     --     0.0000                 0.0000                 0.0000
 Atom AN      X      Y      Z        X      Y      Z        X      Y      Z
   1   6    -0.04  -0.16   0.03     0.05   0.03  -0.01     0.16  -0.16  -0.04
   2   6    -0.04   0.01  -0.03     0.06  -0.02  -0.00     0.14  -0.09  -0.05
   3   6    -0.00   0.08   0.05     0.05  -0.04  -0.05     0.32   0.10  -0.19
   4   6    -0.07   0.01  -0.15     0.05  -0.02   0.03    -0.06  -0.04  -0.00
   5   6    -0.11   0.01  -0.26     0.10  -0.02   0.19    -0.09  -0.03  -0.07
   6   6    -0.06   0.00  -0.17     0.07  -0.01   0.13    -0.07  -0.05  -0.05
   7   6     0.02  -0.01  -0.02     0.05  -0.04   0.07    -0.03  -0.14  -0.02
   8   6    -0.13   0.04   0.18     0.14  -0.02  -0.05    -0.11  -0.13   0.08
   9   6     0.12  -0.04  -0.06    -0.02  -0.06   0.01     0.05  -0.21  -0.13
  10   6    -0.01  -0.00  -0.08     0.00  -0.00   0.01    -0.04  -0.04  -0.00
  11   6     0.03  -0.02  -0.01    -0.01   0.00  -0.02    -0.02  -0.05  -0.03
  12   6    -0.03  -0.02   0.05     0.15  -0.03  -0.17    -0.01  -0.04  -0.05
  13   6    -0.03  -0.03   0.09     0.18  -0.04  -0.18    -0.04  -0.03  -0.04
  14   6     0.04  -0.02   0.04     0.01  -0.01   0.01    -0.09  -0.04  -0.00
  15   6     0.10  -0.01  -0.02    -0.16   0.03   0.17    -0.08  -0.05  -0.01
  16   6     0.08  -0.00  -0.03    -0.14   0.03   0.13    -0.04  -0.06  -0.03
  17   6     0.00   0.01  -0.04    -0.02  -0.03  -0.05    -0.04  -0.01   0.04
  18   6     0.10  -0.01  -0.03    -0.07  -0.10  -0.05    -0.07   0.11   0.04
  19   6     0.34   0.26  -0.13     0.05   0.10  -0.03    -0.16   0.05   0.12
  20   6    -0.22  -0.03  -0.00    -0.31  -0.12  -0.03     0.03   0.15  -0.04
  21  15    -0.04   0.02   0.06    -0.04   0.03   0.03     0.03   0.13   0.08
  22   6     0.01  -0.03   0.09    -0.05   0.03  -0.03    -0.04   0.12  -0.04
  23   6     0.01  -0.03   0.08    -0.07   0.04  -0.01    -0.00   0.11  -0.08
  24   6    -0.05   0.01   0.02    -0.02   0.02   0.05     0.06   0.00  -0.04
  25   6    -0.05   0.03  -0.06    -0.02   0.01   0.10     0.01  -0.07   0.07
  26   6    -0.07   0.00   0.00    -0.01   0.05   0.02    -0.02  -0.00   0.02
  27   6     0.00  -0.03   0.08    -0.06   0.03  -0.06    -0.09   0.08  -0.04
  28   6    -0.03   0.00   0.04     0.01   0.11  -0.00     0.07   0.14   0.05
  29   6     0.01   0.03   0.08     0.00   0.04   0.01     0.08   0.19   0.06
  30   6     0.09   0.02   0.07    -0.05  -0.10   0.06     0.10   0.07   0.09
  31   6     0.08  -0.01   0.04    -0.03  -0.13  -0.03    -0.02  -0.05   0.05
  32   6     0.03  -0.07  -0.02     0.03   0.08  -0.01    -0.01  -0.05   0.07
  33   6    -0.05  -0.04   0.00     0.09   0.15  -0.04     0.03   0.09   0.02
  34   6    -0.04   0.01  -0.02     0.02  -0.01  -0.15    -0.05  -0.05   0.11
  35   1    -0.02  -0.04   0.05     0.02   0.01  -0.02     0.12  -0.07  -0.03
  36   1    -0.01  -0.05  -0.01     0.01   0.00   0.01     0.00  -0.11   0.02
  37   1    -0.01  -0.09   0.00     0.01   0.02  -0.00     0.02   0.02  -0.02
  38   1    -0.01   0.02  -0.00     0.02  -0.01   0.00     0.06  -0.07  -0.00
  39   1     0.00   0.06  -0.00     0.02  -0.03  -0.01     0.12   0.07  -0.09
  40   1    -0.01  -0.00   0.01     0.02   0.00  -0.01     0.05   0.04  -0.09
  41   1     0.01   0.03   0.05     0.01  -0.01  -0.03     0.14   0.02  -0.02
  42   1    -0.04   0.00  -0.10     0.04  -0.00   0.10    -0.03  -0.01  -0.04
  43   1     0.04  -0.01   0.01    -0.01  -0.02   0.02    -0.01  -0.06   0.01
  44   1    -0.01  -0.03   0.10     0.02  -0.04  -0.04    -0.02  -0.11   0.04
  45   1    -0.05   0.04   0.02     0.08   0.01  -0.04    -0.01  -0.00  -0.02
  46   1    -0.09   0.04   0.09     0.04   0.01   0.02    -0.08  -0.00   0.07
  47   1    -0.02  -0.00  -0.02     0.01  -0.01  -0.01    -0.04  -0.04  -0.05
  48   1     0.08  -0.01   0.04    -0.02  -0.02  -0.01     0.06  -0.07   0.01
  49   1     0.07  -0.03  -0.08    -0.02  -0.03   0.02     0.05  -0.09  -0.09
  50   1    -0.02  -0.00   0.03     0.07  -0.02  -0.08     0.00  -0.01  -0.02
  51   1    -0.03  -0.01   0.04     0.09  -0.02  -0.09    -0.01  -0.01  -0.01
  52   1     0.01  -0.01   0.02     0.00  -0.00   0.01    -0.04  -0.01   0.01
  53   1     0.04  -0.00  -0.01    -0.08   0.02   0.09    -0.03  -0.01   0.00
  54   1     0.03   0.00  -0.02    -0.07   0.02   0.06    -0.01  -0.02  -0.01
  55   1     0.07  -0.07   0.01     0.00  -0.08  -0.03    -0.04   0.06   0.01
  56   1     0.19   0.08  -0.09     0.12   0.04  -0.08    -0.06   0.01   0.04
  57   1     0.09   0.02  -0.04    -0.05  -0.04  -0.01    -0.06   0.02   0.04
  58   1     0.07   0.17  -0.01     0.00   0.13   0.07    -0.03  -0.00   0.05
  59   1    -0.21  -0.10   0.10    -0.24  -0.12   0.11     0.04   0.06  -0.04
  60   1     0.09  -0.05   0.03     0.08  -0.07   0.03    -0.02   0.07  -0.02
  61   1    -0.14   0.12  -0.13    -0.16   0.08  -0.16     0.03   0.01   0.00
  62   1     0.01  -0.01   0.02    -0.02   0.01  -0.00    -0.02   0.03  -0.01
  63   1     0.02  -0.01   0.01    -0.03   0.01   0.00    -0.02   0.04  -0.01
  64   1     0.00  -0.01   0.04    -0.02   0.01  -0.01     0.01   0.04  -0.04
  65   1    -0.01   0.00  -0.00    -0.01   0.01   0.02     0.02  -0.00  -0.01
  66   1    -0.03   0.01   0.02     0.01   0.01   0.01     0.04  -0.01  -0.03
  67   1    -0.03   0.02  -0.04     0.01  -0.00   0.05     0.03  -0.04   0.04
  68   1     0.01   0.01  -0.03    -0.03  -0.00   0.04    -0.03  -0.02   0.04
  69   1    -0.04  -0.01   0.01     0.02   0.03   0.00     0.02   0.01  -0.00
  70   1    -0.01   0.01  -0.01    -0.00   0.01   0.00    -0.02  -0.01   0.02
  71   1    -0.00  -0.01   0.04    -0.02   0.03  -0.04    -0.03   0.04  -0.02
  72   1     0.02  -0.00   0.02    -0.04  -0.01  -0.02    -0.05   0.01  -0.01
  73   1    -0.00  -0.00   0.01    -0.01   0.04  -0.00     0.03   0.03   0.01
  74   1     0.00   0.01   0.03     0.01   0.03   0.02     0.04   0.07   0.03
  75   1    -0.00   0.01   0.03    -0.00   0.01  -0.03     0.01   0.06  -0.00
  76   1     0.03  -0.00   0.01    -0.03  -0.02   0.06     0.06   0.01   0.04
  77   1     0.04   0.01   0.03    -0.02  -0.06   0.01     0.03   0.04   0.02
  78   1     0.04  -0.00   0.00    -0.03  -0.07   0.01    -0.01  -0.05   0.03
  79   1     0.02   0.00   0.02     0.01  -0.05  -0.05    -0.03  -0.00  -0.02
  80   1     0.00  -0.03  -0.01     0.03   0.03  -0.02    -0.02  -0.04   0.01
  81   1     0.02  -0.03  -0.01    -0.02   0.04   0.02     0.01  -0.03   0.05
  82   1    -0.03  -0.00   0.01     0.05   0.03  -0.03     0.00   0.03  -0.02
  83   1    -0.03  -0.02  -0.01     0.03   0.08  -0.01     0.01   0.03   0.01
  84   1    -0.04   0.01   0.01     0.05   0.01  -0.07    -0.04  -0.02   0.05
  85   1     0.01  -0.00   0.01    -0.03  -0.00  -0.08     0.01  -0.02   0.06
                     16                     17                     18
                        a                      a                      a 
 Frequencies --   139.2442               154.3250               160.6143
 Red. masses --     9.9789                 8.7617                 9.1110
 Frc consts  --     0.0000                 0.0000                 0.0000
 IR Inten    --     0.1415                 0.2711                 0.1319
 Raman Activ --     0.0000                 0.0000                 0.0000
 Depolar     --     0.0000                 0.0000                 0.0000
 Atom AN      X      Y      Z        X      Y      Z        X      Y      Z
   1   6     0.09   0.17  -0.02    -0.08  -0.17   0.02    -0.00   0.08   0.01
   2   6     0.08   0.01   0.05    -0.03   0.02  -0.08    -0.01   0.09   0.01
   3   6     0.08  -0.02  -0.06    -0.06   0.01   0.04     0.02   0.13   0.02
   4   6     0.08   0.02   0.12     0.03   0.00  -0.19    -0.02   0.08  -0.02
   5   6     0.11  -0.00   0.23     0.05  -0.03  -0.18    -0.04   0.08  -0.06
   6   6     0.07  -0.01   0.05     0.12  -0.03  -0.03     0.00   0.07  -0.04
   7   6     0.03  -0.12  -0.06     0.13   0.00  -0.03     0.02  -0.09  -0.09
   8   6     0.11  -0.16  -0.17     0.18   0.06  -0.08    -0.02  -0.16  -0.05
   9   6     0.06  -0.15  -0.12     0.08   0.01  -0.03     0.16  -0.18  -0.21
  10   6     0.01   0.04  -0.10     0.16  -0.05   0.07     0.09   0.08   0.09
  11   6     0.01   0.04  -0.13     0.17  -0.06   0.10     0.12   0.09   0.10
  12   6    -0.13  -0.02   0.04     0.15   0.06   0.07     0.12   0.17   0.08
  13   6    -0.18  -0.03   0.21     0.03   0.12  -0.01     0.05   0.20   0.05
  14   6    -0.00  -0.00   0.11    -0.08   0.04  -0.06     0.01   0.17   0.02
  15   6     0.21   0.05  -0.13    -0.06  -0.10  -0.04     0.03   0.09   0.01
  16   6     0.17   0.07  -0.21     0.07  -0.15   0.04     0.10   0.06   0.06
  17   6     0.01   0.03  -0.07     0.07   0.02  -0.06     0.05   0.05   0.06
  18   6    -0.00  -0.00  -0.07    -0.12   0.06  -0.06    -0.02  -0.07   0.06
  19   6    -0.01   0.00  -0.05    -0.29  -0.00   0.16    -0.08  -0.18   0.03
  20   6    -0.06  -0.01  -0.05    -0.08   0.09  -0.11     0.01  -0.14   0.19
  21  15    -0.10   0.08   0.04    -0.05   0.03   0.03    -0.01  -0.07  -0.02
  22   6    -0.05   0.04   0.10    -0.01  -0.03   0.10    -0.08  -0.04  -0.11
  23   6    -0.03   0.03   0.08    -0.00  -0.03   0.10    -0.14  -0.02  -0.09
  24   6    -0.07  -0.01   0.01    -0.06  -0.01   0.05    -0.11   0.00  -0.02
  25   6    -0.11  -0.03  -0.02    -0.06   0.01  -0.04    -0.06   0.00   0.12
  26   6    -0.15  -0.05   0.06    -0.07  -0.03   0.05     0.02   0.02  -0.02
  27   6    -0.09   0.00   0.14    -0.00  -0.03   0.13    -0.08  -0.03  -0.16
  28   6    -0.12   0.03   0.04    -0.10   0.06   0.03     0.02  -0.14   0.00
  29   6    -0.08   0.01   0.10    -0.06   0.06   0.08    -0.01  -0.16  -0.03
  30   6     0.01  -0.05   0.10     0.00  -0.04   0.10    -0.04  -0.00  -0.07
  31   6     0.11  -0.01   0.02     0.08  -0.03   0.01    -0.02   0.08   0.03
  32   6     0.04   0.03  -0.08     0.03   0.05  -0.07    -0.03  -0.04   0.05
  33   6    -0.09   0.01  -0.03    -0.08   0.04  -0.03     0.00  -0.12   0.06
  34   6     0.04   0.03  -0.08     0.07   0.03  -0.11     0.01   0.08   0.01
  35   1     0.06   0.04  -0.06    -0.08  -0.03   0.08     0.01   0.02  -0.00
  36   1     0.01   0.03   0.03     0.01  -0.01  -0.04    -0.01   0.02   0.01
  37   1     0.02   0.12  -0.00    -0.01  -0.15  -0.00    -0.01   0.04   0.00
  38   1     0.02  -0.02   0.01    -0.01   0.04  -0.01    -0.00   0.02   0.00
  39   1     0.03  -0.03  -0.01    -0.01   0.03  -0.00     0.01   0.06  -0.00
  40   1     0.02   0.02  -0.02    -0.02  -0.04   0.01    -0.00   0.03   0.00
  41   1     0.02  -0.01  -0.05    -0.03   0.01   0.05     0.02   0.04   0.02
  42   1     0.04  -0.00   0.11     0.01  -0.02  -0.06    -0.02   0.02  -0.03
  43   1    -0.03  -0.04  -0.01     0.04   0.00  -0.01    -0.02  -0.05  -0.01
  44   1     0.02  -0.00  -0.07     0.05   0.07  -0.04    -0.00  -0.11  -0.01
  45   1     0.03  -0.07  -0.02     0.03  -0.00   0.00     0.03  -0.02  -0.05
  46   1     0.06  -0.07  -0.08     0.10  -0.01  -0.06    -0.05  -0.02   0.02
  47   1     0.04  -0.04  -0.04     0.02   0.00  -0.01    -0.03  -0.03  -0.08
  48   1     0.00  -0.06  -0.05     0.02   0.01  -0.02     0.11  -0.06   0.01
  49   1     0.01  -0.04  -0.02     0.02  -0.00  -0.00     0.09  -0.09  -0.15
  50   1    -0.06  -0.02   0.01     0.06   0.04   0.03     0.05   0.06   0.03
  51   1    -0.10  -0.02   0.11     0.01   0.07  -0.01     0.01   0.08   0.01
  52   1    -0.01  -0.00   0.06    -0.05   0.02  -0.03    -0.01   0.05  -0.00
  53   1     0.11   0.02  -0.06    -0.04  -0.05  -0.03    -0.00   0.01  -0.01
  54   1     0.07   0.03  -0.08     0.02  -0.08   0.02     0.03  -0.00   0.02
  55   1     0.00  -0.01  -0.03    -0.05   0.04  -0.05    -0.02  -0.02  -0.01
  56   1    -0.03  -0.01   0.02    -0.01   0.03  -0.06     0.02  -0.02  -0.09
  57   1     0.02   0.04  -0.02    -0.22  -0.10   0.04    -0.09  -0.15   0.01
  58   1    -0.00  -0.03  -0.05    -0.05   0.06   0.20    -0.01  -0.00   0.10
  59   1    -0.03  -0.01  -0.00     0.04   0.06  -0.09    -0.06  -0.06   0.12
  60   1    -0.00  -0.02  -0.01    -0.11   0.05  -0.05     0.09  -0.08   0.07
  61   1    -0.03   0.01  -0.02     0.01  -0.02   0.04    -0.02  -0.01  -0.01
  62   1    -0.01   0.01   0.02    -0.00  -0.01   0.03    -0.04  -0.01  -0.03
  63   1    -0.00   0.01   0.02     0.01  -0.02   0.02    -0.05   0.00  -0.02
  64   1    -0.00   0.01   0.02     0.00  -0.01   0.04    -0.06  -0.01  -0.04
  65   1    -0.01  -0.01  -0.01    -0.01  -0.00   0.01    -0.05   0.01  -0.00
  66   1    -0.03  -0.00   0.01    -0.03   0.00   0.02    -0.02  -0.02  -0.02
  67   1    -0.04  -0.01  -0.02    -0.04   0.01  -0.03     0.01  -0.00   0.07
  68   1    -0.02  -0.00  -0.01     0.01   0.01  -0.02    -0.06   0.00   0.05
  69   1    -0.06  -0.02   0.02    -0.04  -0.02   0.02     0.04   0.02  -0.01
  70   1    -0.05  -0.02   0.02    -0.02  -0.01   0.01     0.01   0.01   0.00
  71   1    -0.04  -0.00   0.06    -0.00  -0.02   0.06    -0.02   0.01  -0.08
  72   1    -0.01   0.02   0.04     0.02   0.01   0.04    -0.05  -0.04  -0.05
  73   1    -0.03   0.01   0.02    -0.03   0.01   0.00    -0.00  -0.04   0.01
  74   1    -0.02   0.01   0.05    -0.01   0.04   0.04    -0.02  -0.07  -0.03
  75   1    -0.03   0.00   0.03    -0.03   0.03   0.01     0.02  -0.06   0.02
  76   1    -0.01  -0.00   0.03    -0.01  -0.00   0.04    -0.02   0.00  -0.05
  77   1     0.01  -0.03   0.05     0.01  -0.03   0.04    -0.01   0.01  -0.03
  78   1     0.05   0.00  -0.00     0.03  -0.02   0.00     0.00   0.06  -0.00
  79   1     0.05  -0.01   0.02     0.04  -0.02   0.00    -0.00   0.03   0.05
  80   1     0.03   0.02  -0.04     0.03   0.02  -0.04    -0.02  -0.01   0.03
  81   1     0.00   0.01  -0.04    -0.01   0.02  -0.03     0.00  -0.02  -0.00
  82   1    -0.03   0.01   0.01    -0.03   0.02   0.01     0.00  -0.03   0.02
  83   1    -0.05  -0.01  -0.03    -0.04   0.00  -0.03     0.01  -0.04   0.02
  84   1     0.05  -0.00  -0.04     0.01   0.02  -0.03     0.00   0.03   0.00
  85   1    -0.02   0.02  -0.05     0.02   0.00  -0.03    -0.00   0.02  -0.00
                     19                     20                     21
                        a                      a                      a 
 Frequencies --   163.8089               172.4369               178.4271
 Red. masses --     9.3870                 9.5011                 9.4207
 Frc consts  --     0.0000                 0.0000                 0.0000
 IR Inten    --     0.2429                 0.5564                 0.0929
 Raman Activ --     0.0000                 0.0000                 0.0000
 Depolar     --     0.0000                 0.0000                 0.0000
 Atom AN      X      Y      Z        X      Y      Z        X      Y      Z
   1   6    -0.03  -0.02   0.01    -0.05   0.06   0.03     0.01  -0.12  -0.01
   2   6     0.00  -0.02  -0.00    -0.00   0.03   0.01    -0.01  -0.04  -0.03
   3   6    -0.07  -0.11   0.03    -0.11  -0.09   0.07     0.04   0.02  -0.03
   4   6     0.07  -0.03  -0.02     0.09   0.01  -0.03    -0.04  -0.03  -0.02
   5   6     0.07  -0.05  -0.07     0.08   0.02  -0.06    -0.02  -0.04   0.01
   6   6     0.08  -0.04  -0.03     0.02   0.03  -0.11     0.03  -0.06   0.09
   7   6     0.08   0.05  -0.00     0.05   0.10  -0.05     0.02  -0.01   0.09
   8   6     0.11   0.11  -0.03     0.00   0.08   0.02     0.09   0.06   0.00
   9   6     0.01   0.09   0.06     0.15   0.12  -0.00    -0.12   0.01   0.10
  10   6     0.06  -0.05  -0.03    -0.04   0.00  -0.15     0.04  -0.04   0.07
  11   6     0.07  -0.06  -0.01    -0.08   0.02  -0.21     0.08  -0.05   0.06
  12   6     0.01  -0.04   0.04    -0.08  -0.10  -0.18     0.11   0.02   0.02
  13   6    -0.07  -0.02   0.07    -0.04  -0.15  -0.05     0.05   0.05  -0.03
  14   6    -0.04  -0.05   0.01    -0.02  -0.07   0.06    -0.06   0.01   0.00
  15   6     0.05  -0.08  -0.07    -0.00   0.05   0.02    -0.06  -0.06   0.02
  16   6     0.08  -0.09  -0.05    -0.04   0.09  -0.14     0.04  -0.09   0.03
  17   6     0.06  -0.02  -0.01     0.00  -0.02  -0.06    -0.01   0.01   0.02
  18   6     0.12   0.05  -0.01    -0.09   0.02  -0.06     0.06  -0.01   0.02
  19   6     0.16   0.08  -0.04    -0.23  -0.05   0.08     0.12  -0.03  -0.11
  20   6     0.15   0.08  -0.06    -0.09   0.03  -0.11     0.12  -0.03   0.06
  21  15    -0.07  -0.07   0.08     0.09   0.02   0.05     0.03   0.17  -0.06
  22   6    -0.19  -0.03  -0.14     0.00   0.11  -0.03    -0.02   0.26  -0.02
  23   6    -0.28   0.02  -0.12     0.05   0.11  -0.09     0.06   0.28  -0.14
  24   6    -0.21   0.02   0.00     0.09   0.00  -0.10     0.15   0.01  -0.16
  25   6    -0.17  -0.01   0.25     0.05  -0.05   0.00     0.02  -0.13   0.01
  26   6    -0.06   0.06  -0.01     0.01  -0.01  -0.00    -0.09  -0.03   0.01
  27   6    -0.22  -0.01  -0.25    -0.04   0.08  -0.03    -0.13   0.18   0.02
  28   6     0.06   0.05   0.03     0.06  -0.12   0.13    -0.15  -0.07   0.02
  29   6     0.07   0.10   0.03     0.04  -0.17   0.13    -0.14  -0.15   0.05
  30   6     0.06   0.05   0.05     0.02  -0.01   0.09    -0.08  -0.05   0.01
  31   6    -0.04  -0.03   0.05     0.03   0.08   0.22     0.10   0.11   0.03
  32   6     0.00  -0.00   0.09    -0.00  -0.08   0.21    -0.03  -0.04  -0.11
  33   6     0.07   0.07   0.05     0.02  -0.12   0.20    -0.20  -0.14  -0.02
  34   6     0.07  -0.03   0.03     0.05  -0.02  -0.04    -0.02  -0.01   0.06
  35   1    -0.06   0.01   0.03    -0.09   0.04   0.04     0.03  -0.04   0.01
  36   1     0.02   0.04  -0.02     0.02   0.08  -0.02    -0.01  -0.06  -0.00
  37   1     0.01  -0.07   0.01     0.01  -0.05   0.01    -0.01  -0.03  -0.01
  38   1    -0.00   0.01  -0.00    -0.01   0.03   0.00     0.00  -0.02  -0.01
  39   1    -0.02  -0.05   0.02    -0.05  -0.06   0.04     0.02   0.03  -0.03
  40   1    -0.01  -0.04   0.02    -0.01  -0.02   0.04    -0.00  -0.01  -0.02
  41   1    -0.04  -0.03  -0.00    -0.06  -0.02  -0.01     0.02   0.01   0.02
  42   1     0.02  -0.02  -0.03     0.03   0.01  -0.01    -0.01  -0.02  -0.01
  43   1     0.04   0.02  -0.01     0.03   0.03  -0.02     0.01  -0.00   0.02
  44   1     0.03   0.11  -0.02     0.01  -0.03   0.02     0.02   0.09  -0.02
  45   1    -0.01   0.00   0.03     0.02   0.05  -0.03    -0.00  -0.01   0.04
  46   1     0.09  -0.00  -0.05    -0.04   0.05   0.05     0.08  -0.01  -0.04
  47   1     0.04   0.01   0.03     0.02   0.03   0.01     0.04  -0.01   0.02
  48   1    -0.02   0.03  -0.02     0.07   0.04   0.03    -0.10  -0.01  -0.05
  49   1    -0.02   0.05   0.05     0.07   0.04  -0.04    -0.09   0.02   0.11
  50   1     0.00  -0.00   0.02    -0.04  -0.05  -0.07     0.05   0.02   0.01
  51   1    -0.04   0.01   0.04    -0.01  -0.07  -0.01     0.02   0.03  -0.02
  52   1    -0.02  -0.01   0.01    -0.00  -0.03   0.05    -0.04   0.01  -0.00
  53   1     0.02  -0.03  -0.03     0.01   0.04   0.03    -0.03  -0.03   0.00
  54   1     0.03  -0.04  -0.02    -0.01   0.06  -0.05     0.02  -0.04   0.01
  55   1     0.03   0.03   0.01    -0.04   0.02  -0.04     0.02  -0.00   0.02
  56   1     0.01   0.01   0.04    -0.04  -0.00  -0.02     0.04  -0.00  -0.05
  57   1     0.10   0.07  -0.01    -0.14  -0.06   0.02     0.05  -0.03  -0.03
  58   1     0.04  -0.01  -0.07    -0.04   0.00   0.11     0.03   0.01  -0.04
  59   1     0.04   0.02  -0.02    -0.08  -0.02   0.01    -0.03  -0.03   0.09
  60   1     0.05   0.03  -0.01     0.04   0.01  -0.01     0.14  -0.03   0.04
  61   1     0.04   0.02  -0.03    -0.05   0.04  -0.10     0.01   0.02  -0.07
  62   1    -0.07  -0.00  -0.03    -0.02   0.03  -0.00    -0.01   0.06  -0.01
  63   1    -0.10   0.02  -0.02     0.01   0.04  -0.02    -0.01   0.11  -0.02
  64   1    -0.10  -0.00  -0.06     0.03   0.04  -0.04     0.04   0.11  -0.09
  65   1    -0.09   0.02   0.01     0.03   0.00  -0.04     0.07  -0.00  -0.06
  66   1    -0.03  -0.02  -0.03     0.04  -0.01  -0.04     0.07  -0.02  -0.06
  67   1     0.01  -0.02   0.14     0.03  -0.04   0.01     0.03  -0.08   0.02
  68   1    -0.14  -0.01   0.11    -0.01  -0.01   0.01    -0.04  -0.04   0.02
  69   1     0.04   0.05  -0.01     0.02  -0.00  -0.01    -0.01  -0.00  -0.00
  70   1    -0.01   0.02   0.00    -0.01  -0.02   0.01    -0.06  -0.04   0.01
  71   1    -0.06   0.04  -0.14    -0.02   0.03  -0.01    -0.06   0.06   0.02
  72   1    -0.12  -0.06  -0.08    -0.03   0.02  -0.00    -0.05   0.06   0.01
  73   1     0.02   0.01  -0.00     0.01  -0.03   0.04    -0.03  -0.03   0.03
  74   1     0.03   0.04   0.01    -0.01  -0.08   0.02    -0.07  -0.06   0.02
  75   1     0.00   0.04  -0.00     0.04  -0.07   0.06    -0.02  -0.06   0.03
  76   1     0.04   0.00   0.02    -0.00  -0.00  -0.00    -0.06   0.01  -0.03
  77   1     0.01   0.03   0.01     0.00   0.01   0.02    -0.01  -0.03   0.02
  78   1    -0.02  -0.03   0.02     0.03   0.07   0.05     0.07   0.09  -0.03
  79   1    -0.02  -0.00  -0.02     0.01   0.03   0.12     0.04   0.03   0.09
  80   1    -0.01  -0.01   0.02    -0.02  -0.03   0.07    -0.00  -0.01  -0.03
  81   1     0.00  -0.00   0.05     0.02  -0.04   0.05     0.00  -0.02  -0.08
  82   1     0.03   0.01  -0.01    -0.00  -0.03   0.06    -0.09  -0.02   0.03
  83   1     0.03   0.03   0.02     0.01  -0.05   0.07    -0.08  -0.08  -0.03
  84   1     0.01  -0.01   0.01     0.01  -0.02  -0.01    -0.03  -0.01   0.03
  85   1     0.03  -0.01   0.02     0.02  -0.01  -0.01     0.01  -0.00   0.03
                     22                     23                     24
                        a                      a                      a 
 Frequencies --   192.6555               197.8910               199.3545
 Red. masses --     6.5351                 6.4943                 4.4403
 Frc consts  --     0.0000                 0.0000                 0.0000
 IR Inten    --     0.1212                 0.1813                 0.1363
 Raman Activ --     0.0000                 0.0000                 0.0000
 Depolar     --     0.0000                 0.0000                 0.0000
 Atom AN      X      Y      Z        X      Y      Z        X      Y      Z
   1   6     0.04   0.20   0.02     0.04   0.25   0.04    -0.00   0.20   0.00
   2   6     0.03   0.03   0.09     0.07   0.02   0.11    -0.01   0.08   0.05
   3   6     0.01  -0.01   0.05    -0.03  -0.13   0.06    -0.02   0.08   0.08
   4   6     0.04   0.02   0.10     0.12  -0.00   0.10     0.02   0.05   0.02
   5   6     0.01  -0.02  -0.07     0.06   0.00  -0.09    -0.00  -0.00  -0.11
   6   6    -0.01  -0.02  -0.08    -0.01   0.02  -0.13     0.02  -0.01  -0.09
   7   6     0.00   0.07  -0.02    -0.01   0.06  -0.11     0.04   0.03  -0.05
   8   6    -0.05   0.09   0.05    -0.08  -0.03  -0.03     0.02   0.03  -0.02
   9   6     0.03   0.12   0.05     0.13   0.08  -0.06     0.09   0.05  -0.02
  10   6    -0.00  -0.06  -0.02     0.01  -0.05   0.02     0.05  -0.06   0.04
  11   6     0.03  -0.09  -0.08    -0.02  -0.08   0.10     0.09  -0.10   0.09
  12   6     0.02  -0.12  -0.07     0.00  -0.05   0.06     0.09  -0.03   0.06
  13   6    -0.05  -0.12   0.01     0.03  -0.04  -0.05     0.04   0.01  -0.04
  14   6    -0.09  -0.12   0.04    -0.00  -0.08  -0.09    -0.07  -0.06  -0.06
  15   6    -0.02  -0.11  -0.04    -0.07  -0.11  -0.01    -0.10  -0.14  -0.00
  16   6     0.03  -0.11  -0.10    -0.07  -0.13   0.08    -0.00  -0.17   0.06
  17   6     0.02   0.02   0.07     0.02  -0.04   0.04     0.00   0.00  -0.02
  18   6     0.04   0.06   0.08     0.03  -0.08   0.04    -0.09   0.01  -0.02
  19   6    -0.10  -0.12   0.09     0.16   0.08   0.03    -0.12  -0.04  -0.04
  20   6     0.23   0.03   0.12    -0.11  -0.11   0.11    -0.15   0.03  -0.07
  21  15    -0.02   0.02   0.01    -0.00   0.03  -0.00     0.01   0.01   0.01
  22   6    -0.00  -0.03   0.03    -0.04   0.13   0.03     0.02  -0.03  -0.01
  23   6    -0.01  -0.04   0.06    -0.01   0.15  -0.03     0.02  -0.03  -0.00
  24   6    -0.04   0.00   0.05     0.04   0.01  -0.03     0.01  -0.00  -0.01
  25   6    -0.03   0.02  -0.01    -0.04  -0.07   0.03     0.04   0.02  -0.01
  26   6    -0.03  -0.01   0.03    -0.11   0.00   0.01     0.05   0.00  -0.00
  27   6     0.00  -0.03   0.05    -0.10   0.10   0.05     0.04  -0.02  -0.02
  28   6    -0.02   0.07  -0.07    -0.04   0.01  -0.02    -0.02   0.00   0.03
  29   6    -0.03   0.09  -0.10    -0.04   0.03  -0.02    -0.01   0.01   0.04
  30   6    -0.01   0.03  -0.09    -0.02  -0.01  -0.02    -0.01  -0.03   0.06
  31   6    -0.01  -0.02  -0.16     0.02  -0.00  -0.06     0.04   0.01   0.05
  32   6     0.00   0.02  -0.15     0.01   0.02  -0.08     0.01   0.01   0.01
  33   6    -0.03   0.04  -0.13    -0.05  -0.01  -0.05    -0.05  -0.02   0.04
  34   6     0.03   0.00   0.15     0.08  -0.03   0.01     0.01   0.03  -0.03
  35   1     0.09   0.04  -0.08    -0.01   0.07  -0.04     0.16   0.02  -0.11
  36   1    -0.03   0.01   0.07     0.02   0.10   0.04    -0.09  -0.06   0.11
  37   1    -0.02   0.18   0.01     0.01   0.10   0.02    -0.07   0.25  -0.02
  38   1     0.01  -0.00   0.02     0.01   0.01   0.03    -0.01   0.02   0.01
  39   1     0.01  -0.01   0.01    -0.03  -0.10   0.06     0.03   0.07  -0.02
  40   1    -0.01  -0.01   0.01     0.02  -0.00   0.04    -0.04  -0.04  -0.00
  41   1    -0.01   0.00   0.02    -0.04  -0.04  -0.05    -0.01   0.04   0.10
  42   1    -0.01  -0.01  -0.04     0.02   0.00  -0.03    -0.01  -0.01  -0.04
  43   1     0.02   0.03  -0.01     0.00   0.02  -0.04     0.02   0.01  -0.02
  44   1    -0.01  -0.02   0.03    -0.02  -0.16   0.01     0.01   0.01   0.00
  45   1    -0.00   0.05  -0.01     0.05   0.06  -0.10    -0.00   0.01  -0.01
  46   1    -0.04   0.05   0.05    -0.12   0.06   0.09     0.00   0.01  -0.01
  47   1     0.03   0.02   0.02    -0.10   0.03   0.00    -0.02   0.01   0.00
  48   1     0.00   0.03   0.00     0.14   0.06   0.11     0.06   0.03   0.03
  49   1     0.01   0.06   0.03     0.11  -0.02  -0.14     0.05   0.00  -0.05
  50   1     0.00  -0.04  -0.03     0.02  -0.01   0.02     0.03   0.01   0.04
  51   1    -0.03  -0.03   0.01     0.02   0.00  -0.03     0.02   0.03  -0.03
  52   1    -0.05  -0.03   0.03     0.01  -0.02  -0.05    -0.03  -0.01  -0.03
  53   1    -0.00  -0.03  -0.01    -0.03  -0.04  -0.01    -0.05  -0.05  -0.00
  54   1     0.02  -0.04  -0.04    -0.02  -0.05   0.02     0.00  -0.08   0.02
  55   1    -0.01   0.05   0.02     0.03  -0.06   0.00    -0.03   0.01  -0.01
  56   1     0.06   0.02  -0.16     0.11   0.03  -0.02    -0.25  -0.08   0.27
  57   1    -0.18  -0.23   0.03     0.03   0.00   0.01     0.19   0.27  -0.01
  58   1    -0.00   0.06   0.23     0.03   0.09   0.03    -0.04  -0.24  -0.31
  59   1    -0.09  -0.05   0.21     0.15   0.05  -0.14    -0.16  -0.06   0.07
  60   1     0.32  -0.02   0.09    -0.30  -0.02  -0.03     0.10  -0.00   0.01
  61   1     0.01   0.08  -0.18     0.03  -0.12   0.27    -0.09   0.08  -0.15
  62   1     0.01  -0.01   0.01    -0.01   0.03   0.00    -0.00  -0.01  -0.00
  63   1     0.00  -0.02   0.01    -0.01   0.06   0.00     0.01  -0.01  -0.00
  64   1    -0.00  -0.02   0.03     0.01   0.06  -0.04     0.00  -0.01   0.01
  65   1    -0.01  -0.00   0.01     0.03  -0.01  -0.02    -0.00   0.00  -0.00
  66   1    -0.02   0.01   0.02     0.03  -0.00  -0.02    -0.00  -0.00  -0.00
  67   1    -0.02   0.01  -0.01     0.00  -0.04   0.02     0.01   0.01  -0.01
  68   1     0.01   0.01  -0.01    -0.04  -0.03   0.02     0.02   0.01  -0.01
  69   1    -0.02  -0.01   0.01    -0.03   0.01   0.01     0.02  -0.00  -0.00
  70   1    -0.00   0.00   0.01    -0.05  -0.01  -0.00     0.02   0.00   0.00
  71   1     0.00  -0.01   0.02    -0.04   0.03   0.03     0.02  -0.00  -0.01
  72   1     0.01  -0.00   0.01    -0.02   0.03   0.02     0.01  -0.01  -0.01
  73   1     0.00   0.02  -0.02    -0.00  -0.00  -0.00     0.00  -0.00   0.01
  74   1     0.00   0.04  -0.02    -0.00   0.02  -0.00     0.00   0.01   0.02
  75   1    -0.02   0.03  -0.04    -0.02   0.01  -0.01    -0.01   0.01   0.00
  76   1     0.00   0.01  -0.02    -0.01   0.00   0.00    -0.02  -0.00   0.02
  77   1     0.00   0.00  -0.02    -0.00  -0.02   0.00    -0.01  -0.02   0.02
  78   1    -0.01  -0.02  -0.04     0.01  -0.00  -0.02     0.02   0.01   0.01
  79   1    -0.00  -0.01  -0.07     0.01  -0.00  -0.02     0.02  -0.00   0.03
  80   1     0.00   0.01  -0.05     0.01   0.01  -0.03     0.01   0.01   0.00
  81   1    -0.00   0.01  -0.04    -0.00   0.01  -0.04    -0.00   0.01  -0.01
  82   1    -0.01   0.02  -0.04    -0.02   0.00  -0.00    -0.03   0.00   0.03
  83   1    -0.01   0.01  -0.05    -0.02  -0.01  -0.03    -0.02  -0.02   0.00
  84   1    -0.00  -0.01   0.05     0.05  -0.01  -0.01     0.02   0.01  -0.02
  85   1     0.02  -0.00   0.05     0.00  -0.01  -0.02    -0.01   0.01  -0.02
                     25                     26                     27
                        a                      a                      a 
 Frequencies --   202.0079               205.9130               219.7222
 Red. masses --     3.3273                 8.7918                 3.2451
 Frc consts  --     0.0000                 0.0000                 0.0000
 IR Inten    --     0.2219                 0.0070                 0.0639
 Raman Activ --     0.0000                 0.0000                 0.0000
 Depolar     --     0.0000                 0.0000                 0.0000
 Atom AN      X      Y      Z        X      Y      Z        X      Y      Z
   1   6     0.02  -0.07   0.03    -0.01  -0.03  -0.01     0.03   0.10   0.03
   2   6     0.08  -0.07  -0.00    -0.01   0.02  -0.03     0.05  -0.02   0.06
   3   6     0.02  -0.17  -0.08     0.01   0.04  -0.01     0.01  -0.09   0.01
   4   6     0.08  -0.05   0.03    -0.00   0.01  -0.03     0.05  -0.02   0.06
   5   6     0.04   0.01  -0.01     0.01   0.00  -0.01    -0.00  -0.01  -0.08
   6   6    -0.03   0.03  -0.02     0.02  -0.00   0.02    -0.02  -0.00  -0.11
   7   6    -0.05   0.02  -0.05     0.03   0.00   0.01     0.03  -0.05  -0.04
   8   6    -0.09  -0.06  -0.01     0.06   0.02  -0.03    -0.11   0.04   0.13
   9   6     0.04   0.02  -0.04     0.02  -0.01  -0.00     0.09  -0.11  -0.14
  10   6    -0.00   0.02   0.05     0.01  -0.01   0.02     0.00  -0.00  -0.05
  11   6     0.02   0.03   0.03     0.04  -0.02   0.01    -0.04   0.02  -0.01
  12   6     0.02   0.05   0.02     0.05  -0.01  -0.00    -0.05   0.02   0.01
  13   6     0.01   0.06   0.01     0.02   0.01  -0.01     0.07  -0.01  -0.06
  14   6    -0.01   0.05   0.01    -0.03  -0.01   0.01     0.08   0.01  -0.03
  15   6     0.00   0.03   0.01    -0.02  -0.03   0.01    -0.07   0.05   0.11
  16   6     0.02   0.02   0.02     0.02  -0.04  -0.00    -0.08   0.05   0.08
  17   6     0.01  -0.02   0.06    -0.01   0.01   0.01     0.02  -0.01  -0.00
  18   6    -0.03   0.02   0.07    -0.03  -0.01   0.00     0.01   0.00  -0.00
  19   6    -0.07  -0.06   0.06    -0.03  -0.02   0.00    -0.02  -0.02   0.02
  20   6     0.02   0.03   0.04    -0.04   0.00  -0.02    -0.01  -0.01   0.02
  21  15     0.00  -0.00   0.00     0.01   0.03  -0.04     0.00  -0.01  -0.00
  22   6     0.01   0.02   0.01    -0.05   0.14   0.14    -0.00   0.03   0.01
  23   6     0.03   0.01   0.00    -0.03   0.12   0.14     0.01   0.04  -0.01
  24   6     0.02   0.00  -0.01    -0.01   0.01   0.12     0.02   0.00  -0.00
  25   6     0.02   0.00  -0.01    -0.17  -0.07  -0.02     0.00  -0.01  -0.00
  26   6     0.01  -0.00   0.01    -0.29  -0.03   0.08    -0.02   0.01   0.00
  27   6     0.01   0.01   0.02    -0.13   0.07   0.27    -0.01   0.02   0.03
  28   6    -0.07   0.05  -0.03     0.19  -0.08  -0.08    -0.01   0.01  -0.01
  29   6    -0.06   0.08  -0.02     0.14  -0.17  -0.18    -0.01   0.01  -0.00
  30   6    -0.03  -0.01  -0.00     0.09   0.11  -0.27    -0.00   0.00  -0.01
  31   6     0.01  -0.02  -0.09    -0.12   0.04  -0.11    -0.01  -0.01  -0.03
  32   6     0.00   0.05  -0.12    -0.01  -0.13   0.09    -0.00   0.01  -0.02
  33   6    -0.08   0.03  -0.08     0.29   0.00  -0.05    -0.00   0.01  -0.02
  34   6     0.06  -0.05   0.10    -0.00   0.02  -0.02     0.03  -0.03   0.05
  35   1    -0.32   0.06   0.16    -0.03  -0.00   0.02    -0.02   0.03  -0.01
  36   1     0.19   0.23  -0.17     0.01   0.01  -0.02     0.03   0.06   0.01
  37   1     0.14  -0.36   0.05     0.01  -0.05  -0.00     0.02   0.02   0.02
  38   1     0.03  -0.02   0.00    -0.00   0.01  -0.01     0.01  -0.01   0.02
  39   1    -0.06  -0.17   0.07     0.01   0.02  -0.01    -0.02  -0.08   0.04
  40   1     0.08   0.07   0.03    -0.00   0.00  -0.01     0.03   0.02   0.02
  41   1    -0.01  -0.08  -0.19     0.01   0.01   0.01    -0.01  -0.04  -0.06
  42   1     0.02   0.02  -0.01     0.00  -0.00  -0.00    -0.00  -0.00  -0.03
  43   1    -0.02   0.01  -0.02     0.00  -0.00   0.01     0.05  -0.03   0.01
  44   1    -0.02  -0.13   0.01     0.01   0.01  -0.02     0.02   0.49   0.10
  45   1     0.03   0.03  -0.06     0.02   0.00  -0.01    -0.34  -0.22   0.34
  46   1    -0.10   0.03   0.06     0.03   0.00  -0.01     0.19  -0.22  -0.30
  47   1    -0.04   0.01  -0.01     0.01   0.00  -0.00    -0.05  -0.01  -0.05
  48   1     0.05   0.01   0.04     0.00  -0.01  -0.01     0.08  -0.02   0.02
  49   1     0.04  -0.01  -0.06     0.00  -0.00   0.00     0.06  -0.08  -0.11
  50   1     0.01   0.02   0.01     0.02   0.00   0.00    -0.04   0.01   0.03
  51   1     0.00   0.02   0.00     0.01   0.01  -0.01     0.04  -0.02  -0.04
  52   1    -0.01   0.02   0.00    -0.02   0.00   0.01     0.05  -0.00  -0.03
  53   1    -0.00   0.01  -0.00    -0.01  -0.01   0.00    -0.04   0.02   0.06
  54   1     0.01   0.00   0.01     0.01  -0.02  -0.00    -0.03   0.03   0.03
  55   1    -0.02   0.02   0.03    -0.01  -0.00   0.00    -0.00   0.00  -0.01
  56   1    -0.15  -0.05   0.16    -0.07  -0.02   0.07    -0.00  -0.00  -0.01
  57   1     0.09   0.13   0.02     0.05   0.07   0.00    -0.02  -0.02   0.01
  58   1    -0.02  -0.15  -0.14    -0.01  -0.06  -0.08    -0.00  -0.01   0.02
  59   1    -0.12  -0.05   0.13    -0.05  -0.02   0.02    -0.02  -0.01   0.02
  60   1     0.19  -0.01   0.06     0.03   0.00   0.01     0.01  -0.01   0.01
  61   1    -0.04   0.08  -0.15    -0.03   0.02  -0.05    -0.01   0.01  -0.00
  62   1     0.00   0.00   0.00     0.01   0.03   0.03    -0.00   0.00   0.00
  63   1     0.01   0.00   0.00    -0.01   0.04   0.05    -0.00   0.02   0.00
  64   1     0.01   0.01   0.00     0.01   0.05   0.03     0.01   0.02  -0.01
  65   1     0.01   0.00  -0.01     0.03  -0.03   0.04     0.01  -0.00   0.00
  66   1     0.00  -0.00  -0.00     0.00   0.04   0.05     0.01   0.00  -0.00
  67   1     0.00  -0.00  -0.01    -0.07  -0.03  -0.03     0.00  -0.01  -0.00
  68   1     0.01   0.00  -0.00    -0.02  -0.03  -0.03    -0.00  -0.01  -0.00
  69   1     0.00  -0.01   0.00    -0.12  -0.01   0.04    -0.01   0.01   0.00
  70   1     0.00  -0.00   0.01    -0.10  -0.01   0.00    -0.01  -0.00  -0.01
  71   1     0.00   0.00   0.01    -0.06  -0.00   0.14    -0.00   0.00   0.02
  72   1     0.01   0.01   0.01    -0.01   0.06   0.09     0.00   0.01   0.01
  73   1    -0.01   0.01  -0.01     0.02  -0.01  -0.02    -0.00   0.00  -0.00
  74   1    -0.00   0.04   0.01     0.01  -0.10  -0.10    -0.00   0.00  -0.00
  75   1    -0.03   0.03  -0.02     0.09  -0.07  -0.01    -0.00   0.00   0.00
  76   1    -0.02   0.00   0.02     0.08   0.00  -0.13     0.00   0.00   0.00
  77   1    -0.01  -0.02   0.01     0.03   0.11  -0.09     0.00   0.00  -0.00
  78   1     0.01  -0.02  -0.02    -0.07   0.00  -0.02    -0.00  -0.01  -0.00
  79   1     0.01  -0.01  -0.04    -0.08   0.03  -0.05    -0.00  -0.00  -0.02
  80   1     0.02   0.03  -0.04    -0.06  -0.07   0.05     0.00   0.00  -0.01
  81   1    -0.02   0.03  -0.05     0.04  -0.06   0.08    -0.00   0.00  -0.01
  82   1    -0.03   0.01  -0.01     0.13  -0.03  -0.08     0.00   0.00  -0.01
  83   1    -0.04  -0.00  -0.04     0.13   0.07   0.03    -0.00   0.01  -0.01
  84   1     0.01  -0.01   0.03     0.00   0.01  -0.01     0.01  -0.02   0.01
  85   1     0.03  -0.02   0.04    -0.00   0.00  -0.01     0.01  -0.01   0.02
                     28                     29                     30
                        a                      a                      a 
 Frequencies --   225.1567               236.1322               243.2079
 Red. masses --     8.0770                 6.7273                 6.4440
 Frc consts  --     0.0000                 0.0000                 0.0000
 IR Inten    --     0.0378                 0.0609                 0.4340
 Raman Activ --     0.0000                 0.0000                 0.0000
 Depolar     --     0.0000                 0.0000                 0.0000
 Atom AN      X      Y      Z        X      Y      Z        X      Y      Z
   1   6     0.02  -0.14   0.01    -0.06  -0.25  -0.05    -0.01   0.02   0.02
   2   6     0.03  -0.17   0.03    -0.06  -0.05  -0.11    -0.00   0.01   0.02
   3   6    -0.11  -0.37   0.04    -0.14  -0.12   0.02     0.03   0.05  -0.00
   4   6     0.07  -0.15   0.02     0.01  -0.04  -0.09    -0.04   0.01   0.02
   5   6     0.02  -0.05  -0.04     0.04   0.01   0.03    -0.02   0.02   0.07
   6   6    -0.07  -0.01  -0.08     0.07   0.04   0.08     0.01   0.01   0.06
   7   6    -0.09   0.03  -0.07     0.07   0.04   0.01    -0.01   0.00   0.02
   8   6    -0.22  -0.03   0.08     0.22   0.05  -0.17     0.09  -0.03  -0.11
   9   6    -0.08   0.07   0.01     0.16   0.03   0.01    -0.03   0.02   0.06
  10   6     0.04   0.05   0.01    -0.02   0.02  -0.01    -0.02  -0.01   0.04
  11   6     0.10   0.09   0.03    -0.15   0.08  -0.05    -0.05  -0.03   0.13
  12   6     0.09   0.18   0.03    -0.15   0.01  -0.03    -0.07  -0.00   0.15
  13   6     0.05   0.20   0.03    -0.05  -0.04   0.01    -0.06   0.01   0.07
  14   6     0.04   0.20   0.04     0.08   0.02  -0.01     0.03  -0.04  -0.08
  15   6     0.07   0.14   0.04     0.04   0.11   0.01     0.01  -0.07  -0.04
  16   6     0.11   0.12   0.04    -0.10   0.14  -0.01    -0.07  -0.06   0.10
  17   6     0.03  -0.05  -0.05     0.02  -0.03   0.08    -0.05  -0.00  -0.07
  18   6    -0.01  -0.01  -0.07     0.04  -0.00   0.11     0.01   0.06  -0.09
  19   6    -0.05  -0.03  -0.02     0.02   0.01   0.18    -0.01  -0.00  -0.18
  20   6     0.04   0.04  -0.19     0.02  -0.02   0.16     0.14   0.10  -0.17
  21  15     0.02  -0.08  -0.02     0.02  -0.04   0.03    -0.07  -0.05  -0.04
  22   6    -0.02   0.04   0.03    -0.00   0.02   0.01     0.00  -0.11  -0.07
  23   6    -0.02   0.06   0.00     0.00   0.04  -0.02    -0.13   0.07  -0.17
  24   6     0.01   0.00   0.02     0.02   0.00  -0.02     0.15  -0.03   0.13
  25   6    -0.04  -0.03   0.01     0.00  -0.02   0.01     0.05  -0.06  -0.02
  26   6    -0.07   0.01   0.00    -0.01   0.01  -0.01    -0.06   0.12  -0.14
  27   6    -0.03   0.03   0.06    -0.00   0.02   0.01     0.18  -0.04   0.11
  28   6    -0.00  -0.01  -0.00    -0.05   0.03  -0.03    -0.03  -0.00   0.01
  29   6     0.01   0.04   0.01    -0.05   0.04  -0.03     0.00  -0.03   0.07
  30   6     0.01  -0.00   0.02    -0.02   0.02  -0.03     0.04   0.02   0.05
  31   6    -0.01  -0.04  -0.00    -0.02  -0.02  -0.09    -0.01  -0.00   0.08
  32   6     0.01   0.04   0.01    -0.01   0.02  -0.10    -0.02  -0.02   0.07
  33   6     0.02   0.02   0.01    -0.05   0.02  -0.08     0.02   0.04   0.03
  34   6     0.09  -0.09  -0.05     0.03  -0.06   0.13    -0.07  -0.00  -0.04
  35   1     0.23  -0.10  -0.10     0.12  -0.10  -0.01     0.00   0.00  -0.00
  36   1    -0.12  -0.21   0.13    -0.09  -0.18   0.03    -0.00   0.00   0.01
  37   1    -0.09   0.20  -0.03    -0.07   0.01  -0.04    -0.00   0.01   0.01
  38   1    -0.00  -0.04   0.00    -0.03   0.01  -0.03     0.00  -0.01   0.01
  39   1    -0.05  -0.18   0.05     0.05   0.07  -0.10    -0.07  -0.06   0.08
  40   1    -0.00  -0.09   0.04    -0.11  -0.20  -0.04     0.07   0.13   0.04
  41   1    -0.08  -0.10  -0.05    -0.08   0.02   0.19     0.03  -0.02  -0.14
  42   1     0.02   0.00  -0.01     0.01  -0.00  -0.00    -0.00   0.01   0.04
  43   1    -0.01   0.02  -0.03    -0.00   0.01  -0.00    -0.02   0.01  -0.01
  44   1    -0.04  -0.08   0.06     0.03   0.02  -0.10     0.01  -0.02  -0.06
  45   1    -0.05   0.02  -0.01     0.09   0.01  -0.05     0.06  -0.00  -0.04
  46   1    -0.13   0.02   0.06     0.10   0.01  -0.05     0.04  -0.00  -0.03
  47   1     0.01   0.01   0.01    -0.18   0.03   0.01    -0.23   0.02   0.03
  48   1    -0.04   0.02  -0.02     0.20   0.07   0.19     0.13   0.09   0.18
  49   1    -0.04   0.05   0.03     0.16  -0.09  -0.20     0.09  -0.10  -0.16
  50   1     0.03   0.06   0.02    -0.05  -0.01  -0.02    -0.01   0.01   0.05
  51   1     0.01   0.06   0.01    -0.01  -0.04   0.01    -0.02   0.02   0.02
  52   1    -0.00   0.06   0.02     0.05  -0.00  -0.01     0.03  -0.01  -0.06
  53   1     0.01   0.03   0.01     0.03   0.04   0.00     0.02  -0.03  -0.04
  54   1     0.03   0.03   0.02    -0.03   0.07  -0.00    -0.02  -0.03   0.04
  55   1    -0.01   0.01  -0.02     0.01   0.00   0.03     0.00   0.04   0.00
  56   1    -0.01  -0.01  -0.01    -0.03  -0.01   0.11     0.03   0.02  -0.14
  57   1    -0.03  -0.02  -0.00     0.03   0.07   0.05    -0.04  -0.09  -0.05
  58   1    -0.01  -0.00   0.02     0.01  -0.04   0.01     0.00   0.04   0.02
  59   1    -0.01  -0.01  -0.04    -0.02  -0.02   0.08    -0.02   0.00   0.01
  60   1     0.06   0.04  -0.04     0.04  -0.02   0.05     0.14   0.04  -0.02
  61   1     0.00   0.02  -0.11    -0.01   0.02   0.02     0.02   0.05  -0.14
  62   1    -0.01   0.01   0.01    -0.00   0.00   0.00    -0.01  -0.08  -0.04
  63   1    -0.01   0.03   0.01    -0.00   0.02   0.00    -0.10   0.08   0.01
  64   1    -0.00   0.03  -0.02     0.00   0.02  -0.02    -0.06   0.03  -0.15
  65   1     0.01  -0.01   0.01     0.01  -0.00  -0.01     0.05  -0.07   0.12
  66   1     0.01   0.01   0.01     0.01  -0.00  -0.01     0.12   0.07   0.04
  67   1    -0.01  -0.02   0.00     0.01  -0.01   0.01     0.02  -0.01   0.01
  68   1    -0.01  -0.02   0.00    -0.01  -0.01   0.01     0.01  -0.07  -0.02
  69   1    -0.03   0.01   0.01    -0.01   0.01   0.00    -0.08   0.10   0.01
  70   1    -0.03  -0.00  -0.01    -0.01   0.00  -0.01    -0.03   0.05  -0.14
  71   1    -0.01   0.00   0.04    -0.00   0.00   0.01     0.08  -0.08   0.11
  72   1     0.00   0.02   0.02     0.00   0.01   0.00     0.13   0.07   0.04
  73   1     0.00  -0.01  -0.01    -0.01   0.01  -0.01    -0.02   0.01  -0.01
  74   1     0.01   0.02   0.00    -0.01   0.01  -0.00    -0.01  -0.02   0.02
  75   1    -0.01   0.02   0.00    -0.01   0.01  -0.01     0.01  -0.01   0.03
  76   1     0.01  -0.00   0.01    -0.00   0.00  -0.00     0.02  -0.00   0.00
  77   1     0.00   0.00   0.00    -0.00  -0.00  -0.00     0.01   0.03   0.01
  78   1    -0.01  -0.03   0.01    -0.01  -0.02  -0.02     0.00  -0.00   0.02
  79   1    -0.00  -0.01  -0.02    -0.01  -0.01  -0.04    -0.01   0.00   0.02
  80   1     0.02   0.02   0.00     0.00   0.01  -0.03    -0.02  -0.02   0.01
  81   1    -0.01   0.02   0.01    -0.01   0.01  -0.03     0.00  -0.01   0.04
  82   1     0.02  -0.00   0.01    -0.02   0.01  -0.02     0.02   0.00  -0.01
  83   1     0.01   0.01   0.00    -0.02   0.01  -0.03     0.02   0.03   0.02
  84   1     0.04  -0.03  -0.03    -0.04  -0.02   0.06    -0.01  -0.01  -0.02
  85   1     0.01  -0.01  -0.03     0.05  -0.03   0.07    -0.02   0.00  -0.01
                     31                     32                     33
                        a                      a                      a 
 Frequencies --   244.6378               251.9492               258.6309
[...]
  17   6     0.00   0.00   0.00     0.00  -0.00  -0.00    -0.00  -0.00   0.00
  18   6    -0.00   0.00   0.00     0.01   0.00  -0.00    -0.00  -0.00   0.00
  19   6    -0.07  -0.00   0.02     0.19   0.02  -0.07    -0.00  -0.00   0.00
  20   6     0.01   0.00  -0.00    -0.02  -0.01   0.00    -0.00   0.00   0.00
  21  15     0.00  -0.00   0.00     0.00  -0.00  -0.00    -0.00   0.00  -0.00
  22   6     0.00  -0.00   0.00    -0.00   0.00  -0.00    -0.00  -0.00   0.00
  23   6     0.00  -0.00   0.00    -0.00   0.00  -0.00     0.00  -0.00  -0.00
  24   6     0.00   0.00   0.00    -0.00  -0.00  -0.00    -0.00  -0.00   0.00
  25   6     0.00  -0.00   0.00    -0.00   0.00  -0.00    -0.00  -0.00   0.00
  26   6     0.00  -0.00  -0.00    -0.00   0.00   0.00    -0.00   0.00   0.00
  27   6     0.00  -0.00   0.00    -0.00   0.00  -0.00    -0.00   0.00  -0.00
  28   6     0.00   0.00  -0.00    -0.00  -0.00   0.00     0.00  -0.00   0.00
  29   6     0.00   0.00  -0.00    -0.00   0.00  -0.00    -0.00  -0.00  -0.00
  30   6    -0.00   0.00   0.00     0.00  -0.00  -0.00    -0.00   0.00   0.00
  31   6     0.00  -0.00   0.00     0.00   0.00  -0.00    -0.00  -0.00   0.00
  32   6     0.00  -0.00   0.00    -0.00   0.00  -0.00    -0.00   0.00  -0.00
  33   6     0.00  -0.00  -0.00    -0.00   0.00   0.00    -0.00   0.00   0.00
  34   6     0.00   0.00  -0.00     0.00   0.00   0.00    -0.00  -0.00  -0.00
  35   1    -0.00  -0.00   0.00    -0.00  -0.00  -0.00     0.00   0.00  -0.00
  36   1    -0.00   0.00  -0.00     0.00  -0.00   0.00     0.00  -0.00   0.00
  37   1     0.00   0.00  -0.00    -0.00  -0.00   0.00    -0.00  -0.00   0.00
  38   1     0.00   0.00  -0.00    -0.00  -0.00   0.00     0.00   0.00  -0.00
  39   1    -0.00  -0.00  -0.00     0.01   0.00   0.01    -0.00  -0.00  -0.00
  40   1     0.00  -0.00  -0.00    -0.00   0.00   0.00    -0.00  -0.00   0.00
  41   1     0.00   0.00  -0.00    -0.00  -0.01   0.00     0.00   0.00  -0.00
  42   1    -0.00   0.00   0.00    -0.01   0.01   0.00    -0.01   0.01   0.00
  43   1     0.00  -0.00   0.00     0.00   0.00   0.00     0.00  -0.02  -0.02
  44   1    -0.00   0.00   0.00     0.00  -0.00  -0.00    -0.02   0.01   0.02
  45   1    -0.00  -0.06  -0.05     0.00   0.02   0.01    -0.00  -0.13  -0.10
  46   1     0.00   0.01  -0.00    -0.00  -0.01   0.01    -0.00  -0.00   0.01
  47   1     0.01   0.09   0.07     0.00   0.02   0.02    -0.10  -0.71  -0.60
  48   1     0.01  -0.00  -0.01     0.00  -0.00  -0.00    -0.07   0.03   0.08
  49   1    -0.01  -0.00  -0.01     0.01  -0.00   0.00     0.07   0.01   0.06
  50   1    -0.12   0.22  -0.15    -0.00   0.01  -0.01    -0.00   0.00  -0.00
  51   1     0.54   0.13   0.52     0.22   0.05   0.21     0.05   0.01   0.05
  52   1    -0.10  -0.31  -0.06    -0.05  -0.17  -0.03    -0.03  -0.10  -0.02
  53   1    -0.04   0.06  -0.04    -0.03   0.06  -0.04    -0.03   0.05  -0.04
  54   1     0.00   0.00   0.00     0.01   0.00   0.01    -0.01  -0.00  -0.01
  55   1     0.00   0.00  -0.00    -0.01  -0.01   0.00     0.00   0.00  -0.00
  56   1    -0.02  -0.11  -0.03     0.05   0.26   0.07    -0.00   0.00   0.00
  57   1    -0.01  -0.00   0.04     0.03   0.00  -0.09    -0.00  -0.00   0.00
  58   1     0.28   0.12  -0.10    -0.75  -0.32   0.26     0.02   0.01  -0.01
  59   1     0.00  -0.00   0.00    -0.01   0.01  -0.01     0.00  -0.00   0.00
  60   1    -0.00  -0.00   0.00    -0.00  -0.00   0.00     0.00   0.00  -0.00
  61   1    -0.03  -0.01   0.00     0.10   0.04  -0.01     0.00   0.00  -0.00
  62   1    -0.00   0.00  -0.00     0.00  -0.00   0.00     0.00   0.00  -0.00
  63   1    -0.00   0.00  -0.00     0.00  -0.00   0.00     0.00  -0.00   0.00
  64   1     0.00  -0.00  -0.00    -0.00   0.00  -0.00    -0.00   0.00   0.00
  65   1    -0.00  -0.00  -0.00     0.00   0.00   0.00     0.00   0.00   0.00
  66   1     0.00   0.00   0.00    -0.00  -0.00   0.00    -0.00   0.00  -0.00
  67   1    -0.00  -0.00   0.00     0.00   0.00  -0.00     0.00   0.00  -0.00
  68   1    -0.00   0.00  -0.00     0.00  -0.00   0.00     0.00  -0.00   0.00
  69   1     0.00  -0.00   0.00    -0.00   0.00  -0.00    -0.00   0.00  -0.00
  70   1    -0.00   0.00   0.00     0.00  -0.00  -0.00     0.00  -0.00  -0.00
  71   1     0.00   0.00   0.00    -0.00  -0.00  -0.00    -0.00  -0.00  -0.00
  72   1    -0.00   0.00  -0.00     0.00  -0.00   0.00     0.00  -0.00   0.00
  73   1    -0.00  -0.00  -0.00     0.00   0.00   0.00    -0.00  -0.00   0.00
  74   1     0.00  -0.00   0.00     0.00  -0.00   0.00     0.00  -0.00   0.00
  75   1    -0.00  -0.00  -0.00    -0.00  -0.00   0.00     0.00   0.00   0.00
  76   1    -0.00  -0.00   0.00     0.00   0.00  -0.00    -0.00  -0.00  -0.00
  77   1     0.00  -0.00  -0.00    -0.00   0.00   0.00     0.00  -0.00  -0.00
  78   1    -0.00  -0.00  -0.00     0.00   0.00   0.00    -0.00  -0.00  -0.00
  79   1     0.00   0.00   0.00    -0.00  -0.00   0.00     0.00   0.00  -0.00
  80   1    -0.00   0.00  -0.00     0.00  -0.00   0.00     0.00  -0.00   0.00
  81   1    -0.00  -0.00   0.00     0.00   0.00  -0.00     0.00   0.00  -0.00
  82   1     0.00   0.00  -0.00    -0.00  -0.00   0.00    -0.00  -0.00   0.00
  83   1    -0.00   0.00   0.00     0.00  -0.00  -0.00     0.00  -0.00  -0.00
  84   1     0.00  -0.00   0.00    -0.00   0.00  -0.00     0.00  -0.00   0.00
  85   1    -0.00  -0.00   0.00    -0.00  -0.00   0.00     0.00   0.00  -0.00
                    244                    245                    246
                        a                      a                      a 
 Frequencies --  3065.6780              3074.7790              3077.3275
 Red. masses --     1.7865                 1.7838                 1.7389
 Frc consts  --     0.0000                 0.0000                 0.0000
 IR Inten    --    30.9570                98.1168               122.2174
 Raman Activ --     0.0000                 0.0000                 0.0000
 Depolar     --     0.0000                 0.0000                 0.0000
 Atom AN      X      Y      Z        X      Y      Z        X      Y      Z
   1   6    -0.00  -0.00  -0.00    -0.00  -0.00  -0.00     0.00   0.00   0.00
   2   6    -0.00  -0.00   0.00    -0.00  -0.00   0.00     0.00  -0.00  -0.00
   3   6    -0.00  -0.00  -0.00     0.00  -0.00  -0.00     0.00   0.00  -0.00
   4   6    -0.00   0.00   0.00     0.00  -0.00   0.00    -0.00  -0.00   0.00
   5   6    -0.00   0.00   0.00     0.00  -0.00  -0.00     0.01  -0.01  -0.00
   6   6     0.00   0.00   0.00     0.00   0.00   0.00     0.00   0.00  -0.00
   7   6     0.00   0.00   0.00    -0.00   0.00   0.00    -0.00   0.00   0.00
   8   6     0.00   0.01   0.00    -0.00   0.00   0.00    -0.00   0.00   0.00
   9   6     0.00   0.02   0.01     0.00   0.00   0.00     0.00   0.00   0.00
  10   6    -0.00   0.00  -0.00    -0.00   0.00   0.00     0.00   0.00  -0.00
  11   6     0.00  -0.00   0.00    -0.00  -0.01  -0.00    -0.00  -0.00   0.00
  12   6     0.02  -0.03   0.02     0.07  -0.13   0.09     0.04  -0.07   0.05
  13   6    -0.05  -0.02  -0.05     0.02   0.00   0.02    -0.01  -0.00  -0.00
  14   6    -0.04  -0.11  -0.02    -0.03  -0.10  -0.02    -0.04  -0.11  -0.02
  15   6    -0.09   0.17  -0.11     0.04  -0.07   0.04     0.03  -0.06   0.04
  16   6     0.02   0.01   0.02    -0.01   0.00  -0.01    -0.02  -0.00  -0.02
  17   6    -0.00  -0.00   0.00     0.00   0.00  -0.00    -0.00  -0.00   0.00
  18   6     0.00   0.00  -0.00     0.01   0.01  -0.00    -0.01  -0.01   0.00
  19   6     0.02   0.00  -0.01     0.03   0.01  -0.01    -0.01  -0.01  -0.00
  20   6    -0.00  -0.00   0.00     0.13   0.07  -0.01    -0.17  -0.09   0.01
  21  15    -0.00  -0.00  -0.00     0.00   0.00   0.00    -0.00  -0.00  -0.00
  22   6     0.00   0.00  -0.00    -0.00   0.00  -0.00     0.00  -0.00   0.00
  23   6     0.00  -0.00  -0.00    -0.00   0.00  -0.00     0.00  -0.00   0.00
  24   6    -0.00  -0.00   0.00    -0.00  -0.00  -0.00     0.00   0.00   0.00
  25   6    -0.00   0.00  -0.00    -0.00   0.00  -0.00     0.00  -0.00   0.00
  26   6    -0.00   0.00   0.00    -0.00   0.00  -0.00     0.00  -0.00   0.00
  27   6    -0.00   0.00  -0.00    -0.00  -0.00  -0.00     0.00   0.00   0.00
  28   6    -0.00   0.00  -0.00    -0.00  -0.00  -0.00     0.00   0.00   0.00
  29   6    -0.00  -0.00   0.00     0.00   0.00  -0.00     0.00   0.00  -0.00
  30   6    -0.00  -0.00  -0.00    -0.00  -0.00  -0.00    -0.00   0.00   0.00
  31   6     0.00  -0.00   0.00    -0.00   0.00  -0.00    -0.00  -0.00   0.00
  32   6    -0.00  -0.00  -0.00    -0.00  -0.00  -0.00     0.00  -0.00   0.00
  33   6    -0.00  -0.00   0.00    -0.00   0.00   0.00     0.00  -0.00  -0.00
  34   6    -0.00  -0.00   0.00     0.00   0.00   0.00    -0.00  -0.00   0.00
  35   1     0.00   0.00  -0.00     0.00   0.00  -0.00    -0.00  -0.00   0.00
  36   1     0.00  -0.00   0.00     0.00  -0.00   0.00    -0.00   0.00  -0.00
  37   1    -0.00  -0.00   0.00    -0.00  -0.00   0.00     0.00   0.00  -0.00
  38   1     0.00   0.00  -0.00     0.00  -0.00  -0.00    -0.00   0.00   0.00
  39   1     0.00   0.00   0.00     0.00   0.00  -0.00    -0.00  -0.00  -0.00
  40   1    -0.00  -0.00   0.00    -0.00   0.00   0.00    -0.00   0.00   0.00
  41   1     0.00   0.00  -0.00     0.00   0.00  -0.00    -0.00  -0.00   0.00
  42   1     0.00  -0.00  -0.00    -0.00   0.00   0.00    -0.04   0.03   0.01
  43   1     0.00  -0.00  -0.00     0.00  -0.00  -0.00     0.00  -0.00  -0.00
  44   1    -0.00   0.00   0.00     0.00   0.00  -0.00     0.00   0.00  -0.00
  45   1    -0.00  -0.03  -0.02    -0.00  -0.01  -0.01    -0.00  -0.01  -0.01
  46   1    -0.00  -0.00   0.00    -0.00  -0.01   0.00    -0.00  -0.00   0.00
  47   1    -0.01  -0.06  -0.05    -0.00  -0.02  -0.01    -0.00  -0.01  -0.01
  48   1    -0.01   0.00   0.01     0.00   0.00   0.00     0.00   0.00  -0.00
  49   1     0.00   0.00   0.00     0.00   0.00   0.00    -0.00   0.00  -0.00
  50   1    -0.07   0.13  -0.09    -0.25   0.46  -0.32    -0.14   0.25  -0.17
  51   1     0.17   0.04   0.17    -0.06  -0.01  -0.05     0.02   0.00   0.02
  52   1     0.13   0.40   0.07     0.11   0.33   0.06     0.12   0.37   0.07
  53   1     0.32  -0.60   0.41    -0.12   0.22  -0.15    -0.11   0.21  -0.14
  54   1    -0.09  -0.02  -0.09     0.04   0.01   0.04     0.06   0.01   0.06
  55   1    -0.00  -0.00   0.00    -0.02  -0.01   0.01     0.02   0.01  -0.01
  56   1     0.00   0.02   0.00     0.00  -0.00  -0.00    -0.00   0.01   0.00
  57   1     0.00   0.00  -0.01     0.01   0.00  -0.01    -0.00  -0.00   0.02
  58   1    -0.06  -0.03   0.02    -0.12  -0.05   0.04     0.05   0.02  -0.02
  59   1    -0.00   0.00  -0.00     0.03  -0.00   0.01    -0.04   0.01  -0.01
  60   1    -0.00  -0.00   0.00     0.02   0.01  -0.02    -0.03  -0.01   0.04
  61   1     0.00   0.00  -0.00    -0.50  -0.24   0.05     0.68   0.33  -0.06
  62   1     0.00  -0.00   0.00     0.00  -0.00   0.00    -0.00   0.00  -0.00
  63   1     0.00  -0.00   0.00     0.00  -0.00   0.00    -0.00   0.00  -0.00
  64   1    -0.00   0.00   0.00    -0.00  -0.00  -0.00     0.00  -0.00   0.00
  65   1     0.00   0.00   0.00     0.00   0.00   0.00    -0.00  -0.00  -0.00
  66   1    -0.00   0.00  -0.00     0.00  -0.00   0.00    -0.00   0.00  -0.00
  67   1     0.00   0.00  -0.00     0.00   0.00  -0.00    -0.00  -0.00   0.00
  68   1     0.00  -0.00   0.00     0.00  -0.00   0.00    -0.00   0.00  -0.00
  69   1    -0.00   0.00  -0.00     0.00  -0.00   0.00    -0.00   0.00  -0.00
  70   1     0.00  -0.00  -0.00     0.00  -0.00  -0.00    -0.00   0.00   0.00
  71   1    -0.00  -0.00  -0.00     0.00   0.00   0.00    -0.00  -0.00  -0.00
  72   1     0.00  -0.00   0.00     0.00  -0.00   0.00    -0.00   0.00  -0.00
  73   1    -0.00  -0.00   0.00     0.00   0.00  -0.00    -0.00  -0.00   0.00
  74   1     0.00  -0.00   0.00     0.00   0.00   0.00     0.00  -0.00   0.00
  75   1     0.00   0.01   0.00    -0.00  -0.00  -0.00    -0.00  -0.00  -0.00
  76   1     0.00   0.00  -0.00     0.00   0.00  -0.00    -0.00  -0.00   0.00
  77   1    -0.00   0.00   0.00    -0.00   0.00   0.00     0.00  -0.00  -0.00
  78   1    -0.00  -0.00  -0.00     0.00   0.00   0.00    -0.00  -0.00  -0.00
  79   1     0.00   0.00   0.00    -0.00  -0.00  -0.00     0.00   0.00  -0.00
  80   1     0.00  -0.00   0.00     0.00  -0.00   0.00    -0.00   0.00  -0.00
  81   1     0.00   0.00  -0.00     0.00   0.00  -0.00    -0.00  -0.00   0.00
  82   1     0.00   0.00   0.00    -0.00  -0.00   0.00    -0.00  -0.00  -0.00
  83   1     0.00  -0.00  -0.00     0.00  -0.00  -0.00    -0.00   0.00   0.00
  84   1     0.00  -0.00   0.00    -0.00   0.00  -0.00     0.00  -0.00   0.00
  85   1     0.00   0.00  -0.00    -0.00  -0.00   0.00     0.00   0.00  -0.00
                    247                    248                    249
                        a                      a                      a 
 Frequencies --  3081.1645              3082.6381              3101.2432
 Red. masses --     1.8135                 1.8835                 1.8381
 Frc consts  --     0.0000                 0.0000                 0.0000
 IR Inten    --    97.1322               110.6128                46.5030
 Raman Activ --     0.0000                 0.0000                 0.0000
 Depolar     --     0.0000                 0.0000                 0.0000
 Atom AN      X      Y      Z        X      Y      Z        X      Y      Z
   1   6    -0.00   0.00   0.00    -0.00  -0.00  -0.00     0.00  -0.00  -0.00
   2   6    -0.00   0.00   0.00     0.00  -0.00   0.00    -0.00  -0.00   0.00
   3   6    -0.01  -0.00   0.01     0.00  -0.00  -0.00     0.00  -0.00   0.00
   4   6     0.00   0.01  -0.00    -0.00  -0.00   0.00    -0.00  -0.00  -0.00
   5   6    -0.21   0.15   0.06     0.03  -0.03  -0.01     0.00  -0.00  -0.00
   6   6    -0.01   0.00   0.00     0.00  -0.00  -0.00    -0.00   0.00  -0.00
   7   6    -0.00   0.00   0.00     0.00  -0.00  -0.00     0.00   0.00  -0.00
   8   6     0.00   0.00  -0.00    -0.00   0.00  -0.00     0.00   0.00   0.00
   9   6     0.00   0.00   0.00     0.00  -0.00  -0.00    -0.00   0.00   0.00
  10   6     0.00  -0.00  -0.00    -0.00  -0.00   0.00    -0.00   0.00   0.00
  11   6    -0.00  -0.00   0.00    -0.00  -0.00   0.00    -0.00  -0.01  -0.00
  12   6     0.01  -0.02   0.02     0.06  -0.12   0.08     0.01  -0.01   0.01
  13   6     0.01   0.00   0.01     0.09   0.02   0.09     0.01   0.00   0.01
  14   6     0.01   0.02   0.00     0.05   0.15   0.03     0.01   0.03   0.01
  15   6    -0.00   0.01  -0.00    -0.03   0.06  -0.04    -0.03   0.05  -0.03
  16   6     0.00   0.00   0.00     0.03   0.01   0.03    -0.18  -0.04  -0.19
  17   6     0.00  -0.00  -0.00    -0.00  -0.00   0.00     0.00   0.00  -0.00
  18   6    -0.00  -0.00  -0.00    -0.00  -0.00   0.00     0.00   0.00  -0.00
  19   6     0.00  -0.00  -0.00     0.01   0.00  -0.00     0.00   0.00  -0.00
  20   6    -0.02  -0.01   0.00    -0.04  -0.02   0.00     0.00   0.00  -0.00
  21  15     0.00  -0.00   0.00    -0.00  -0.00  -0.00     0.00   0.00   0.00
  22   6     0.00   0.00   0.00     0.00   0.00   0.00    -0.00  -0.00   0.00
  23   6     0.00  -0.00   0.00     0.00  -0.00  -0.00    -0.00  -0.00   0.00
  24   6     0.00   0.00   0.00    -0.00  -0.00  -0.00     0.00   0.00   0.00
  25   6     0.00   0.00  -0.00    -0.00  -0.00   0.00     0.00  -0.00   0.00
  26   6     0.00  -0.00  -0.00    -0.00   0.00   0.00     0.00  -0.00   0.00
  27   6    -0.00  -0.00   0.00     0.00   0.00  -0.00     0.00  -0.00   0.00
  28   6    -0.00  -0.00  -0.00    -0.00  -0.00  -0.00     0.00   0.00   0.00
  29   6     0.00  -0.00   0.00    -0.00  -0.00   0.00     0.00   0.00  -0.00
  30   6    -0.00   0.00   0.00    -0.00  -0.00  -0.00     0.00   0.00  -0.00
  31   6     0.00  -0.00   0.00     0.00   0.00  -0.00    -0.00  -0.00  -0.00
  32   6     0.00  -0.00   0.00    -0.00   0.00  -0.00     0.00  -0.00  -0.00
  33   6     0.00  -0.00  -0.00    -0.00   0.00   0.00    -0.00  -0.00  -0.00
  34   6     0.00  -0.00  -0.00    -0.00  -0.00   0.00     0.00  -0.00   0.00
  35   1    -0.00  -0.00   0.00     0.00   0.00  -0.00     0.00   0.00  -0.00
  36   1     0.00  -0.00   0.00     0.00  -0.00   0.00    -0.00   0.00  -0.00
  37   1     0.00   0.00  -0.01    -0.00  -0.00   0.00    -0.00  -0.00   0.00
  38   1     0.00   0.00  -0.00     0.00   0.00  -0.00     0.00   0.00  -0.00
  39   1     0.01   0.00   0.01    -0.00  -0.00  -0.00    -0.00  -0.00  -0.00
  40   1     0.03   0.00  -0.04    -0.01  -0.00   0.01    -0.00  -0.00   0.00
  41   1    -0.00   0.00   0.00     0.00   0.00  -0.00     0.00   0.00  -0.00
  42   1     0.72  -0.58  -0.20    -0.12   0.09   0.03    -0.00   0.00   0.00
  43   1     0.00  -0.01  -0.01    -0.00   0.00   0.00    -0.00   0.00   0.00
  44   1     0.00   0.00  -0.00     0.00  -0.00  -0.00    -0.00   0.00   0.00
  45   1    -0.00  -0.00  -0.00    -0.00   0.00  -0.00     0.00  -0.00  -0.00
  46   1     0.00  -0.01   0.01    -0.00  -0.00   0.00     0.00   0.00  -0.00
  47   1    -0.00  -0.01  -0.00     0.00   0.01   0.01    -0.00  -0.01  -0.01
  48   1     0.01  -0.00  -0.00    -0.00  -0.00   0.00     0.00   0.00   0.00
  49   1    -0.01   0.00  -0.00    -0.01   0.00  -0.01     0.01  -0.00   0.01
  50   1    -0.05   0.09  -0.06    -0.23   0.42  -0.28    -0.02   0.04  -0.03
  51   1    -0.04  -0.01  -0.04    -0.29  -0.07  -0.28    -0.03  -0.01  -0.03
  52   1    -0.02  -0.07  -0.01    -0.16  -0.51  -0.10    -0.03  -0.09  -0.02
  53   1     0.01  -0.02   0.01     0.11  -0.20   0.14     0.08  -0.15   0.10
  54   1    -0.01  -0.00  -0.01    -0.12  -0.03  -0.12     0.64   0.16   0.66
  55   1     0.00   0.00  -0.00     0.00   0.00  -0.00    -0.00  -0.00   0.00
  56   1     0.00   0.01   0.00     0.00   0.00   0.00     0.00   0.00   0.00
  57   1     0.00  -0.00   0.00     0.00   0.00   0.00     0.00  -0.00  -0.00
  58   1    -0.01  -0.00   0.00    -0.02  -0.01   0.01    -0.00  -0.00   0.00
  59   1    -0.00   0.00  -0.00    -0.01   0.00  -0.00    -0.00   0.00  -0.00
  60   1    -0.00  -0.00   0.01    -0.01  -0.00   0.01    -0.00  -0.00   0.00
  61   1     0.06   0.03  -0.01     0.15   0.07  -0.01    -0.01  -0.00   0.00
  62   1     0.00   0.00  -0.00     0.00  -0.00   0.00    -0.00   0.00  -0.00
  63   1    -0.00   0.00  -0.00     0.00  -0.00   0.00    -0.00   0.00  -0.00
  64   1    -0.00   0.00   0.00    -0.00   0.00   0.00     0.00  -0.00  -0.00
  65   1    -0.00  -0.00  -0.00     0.00   0.00   0.00    -0.00  -0.00  -0.00
  66   1     0.00  -0.00   0.00    -0.00   0.00  -0.00    -0.00   0.00  -0.00
  67   1    -0.00  -0.00   0.00     0.00   0.00  -0.00    -0.00  -0.00   0.00
  68   1    -0.00   0.00  -0.00     0.00  -0.00   0.00    -0.00   0.00  -0.00
  69   1     0.00  -0.00   0.00    -0.00   0.00  -0.00    -0.00   0.00  -0.00
  70   1    -0.00   0.00   0.00     0.00  -0.00  -0.00    -0.00   0.00   0.00
  71   1     0.00   0.00   0.00    -0.00  -0.00  -0.00     0.00   0.00   0.00
  72   1    -0.00   0.00  -0.00     0.00  -0.00   0.00    -0.00   0.00  -0.00
  73   1     0.00   0.00   0.00     0.00   0.00   0.00    -0.00  -0.00  -0.00
  74   1    -0.00   0.00  -0.00     0.00  -0.00   0.00    -0.00   0.00  -0.00
  75   1    -0.00  -0.00   0.00     0.00   0.01  -0.00    -0.01  -0.02  -0.00
  76   1    -0.00  -0.00   0.00     0.00   0.00  -0.00    -0.00  -0.00   0.00
  77   1     0.00   0.00  -0.00    -0.00   0.00   0.00     0.00   0.00  -0.00
  78   1    -0.00  -0.00  -0.00     0.00   0.00   0.00     0.00   0.00   0.00
  79   1     0.00   0.00   0.00    -0.00  -0.00  -0.00     0.00   0.00  -0.00
  80   1    -0.00   0.00  -0.00     0.00  -0.00   0.00    -0.00   0.00  -0.00
  81   1    -0.00  -0.00   0.00     0.00   0.00  -0.00     0.00   0.00   0.00
  82   1     0.00   0.00  -0.00    -0.00  -0.00  -0.00     0.00   0.00  -0.00
  83   1    -0.00   0.00   0.00     0.00  -0.00  -0.00    -0.00   0.00   0.00
  84   1     0.00   0.00   0.00     0.00  -0.00   0.00    -0.00   0.00  -0.00
  85   1    -0.00  -0.00   0.00     0.00   0.00  -0.00    -0.00  -0.00   0.00
