$hessian                                                                        
        0.2605651932  -0.2838461252  -0.0873164756  -0.2250951231   0.2361010971
        0.0724608538  -0.0462095204   0.0439132770   0.0138389665   0.0025786837
        0.0059315232   0.0015965860  -0.0014289238   0.0020956220   0.0008787148
        0.0017301072  -0.0005064924  -0.0005939839  -0.0008870192  -0.0000519690
        0.0000787760   0.0003752081  -0.0003802238  -0.0004090569  -0.0004750525
       -0.0003153134  -0.0001474557   0.0013048495   0.0001505390  -0.0002983216
       -0.0012234924  -0.0001957017   0.0002395273   0.0002378511   0.0002777114
        0.0002924706  -0.0000459097  -0.0001201562  -0.0000303334   0.0000243018
        0.0000900539   0.0000169168  -0.0000180191  -0.0000014791  -0.0000095768
        0.0000485128   0.0000192553   0.0000330464  -0.0000629817  -0.0000695690
       -0.0000315738   0.0001114111  -0.0001524815  -0.0003541094  -0.0000419710
        0.0001012110   0.0000343629   0.0000419838  -0.0000647818  -0.0000327263
       -0.0000187183  -0.0000180338   0.0000179326   0.0000435893   0.0000116492
       -0.0000375255  -0.0000345512   0.0000520452   0.0000466402  -0.0004226959
        0.0001594173   0.0003913883   0.0003896965   0.0005247763   0.0001862001
       -0.0017969595   0.0014816235   0.0006259075   0.0001548638   0.0004134441
        0.0001078577  -0.0002271865   0.0002464075  -0.0000402942   0.0001901730
        0.0000959666   0.0001525725  -0.0001948200   0.0001980007   0.0001070763
        0.0007390885  -0.0001328668   0.0001471198  -0.0007169972   0.0001955219
       -0.0001085221   0.0001337889  -0.0002140047  -0.0001782749  -0.0000525860
        0.0000500369   0.0000152443   0.0000335544  -0.0000238574  -0.0000296608
       -0.0000075608   0.0000011002   0.0000038971   0.0000080062  -0.0000558502
       -0.0000126919  -0.0000187496   0.0000762635   0.0000200883   0.0000578239
        0.0000590221   0.0002047570  -0.0000159844  -0.0000229924  -0.0000213717
        0.0000265314  -0.0000185929   0.0000214849  -0.0000071352   0.0000257668
       -0.0000085616   0.0000363563   0.0000385338   0.0000229582  -0.0000038122
       -0.0000673804  -0.0000101250  -0.0002067625  -0.0000766839  -0.0001838101
        0.0001352330  -0.0001849258  -0.0001288989  -0.0010860829  -0.0005567058
       -0.0002400463   0.0016892058  -0.0012874983  -0.0002642028  -0.0005894120
        0.0013486793   0.0003197833  -0.0083868448  -0.0037705894  -0.0009580841
       -0.0003023582  -0.0000855140  -0.0000855910   0.0007507756  -0.0022679113
       -0.0006729516   0.0000271125   0.0012230922   0.0003830839   0.0007322458
       -0.0002782772  -0.0000836321  -0.0005755215   0.0004122689   0.0001264843
       -0.0000212434  -0.0010545819  -0.0003459916  -0.0022119343   0.0008834638
        0.0002315276   0.0026546395   0.0022090872   0.0007540719   0.0181891282
       -0.0005101841  -0.0002505382  -0.0004321694  -0.0000490671   0.0000069058
        0.0000910025  -0.0000496069   0.0000534755   0.0000197863   0.0000576821
       -0.0000760204  -0.0000711077   0.0000404789   0.0000353271   0.0000098329
        0.0000303745  -0.0000216919   0.0000062167  -0.0000377362  -0.0000062471
       -0.0000224090  -0.0000293726  -0.0000208883  -0.0000295021   0.0000015629
       -0.0000188103   0.0000004761   0.0000030153   0.0000090814   0.0000100935
       -0.0000196890   0.0000235918   0.0000034947   0.0000167791  -0.0000046127
       -0.0000209163   0.0000197716   0.0000229794  -0.0000321354  -0.0000126467
        0.0000284560  -0.0000088915  -0.0000220113  -0.0000118632  -0.0000519686
       -0.0000372724  -0.0000262817   0.0000339629  -0.0000434300   0.0000343635
        0.0000051614  -0.0000406385   0.0000977035  -0.0000509223  -0.0000190843
       -0.0000226434   0.0000077130   0.0000001741   0.0000006213  -0.0000184219
       -0.0000017952   0.0000161062  -0.0000114421   0.0000234833   0.0000187057
        0.0000085718   0.0000228120   0.0000061887   0.0000109815  -0.0000203159
        0.0000152526  -0.0000098616   0.0000238031   0.0000066932  -0.0000298757
        0.0000135656  -0.0000206289  -0.0000247725  -0.0000142911  -0.0000185162
        0.0000037685   0.0000003452   0.0000143773   0.0000047514  -0.0000014048
       -0.0000142854  -0.0000322160   0.0000079192   0.0000280197   0.0000107089
        0.0000203774  -0.0000227373   0.0000080446   0.0000685896  -0.0000171510
       -0.0000484599   0.0000951567   0.0000234602   0.0000021423  -0.0001251507
       -0.0000391617  -0.0001146527  -0.0002447104  -0.0000742576   0.0000172707
       -0.0000623892  -0.0000202923   0.0001317600  -0.0016709916  -0.0004771286
       -0.2838461252   0.5649988782   0.1649741788   0.2443637960  -0.4505200886
       -0.1203106685   0.0364688046  -0.0141448312  -0.0090936484  -0.0089440053
       -0.0057094611  -0.0015140432   0.0037716889  -0.0014442929  -0.0006189845
       -0.0027601586   0.0010973652   0.0007035606   0.0011626581   0.0002749734
       -0.0001315027  -0.0005277104   0.0003966792   0.0004552051   0.0004436372
        0.0003274706   0.0001498962  -0.0011468849  -0.0001311292   0.0002562232
        0.0009751941   0.0002796180  -0.0001214139  -0.0002166364  -0.0002923090
       -0.0002467749   0.0000791521   0.0000922163   0.0000412030  -0.0000100000
       -0.0000948200  -0.0000087735   0.0000093843   0.0000103786   0.0000111748
       -0.0000466524  -0.0000288738  -0.0000372611   0.0000613196   0.0000685838
        0.0000301786  -0.0000030630  -0.0000041886   0.0002121633   0.0000321619
       -0.0000457114  -0.0000120436  -0.0000355333   0.0000380724   0.0000242015
        0.0000129290   0.0000307830  -0.0000130675  -0.0000336280  -0.0000354845
        0.0000214367  -0.0000222929  -0.0000395596  -0.0000135818   0.0004167171
       -0.0001372729  -0.0003785944  -0.0005018609  -0.0005967634  -0.0002548862
        0.0013283366  -0.0002582079   0.0002237141  -0.0007800012  -0.0010383288
       -0.0004861265   0.0005876884  -0.0000974340   0.0001374247  -0.0002940915
       -0.0002337177  -0.0003823483   0.0003577493  -0.0002851836  -0.0001419087
       -0.0011008025   0.0001980548  -0.0001973337   0.0010320766  -0.0001530837
        0.0002046336  -0.0001497647   0.0001886921   0.0002265906   0.0000349940
       -0.0000593465  -0.0000228953  -0.0000454873   0.0000148735   0.0000291652
        0.0000160884   0.0000053025  -0.0000076995  -0.0000189555   0.0000600734
        0.0000146836   0.0000259636  -0.0000871110  -0.0000163281  -0.0001339932
       -0.0001506720  -0.0003245157   0.0000431859   0.0000416262   0.0000440887
       -0.0000419272   0.0000058802  -0.0000384940   0.0000116078  -0.0000164431
        0.0000137597  -0.0000460779  -0.0000754886  -0.0000311060   0.0000386118
        0.0000909401   0.0000396898   0.0003055537   0.0001221658   0.0003008071
       -0.0002629860   0.0004084876   0.0001720292   0.0020575315   0.0012225249
        0.0005578845  -0.0024409391   0.0024027982   0.0005691436   0.0016674103
       -0.0029586759  -0.0008314242   0.0033885029   0.0029832960   0.0001119098
       -0.0103922491   0.0027863751  -0.0007546353  -0.0037936845  -0.0076599219
       -0.0017574028   0.0026081354  -0.0016459860  -0.0005015827  -0.0011336874
        0.0007552583   0.0001945066   0.0006160563  -0.0009545727  -0.0002485011
        0.0007508497   0.0002786138   0.0000063419  -0.0011118164  -0.0006883630
       -0.0004015221   0.0037024545   0.0014925928   0.0007429345   0.0146581864
       -0.0933603533  -0.0323824271   0.0006836077   0.0018467286   0.0005014884
        0.0000025384   0.0001281855  -0.0000772615   0.0000026723  -0.0000887555
        0.0000763582   0.0000537464  -0.0000546257  -0.0000040761  -0.0000281604
       -0.0000262418   0.0000098447  -0.0000065850   0.0000546229   0.0000084624
        0.0000161659   0.0000304735   0.0000172228   0.0000152887   0.0000021794
        0.0000135744  -0.0000147858   0.0000131517  -0.0000075942  -0.0000056343
        0.0000009802  -0.0000228517  -0.0000018861   0.0000054077   0.0000100926
        0.0000152615  -0.0000120294  -0.0000166403   0.0000307358   0.0000144692
       -0.0000236055   0.0000151470   0.0000310216   0.0000109123   0.0000292421
        0.0000203129   0.0000287702   0.0000018148   0.0000525709   0.0000234739
        0.0000053066   0.0000587884  -0.0000379129   0.0000743717   0.0000224071
        0.0000387177   0.0000021453   0.0000079181   0.0000038562   0.0000264966
        0.0000036081  -0.0000173054   0.0000121659  -0.0000228943  -0.0000193549
       -0.0000068620  -0.0000157202  -0.0000071426  -0.0000064869   0.0000198825
       -0.0000240492   0.0000065383  -0.0000143513  -0.0000137558   0.0000301026
       -0.0000094490   0.0000219979   0.0000282443   0.0000210676   0.0000232136
        0.0000006377   0.0000239247  -0.0000104767  -0.0000058582  -0.0000139027
        0.0000170728   0.0000255790  -0.0000239826  -0.0000256303  -0.0000284746
       -0.0000509938   0.0000397775   0.0000754859  -0.0000297277   0.0000548616
       -0.0000770587   0.0001945504   0.0000417504  -0.0000144001   0.0000451094
        0.0000144457  -0.0001281554   0.0000299278   0.0000346523  -0.0001667477
        0.0001358062   0.0000466066  -0.0018496098  -0.0001253178   0.0000832709
       -0.0873164756   0.1649741788   0.0750864055   0.0748472935  -0.1203551750
       -0.0940615316   0.0113327362  -0.0088165566   0.0123503404  -0.0028727400
       -0.0020653320   0.0000450027   0.0012307777  -0.0001591936  -0.0015542745
       -0.0008361766   0.0006651638   0.0001895358   0.0004363381   0.0000091829
        0.0003399259  -0.0002352946   0.0000855771   0.0001437554   0.0001293643
        0.0001259939   0.0000762263  -0.0003929126  -0.0000385520   0.0000691807
        0.0003496452   0.0000795834  -0.0000266053  -0.0000781417  -0.0000949804
       -0.0000942600   0.0000127091   0.0000349146   0.0000143685  -0.0000100555
       -0.0000322760  -0.0000030375   0.0000057051   0.0000018711   0.0000067394
       -0.0000152044  -0.0000081627  -0.0000096990   0.0000177868   0.0000217585
        0.0000119339  -0.0000145285   0.0000178680   0.0000779607   0.0000164955
       -0.0000160897  -0.0000050212  -0.0000089545   0.0000143678   0.0000086169
        0.0000052495   0.0000054421  -0.0000023233  -0.0000113739  -0.0000056962
        0.0000104657   0.0000014172  -0.0000145560  -0.0000048413   0.0001462462
       -0.0000253950  -0.0001156360  -0.0000972860  -0.0002127467  -0.0001275884
       -0.0000470257  -0.0001875103  -0.0006791324  -0.0001403444  -0.0003533417
       -0.0001231045   0.0001645997   0.0000342488  -0.0002483896  -0.0000967936
       -0.0000723365  -0.0001199083   0.0000805815  -0.0000940547  -0.0000331660
       -0.0002758749   0.0000577047  -0.0000510303   0.0002584660  -0.0000281725
        0.0000702183  -0.0000317906   0.0000418580   0.0000469514   0.0000087843
       -0.0000126357  -0.0000015227  -0.0000093256   0.0000020195   0.0000084021
        0.0000028965   0.0000008613   0.0000002382  -0.0000022228   0.0000147468
        0.0000052857   0.0000132460  -0.0000197338  -0.0000005099  -0.0000358885
       -0.0000402428  -0.0000950958   0.0000104131   0.0000080601   0.0000143982
       -0.0000109575   0.0000019743  -0.0000075022   0.0000023785  -0.0000054197
        0.0000072052  -0.0000175235  -0.0000199614  -0.0000074335   0.0000017076
        0.0000280988   0.0000127708   0.0000579991   0.0000001633   0.0000634440
        0.0000118247   0.0001002101   0.0000484792   0.0006589949   0.0002915968
        0.0003394745  -0.0007787083   0.0008655762  -0.0001739847   0.0004747039
       -0.0008467488  -0.0005319384   0.0015550659   0.0000989014   0.0024924606
       -0.0031341026  -0.0005711656   0.0046230015  -0.0010983498  -0.0018807209
       -0.0021459188   0.0007315842  -0.0005088309   0.0000754997  -0.0003043264
        0.0001996215   0.0001381964   0.0001638273  -0.0002251469  -0.0001464277
        0.0001855634  -0.0000726558   0.0003096975  -0.0003126447  -0.0003574402
        0.0004698009   0.0010090805   0.0008840766  -0.0011881088   0.0045409838
       -0.0323612678   0.0045531411   0.0002362221   0.0005107466   0.0003077540
        0.0000193107   0.0000293163  -0.0000262527   0.0000007900  -0.0000113276
        0.0000344572   0.0000045702  -0.0000101723   0.0000033029  -0.0000023298
       -0.0000082675   0.0000025733  -0.0000016119   0.0000150031  -0.0000007145
        0.0000081334   0.0000108702   0.0000049928   0.0000091655   0.0000005459
        0.0000043366  -0.0000003177   0.0000010599  -0.0000045395  -0.0000050548
        0.0000029494  -0.0000087460  -0.0000017738  -0.0000019484  -0.0000000756
        0.0000031622  -0.0000041685  -0.0000058320   0.0000069105   0.0000034909
       -0.0000077239   0.0000011638   0.0000062837   0.0000019936   0.0000196379
        0.0000146204   0.0000119900   0.0000110742   0.0000261901   0.0000225903
        0.0000044456   0.0000324753  -0.0000030402   0.0000280302   0.0000080619
        0.0000170043  -0.0000018312   0.0000006193  -0.0000015568   0.0000039498
        0.0000017750  -0.0000042068   0.0000016717  -0.0000046548  -0.0000055659
       -0.0000022977  -0.0000041601  -0.0000032636  -0.0000059114   0.0000051952
       -0.0000076635   0.0000039577  -0.0000056814  -0.0000048310   0.0000107596
       -0.0000032918   0.0000057951   0.0000106923   0.0000060692   0.0000055311
        0.0000013037   0.0000048627  -0.0000072107   0.0000001829  -0.0000004509
        0.0000009683   0.0000105653  -0.0000049973  -0.0000023398  -0.0000014827
        0.0000033412   0.0000230842   0.0000257874  -0.0000239675   0.0000517604
       -0.0000259083   0.0000548565   0.0000258898  -0.0000038148   0.0000077665
        0.0000181358  -0.0000389414   0.0000238002  -0.0000488630  -0.0000495882
        0.0000522052  -0.0000259952  -0.0005600653   0.0000974611  -0.0005248708
       -0.2250951231   0.2443637960   0.0748472935   0.5854080868  -0.1670943287
       -0.0525591730  -0.1739116557   0.0078809319   0.0032622399  -0.0412831870
       -0.0242514108  -0.0057689691   0.0103190081  -0.0079647298  -0.0038382231
       -0.0058743809   0.0041180314   0.0029513953   0.0036780560   0.0002028695
       -0.0002921855  -0.0011743381   0.0014159020   0.0015063230   0.0015553359
        0.0009073353   0.0004435057  -0.0039726464  -0.0004724348   0.0009293248
        0.0036820722   0.0004612520  -0.0008287362  -0.0006860308  -0.0007401497
       -0.0008725455   0.0001493520   0.0003526414   0.0000859685  -0.0000791314
       -0.0002487792  -0.0000494206   0.0000568328  -0.0000107364   0.0000236938
       -0.0001469155  -0.0000400877  -0.0000880787   0.0001552308   0.0002058523
        0.0001024310  -0.0004392900   0.0005956387   0.0011545606   0.0001820363
       -0.0003215886  -0.0001552284  -0.0001150639   0.0002228529   0.0000942567
        0.0000494289   0.0000285995  -0.0000453477  -0.0001381225  -0.0000105999
        0.0001277526   0.0001486647  -0.0001708866  -0.0001721390   0.0013751029
       -0.0004971517  -0.0012334739  -0.0012325752  -0.0018913504  -0.0006775434
        0.0032145098   0.0028690000  -0.0005353550  -0.0018244306   0.0000550987
        0.0002711152  -0.0000266955  -0.0001242511   0.0000521602  -0.0003057035
        0.0000023675  -0.0001073633   0.0001829995  -0.0003431036  -0.0001581167
       -0.0010157062   0.0002006789  -0.0002015639   0.0009519023  -0.0004632906
        0.0000832698  -0.0002350627   0.0004590096   0.0002625425   0.0001351289
       -0.0000845719  -0.0000184150  -0.0000600136   0.0000605004   0.0000692284
       -0.0000088786  -0.0000002383   0.0000063556   0.0000111920   0.0001098312
        0.0000194235   0.0000505874  -0.0001273416  -0.0000496662   0.0000339107
        0.0000637522  -0.0002179153  -0.0000269271   0.0000254405   0.0000068199
       -0.0000422345   0.0000689930  -0.0000261633  -0.0000023879  -0.0000809741
        0.0000048294  -0.0000645739  -0.0000380408  -0.0000340998  -0.0000465483
        0.0000873429  -0.0000136695   0.0001782692   0.0000771734   0.0002455381
       -0.0002426788   0.0001484237   0.0001894785   0.0013239452   0.0002009002
        0.0000941758  -0.0031950450   0.0011187767   0.0002732112  -0.0027380976
       -0.0060396439  -0.0013689030  -0.0163195124   0.0241288753   0.0069074183
        0.0175526423  -0.0154739614  -0.0043674149   0.0070602699   0.0149160816
        0.0044844367  -0.0103639954   0.0007431499   0.0000113553   0.0019440919
       -0.0014648207  -0.0004119847  -0.0006778092   0.0023555863   0.0006977262
       -0.0028170973  -0.0018849392  -0.0005788677   0.0053936651  -0.0020830075
       -0.0005654353  -0.0295373313  -0.0268340469  -0.0081577909  -0.1213364306
       -0.0521091001  -0.0157849681   0.0003985699   0.0012020117   0.0004000321
       -0.0001358985   0.0002244672  -0.0002692561  -0.0000737324  -0.0001961172
        0.0000110759   0.0001939320  -0.0001271007  -0.0001145272  -0.0000098737
       -0.0000757623   0.0000544979  -0.0000135191   0.0000929973   0.0000124635
        0.0000597806   0.0000743258   0.0000563393   0.0000895345  -0.0000052561
        0.0000542188   0.0000165963  -0.0000245152  -0.0000340532  -0.0000182262
        0.0000791911  -0.0000631124  -0.0000063068  -0.0000883116  -0.0000018467
        0.0000573346  -0.0000608245  -0.0000636188   0.0000802724   0.0000290296
       -0.0000733941   0.0000176792   0.0000401518   0.0000382248   0.0001420850
        0.0001572761   0.0000509041  -0.0001434074   0.0001792803  -0.0000349892
        0.0000282522   0.0001078698  -0.0001764369   0.0000636491   0.0000521912
        0.0000155931  -0.0000358662  -0.0000170805  -0.0000113274   0.0000231417
        0.0000050411  -0.0000303671   0.0000213631  -0.0000504473  -0.0000383041
       -0.0000231440  -0.0000590235  -0.0000117126  -0.0000374144   0.0000289606
       -0.0000141047   0.0000300998  -0.0000658774  -0.0000051851   0.0000649243
       -0.0000355203   0.0000403826   0.0000498154   0.0000234052   0.0000323864
       -0.0000101637  -0.0000384767  -0.0000454947   0.0000108761   0.0000418126
        0.0000215307   0.0000440656   0.0000250074  -0.0000600611   0.0000160118
       -0.0000151668  -0.0000421379  -0.0001047918  -0.0001514333  -0.0000498735
        0.0003024360  -0.0004882011  -0.0001071756  -0.0001842112   0.0001849928
        0.0000391482   0.0004023940   0.0003101712   0.0001002099   0.0003207220
       -0.0000604791  -0.0000092470  -0.0013936812   0.0011202919   0.0003001450
        0.2361010971  -0.4505200886  -0.1203551750  -0.1670943287   0.7105362234
        0.1659233592   0.0067843445  -0.0618880657   0.0001739784  -0.0210000232
        0.0022396678   0.0010711070  -0.0048038050  -0.0032528594  -0.0032173109
        0.0014892578  -0.0007307752  -0.0001917918  -0.0000875670  -0.0004048567
        0.0004934186   0.0001598098  -0.0000330422  -0.0000534725  -0.0000629868
       -0.0000848370  -0.0000140466   0.0001555380   0.0000073587  -0.0000179514
       -0.0000245669  -0.0002396139  -0.0001181957   0.0000630750   0.0001571078
        0.0000451480  -0.0000490206  -0.0000016678  -0.0000255582  -0.0000108734
        0.0000409824  -0.0000027432   0.0000008472  -0.0000281957  -0.0000120748
        0.0000005913   0.0000338059   0.0000203362  -0.0000313185  -0.0000188427
       -0.0000012362  -0.0001469801   0.0002119667   0.0001144147   0.0000219946
       -0.0000482301  -0.0000313555   0.0000183336   0.0000280316  -0.0000074235
       -0.0000068435  -0.0000232077   0.0000106566  -0.0000127252   0.0000415722
        0.0000230598   0.0000854651  -0.0000123402  -0.0000474341  -0.0000803115
        0.0000441167   0.0000789622   0.0002473762   0.0001315280   0.0000798831
        0.0011097578  -0.0029644992  -0.0030715256   0.0020748793   0.0009878655
        0.0009024229  -0.0008808957  -0.0002272658  -0.0002341842   0.0003266430
        0.0003660915   0.0004835392  -0.0004799640   0.0003152654   0.0001549907
        0.0012794229  -0.0002324871   0.0002348569  -0.0011895507   0.0000713317
       -0.0002867703   0.0001420999  -0.0001228029  -0.0002602089  -0.0000008932
        0.0000587177   0.0000271311   0.0000400767  -0.0000014427  -0.0000179683
       -0.0000280552   0.0000000457   0.0000162126   0.0000407246  -0.0000509726
       -0.0000179215  -0.0000215384   0.0000844631   0.0000115629   0.0002242009
        0.0002602141   0.0004121783  -0.0000732006  -0.0000452093  -0.0000634946
        0.0000413206   0.0000231395   0.0000427238  -0.0000213000  -0.0000121777
       -0.0000228387   0.0000492883   0.0001016100   0.0000375888  -0.0000828423
       -0.0001042664  -0.0000724822  -0.0003823106  -0.0001422397  -0.0003801051
        0.0003609897  -0.0006037997  -0.0001604499  -0.0021838617  -0.0013343341
       -0.0006511901   0.0023955930  -0.0030104811  -0.0006156713  -0.0049733558
        0.0035994663   0.0017825842   0.0205546078   0.0004473175   0.0002214506
        0.0062058601  -0.0374197094  -0.0090411953   0.0081283427   0.0019395286
       -0.0006776261  -0.0039938050   0.0055567390   0.0009569663   0.0034069721
       -0.0011123159  -0.0004695666  -0.0017073142   0.0033039134   0.0009997392
       -0.0028558683  -0.0031774921  -0.0010606930   0.0049481206   0.0011743861
        0.0005008074  -0.0210915756  -0.0015293125   0.0006275604  -0.0632682504
       -0.1592159406  -0.0341633907  -0.0027935864  -0.0023913823   0.0002572588
       -0.0011989050  -0.0003247087   0.0001554349  -0.0000303261   0.0000322368
       -0.0000592100  -0.0000124590   0.0000232765  -0.0000156725   0.0000392252
        0.0000104261   0.0000069079   0.0000028375  -0.0000411465  -0.0000056337
       -0.0000014814  -0.0000134438  -0.0000034125   0.0000111026  -0.0000034515
        0.0000010148   0.0000219387  -0.0000255872  -0.0000039114  -0.0000004511
        0.0000280407  -0.0000026418   0.0000015619  -0.0000374566  -0.0000155534
       -0.0000021878  -0.0000057758   0.0000010384  -0.0000149621  -0.0000103724
        0.0000078665  -0.0000134699  -0.0000328846  -0.0000003886   0.0000004066
        0.0000347516  -0.0000261953  -0.0000091696  -0.0000026112  -0.0000356726
        0.0000267723  -0.0000821640  -0.0000462257  -0.0000770373  -0.0000174497
       -0.0000633431  -0.0000210447  -0.0000223524  -0.0000107874  -0.0000326316
       -0.0000037434   0.0000140056  -0.0000105518   0.0000166322   0.0000145423
        0.0000013241   0.0000056626   0.0000050243  -0.0000020328  -0.0000181008
        0.0000225722   0.0000017783  -0.0000001432   0.0000166974  -0.0000207363
        0.0000006141  -0.0000187015  -0.0000247952  -0.0000219896  -0.0000236032
        0.0000003350  -0.0000553598  -0.0000010629   0.0000147532   0.0000260927
       -0.0000098660  -0.0000249931   0.0000478680   0.0000238747   0.0000434156
        0.0000795650  -0.0000234876  -0.0002319541   0.0000646726  -0.0000976014
        0.0000813766  -0.0001696923  -0.0000956044   0.0002958305   0.0002708279
        0.0000097677   0.0003406557  -0.0000802435  -0.0000101308   0.0005773304
       -0.0002262440  -0.0000533150   0.0032514336  -0.0002234481   0.0000024278
        0.0724608538  -0.1203106685  -0.0940615316  -0.0525591730   0.1659233592
        0.2133442209   0.0021428397  -0.0015438184  -0.0640395432  -0.0040865535
        0.0022845375  -0.0002288876  -0.0017973386  -0.0034153285   0.0082569792
        0.0005014325  -0.0014437601  -0.0002208222  -0.0006119669   0.0003213957
       -0.0019506590   0.0004818803   0.0000686154  -0.0001043717  -0.0000376854
       -0.0002048897  -0.0001083543   0.0001855082   0.0000354922   0.0000427446
       -0.0001593665  -0.0000589933  -0.0000321302   0.0000428090   0.0000626990
        0.0000466622  -0.0000022598  -0.0000195974  -0.0000087606   0.0000054918
        0.0000203640   0.0000008297  -0.0000046546  -0.0000042850  -0.0000074431
        0.0000044599   0.0000069941   0.0000054510  -0.0000134465  -0.0000112018
       -0.0000071572  -0.0000181323   0.0000251865  -0.0000089932  -0.0000026414
       -0.0000036178  -0.0000019816   0.0000032076   0.0000015917  -0.0000023640
       -0.0000020353  -0.0000011762  -0.0000003639   0.0000010501   0.0000047951
        0.0000002659   0.0000086038   0.0000007680  -0.0000064722  -0.0000347666
       -0.0000986919  -0.0000037272  -0.0002822014   0.0001045140   0.0001317533
        0.0022556384  -0.0014196217   0.0050040161   0.0004256468   0.0004246869
        0.0000509224  -0.0002556128  -0.0002294451   0.0006084251   0.0001367398
        0.0000915140   0.0001370259  -0.0000810525   0.0001069493   0.0000240726
        0.0002567339  -0.0000601381   0.0000391214  -0.0002335943  -0.0000079863
       -0.0000790920   0.0000159380  -0.0000117714  -0.0000358328   0.0000025639
        0.0000105775   0.0000002693   0.0000065771  -0.0000000667  -0.0000056807
       -0.0000061731   0.0000003494   0.0000020756   0.0000068162  -0.0000065144
       -0.0000054527  -0.0000125853   0.0000124749  -0.0000037067   0.0000469030
        0.0000575783   0.0000986373  -0.0000158430  -0.0000073252  -0.0000171826
        0.0000094046   0.0000065734   0.0000067097  -0.0000041937  -0.0000011495
       -0.0000089640   0.0000151402   0.0000201281   0.0000051314  -0.0000062393
       -0.0000258881  -0.0000165674  -0.0000426282   0.0000408563  -0.0000482693
       -0.0000844155  -0.0001297094  -0.0000427213  -0.0007723492  -0.0002961393
       -0.0006321926   0.0009204434  -0.0010076858  -0.0002048149  -0.0012243169
        0.0018042825  -0.0014058722   0.0041123424   0.0015789860  -0.0008329256
        0.0019287582  -0.0090153703  -0.0095696990   0.0023977397  -0.0006656941
        0.0043689805  -0.0012487693   0.0009943548   0.0023362558   0.0009933026
       -0.0005101126   0.0004276846  -0.0004924068   0.0009883721   0.0001778398
       -0.0008226984  -0.0009583866  -0.0001434683   0.0014194199   0.0004638706
       -0.0002565243  -0.0062134864   0.0003303479  -0.0032392781  -0.0193304589
       -0.0340978658  -0.0552461433  -0.0009737729   0.0002037332  -0.0031286837
       -0.0005283835  -0.0001531105   0.0003930591  -0.0000015208   0.0000240298
       -0.0000405359   0.0000349957   0.0000050434  -0.0000204254   0.0000036861
        0.0000061549   0.0000007654   0.0000005478  -0.0000106709   0.0000015048
       -0.0000046950  -0.0000064231  -0.0000018548  -0.0000033292  -0.0000006496
       -0.0000008117   0.0000016623  -0.0000035798   0.0000022872   0.0000036546
        0.0000026884   0.0000021033   0.0000018289  -0.0000056468   0.0000004465
        0.0000002178  -0.0000004312   0.0000017032  -0.0000018066  -0.0000022038
        0.0000031589   0.0000004101  -0.0000051331   0.0000001922  -0.0000295909
       -0.0000017484  -0.0000118564  -0.0000415866   0.0000073397  -0.0000227004
       -0.0000076081  -0.0000482061  -0.0000425321  -0.0000241382  -0.0000065208
       -0.0000240560  -0.0000019803  -0.0000041503   0.0000008272  -0.0000038871
       -0.0000018765   0.0000027884   0.0000003949   0.0000019946   0.0000038276
        0.0000006564   0.0000004218   0.0000031192   0.0000042703  -0.0000031457
        0.0000071688  -0.0000017581   0.0000031576   0.0000051272  -0.0000075770
        0.0000010919  -0.0000041724  -0.0000089503  -0.0000052849  -0.0000042247
        0.0000001415  -0.0000097094   0.0000052328   0.0000023452   0.0000001742
        0.0000038775  -0.0000149013   0.0000131428  -0.0000029290   0.0000010889
       -0.0000156462  -0.0000238730  -0.0000827651   0.0000299314  -0.0000218894
        0.0000192394  -0.0001197053   0.0002229113   0.0000806368   0.0000143208
        0.0002174588   0.0001009522  -0.0000026853  -0.0000738879   0.0001705921
       -0.0000809538   0.0000324700   0.0009817306  -0.0000510578  -0.0000137206
       -0.0462095204   0.0364688046   0.0113327362  -0.1739116557   0.0067843445
        0.0021428397   0.5923989237   0.0246186734   0.0008653294  -0.1444550797
       -0.1277587957  -0.0351738194  -0.0509857833  -0.0186944470  -0.0007518450
        0.0104066494  -0.0073516329  -0.0047575792  -0.0049326127  -0.0002739271
        0.0002543923   0.0015703286  -0.0014900590  -0.0016814953  -0.0013919182
       -0.0007965081  -0.0004508331   0.0031257110   0.0003663617  -0.0006513424
       -0.0027573751  -0.0002838108   0.0005716281   0.0004923034   0.0005073861
        0.0006288708  -0.0001244643  -0.0002535397  -0.0000489572   0.0000562252
        0.0001856388   0.0000317025  -0.0000481133   0.0000141789  -0.0000228625
        0.0001250574   0.0000212760   0.0000630549  -0.0000911186  -0.0001653057
       -0.0000778981   0.0003046942  -0.0004208201  -0.0008506360  -0.0001471685
        0.0002232624   0.0001056809   0.0000812039  -0.0001672072  -0.0000692031
       -0.0000410103  -0.0000285489   0.0000353157   0.0001122157   0.0000101448
       -0.0001019866  -0.0000996884   0.0001480837   0.0001222369  -0.0011171013
        0.0003944081   0.0011223838   0.0013143519   0.0020981212   0.0005773270
       -0.0267958059   0.0224818054   0.0071931713  -0.0046113757   0.0007646795
       -0.0001209301  -0.0006203682   0.0012067330  -0.0000170312   0.0002238478
       -0.0000177109   0.0002031687  -0.0000582873   0.0001795498   0.0001189288
        0.0004975517  -0.0000749759   0.0000729681  -0.0004261159   0.0002478351
        0.0000406656   0.0001232584  -0.0002750813  -0.0001079596  -0.0000841192
        0.0000561921   0.0000058962   0.0000479040  -0.0000460772  -0.0000477772
        0.0000105470  -0.0000030624  -0.0000036023  -0.0000181541  -0.0000544041
       -0.0000038587  -0.0000376059   0.0000536869   0.0000265538  -0.0000931841
       -0.0001237436   0.0000648223   0.0000408542  -0.0000230306   0.0000134821
        0.0000289541  -0.0000538879   0.0000174691   0.0000067790   0.0000703994
        0.0000015872   0.0000360087   0.0000067126   0.0000165884   0.0000659250
       -0.0000322456   0.0000407942  -0.0000984587  -0.0000451168  -0.0001212035