95
 energy: -149.783797285666 gnorm: 0.000117283788 xtb: 6.7.1 (edcfbbe)
O           -6.94481707650289        2.45300446575894        1.03398232434010
C           -6.32228233414308        1.48599011092534        0.61910871488718
C           -4.87250330775740        1.39874872399475        0.54760412297033
C           -4.11660129069368        2.51415723056036        0.96174568126635
C           -2.75694353934259        2.51172741093031        0.81915033820167
C           -2.07027779984309        1.39467450920815        0.30664230420755
C           -0.66344395123859        1.56855938780680       -0.04416226086645
C           -0.18012530707587        1.16872686433374       -1.29388102509072
C            1.13291432426435        1.37116402551461       -1.65025037167539
C            2.02675283270101        1.97300642701314       -0.75931767406555
N            3.37292836012774        2.14158996401059       -1.08873600943394
C            4.07830311887042        3.23546693805608       -0.56414334458610
C            3.49445866331026        4.50121539749821       -0.53543623598048
C            4.18800025755703        5.57315026832481       -0.00800511571743
C            5.46872427390506        5.40162716102340        0.49236551800714
C            6.05338479767770        4.14571445643604        0.46340198739899
C            5.36666588053175        3.06650427306430       -0.05803722649106
C            4.05157842535181        1.20899083037498       -1.87753671891717
C            3.72596001061627       -0.14674070968469       -1.83081600023579
C            4.42053609179636       -1.05808921538077       -2.60138880933120
C            5.45143949480803       -0.64017044774209       -3.42664611453273
C            5.77528820352572        0.70592133849118       -3.48335706037368
C            5.08314535628173        1.62582944967473       -2.72108664659925
C            1.54316210312470        2.40186363447116        0.47952242146176
C            0.22299089028217        2.21228105826836        0.82140677739177
C           -2.78758933567405        0.20201565625748        0.04178544155196
C           -2.16098104012562       -1.04122405857340       -0.26572439016740
C           -0.77774234585938       -1.32724618894998        0.06392802534114
C           -0.23042026366411       -0.93413610425351        1.29424394307569
C            1.06347234214954       -1.24301227446789        1.63416272945247
C            1.88616459249049       -1.94864207775160        0.74678062837533
N            3.21328660556269       -2.22698333734305        1.05798638270065
C            3.82611128993550       -3.37197271443310        0.52405580636532
C            5.11469962699182       -3.29755102621016       -0.00334911113492
C            5.71247028688788       -4.42532203311621       -0.53146865733129
C            5.03800592148518       -5.63579033496686       -0.54400621743540
C            3.75722443492985       -5.71324765315773       -0.02077642850111
C            3.15157786317454       -4.59197539671383        0.51253190101784
C            3.97878590211942       -1.35960210268810        1.84428760025903
C            4.96469856275686       -1.87250292005358        2.68907653453336
C            5.74283118525440       -1.02094292248891        3.44801631276158
C            5.55128187046471        0.35001726774745        3.38437108707450
C            4.56751146252716        0.86357205156228        2.55533611543230
C            3.78714480019122        0.02076229258367        1.78873690021128
C            1.33980303096328       -2.36782080027965       -0.47183875428953
C            0.03653831108266       -2.07521846283107       -0.79578416336753
C           -2.94163959468003       -2.10129143841238       -0.78976456108953
C           -4.29885421311180       -2.02914999706981       -0.85700578760129
C           -4.96285651335081       -0.87219137237871       -0.37351867264243
C           -4.21144958941568        0.24753341641927        0.07696385798558
C           -6.36192000080886       -0.78836885260056       -0.33713116858144
N           -7.23575821676033       -1.71988573774722       -0.71925710562756
C           -8.45695736754930       -1.19628467991254       -0.48120727246476
C           -9.72486826748254       -1.74717393322994       -0.69602221438981
C          -10.81964064024097       -0.98437521321804       -0.36014421975434
C          -10.68583383390694        0.29961559208697        0.17958634907611
C           -9.44334477705621        0.87054658134691        0.40406705414677
C           -8.34004484400796        0.11369779123726        0.06971881037207
N           -6.98203509053571        0.35340440626530        0.15240167695517
H           -4.64765764398925        3.37099718107846        1.34546572929203
H           -2.18981186225961        3.40002122434488        1.05631155350310
H           -0.85977685742824        0.71663009639161       -2.00101847450401
H            1.47883653975437        1.07622432305601       -2.62994350627162
H            2.49880978350921        4.63462646910250       -0.93235642991400
H            3.72815615852861        6.55003518294615        0.00596122927348
H            6.00781088123634        6.24182294808466        0.90254161202691
H            7.04840574958794        4.00244533725727        0.85792257981085
H            5.81689662163457        2.08457074847238       -0.06879047095840
H            2.92590521860726       -0.48065327776835       -1.18925112341581
H            4.16230249641323       -2.10577597983894       -2.54860044846364
H            5.99504305269111       -1.35662128647535       -4.02321001088960
H            6.56923569099886        1.04429079246328       -4.13253388886777
H            5.33275179989171        2.67515655598256       -2.77745144389152
H            2.21545562615143        2.87556917142985        1.17997705415187
H           -0.11937641233462        2.52971165886676        1.79518049881067
H           -0.85526808439126       -0.41020681639844        2.00188011106749
H            1.45094278763539       -0.95668386324303        2.60069783946788
H            5.63380980990063       -2.35030979805027       -0.00501761276069
H            6.70807501966925       -4.35587691964682       -0.94363128413607
H            5.50788475293573       -6.51418715771459       -0.95913553543948
H            3.22848839866417       -6.65466123191259       -0.02152691722829
H            2.15651623687368       -4.65167694556022        0.92844136702424
H            5.11081514662914       -2.94099551159120        2.74905845323372
H            6.50010718050394       -1.43174297661418        4.09906482329425
H            6.16209436445739        1.01266455859754        3.97800999242877
H            4.41462404234916        1.93119994432451        2.49567027200575
H            3.02639440296729        0.42713800488647        1.14160095966064
H            1.95665695724797       -2.91109597595714       -1.17264486549901
H           -0.34625185829207       -2.38253732909562       -1.75739513554517
H           -2.43769861678080       -3.01211100763730       -1.07798826643942
H           -4.90344017482055       -2.83982048689929       -1.22842815921414
H           -9.82177510068684       -2.73728077824419       -1.11136273269210
H          -11.81220572104663       -1.38214621939704       -0.51440941314707
H          -11.57527063566879        0.85949439316477        0.42728235366551
H           -9.33139634077214        1.85888297128698        0.81928375020234
