$hessian                                                                        
        0.3425363250  -0.0936012486  -0.2628058390  -0.1113147012   0.1213789443
        0.0357064427  -0.0230773063   0.0139307619   0.0273680422  -0.0001894791
        0.0077374943  -0.0088870322  -0.0050902687  -0.0185133121   0.0109215635
       -0.0715290997  -0.0514611585   0.0564575528   0.0016079021   0.0018336685
        0.0048978035   0.0001200238  -0.0008061900   0.0019721286  -0.0001530211
        0.0001503884   0.0000238419  -0.0001509470  -0.0002053195  -0.0000406014
        0.0000111332   0.0002648924  -0.0000935943  -0.0003698454  -0.0002321956
        0.0003593402   0.0003471481   0.0009853793  -0.0009648755  -0.0020958826
       -0.0006176815   0.0032822751   0.0002709933  -0.0002463493  -0.0000310074
       -0.0000452975  -0.0000792104   0.0000948399   0.0000108200   0.0000174479
        0.0000149461   0.0000620304  -0.0001254118  -0.0000020001  -0.0003716619
        0.0005325085   0.0000206258   0.0004785420  -0.0006867892  -0.0000567165
       -0.0003129569   0.0005033328   0.0000679463   0.0000801356  -0.0001944788
       -0.0000386764   0.0000072723   0.0000888957   0.0000241496  -0.0000023417
       -0.0000214574  -0.0000024790  -0.0000229831   0.0000290667   0.0000094478
        0.0000036261  -0.0000471000  -0.0000050291  -0.0000459558   0.0000485526
       -0.0000017592   0.0000501785  -0.0000465955  -0.0000020615  -0.0000546540
        0.0000114919  -0.0000046181   0.0000158334  -0.0000137835   0.0000017770
       -0.0000425911  -0.0000067648  -0.0000104797   0.0000637707   0.0000287683
        0.0000089781  -0.0001857867   0.0000773448  -0.0000203585   0.0005511868
       -0.0004707631   0.0000119510  -0.0007507266   0.0008048374   0.0001281063
        0.0003570486  -0.0005713810  -0.0001306959  -0.1378143018   0.0114688594
        0.1326165003   0.0023148949  -0.0034564357  -0.0008437656   0.0023614543
        0.0016454580   0.0061716355   0.0023806324   0.0098851247  -0.0062842232
        0.0000216480   0.0000240801   0.0000207327   0.0000040077  -0.0000111547
        0.0000322569   0.0000336465   0.0000031860   0.0000273231   0.0000125890
       -0.0000112891  -0.0000064133  -0.0001362198  -0.0000440405  -0.0000240643
       -0.0000191347  -0.0000158426  -0.0000083250  -0.0000001196  -0.0000368831
       -0.0000028740  -0.0000095336   0.0000099204   0.0000027558   0.0000248465
       -0.0000050140  -0.0000015082   0.0000147547  -0.0000006840   0.0000026999
        0.0000134466   0.0000278650   0.0000088023   0.0000079836   0.0000030617
        0.0000046102   0.0000003976   0.0000158657   0.0000043496   0.0000014876
        0.0000293725   0.0000008970   0.0000190565  -0.0000080349   0.0000046755
       -0.0936012486   0.6157969228  -0.0702498148   0.0750383626  -0.2669291796
       -0.0098952365   0.0480628164   0.0166341835  -0.0687488703   0.0074932652
       -0.0564679724   0.0095872775  -0.0535636524   0.0274025418   0.0578750744
       -0.0054876595  -0.2511807783   0.0828558135   0.0045633089   0.0021371516
       -0.0038543647  -0.0017613117  -0.0002228018   0.0023607946   0.0009846153
        0.0005238070  -0.0015524080  -0.0011615624   0.0007915761   0.0013212217
        0.0003321901  -0.0024140345   0.0002863167   0.0011948459   0.0015309301
       -0.0019576669  -0.0007520091  -0.0020336457   0.0018246865   0.0003742301
        0.0035825904   0.0009000181  -0.0006881815  -0.0004954814  -0.0005909440
        0.0000236164   0.0001709300  -0.0001166703   0.0000268288  -0.0002132544
       -0.0000268035  -0.0004367475   0.0004900084   0.0000379052   0.0020631474
       -0.0022369504   0.0000478668  -0.0024300880   0.0032606508   0.0001854163
        0.0014014270  -0.0024548372  -0.0002050452  -0.0002815903   0.0009636090
        0.0000651537  -0.0000839217  -0.0003467912  -0.0001080936   0.0000277180
        0.0001524481   0.0000293585   0.0000706538  -0.0001745452  -0.0000326893
       -0.0000411187   0.0002467937   0.0000432171   0.0002065847  -0.0003082820
        0.0000041338  -0.0002814164   0.0002666912   0.0000231184   0.0002261384
       -0.0000948171   0.0000582806  -0.0001248862   0.0000538136  -0.0000124587
        0.0001969861   0.0000351840   0.0000301404  -0.0002068238  -0.0001192832
       -0.0000417121   0.0008778434  -0.0003578155   0.0000400647  -0.0023946031
        0.0019424349   0.0002195275   0.0031475723  -0.0033000542  -0.0005365184
       -0.0019931269   0.0024841920   0.0002210390   0.0112399109  -0.0438158453
       -0.0107889185   0.0100257711  -0.0241835636  -0.0040731051   0.0012339932
        0.0014865372   0.0009306591  -0.0032046796  -0.0229012771   0.0138791344
       -0.0000814047  -0.0000382727   0.0000161691   0.0000479026   0.0000276416
       -0.0000114056  -0.0000641439   0.0000074232  -0.0000275038  -0.0000315903
       -0.0000393602  -0.0001040184   0.0002275459   0.0001442305   0.0001144976
        0.0000699139   0.0001293829   0.0000407583  -0.0000745176   0.0002214088
        0.0000309072   0.0000564136  -0.0000317471  -0.0000034848  -0.0001215121
        0.0000598402   0.0000413161  -0.0000865996   0.0000824568   0.0000030155
       -0.0001179412  -0.0001942456  -0.0000557821   0.0000232928   0.0000366663
       -0.0000454429   0.0000048149  -0.0000801386  -0.0000362516  -0.0000948865
       -0.0001231521   0.0000043964  -0.0000744865   0.0000960799  -0.0000020695
       -0.2628058390  -0.0702498148   0.4777140734   0.0541201066  -0.0717299759
       -0.0897850986   0.0139836534  -0.0237743506  -0.0068862506  -0.0080079761
        0.0094823290   0.0030434159   0.0240387050   0.0134908649  -0.0376248997
        0.0394456991   0.1438739341  -0.1472137035   0.0039453614  -0.0013936116
        0.0009489245   0.0022764076   0.0016254219  -0.0019372251  -0.0002676450
       -0.0004133216   0.0003579764   0.0003127453  -0.0000671370  -0.0006001408
       -0.0001383493   0.0005173113   0.0000184167  -0.0000580494  -0.0002757609
        0.0001146909  -0.0001287468  -0.0005174963   0.0006273200   0.0022500739
       -0.0004933545  -0.0043659275  -0.0000907786   0.0005159338   0.0001813952
        0.0000691675  -0.0000839498  -0.0000111767  -0.0000368928   0.0000784681
        0.0000237391   0.0000445230  -0.0000565047   0.0000473596  -0.0002890665
        0.0002231394  -0.0000075556   0.0003218137  -0.0004203128   0.0000485593
       -0.0002008557   0.0003516924  -0.0000340101   0.0000655277  -0.0001440867
       -0.0000180921   0.0000085996   0.0000480310   0.0000108782   0.0000023885
       -0.0000220482   0.0000055202  -0.0000106520   0.0000262818   0.0000123291
        0.0000057314  -0.0000327880   0.0000086920  -0.0000369495   0.0000470739
        0.0000010430   0.0000796380  -0.0000371803  -0.0000087948  -0.0000310103
        0.0000154342  -0.0000154967   0.0000245180   0.0000022391   0.0000067817
       -0.0000333402  -0.0000010331  -0.0000019874  -0.0000067970   0.0000560374
        0.0000342199  -0.0001393446   0.0000318052  -0.0000039191   0.0006049134
       -0.0002768018   0.0000560344  -0.0006064311   0.0006105121   0.0000111084
        0.0003149883  -0.0005019172  -0.0000971958   0.1326222756  -0.0109536314
       -0.2006880271  -0.0065380163   0.0143817826   0.0033495082   0.0063348676
        0.0005001795  -0.0009330630  -0.0016419737  -0.0044013798   0.0036630044
        0.0000446413  -0.0000163286  -0.0000186950   0.0000130822   0.0000011044
       -0.0000182736   0.0000335364  -0.0000087969   0.0000121484  -0.0000101229
        0.0000252064   0.0000475143   0.0000349974   0.0000158584  -0.0000160418
        0.0000005745  -0.0000307902  -0.0000044231   0.0000298842  -0.0000263746
       -0.0000414364  -0.0000070464   0.0000053891   0.0000086732   0.0000187911
       -0.0000111377  -0.0000011034   0.0000159400  -0.0000231455  -0.0000010637
        0.0000296021   0.0000492938   0.0000156503  -0.0000273557  -0.0000151171
        0.0000077657  -0.0000109630   0.0000119670   0.0000019715   0.0000316336
        0.0000157307  -0.0000170084  -0.0000001855  -0.0000248739  -0.0000281042
       -0.1113147012   0.0750383626   0.0541201066   0.3293201416  -0.0933429498
       -0.2451247181  -0.1555702174   0.0402402621   0.1301469035  -0.0063992955
       -0.0496195576   0.0259775029  -0.0247719490   0.0194284390   0.0184302025
        0.0210915869   0.0242980340  -0.0344292714   0.0010568934  -0.0019804991
       -0.0005288790  -0.0011605841   0.0001045808   0.0012041862   0.0006165340
        0.0005085174  -0.0011005017  -0.0008345212   0.0007724514   0.0009692960
        0.0000781068  -0.0017029058   0.0002143220   0.0007901783   0.0010744925
       -0.0015286349  -0.0000088539  -0.0025404973   0.0026109825   0.0058020938
        0.0037006180  -0.0015833629  -0.0002839600  -0.0000794379   0.0000847940
        0.0000312566   0.0002931326  -0.0000546868   0.0001318117  -0.0001888285
        0.0000356036  -0.0002755556   0.0003464865   0.0000552121   0.0012775656
       -0.0013596962   0.0000281814  -0.0014915011   0.0019540192   0.0001031152
        0.0008598666  -0.0014570530  -0.0000955387  -0.0002165935   0.0005808474
        0.0000139699  -0.0000260410  -0.0002076713  -0.0000596640   0.0000033434
        0.0000796910   0.0000293995   0.0000465479  -0.0000882990  -0.0000140576
       -0.0000271007   0.0001328451   0.0000326258   0.0001182422  -0.0001504549
        0.0000008056  -0.0001652546   0.0001348932   0.0000253686   0.0001350833
       -0.0000404113   0.0000452296  -0.0000810532   0.0000257589  -0.0000067062
        0.0001076554   0.0000281993   0.0000195498  -0.0000948881  -0.0000734928
       -0.0000075614   0.0005339300  -0.0002057971  -0.0000003582  -0.0015364177
        0.0011907279   0.0001922931   0.0020030232  -0.0020411483  -0.0004356130
       -0.0010945056   0.0012995901   0.0002068141  -0.0088847690   0.0158943820
        0.0061319782  -0.0454154326  -0.0347006320   0.0288305530  -0.0088767623
        0.0027725820   0.0116816737   0.0047977478  -0.0002012921   0.0037767576
       -0.0000505951  -0.0000143505  -0.0000074341   0.0000548652   0.0000105050
       -0.0000039691  -0.0000229945  -0.0000044497  -0.0000186632   0.0000131335
       -0.0000387249  -0.0000525629  -0.0000068498   0.0001221098   0.0001164592
        0.0000086407   0.0000371018   0.0000099296  -0.0000453354   0.0001082061
        0.0000084138   0.0000284480  -0.0000320879  -0.0000023340  -0.0000751626
        0.0000303895   0.0000334861  -0.0000483823   0.0000528128   0.0000075223
       -0.0000829143  -0.0001363310  -0.0000334351   0.0000340265   0.0000222117
       -0.0000284748   0.0000130655  -0.0000502737  -0.0000229576  -0.0000573075
       -0.0000756963   0.0000060753  -0.0000342894   0.0000502887  -0.0000099289
        0.1213789443  -0.2669291796  -0.0717299759  -0.0933429498   0.6390159713
       -0.0870206068  -0.0055074392  -0.0911916935   0.0261937349  -0.0168204234
        0.0300840153   0.0101972362   0.0204588586  -0.0132796736  -0.0227404885
       -0.0091684660  -0.0649617968   0.0373793962  -0.0019333339  -0.0011136264
        0.0025218141   0.0015679437   0.0003304198  -0.0019325847  -0.0006446729
       -0.0005649691   0.0010286350   0.0007479643  -0.0005262541  -0.0008840723
       -0.0002952573   0.0013497402  -0.0000673107  -0.0007362668  -0.0011342118
        0.0011841817  -0.0004938565   0.0013304556   0.0003053248  -0.0006314575
       -0.0061846223   0.0049237616   0.0007176919   0.0001287346  -0.0003749392
        0.0000740200  -0.0001971816  -0.0002085316  -0.0001632679   0.0002800369
       -0.0000466728   0.0003218963  -0.0002641231   0.0000222532  -0.0013576627
        0.0013589572  -0.0000594596   0.0016173466  -0.0020903453  -0.0001497316
       -0.0009547278   0.0016027664   0.0001809119   0.0001897683  -0.0006637137
       -0.0000919061   0.0000534188   0.0002620595   0.0000737750  -0.0000305654
       -0.0001091325  -0.0000356801  -0.0000601176   0.0001265220   0.0000305159
        0.0000459532  -0.0001806765  -0.0000281775  -0.0001518814   0.0002164008
        0.0000107694   0.0002078210  -0.0001746756  -0.0000262315  -0.0001801187
        0.0000662153  -0.0000217157   0.0001105497  -0.0000456761   0.0000147623
       -0.0001468196  -0.0000539553  -0.0000222047   0.0001999953   0.0000795994
        0.0000156963  -0.0006162970   0.0002232012  -0.0000416576   0.0015081286
       -0.0013710285  -0.0000991726  -0.0018447802   0.0021956721   0.0003501202
        0.0011339396  -0.0015157692  -0.0002009128   0.0021669728  -0.0022543569
       -0.0017093039  -0.0341305810  -0.2174858140   0.1192454456   0.0163058820
       -0.0030882909  -0.0199929234  -0.0000699166  -0.0032643089   0.0037413666
        0.0000500659   0.0000797239  -0.0000253044  -0.0000202159  -0.0000116101
        0.0000225201   0.0000332962  -0.0000055167   0.0000489657   0.0000185829
        0.0000016187   0.0000577981   0.0000529673  -0.0000586345  -0.0000724678
       -0.0000106861  -0.0000492616  -0.0000433344   0.0000616710  -0.0001318348
       -0.0000002782  -0.0000402774   0.0000253947  -0.0000021549   0.0000878733
       -0.0000412219  -0.0000275501   0.0000602964  -0.0000391531  -0.0000010684
        0.0000797357   0.0001232954   0.0000347885   0.0000041349  -0.0000078223
        0.0000297719   0.0000012021   0.0000592412   0.0000248618   0.0000421939
        0.0001012818   0.0000042781   0.0000529239  -0.0000511932   0.0000137328
        0.0357064427  -0.0098952365  -0.0897850986  -0.2451247181  -0.0870206068
        0.4697210404   0.1480071375  -0.0342353257  -0.2244358566   0.0134638465
        0.0535230167  -0.0398366977   0.0184857783  -0.0222094351  -0.0201385739
       -0.0218083899  -0.0064333704   0.0330086434  -0.0009225501   0.0028377411
       -0.0005295948   0.0010525194  -0.0002627366  -0.0008585773  -0.0006069426
       -0.0004661617   0.0010127222   0.0008356970  -0.0008295192  -0.0009253179
       -0.0001933836   0.0017174298  -0.0004166207  -0.0010517436  -0.0010213670
        0.0013930612   0.0016575511   0.0034953828  -0.0028832026  -0.0006608008
       -0.0001219998   0.0055362677   0.0008892406  -0.0001429148   0.0003090112
       -0.0001759872  -0.0003702898  -0.0000116763  -0.0001203059   0.0001799988
       -0.0000592774   0.0002291747  -0.0003494454  -0.0000013755  -0.0009469676
        0.0011768032  -0.0000613683   0.0012240979  -0.0017641712  -0.0001499680
       -0.0008033493   0.0013419234   0.0001592765   0.0002546258  -0.0005232498
       -0.0000562219   0.0000036239   0.0001880242   0.0000541294   0.0000132238
       -0.0000658846  -0.0000106927  -0.0000452913   0.0000540327   0.0000249711
        0.0000080371  -0.0001105700  -0.0000067555  -0.0000995738   0.0000983400
       -0.0000088770   0.0001276254  -0.0001075057  -0.0000318545  -0.0001151055
        0.0000161568  -0.0000299864   0.0000503753  -0.0000203305   0.0000139468
       -0.0000862292  -0.0000055800  -0.0000037382   0.0000746197   0.0000603384
        0.0000173586  -0.0004783451   0.0002340602  -0.0000343580   0.0015417601
       -0.0011510763  -0.0000533103  -0.0019411681   0.0019224080   0.0003864495
        0.0010966760  -0.0012153644  -0.0002054754   0.0115463473  -0.0198721676
       -0.0067902688   0.0291624567   0.1194183698  -0.1190647134   0.0059417637
       -0.0020875804  -0.0063999631   0.0035803254   0.0040519419   0.0010998852
        0.0000470024  -0.0000138947   0.0000083618  -0.0000333597  -0.0000044788
        0.0000160723   0.0000603248   0.0000133613   0.0000369862   0.0000058589
        0.0000509478   0.0000704005  -0.0000329418  -0.0001133256  -0.0001308158
       -0.0000169417   0.0000059219  -0.0000157939   0.0000255231  -0.0000862328
        0.0000101511  -0.0000216440   0.0000300487   0.0000086674   0.0000650972
       -0.0000260077  -0.0000282736   0.0000402920  -0.0000579386  -0.0000049564
        0.0000776419   0.0001300497   0.0000402958  -0.0000482572  -0.0000300567
        0.0000307414  -0.0000195678   0.0000395904   0.0000228793   0.0000601689
        0.0000635915  -0.0000110895   0.0000187086  -0.0000356550  -0.0000009691
       -0.0230773063   0.0480628164   0.0139836534  -0.1555702174  -0.0055074392
        0.1480071375   0.3384030315  -0.1130492983  -0.2545435180  -0.0673079912
        0.0034608771   0.0262742433   0.0174863767  -0.0114647015  -0.0202002175
       -0.0136557227  -0.0145535064   0.0190571397   0.0019927002   0.0074806869
        0.0027852770   0.0005945516  -0.0001885422  -0.0005019755  -0.0007199845
       -0.0004530576   0.0006176875   0.0006638537  -0.0007462853  -0.0008331764
       -0.0004058991   0.0014897899  -0.0002077162  -0.0011437778  -0.0020821545
        0.0019363181  -0.0001670896   0.0045103078   0.0015275118  -0.0082024208
       -0.0206297022   0.0218008552  -0.0007735735  -0.0015614515   0.0007697724
       -0.0011342205  -0.0003000637   0.0008773954   0.0003586270  -0.0003180742
        0.0000784271  -0.0000199943  -0.0002465271  -0.0000785106  -0.0006448656
        0.0006365946   0.0000198302   0.0006865118  -0.0008059367   0.0000347051
       -0.0004148262   0.0007501066  -0.0000112380   0.0001461586  -0.0002623543
        0.0000249076  -0.0000080142   0.0000901690   0.0000217143   0.0000165139
       -0.0000330305  -0.0000138646  -0.0000259711   0.0000362405   0.0000019180
        0.0000266254  -0.0000515822  -0.0000143856  -0.0000815392   0.0000611986
       -0.0000091042   0.0001153575  -0.0000660362  -0.0000085903  -0.0000522116
        0.0000065689  -0.0000319366   0.0000411324  -0.0000014288   0.0000044487
       -0.0000682102  -0.0000116764  -0.0000172666   0.0000239407   0.0000857362
        0.0000053501  -0.0002881886   0.0000030629  -0.0000099608   0.0012731508
       -0.0005243145  -0.0000611074  -0.0013682982   0.0009959791   0.0002085773
        0.0013278822  -0.0006322213   0.0000503920   0.0032563167   0.0037393690
        0.0035565988  -0.0038914252  -0.0006820516   0.0060996293  -0.0877696658
        0.1033183849   0.0286537664  -0.0001916426  -0.0004916906  -0.0000768879
        0.0000057840  -0.0000620198   0.0000155427   0.0000440810  -0.0000092050
        0.0000540496   0.0000448906  -0.0000834571   0.0001257626   0.0000896777
       -0.0000372434  -0.0000160312   0.0002995356   0.0000904779   0.0000309856
       -0.0000166728   0.0000200197   0.0000456378   0.0000496902  -0.0000333038
       -0.0000301143  -0.0000156851   0.0000119171  -0.0000023205   0.0000262024
       -0.0000138381  -0.0000238657   0.0000161609  -0.0000378401  -0.0000122895
        0.0000404443   0.0000709234   0.0000128148  -0.0000380613  -0.0000250763
        0.0000087773  -0.0000167471   0.0000146337   0.0000079975   0.0000352711
        0.0000264649  -0.0000074758   0.0000057537   0.0000027856   0.0000127292
        0.0139307619   0.0166341835  -0.0237743506   0.0402402621  -0.0911916935
       -0.0342353257  -0.1130492983   0.6205107209  -0.0629362163  -0.0339468991
       -0.2378103717   0.1225169796   0.0160376964  -0.0547569528  -0.0014627588
       -0.0111982279  -0.0078113468   0.0163774718   0.0043353431  -0.0025820344
       -0.0023767015  -0.0005744779  -0.0000133432   0.0007491766  -0.0002807843
       -0.0001380103   0.0004747596   0.0004153063  -0.0006744900  -0.0004433784
       -0.0000472634   0.0010836027  -0.0003158113  -0.0006823161  -0.0008062763
        0.0010285766   0.0009689996   0.0029677449  -0.0029747752  -0.0106172594
        0.0013766349   0.0169250222   0.0009116420  -0.0008592478  -0.0003943845
        0.0006212422  -0.0005063908  -0.0009060199  -0.0004285829   0.0003216735
       -0.0000078923   0.0005169234  -0.0004133769   0.0000156765  -0.0013101520
        0.0014012430   0.0000781902   0.0016118877  -0.0023229044  -0.0002661336
       -0.0009742123   0.0017354199   0.0002726765   0.0002935661  -0.0006495562
       -0.0000795936   0.0000225605   0.0002326049   0.0000755362   0.0000197256
       -0.0000710816  -0.0000173562  -0.0000542887   0.0000453874   0.0000122846
       -0.0000087830  -0.0001380009  -0.0000334942  -0.0000952364   0.0001010208
       -0.0000156623   0.0000507123  -0.0001266741  -0.0000287667  -0.0001441293
        0.0000181410  -0.0000196157   0.0000346181  -0.0000388350  -0.0000030173
       -0.0000689843  -0.0000006022  -0.0000049555   0.0002173595   0.0000125083
       -0.0000215614  -0.0005779841   0.0003861427  -0.0000503060   0.0014366847
       -0.0014666655  -0.0000948705  -0.0019160523   0.0022787626   0.0003553767
        0.0013658999  -0.0009483520  -0.0004563904   0.0038375526  -0.0037143875
       -0.0007403600  -0.0144895221  -0.0002164811   0.0191967256   0.1039018745
       -0.2423437873  -0.0468137714  -0.0004417067   0.0005160966   0.0003055179
        0.0000351243   0.0000488747  -0.0000148295  -0.0000109085   0.0000020642
        0.0000039396   0.0000458687   0.0000123489   0.0000326651   0.0000640523
        0.0000118249  -0.0000329607  -0.0001941220  -0.0000939039   0.0000426490
       -0.0000658437   0.0000008277  -0.0000629760   0.0000114289  -0.0001175663
        0.0000377257  -0.0000229849   0.0000203874   0.0000004168   0.0000771907
       -0.0000353905  -0.0000224747   0.0000520644  -0.0000338476  -0.0000026899
        0.0000625194   0.0001010138   0.0000253181   0.0000034577  -0.0000072508
        0.0000217693   0.0000003837   0.0000513313   0.0000131030   0.0000350005
        0.0000833173   0.0000098026   0.0000423102  -0.0000650561   0.0000380402
        0.0273680422  -0.0687488703  -0.0068862506   0.1301469035   0.0261937349
       -0.2244358566  -0.2545435180  -0.0629362163   0.4700478215   0.0409914535
        0.0759477492  -0.1316424600  -0.0307132873   0.0350763842   0.0246645184
        0.0179663067   0.0206023027  -0.0344457472   0.0038038962  -0.0069547239
        0.0040390703  -0.0004701056   0.0003190376   0.0000784769   0.0004817789
        0.0004835705  -0.0013817626  -0.0011553897   0.0012476533   0.0011967081
        0.0002465375  -0.0025031921   0.0002196647   0.0016783926   0.0030762290
       -0.0031146017   0.0025472323  -0.0069934984   0.0017101259   0.0180153266
        0.0288790768  -0.0343090843  -0.0003189219   0.0012665185  -0.0009478293
        0.0008590432   0.0003342967  -0.0013534058  -0.0001913984   0.0001661821
       -0.0001899195  -0.0001101595   0.0004659931   0.0001878185   0.0011098866
       -0.0016030293  -0.0001149283  -0.0012604046   0.0021430942   0.0002795474
        0.0009252689  -0.0016592001  -0.0002494530  -0.0002788982   0.0005897021
        0.0000452891  -0.0000075334  -0.0001908552  -0.0000518265  -0.0000292072
        0.0000601203   0.0000060441   0.0000450313  -0.0000484066  -0.0000108811
       -0.0000061595   0.0001059466   0.0000176094   0.0001051243  -0.0000829259
        0.0000165865  -0.0000998862   0.0001160145   0.0000333448   0.0001134867
       -0.0000135124   0.0000457335  -0.0000428934   0.0000188286  -0.0000083409
        0.0000800636  -0.0000119592   0.0000082499  -0.0001049980  -0.0000695033
        0.0000229133   0.0005599609  -0.0002589036   0.0000465411  -0.0018572200
        0.0014128314   0.0000332723   0.0023491653  -0.0021914304  -0.0001719537
       -0.0019241784   0.0014831441  -0.0000530770   0.0033429226  -0.0006131378
        0.0027674511   0.0111001837   0.0010494308  -0.0153828267   0.0286065380
       -0.0468801737  -0.0502048039   0.0001617387   0.0003802192  -0.0001976465
       -0.0000679339   0.0000628333  -0.0000509839   0.0000894430   0.0000437199
        0.0000331244   0.0000292729   0.0001292574  -0.0001037057  -0.0001115890
        0.0000632075   0.0000788956   0.0006673217  -0.0000138023  -0.0001592882
        0.0000588394   0.0000343279   0.0000238708   0.0000089764   0.0001213612
        0.0000107127   0.0000317566  -0.0000329768  -0.0000116391  -0.0000687918
        0.0000317994   0.0000297958  -0.0000428005   0.0000643507   0.0000047662
       -0.0000818590  -0.0001404437  -0.0000415616   0.0000553887   0.0000360026
       -0.0000353787   0.0000245078  -0.0000425850  -0.0000268229  -0.0000645925
       -0.0000628151   0.0000017656  -0.0000180644   0.0000472409  -0.0000676828
       -0.0001894791   0.0074932652  -0.0080079761  -0.0063992955  -0.0168204234
        0.0134638465  -0.0673079912  -0.0339468991   0.0409914535   0.3039267717
       -0.0834569590  -0.2151585318  -0.0921668180   0.0966788977   0.0203588020
       -0.0222733537   0.0091607994   0.0251434736   0.0017513648  -0.0064265712
        0.0060813141   0.0012148574   0.0032703026  -0.0047762355  -0.0008680860
       -0.0016305936   0.0011081912  -0.0001455385   0.0012526468  -0.0000169478
        0.0002139081  -0.0025253411   0.0016930731   0.0043970529   0.0028353574
       -0.0030556215  -0.0088503215  -0.0194802048   0.0192009200  -0.1004292894
        0.0138181545   0.0827602710  -0.0231382716   0.0167482332   0.0156257850
        0.0004536727  -0.0029133530   0.0011039923  -0.0008510829   0.0001513155
        0.0000357656   0.0001604244   0.0002375255   0.0004541679   0.0005519803
       -0.0010583412   0.0001853218  -0.0013812185   0.0023367531   0.0012288494
        0.0014738049  -0.0019691693  -0.0015254545  -0.0006076029   0.0006269014
        0.0001510569   0.0001457376  -0.0002620787  -0.0001653327  -0.0001198633
        0.0000026182  -0.0000196206   0.0000865104   0.0000636622  -0.0000480346
        0.0000480334   0.0000710353   0.0000168145   0.0000950893   0.0001337409
        0.0001608815   0.0000717039   0.0000444389   0.0000719368   0.0001579162
        0.0001201279  -0.0000007654   0.0000936930  -0.0000050325   0.0000153919
        0.0001183813  -0.0000624363  -0.0000425494  -0.0002310926  -0.0000386477
        0.0001223302   0.0006941356  -0.0004383262   0.0005261628  -0.0030320994
        0.0021619705  -0.0000362559   0.0041494523  -0.0040875178  -0.0013609618
        0.0000489179   0.0040851434   0.0009929883   0.0004263696  -0.0000730779
       -0.0002020377   0.0026381405   0.0014424878   0.0062502851   0.0024449355
        0.0108403201  -0.0073149883   0.0026367891   0.0013674077   0.0057095708
       -0.0000248392   0.0002997886  -0.0000600046   0.0000768471   0.0001631778
       -0.0001316379  -0.0001449197   0.0000195304  -0.0003701896  -0.0001315931
        0.0000298288  -0.0001609611   0.0001106683   0.0000800033  -0.0000426987
        0.0000889234  -0.0002321656  -0.0001795413   0.0001589497   0.0001667573
       -0.0006541363   0.0000384923  -0.0000521850  -0.0000210280  -0.0000717616
        0.0000146500   0.0001035568  -0.0000106819   0.0001327440   0.0000250520
       -0.0001328594  -0.0002272641  -0.0000643686   0.0001635991   0.0000877726
       -0.0000497237   0.0000706471  -0.0000266072  -0.0000127569  -0.0001443787
       -0.0000881464   0.0000026157  -0.0000553323  -0.0001160169  -0.0001055103
        0.0077374943  -0.0564679724   0.0094823290  -0.0496195576   0.0300840153
        0.0535230167   0.0034608771  -0.2378103717   0.0759477492  -0.0834569590
        0.6253868103  -0.0917285370   0.0573562139  -0.2167200960  -0.0181415079
        0.0377182750   0.0190538707  -0.0572976809   0.0103118994  -0.0569535219
        0.0086035035   0.0014721243   0.0017307673  -0.0031993989  -0.0000345662
        0.0007672221  -0.0003506859  -0.0001717947   0.0004866273   0.0000863371
       -0.0006620260   0.0000232104   0.0012999124  -0.0003812486  -0.0046931929
        0.0026026385  -0.0172398166  -0.0004571374   0.0227752927   0.0178406105
       -0.0728943034  -0.0001369810   0.0141535966  -0.0038839990  -0.0198060108
        0.0013217625   0.0002837536   0.0006029660   0.0005618696  -0.0009258576
        0.0010653834  -0.0005174458  -0.0001182570  -0.0000923393  -0.0005182687
        0.0006300746   0.0008967969   0.0009495425  -0.0008456084  -0.0000124856
        0.0000545254   0.0005044728   0.0000500683  -0.0002551413  -0.0001867843
       -0.0000992014   0.0001397085   0.0000423111   0.0000366486  -0.0001182775
       -0.0001052244  -0.0000385670   0.0000010925   0.0001576576   0.0000373873
        0.0000524373  -0.0000937204  -0.0000013642  -0.0000650704   0.0002852234
        0.0000420500   0.0001984772  -0.0001656138  -0.0000227016  -0.0000812079
        0.0001106203  -0.0000088504   0.0001132489  -0.0000139510   0.0000238843
       -0.0000889952  -0.0000724890  -0.0000303997  -0.0000173633   0.0000725740
       -0.0000264271  -0.0001588048  -0.0000396212   0.0000180715  -0.0000469713
       -0.0004846406  -0.0000550792  -0.0002341512   0.0018250925  -0.0000186272
        0.0003292996  -0.0039228527  -0.0008865723   0.0001480778  -0.0006395025
        0.0001387570   0.0015670659   0.0013649273   0.0002086115  -0.0027046995
       -0.0260620026   0.0135493383   0.0008924377   0.0011042719   0.0015812997
        0.0000082244   0.0003081833  -0.0000657902  -0.0000219905  -0.0000335462
        0.0000189853  -0.0001290213  -0.0003144190   0.0002248471   0.0001202352
       -0.0000779845  -0.0001176984  -0.0001639387  -0.0000962169  -0.0005738381
        0.0000086400  -0.0001232609   0.0000313345   0.0000128139   0.0000076343
       -0.0002339210  -0.0000235323  -0.0000049123  -0.0000023966   0.0000296858
       -0.0000246017  -0.0000155217   0.0000232626  -0.0000304656  -0.0000022617
        0.0000470941   0.0000669657   0.0000227348  -0.0000175360  -0.0000132677
        0.0000187426   0.0000017905   0.0000215866   0.0000185708   0.0000462730
        0.0000288662   0.0000009130   0.0000497282  -0.0000713437   0.0000566750
       -0.0088870322   0.0095872775   0.0030434159   0.0259775029   0.0101972362
       -0.0398366977   0.0262742433   0.1225169796  -0.1316424600  -0.2151585318
       -0.0917285370   0.4439641853   0.0338985545  -0.0662949253  -0.0721879731
        0.0138878966  -0.0194774622  -0.0130340519  -0.0000606199   0.0293792314
       -0.0055543611  -0.0035256320  -0.0049023098   0.0057885002   0.0007161212
        0.0016543411  -0.0008641473   0.0005534038  -0.0018890652  -0.0003164234