$hessian                                                                        
        0.6025086804  -0.0578866964  -0.1861763501  -0.1724929964   0.1543519330
        0.0001471607  -0.0490557468   0.0149665984   0.0165374867   0.0064642497
        0.0105862473  -0.0083494866  -0.0148259126  -0.0279968520   0.0141194490
       -0.1090838083  -0.0928303629   0.0585843640  -0.0024641270   0.0023266509
        0.0030177823  -0.0019699737  -0.0020915852   0.0019981442   0.0000148111
        0.0005898384  -0.0002489245  -0.0001721386  -0.0004602027   0.0000613476
        0.0001204372   0.0006902894  -0.0002548429  -0.0009354567  -0.0006726741
        0.0004489905   0.0013217574   0.0020469381  -0.0009373192  -0.0047862496
       -0.0020150140   0.0030664613   0.0005368056  -0.0008317150  -0.0001601901
       -0.0002424942  -0.0002151256   0.0000300683  -0.0002777835  -0.0000480841
       -0.0001562694   0.0002715454   0.0000100837   0.0003458801   0.0000160130
        0.0001587394   0.0000950904  -0.0002864808  -0.0002448695  -0.0001821392
       -0.0004824854   0.0005334222   0.0000359664   0.0000975649  -0.0004217632
       -0.0002297211   0.0000463061   0.0002433002   0.0000898767  -0.0001192304
        0.0000644507   0.0001741285   0.0002236226   0.0001876446  -0.0000515432
       -0.0000336999   0.0001344735   0.0000604196  -0.0000084413  -0.0000959077
        0.0000348532   0.0000528685  -0.0000922450  -0.0000458253  -0.0001700810
       -0.0003468912   0.0001251067   0.0000661700   0.0002665093  -0.0000501738
        0.0001639416  -0.0001161812  -0.0001018938  -0.0001560809  -0.0000879021
        0.0000964322   0.0000697939  -0.0001568461  -0.0000825779   0.0000235600
        0.0001717965  -0.0000035817  -0.0001016252   0.0000695122   0.0000765969
       -0.0000589538  -0.0000362352  -0.0000127984   0.0005202686  -0.0004814016
       -0.0000555428  -0.0001652557   0.0010706663  -0.0000429740  -0.2612172610
       -0.0103838118   0.0997635200   0.0051702971  -0.0058928170   0.0004367578
       -0.0036495496   0.0006734104   0.0045677749   0.0051694957   0.0144714136
       -0.0066344386  -0.0000064252   0.0000055563   0.0000237305  -0.0000132851
       -0.0000197108   0.0000425631  -0.0000147218  -0.0000053197   0.0000512894
        0.0000296235   0.0000007438   0.0000434730  -0.0001358077  -0.0000903998
       -0.0001551869  -0.0000542901  -0.0000424700  -0.0000207472   0.0000346521
       -0.0000303262  -0.0000864056   0.0000246445  -0.0000339670  -0.0000068483
        0.0000353886   0.0000146990  -0.0000081212   0.0000080631  -0.0000235762
        0.0000029838  -0.0000435854   0.0000128383  -0.0000122264  -0.0000114274
       -0.0000143794  -0.0000073012   0.0000058983   0.0000201618   0.0000043342
       -0.0000000868   0.0000140042   0.0000097252   0.0000138790   0.0000011706
       -0.0000026652   0.0000198600  -0.0000036197  -0.0000078845   0.0000052641
       -0.0000141397  -0.0000077782
       -0.0578866964   0.5951464222  -0.1371384248   0.0845331481  -0.2384439407
        0.0316456667   0.0665134695   0.0263808389  -0.0372574002   0.0104947147
       -0.0537861374   0.0121078970  -0.0782901533   0.0160466255   0.0275148088
       -0.0242824414  -0.2617209100   0.0802297464   0.0045325263   0.0018163119
       -0.0005194789  -0.0021902165  -0.0007153660   0.0012941761   0.0021357517
        0.0007038944  -0.0010127700  -0.0023586873   0.0006079982   0.0007091911
        0.0003736813  -0.0027499280   0.0005115035   0.0012899339   0.0022754220
       -0.0009962979  -0.0009227877  -0.0015501554   0.0007958459  -0.0018807754
        0.0026257885   0.0002525444  -0.0011051811   0.0015255252  -0.0000357595
        0.0008356320  -0.0007835797   0.0002452833  -0.0004832912   0.0006603609
       -0.0001581352   0.0001848831   0.0001600204  -0.0003301139  -0.0001574842
       -0.0001198654  -0.0002562618   0.0007131033   0.0003758604   0.0002992861
        0.0008205312  -0.0008799988  -0.0001641006   0.0005217643   0.0009973479
        0.0008241942  -0.0005184484   0.0000302599  -0.0005380374   0.0010567362
       -0.0009654539  -0.0010907395  -0.0010543082  -0.0006076424   0.0003768959
        0.0003423254  -0.0010949067  -0.0002238308   0.0003254026   0.0008588732
       -0.0002014827  -0.0005073484   0.0002721979   0.0003559713   0.0013126839
        0.0020074428  -0.0007721007  -0.0001714816  -0.0019652353  -0.0000180574
       -0.0013213201   0.0010882217   0.0009682212   0.0007438815   0.0004014775
       -0.0004727343  -0.0004368440   0.0008347171   0.0004479271  -0.0002473692
       -0.0010352604   0.0000696352   0.0006473081  -0.0002316117  -0.0004735337
       -0.0004224825  -0.0006581916   0.0005278359  -0.0014881831   0.0012092312
        0.0001506713   0.0002400941  -0.0023959922   0.0000852408  -0.0105821916
       -0.0432026767   0.0080082737   0.0144798801  -0.0232376661   0.0015011704
       -0.0000667795   0.0017004376   0.0018941517  -0.0056304491  -0.0222768260
        0.0103767872  -0.0000530293   0.0000098102  -0.0000070974  -0.0000340494
        0.0000350247   0.0000013625   0.0000592234   0.0000642462  -0.0000458470
        0.0000664381  -0.0000735979  -0.0001555731   0.0000216908   0.0002613421
        0.0004123082   0.0001708235   0.0003238048  -0.0000320977  -0.0001496392
        0.0001764886   0.0002767180  -0.0000928257   0.0001803905   0.0000267069
       -0.0001171431  -0.0000945675   0.0000616400   0.0000503540   0.0000170883
        0.0000552384   0.0000889352   0.0000355585  -0.0000903124   0.0000688335
       -0.0000349273  -0.0000757486  -0.0000045046  -0.0000884689  -0.0000671922
        0.0000073096  -0.0000703460   0.0000188867  -0.0000857411  -0.0000362772
        0.0000351618  -0.0000991500  -0.0000197248   0.0000535103   0.0000099428
        0.0000102246  -0.0000013300
       -0.1861763501  -0.1371384248   0.2343992797   0.0242401825   0.0009392580
       -0.0571109772  -0.0008808368  -0.0145674402   0.0076503227  -0.0075485452
        0.0117974420  -0.0049529905   0.0306310326   0.0061814691  -0.0169745324
        0.0364401007   0.1104457930  -0.0938054929   0.0021516174  -0.0000237985
        0.0048899102   0.0020316957   0.0014909650   0.0002465534  -0.0006925192
       -0.0004392198   0.0003301159   0.0007653670  -0.0000754338  -0.0004793467
       -0.0001708900   0.0006874729  -0.0000715438  -0.0000750564  -0.0005510259
        0.0000735814  -0.0003028082  -0.0003589626   0.0001809617   0.0024179741
       -0.0000620106  -0.0012967143  -0.0001450592  -0.0003809413  -0.0001790475
       -0.0001317610   0.0003729081  -0.0000930657   0.0001870753  -0.0002301973
        0.0000446497  -0.0000646531  -0.0000877025  -0.0000124980   0.0000238607
       -0.0000045060   0.0000661592  -0.0001730046  -0.0000259026  -0.0000663451
       -0.0001009849   0.0001088586   0.0000315351  -0.0002052967  -0.0001785842
       -0.0001360286   0.0001294785  -0.0001363806   0.0001186065  -0.0003094174
        0.0003322112   0.0003242719   0.0002827743   0.0001064026  -0.0000842544
       -0.0001107510   0.0003329320   0.0000462409  -0.0001017050  -0.0002686993
        0.0000508865   0.0001441161  -0.0000449299  -0.0001039602  -0.0003590113
       -0.0005556535   0.0002253356   0.0000213916   0.0005678952   0.0000353422
        0.0003898479  -0.0003318796  -0.0002960043  -0.0001907307  -0.0001027191
        0.0001310017   0.0001144821  -0.0002166631  -0.0001199459   0.0000782722
        0.0002827262  -0.0000197019  -0.0001846941   0.0000528915   0.0001247733
        0.0001978045   0.0002470590  -0.0001669269   0.0003619359  -0.0004166674
       -0.0000315739   0.0001099039   0.0007759657   0.0001061233   0.0998920438
        0.0079183413  -0.0772653585  -0.0070979458   0.0108620395  -0.0003371998
        0.0047276072   0.0019029939   0.0048107455  -0.0003955327   0.0009040839
       -0.0002753649   0.0000344158   0.0000010014   0.0000248105   0.0000297776
        0.0000028399   0.0000009614   0.0000060169  -0.0000063377   0.0000404290
       -0.0000340341   0.0000237637   0.0000242127  -0.0000077777  -0.0000352239
       -0.0000811279  -0.0000474795  -0.0000999714   0.0000448106   0.0000465134
       -0.0000412959  -0.0000839352   0.0000162538  -0.0000484083  -0.0000057157
        0.0000299685   0.0000299041  -0.0000314268  -0.0000209276   0.0000052430
       -0.0000235838   0.0000016043  -0.0000308136   0.0000407164  -0.0000149216
        0.0000258391   0.0000415192   0.0000005841   0.0000182265   0.0000248189
       -0.0000001577   0.0000186003  -0.0000061484   0.0000249932   0.0000131921
       -0.0000049588   0.0000188382   0.0000086663  -0.0000161109  -0.0000046782
        0.0000028084   0.0000032056
       -0.1724929964   0.0845331481   0.0242401825   0.5714366906  -0.0557722714
       -0.1771467637  -0.2837346463   0.0290281551   0.0931820783  -0.0182264509
       -0.0741038699   0.0323215309  -0.0439325875   0.0241866269   0.0091737196
        0.0446191147   0.0377401028  -0.0309010852   0.0006256851  -0.0040274023
        0.0010232931  -0.0010717500   0.0005936877   0.0000550618   0.0014326574
        0.0003249307  -0.0005816594  -0.0019862939   0.0011516569   0.0005427899
        0.0001193869  -0.0030824971   0.0006564538   0.0021535932   0.0025152169
       -0.0014178780  -0.0022848370  -0.0045209195   0.0023895431   0.0057376509
        0.0052444830  -0.0026793426  -0.0012663979   0.0014552230   0.0006870751
        0.0006113948   0.0003465705   0.0001599884   0.0005483715   0.0002188577
        0.0003346629  -0.0004354913   0.0002471548  -0.0007562704   0.0000386191
       -0.0003218454  -0.0002217754   0.0007844256   0.0006228903   0.0004154331
        0.0011104364  -0.0012719064  -0.0002002165   0.0001856671   0.0012664961
        0.0008389472  -0.0004189854  -0.0001038713  -0.0005358566   0.0010618838
       -0.0008647418  -0.0011035844  -0.0010401349  -0.0005310439   0.0003937628
        0.0003259092  -0.0009888507  -0.0001572374   0.0002732622   0.0007570232
       -0.0002036148  -0.0004181730   0.0002840407   0.0002903306   0.0011708054
        0.0018534733  -0.0007158099  -0.0001193356  -0.0018219638  -0.0000144582
       -0.0012420013   0.0009792117   0.0009019260   0.0007063587   0.0003613693
       -0.0004495333  -0.0004132489   0.0007578646   0.0004336859  -0.0002333464
       -0.0009234540   0.0000789495   0.0005955706  -0.0002022128  -0.0004370495
       -0.0004022232  -0.0005806056   0.0005154047  -0.0014210946   0.0013267199
        0.0003616548   0.0002797167  -0.0029313743   0.0001129722  -0.0190159370
        0.0213515493   0.0010165457  -0.0657256565  -0.0655713842   0.0359886708
       -0.0189922293   0.0015135525   0.0078043160   0.0013440652  -0.0014382164
        0.0032472359  -0.0000373365   0.0000379212  -0.0000557472  -0.0000303812
        0.0000231335  -0.0000117019   0.0000838338   0.0000429910  -0.0000747683
        0.0000622227  -0.0000762754  -0.0001499858  -0.0002438078   0.0002871662
        0.0004430169   0.0001170047   0.0001886810  -0.0000265297  -0.0001714406
        0.0000957000   0.0002596051  -0.0000601200   0.0001364884   0.0000339339
       -0.0000786806  -0.0000909471   0.0000740312   0.0000826845  -0.0000020083
        0.0000398658   0.0000765787   0.0000079887  -0.0001298220   0.0000777228
       -0.0000461204  -0.0000646912   0.0000036263  -0.0000774983  -0.0000817686
        0.0000044750  -0.0000637185   0.0000156509  -0.0000763942  -0.0000348239
        0.0000321843  -0.0000903154  -0.0000318133   0.0000467215  -0.0000071200
        0.0000015612   0.0000059258
        0.1543519330  -0.2384439407   0.0009392580  -0.0557722714   0.6205040355
       -0.1534476632  -0.0398783319  -0.0888361220   0.0334069325  -0.0255077798
        0.0184984712   0.0042936139   0.0244121502  -0.0073107250  -0.0094834792
       -0.0120752100  -0.0628329322   0.0267768600  -0.0017461082  -0.0013219061
        0.0011461505   0.0011647283   0.0004432613  -0.0004862814  -0.0008644737
       -0.0002737439   0.0003311229   0.0009381181  -0.0003154979  -0.0002896240
       -0.0002718479   0.0011198502  -0.0002455086  -0.0005914962  -0.0012998850
        0.0003878609  -0.0008553427   0.0004036556   0.0008465456  -0.0007185835
       -0.0055410404   0.0043000227   0.0006936852  -0.0007958578  -0.0005875863
        0.0000907879  -0.0001412456  -0.0004467235  -0.0003161959   0.0000560043
       -0.0002098498   0.0002265763  -0.0001139861   0.0004406572   0.0000290515
        0.0002099110   0.0001678973  -0.0004891057  -0.0002823569  -0.0002340482
       -0.0006757051   0.0006924909   0.0000772627  -0.0000835215  -0.0007371862
       -0.0004573743   0.0003127274   0.0000506881   0.0002994249  -0.0006186734
        0.0005690842   0.0006770639   0.0006172669   0.0003213372  -0.0001845709
       -0.0001829502   0.0006264657   0.0001382633  -0.0001881480  -0.0005160185
        0.0001480613   0.0002987265  -0.0001845270  -0.0002094976  -0.0007804583
       -0.0012047632   0.0004632808   0.0001252873   0.0011808635  -0.0000223804
        0.0007734436  -0.0006243844  -0.0005502248  -0.0004601398  -0.0002489155
        0.0002907438   0.0002588895  -0.0005157493  -0.0002661314   0.0001321013
        0.0006269366  -0.0000310265  -0.0003782223   0.0001481944   0.0002864800
        0.0002135450   0.0003433201  -0.0002855295   0.0008813669  -0.0010136391
       -0.0001509485   0.0001002859   0.0017926906  -0.0000127046   0.0007130539
        0.0006363433  -0.0003851549  -0.0648620772  -0.2317796189   0.0979313733
        0.0218686619  -0.0001471060  -0.0090308265  -0.0011792057  -0.0035480775
        0.0038365763   0.0000178692   0.0000413138  -0.0000013345   0.0000167262
       -0.0000133208   0.0000250125  -0.0000451180  -0.0000363982   0.0000664420
       -0.0000113839   0.0000190566   0.0000921320   0.0001201773  -0.0000826736
       -0.0001494993  -0.0000661852  -0.0001463823   0.0000217560   0.0001008234
       -0.0000891332  -0.0001874136   0.0000781432  -0.0001038235  -0.0000015002
        0.0000928609   0.0000614236  -0.0000291389  -0.0000211068  -0.0000026679
       -0.0000562041  -0.0000382124   0.0000286442   0.0000203643  -0.0000496638
        0.0000095255   0.0000282817   0.0000064967   0.0000551718   0.0000345832
       -0.0000051281   0.0000443736   0.0000031028   0.0000483400   0.0000246827
       -0.0000123603   0.0000568398   0.0000071070  -0.0000247408  -0.0000080165
       -0.0000112776   0.0000021997
        0.0001471607   0.0316456667  -0.0571109772  -0.1771467637  -0.1534476632
        0.2420697187   0.1169151424   0.0033743384  -0.0949838335   0.0159848542
        0.0254568925  -0.0171456550   0.0089293321  -0.0095208304  -0.0054293729
       -0.0146222778   0.0053426541   0.0064224226   0.0003263481   0.0019271453
       -0.0009823109  -0.0000583621  -0.0003236983   0.0002048851  -0.0003557625
       -0.0000827055   0.0001153943   0.0005166222  -0.0003486324  -0.0001215913
       -0.0000188962   0.0008246124  -0.0003704857  -0.0006809774  -0.0006059827
        0.0002575894   0.0018487419   0.0020051353  -0.0002822644  -0.0002922110
        0.0017259606   0.0047458021   0.0001883537  -0.0005897365   0.0000841381
        0.0000745507  -0.0002299534  -0.0001859598  -0.0003778038   0.0000062370
       -0.0002529305   0.0003822357  -0.0000649181   0.0002956894  -0.0000625300
        0.0001138550   0.0000623871  -0.0002187485  -0.0001663280  -0.0001325165
       -0.0003092995   0.0003425147   0.0000332013   0.0000387545  -0.0003434163
       -0.0001211463   0.0000108828   0.0000434823   0.0001139833  -0.0001521754
        0.0001819926   0.0002302606   0.0002068516   0.0000619195  -0.0000817279
       -0.0000710655   0.0002362024   0.0000055489  -0.0000660616  -0.0001338468
        0.0000425580   0.0000625185  -0.0000463659  -0.0000540177  -0.0001978660
       -0.0003335353   0.0001516302  -0.0000140741   0.0003368111   0.0000277726
        0.0002515759  -0.0001846266  -0.0001840813  -0.0001279337  -0.0000655881
        0.0000956064   0.0000687731  -0.0001275486  -0.0000734071   0.0000486416
        0.0001618092  -0.0000076182  -0.0001115001   0.0000348569   0.0000808038
        0.0001052890   0.0001264096  -0.0001166200   0.0003888163  -0.0005751155
       -0.0001019511   0.0002497521   0.0009680893   0.0002600702   0.0079534345
       -0.0091213089   0.0000405498   0.0366018629   0.0977743573  -0.0828975366
        0.0005806001  -0.0003868553   0.0005323054   0.0029631240   0.0040657258
        0.0046738639   0.0000082402  -0.0000312109   0.0000145602   0.0000212355
       -0.0000014606   0.0000181034  -0.0000027346   0.0000022789   0.0000326432
       -0.0000051257   0.0000315894   0.0000525485   0.0000400793  -0.0000764038
       -0.0000976824  -0.0000406463  -0.0000206979   0.0000409744   0.0000498223
       -0.0000037882  -0.0000696284  -0.0000040066  -0.0000227907  -0.0000025588
        0.0000029602   0.0000270756  -0.0000221678  -0.0000104463  -0.0000064318
       -0.0000017075  -0.0000248830  -0.0000160303   0.0000665385  -0.0000205020
        0.0000182277   0.0000190423  -0.0000112807   0.0000042714   0.0000260159
       -0.0000005744   0.0000124899   0.0000023283   0.0000175806   0.0000083890
        0.0000051929   0.0000139249   0.0000111213  -0.0000003285   0.0000064470
        0.0000053592   0.0000059487
       -0.0490557468   0.0665134695  -0.0008808368  -0.2837346463  -0.0398783319
        0.1169151424   0.5942107223  -0.0774014840  -0.1808547511  -0.0960038015
       -0.0135077944   0.0269758298   0.0386895258  -0.0154550366  -0.0123739878
       -0.0275454448  -0.0243418805   0.0184021685  -0.0009391668   0.0111758510
       -0.0001814438  -0.0000272865  -0.0009035750   0.0003949463  -0.0009538691
       -0.0002106755   0.0002213214   0.0016129357  -0.0011871776  -0.0004325726
       -0.0004325245   0.0028106162  -0.0006379906  -0.0029763274  -0.0040162626
        0.0020203206  -0.0017766349   0.0071875683   0.0004182463  -0.0230803914
       -0.0358093839   0.0237565560  -0.0009848053  -0.0024060607   0.0004803521
       -0.0024615447  -0.0009936386   0.0008576716  -0.0001055236  -0.0003769104
       -0.0001107728   0.0002142054  -0.0002865864   0.0005338620   0.0000901014
        0.0002495011   0.0001590734  -0.0005566061  -0.0005098844  -0.0003559185
       -0.0007423075   0.0009780341   0.0001069282   0.0000402055  -0.0007690086
       -0.0004832170   0.0001769545   0.0000333893   0.0003031525  -0.0006335270
        0.0004326147   0.0006743297   0.0006616225   0.0003409373  -0.0001257755
       -0.0004442516   0.0003588749  -0.0001441670  -0.0000920910  -0.0003138095
        0.0000782512   0.0001379730  -0.0001539032  -0.0001026418  -0.0005430830
       -0.0009574006   0.0003830361   0.0000151474   0.0009293344  -0.0000073520
        0.0006730716  -0.0004948131  -0.0004622599  -0.0003502633  -0.0001767736
        0.0002110916   0.0002021178  -0.0003538750  -0.0002180930   0.0001181023
        0.0004415993  -0.0000474556  -0.0002749934   0.0000965930   0.0001933891
        0.0002727967   0.0003029704  -0.0002816950   0.0008221988  -0.0008633178
       -0.0001454621   0.0008554671   0.0021724804   0.0003011188  -0.0007211064
        0.0040233671   0.0018684300  -0.0101659298  -0.0022519654   0.0059288060
       -0.1342607833   0.1266947011  -0.0033184198  -0.0000794799  -0.0007028138
       -0.0000790138   0.0000155177  -0.0001253969   0.0000619619   0.0000512869
       -0.0000342059   0.0000541766  -0.0001229187  -0.0001780442   0.0001579240
        0.0001269035  -0.0000393043   0.0000904477   0.0002431822   0.0000285347
       -0.0000323351  -0.0000878001  -0.0000923301   0.0000304962   0.0000783613
       -0.0000247452  -0.0001447670  -0.0000061669  -0.0000648171  -0.0000266894
        0.0000040225   0.0000531673  -0.0000422953  -0.0000917167   0.0000007607
       -0.0000219163  -0.0001163010  -0.0000798374  -0.0001149427  -0.0000347315
        0.0000296990   0.0000383330  -0.0000082611   0.0000376806   0.0000606338
       -0.0000004334   0.0000312328  -0.0000058946   0.0000433947   0.0000171131
       -0.0000168488   0.0000453836   0.0000182647  -0.0000259155   0.0000092655
        0.0000026891  -0.0000025654
        0.0149665984   0.0263808389  -0.0145674402   0.0290281551  -0.0888361220
        0.0033743384  -0.0774014840   0.5925291332  -0.1415972083  -0.0678724145
       -0.2461271219   0.1004339932   0.0252973895  -0.0542922091   0.0060545789
       -0.0190532773  -0.0119078722   0.0110190553   0.0064038608   0.0000489855
       -0.0007144796  -0.0023357601  -0.0004785256   0.0011536012  -0.0002410795
        0.0003087408  -0.0001288643   0.0004062216  -0.0007032445  -0.0000406836
        0.0001538734   0.0012967104  -0.0004563240  -0.0012826086  -0.0015370186
        0.0007250118   0.0021218884   0.0038698136  -0.0014666894  -0.0194460679
       -0.0054351270   0.0133854059   0.0008363124  -0.0018130987  -0.0006449167
        0.0010753153  -0.0013032087  -0.0005013964  -0.0017662863   0.0004027497
       -0.0006235589   0.0014531239  -0.0002931189   0.0011162619  -0.0003312119
        0.0005487832   0.0001417316  -0.0007512231  -0.0007257163  -0.0004421690
       -0.0014286885   0.0015075797   0.0001591196   0.0003290719  -0.0014710818
       -0.0005639916   0.0003937981   0.0002566671   0.0004970780  -0.0009354120
        0.0007014242   0.0010312893   0.0008857937   0.0005849177  -0.0003190524
       -0.0004185658   0.0007014715   0.0000634478  -0.0001858912  -0.0006103622
        0.0001780693   0.0002998860  -0.0003119569  -0.0002162203  -0.0010537838
       -0.0016290586   0.0006650310   0.0001582125   0.0015873892  -0.0000285499
        0.0010769453  -0.0008073203  -0.0007594684  -0.0005936551  -0.0003234795
        0.0003844351   0.0003494209  -0.0006607672  -0.0003679842   0.0001908486
        0.0007879997  -0.0000664349  -0.0005028075   0.0001830273   0.0003763924
        0.0003411371   0.0004904624  -0.0004940733   0.0010088879  -0.0012400539
       -0.0004838482   0.0007790124   0.0029921838  -0.0001990104   0.0042154002
       -0.0026120606   0.0015803278  -0.0228334208  -0.0030845418   0.0110736420
        0.1271676847  -0.2091219320   0.0115377181  -0.0005884445   0.0003720609
        0.0000791762   0.0000336272  -0.0000059098   0.0000266417   0.0000331091
       -0.0000228735   0.0000451148  -0.0000643700  -0.0000424351   0.0000994103
        0.0000758513   0.0000300228   0.0000995669  -0.0001688584  -0.0001403443
       -0.0002453645  -0.0001344765  -0.0000931432  -0.0000061055   0.0001650029
       -0.0000820441  -0.0002776154   0.0000512115  -0.0001018908  -0.0000249608
        0.0000870987   0.0000832141  -0.0000739880   0.0000299259  -0.0000244356
       -0.0000023960  -0.0001314064   0.0000440818  -0.0000086758  -0.0000432306
       -0.0000121465   0.0000223046   0.0000035624   0.0000640241   0.0000441037
        0.0000034192   0.0000455120   0.0000021951   0.0000572625   0.0000226663
       -0.0000161682   0.0000689902   0.0000091202  -0.0000282804   0.0000165254
        0.0000006412  -0.0000031238
        0.0165374867  -0.0372574002   0.0076503227   0.0931820783   0.0334069325
       -0.0949838335  -0.1808547511  -0.1415972083   0.2383926650   0.0454995530
        0.0793907265  -0.0943967552  -0.0256585003   0.0239968499   0.0013066577
        0.0170601318   0.0135544243  -0.0150557035   0.0010358518  -0.0028528426
        0.0067092215   0.0006755941   0.0005276225  -0.0006024788   0.0004954063
       -0.0000071115  -0.0005207328  -0.0010324940   0.0007417389   0.0001825192
        0.0000730637  -0.0017754643   0.0002409556   0.0016008938   0.0022821356
       -0.0012414597   0.0007903838  -0.0040943700   0.0024789212   0.0185781173
        0.0176983719  -0.0125407411  -0.0008890745   0.0016905829  -0.0008116486
        0.0011970211  -0.0002027242  -0.0007347273   0.0003124810   0.0005023522
        0.0000376986  -0.0004318767   0.0000523053  -0.0005078371   0.0000171106
       -0.0002522590  -0.0001025356   0.0005327582   0.0004163919   0.0002808137
        0.0007080640  -0.0008404692  -0.0001119289   0.0000853417   0.0008704889
        0.0005331380  -0.0002213107  -0.0002799990  -0.0002404886   0.0005877137
       -0.0003119057  -0.0006146151  -0.0005086924  -0.0003021737   0.0001218842
       -0.0001231168  -0.0005209417  -0.0003662111   0.0000568886   0.0003041035
       -0.0000457916  -0.0001109355   0.0001719561   0.0000813532   0.0005446170
        0.0008467261  -0.0003559657  -0.0001437588  -0.0008178173   0.0000845158
       -0.0005142460   0.0003641256   0.0003423695   0.0003095033   0.0001605460
       -0.0001940673  -0.0001872484   0.0003230762   0.0001981576  -0.0000926535
       -0.0003923544   0.0000392206   0.0002261060  -0.0000941191  -0.0001660109
       -0.0000772622  -0.0001552046   0.0001988825  -0.0010499465   0.0009643191
        0.0000072986   0.0000454497  -0.0017170716   0.0003793160   0.0017448727
        0.0016564456   0.0057557419   0.0125384477   0.0021307631  -0.0062765358
       -0.0032794608   0.0111160778  -0.0349663771   0.0001663838   0.0001238029
       -0.0001546060  -0.0000306011   0.0000462367  -0.0000646588   0.0000039523
        0.0000447235   0.0000560734   0.0001051663   0.0001101660  -0.0000070901
       -0.0000888948   0.0000303419  -0.0000436038   0.0007987016  -0.0000019732
        0.0000257240   0.0001145024   0.0001114484   0.0000192731  -0.0000944341
        0.0000549635   0.0001569467  -0.0000131918   0.0000635120   0.0000305638
       -0.0000349323  -0.0000421579   0.0000528129   0.0000983320  -0.0000290965
        0.0000204717  -0.0002069875  -0.0000957249  -0.0002654099   0.0000266764
       -0.0000089670  -0.0000093372  -0.0000067141  -0.0000493688  -0.0000371087
       -0.0000016288  -0.0000286357   0.0000025592  -0.0000381153  -0.0000157512
        0.0000143402  -0.0000488911  -0.0000137060   0.0000197661  -0.0000089318
        0.0000025602  -0.0000019243
        0.0064642497   0.0104947147  -0.0075485452  -0.0182264509  -0.0255077798
        0.0159848542  -0.0960038015  -0.0678724145   0.0454995530   0.5243538760
       -0.0458171050  -0.1651756123  -0.1306560298   0.1295366846  -0.0032084637
       -0.0466705359   0.0086875383   0.0170570570  -0.0047416189  -0.0155783589
        0.0071217567   0.0077533820   0.0063128651  -0.0055640387  -0.0014280362
       -0.0034802115   0.0014156990  -0.0004655229   0.0022028992  -0.0003043744
       -0.0012614136  -0.0046889110   0.0021109889   0.0061069759   0.0053503354
       -0.0026693780  -0.0214627194  -0.0305114341   0.0190607526  -0.1953629683
       -0.0014316954   0.0671813478  -0.0315013437   0.0235171518   0.0079752668
       -0.0000414898  -0.0033251312   0.0015776491   0.0017760532   0.0004165560
        0.0014062232  -0.0015382875  -0.0008032147  -0.0028299401  -0.0000900970
       -0.0006322724  -0.0002007454   0.0014723136   0.0013654014   0.0009289365
        0.0022423630  -0.0025565993  -0.0003087082   0.0003438838   0.0029820410
        0.0021659390   0.0001118469  -0.0013961114  -0.0008570243   0.0007964938
       -0.0007672605  -0.0016363315  -0.0013895420  -0.0005818078   0.0004460406
        0.0003828614  -0.0009483783  -0.0006332636   0.0004104793   0.0005861296
       -0.0002916719  -0.0003527134   0.0002370320   0.0004496193   0.0011562650
        0.0020415058  -0.0009881904  -0.0000391806  -0.0020424924   0.0002166101
       -0.0015542326   0.0008933697   0.0009614331   0.0008822110   0.0003134146
       -0.0005272480  -0.0004778408   0.0007013566   0.0005412656  -0.0002775007
       -0.0009096648   0.0001313331   0.0005611083  -0.0001384954  -0.0003362482
       -0.0002286198  -0.0003735405   0.0006050275  -0.0042011899   0.0057822141
       -0.0007749560   0.0018897387  -0.0094034258   0.0013519714   0.0007536884
       -0.0002744108  -0.0000440678  -0.0034522796   0.0004815234   0.0046583429
        0.0056619737   0.0151008097  -0.0081872090  -0.0029933287   0.0005856859
        0.0043054016  -0.0000331458   0.0005613232  -0.0002865798  -0.0000321789
        0.0002749326  -0.0001858357   0.0004429283   0.0001717893  -0.0003782291
        0.0000279212   0.0000018573  -0.0004392068   0.0001726244   0.0005149578
        0.0002885672   0.0004902923   0.0002103306  -0.0003941906  -0.0002923962
        0.0000104333   0.0004534966   0.0000827601   0.0001796008   0.0000851237
        0.0000749138  -0.0001335051   0.0000762972   0.0003112679  -0.0000234060
        0.0000213575   0.0001374567  -0.0000759039  -0.0000230770   0.0001258306
        0.0000697447  -0.0000649840  -0.0000091305  -0.0000936011  -0.0002653931
        0.0000205192  -0.0000708376  -0.0000003948  -0.0000875010  -0.0000265654
        0.0000166521  -0.0001030616  -0.0001032914   0.0000268135  -0.0000321210
       -0.0000163724   0.0000025305
        0.0105862473  -0.0537861374   0.0117974420  -0.0741038699   0.0184984712
        0.0254568925  -0.0135077944  -0.2461271219   0.0793907265  -0.0458171050
        0.6134208811  -0.1452415112   0.0703986584  -0.1937950226   0.0122984598
        0.0516589619   0.0262933379  -0.0314884624   0.0117597441  -0.0573847187
        0.0143381994   0.0034341101   0.0031802496  -0.0027620998  -0.0005408522
        0.0001976292   0.0001034259   0.0000457874   0.0008028435  -0.0001631397
       -0.0013597650  -0.0007274699   0.0010710548   0.0002509300  -0.0042697876
        0.0014651869  -0.0284896517  -0.0074880278   0.0137982243  -0.0017757708
       -0.0735838244   0.0139236664   0.0194558839   0.0012609942  -0.0095310504
       -0.0000949988   0.0014711004   0.0010143960   0.0019197331  -0.0015765567
        0.0016532042  -0.0019282996   0.0003606109  -0.0011905098   0.0007152496
       -0.0004997022   0.0000361960   0.0000199659   0.0004149009   0.0000954812
        0.0009042307  -0.0007999528   0.0000909178  -0.0008303603   0.0003480604
       -0.0001895843   0.0000415434  -0.0002383320  -0.0001371989   0.0000368470