 Entering Gaussian System
 *********************************************
 Gaussian 98:
 frequency output generated by the xtb code
 *********************************************
                         Standard orientation:
 --------------------------------------------------------------------
  Center     Atomic     Atomic              Coordinates (Angstroms)
  Number     Number      Type              X           Y           Z
 --------------------------------------------------------------------
    1          6             0       -4.864887   -1.140142    0.314474
    2          6             0       -5.996538   -0.256394    0.163181
    3          6             0       -5.914804    1.105073    0.608293
    4          6             0       -6.661055    2.128293   -0.010597
    5          6             0       -6.550301    3.436740    0.404477
    6          6             0       -5.704052    3.775952    1.453061
    7          6             0       -4.956820    2.783772    2.074994
    8          6             0       -5.051951    1.474160    1.661205
    9          6             0       -7.206665   -0.800201   -0.380498
   10          6             0       -7.164420   -1.912796   -1.245906
   11          6             0       -8.319601   -2.466728   -1.749929
   12          6             0       -9.560055   -1.945585   -1.403427
   13          6             0       -9.626051   -0.861115   -0.537684
   14          6             0       -8.476194   -0.294598   -0.034320
   15          6             0       -3.532522   -0.828261    0.113641
   16          6             0       -3.079197    0.416239   -0.427707
   17          6             0       -1.751983    0.701573   -0.532561
   18          6             0       -0.754147   -0.225562   -0.153367
   19          6             0        0.649363    0.091488   -0.257235
   20          6             0        1.110616    1.415989   -0.150458
   21          6             0        2.448172    1.712885   -0.230856
   22          6             0        3.413508    0.710115   -0.415541
   23          6             0        4.804733    1.083524   -0.499871
   24          6             0        5.893728    0.327268   -0.230663
   25          6             0        7.243679    0.846004   -0.480119
   26          6             0        7.509947    1.682314   -1.566251
   27          6             0        8.784469    2.168272   -1.787938
   28          6             0        9.819935    1.831929   -0.930637
   29          6             0        9.571061    0.998547    0.148325
   30          6             0        8.299083    0.506693    0.369649
   31          6             0        5.822983   -1.008758    0.387725
   32          6             0        5.116742   -1.208871    1.572841
   33          6             0        5.083458   -2.456686    2.166278
   34          6             0        5.752582   -3.523293    1.586602
   35          6             0        6.463142   -3.332645    0.412671
   36          6             0        6.506588   -2.083012   -0.178337
   37          6             0        2.952803   -0.606886   -0.564162
   38          6             0        1.616157   -0.906133   -0.479191
   39          6             0       -1.193134   -1.485866    0.318909
   40          6             0       -2.515688   -1.778537    0.445828
   41          1             0       -5.093748   -2.158784    0.606956
   42          1             0       -7.289638    1.882919   -0.854362
   43          1             0       -7.121094    4.206458   -0.095924
   44          1             0       -5.624447    4.802813    1.777784
   45          1             0       -4.297709    3.039809    2.892542
   46          1             0       -4.482685    0.706919    2.164894
   47          1             0       -6.203205   -2.309836   -1.539511
   48          1             0       -8.260540   -3.310913   -2.422686
   49          1             0      -10.464937   -2.383688   -1.797736
   50          1             0      -10.588612   -0.462858   -0.248627
   51          1             0       -8.544475    0.521040    0.670560
   52          1             0       -3.811797    1.126823   -0.777838
   53          1             0       -1.451898    1.645154   -0.964657
   54          1             0        0.404162    2.211586    0.034918
   55          1             0        2.773585    2.739139   -0.126558
   56          1             0        4.973813    2.110377   -0.803287
   57          1             0        6.715416    1.932922   -2.253930
   58          1             0        8.973573    2.809444   -2.637257
   59          1             0       10.815416    2.213713   -1.104531
   60          1             0       10.373636    0.731098    0.820911
   61          1             0        8.111619   -0.136265    1.217855
   62          1             0        4.598969   -0.376313    2.027083
   63          1             0        4.535597   -2.598132    3.086965
   64          1             0        5.723229   -4.498515    2.050600
   65          1             0        6.989202   -4.159861   -0.042286
   66          1             0        7.062028   -1.933901   -1.093878
   67          1             0        3.659270   -1.394517   -0.776778
   68          1             0        1.299638   -1.927446   -0.630708
   69          1             0       -0.458175   -2.216949    0.622627
   70          1             0       -2.823637   -2.738677    0.836262
 --------------------------------------------------------------------
     1 basis functions        1 primitive gaussians
     1 alpha electrons        1 beta electrons
 
 Harmonic frequencies (cm**-1), IR intensities (km*mol⁻¹),
 Raman scattering activities (A**4/amu), Raman depolarization ratios,
 reduced masses (AMU), force constants (mDyne/A) and normal coordinates:
                      1                      2                      3
                        a                      a                      a 
 Frequencies --     5.7863                11.1246                15.2175
 Red. masses --    10.9360                10.8868                10.9495
 Frc consts  --     0.0000                 0.0000                 0.0000
 IR Inten    --     0.0424                 0.0129                 0.0133
 Raman Activ --     0.0000                 0.0000                 0.0000
 Depolar     --     0.0000                 0.0000                 0.0000
 Atom AN      X      Y      Z        X      Y      Z        X      Y      Z
   1   6     0.01  -0.01  -0.07    -0.02   0.05   0.08    -0.06  -0.06  -0.06
   2   6     0.01  -0.01  -0.02    -0.02   0.03   0.00    -0.02  -0.01  -0.04
   3   6     0.05   0.01  -0.07    -0.06   0.06  -0.07     0.05  -0.02  -0.03
   4   6     0.02  -0.01  -0.06    -0.05   0.01  -0.15     0.12   0.03  -0.04
   5   6     0.06   0.01  -0.12    -0.09   0.03  -0.21     0.19   0.02  -0.04
   6   6     0.12   0.04  -0.18    -0.13   0.10  -0.20     0.20  -0.03  -0.03
   7   6     0.14   0.05  -0.18    -0.14   0.15  -0.12     0.13  -0.08  -0.02
   8   6     0.10   0.04  -0.13    -0.10   0.13  -0.05     0.05  -0.07  -0.02
   9   6    -0.04  -0.01   0.09     0.00  -0.01  -0.01    -0.05   0.06  -0.04
  10   6    -0.12  -0.04   0.12     0.04  -0.05   0.04    -0.12   0.05  -0.04
  11   6    -0.17  -0.04   0.23     0.06  -0.09   0.04    -0.15   0.12  -0.04
  12   6    -0.14  -0.01   0.31     0.05  -0.09  -0.02    -0.12   0.20  -0.04
  13   6    -0.05   0.02   0.28     0.01  -0.06  -0.07    -0.06   0.21  -0.05
  14   6    -0.01   0.02   0.17    -0.02  -0.02  -0.06    -0.02   0.14  -0.05
  15   6     0.00  -0.02  -0.10    -0.01   0.05   0.11    -0.05  -0.09  -0.04
  16   6     0.00  -0.03  -0.11     0.00   0.04   0.09    -0.02  -0.10  -0.03
  17   6     0.00  -0.03  -0.12     0.01   0.03   0.11    -0.02  -0.11   0.00
  18   6     0.00  -0.02  -0.11    -0.00   0.03   0.15    -0.03  -0.11   0.05
  19   6     0.00  -0.02  -0.09    -0.00   0.02   0.15    -0.03  -0.11   0.09
  20   6    -0.01  -0.01  -0.07     0.01   0.01   0.15    -0.05  -0.10   0.08
  21   6    -0.01  -0.01  -0.03     0.01  -0.00   0.14    -0.05  -0.09   0.08
  22   6     0.00   0.00  -0.02     0.00  -0.01   0.13    -0.04  -0.08   0.10
  23   6     0.00   0.01   0.03     0.00  -0.01   0.11    -0.05  -0.04   0.06
  24   6     0.00   0.01   0.04     0.01  -0.02   0.02    -0.01  -0.00   0.03
  25   6     0.00   0.04   0.10     0.00   0.00   0.00    -0.04   0.05  -0.03
  26   6     0.03   0.09   0.15    -0.04   0.07   0.05    -0.12   0.05  -0.05
  27   6     0.03   0.12   0.21    -0.05   0.10   0.03    -0.16   0.11  -0.10
  28   6     0.00   0.09   0.23    -0.02   0.05  -0.03    -0.11   0.17  -0.13
  29   6    -0.02   0.04   0.18     0.03  -0.03  -0.07    -0.03   0.17  -0.11
  30   6    -0.02   0.01   0.12     0.04  -0.05  -0.06     0.00   0.11  -0.06
  31   6    -0.00  -0.02  -0.02     0.05  -0.06  -0.06     0.06  -0.00   0.04
  32   6    -0.02  -0.07  -0.04     0.11  -0.15  -0.04     0.10  -0.02   0.06
  33   6    -0.02  -0.10  -0.09     0.15  -0.19  -0.12     0.18  -0.02   0.08
  34   6    -0.00  -0.07  -0.13     0.13  -0.15  -0.22     0.21   0.01   0.07
  35   6     0.02  -0.01  -0.11     0.07  -0.06  -0.25     0.17   0.03   0.04
  36   6     0.02   0.01  -0.05     0.03  -0.02  -0.17     0.10   0.02   0.03
  37   6     0.01   0.00  -0.05    -0.01  -0.00   0.13    -0.02  -0.09   0.14
  38   6     0.01  -0.01  -0.09    -0.01   0.01   0.14    -0.01  -0.10   0.13
  39   6     0.00  -0.03  -0.12    -0.02   0.05   0.18    -0.06  -0.11   0.03
  40   6     0.00  -0.03  -0.12    -0.02   0.06   0.16    -0.07  -0.10  -0.02
  41   1     0.00  -0.00  -0.02    -0.01   0.02   0.03    -0.03  -0.02  -0.02
  42   1    -0.01  -0.01  -0.00    -0.01  -0.01  -0.05     0.03   0.02  -0.01
  43   1     0.01  -0.00  -0.03    -0.02  -0.00  -0.08     0.07   0.02  -0.01
  44   1     0.04   0.01  -0.06    -0.05   0.04  -0.07     0.08  -0.01  -0.01
  45   1     0.05   0.02  -0.06    -0.05   0.06  -0.03     0.04  -0.04  -0.00
  46   1     0.04   0.01  -0.04    -0.03   0.05   0.00    -0.00  -0.03  -0.00
  47   1    -0.04  -0.02   0.02     0.02  -0.01   0.02    -0.04  -0.00  -0.01
  48   1    -0.07  -0.02   0.07     0.03  -0.03   0.02    -0.06   0.03  -0.01
  49   1    -0.05  -0.00   0.11     0.02  -0.04  -0.01    -0.04   0.08  -0.01
  50   1    -0.01   0.01   0.10    -0.00  -0.02  -0.03    -0.01   0.08  -0.02
  51   1     0.02   0.01   0.04    -0.01   0.00  -0.03     0.01   0.04  -0.01
  52   1     0.00  -0.01  -0.04     0.00   0.01   0.02    -0.00  -0.03  -0.02
  53   1     0.00  -0.01  -0.03     0.01   0.00   0.03     0.00  -0.03   0.00
  54   1    -0.01  -0.01  -0.02     0.01   0.01   0.04    -0.02  -0.03   0.02
  55   1    -0.00  -0.00  -0.00     0.01  -0.00   0.04    -0.02  -0.02   0.02
  56   1     0.00   0.01   0.02    -0.00   0.00   0.05    -0.03  -0.01   0.02
  57   1     0.01   0.03   0.04    -0.02   0.03   0.03    -0.05   0.00  -0.01
  58   1     0.01   0.05   0.07    -0.03   0.04   0.02    -0.06   0.03  -0.03
  59   1     0.00   0.03   0.08    -0.01   0.02  -0.01    -0.04   0.06  -0.05
  60   1    -0.01   0.01   0.06     0.02  -0.02  -0.03     0.00   0.06  -0.04
  61   1    -0.01  -0.01   0.02     0.02  -0.03  -0.03     0.02   0.03  -0.01
  62   1    -0.01  -0.03  -0.00     0.04  -0.05   0.01     0.02  -0.01   0.02
  63   1    -0.01  -0.04  -0.03     0.06  -0.07  -0.03     0.06  -0.01   0.03
  64   1    -0.00  -0.03  -0.05     0.05  -0.05  -0.08     0.08   0.00   0.02
  65   1     0.01   0.00  -0.04     0.02  -0.01  -0.10     0.06   0.01   0.01
  66   1     0.01   0.02  -0.01    -0.00   0.01  -0.05     0.02   0.01   0.00
  67   1     0.01   0.00  -0.01    -0.01  -0.00   0.03    -0.00  -0.02   0.05
  68   1     0.01  -0.00  -0.03    -0.01   0.00   0.04     0.00  -0.03   0.05
  69   1     0.00  -0.01  -0.04    -0.01   0.02   0.06    -0.02  -0.03   0.01
  70   1     0.00  -0.01  -0.04    -0.01   0.02   0.05    -0.03  -0.03  -0.01
                      4                      5                      6
                        a                      a                      a 
 Frequencies --    22.4005                29.9123                42.8763
 Red. masses --    10.7432                10.7113                 9.8945
 Frc consts  --     0.0000                 0.0000                 0.0000
 IR Inten    --     0.0047                 0.0086                 0.6270
 Raman Activ --     0.0000                 0.0000                 0.0000
 Depolar     --     0.0000                 0.0000                 0.0000
 Atom AN      X      Y      Z        X      Y      Z        X      Y      Z
   1   6    -0.01   0.01   0.25    -0.03   0.09  -0.06     0.02  -0.02  -0.03
   2   6     0.00   0.03   0.14    -0.04   0.08  -0.03     0.00  -0.04  -0.03
   3   6     0.02   0.04   0.09    -0.09   0.07  -0.00     0.01  -0.03  -0.02
   4   6     0.06   0.04   0.04    -0.19   0.04   0.07     0.10  -0.01  -0.09
   5   6     0.10   0.05  -0.01    -0.27   0.03   0.13     0.12  -0.01  -0.10
   6   6     0.08   0.07  -0.01    -0.26   0.05   0.11     0.04  -0.04  -0.03
   7   6     0.04   0.07   0.05    -0.15   0.08   0.03    -0.06  -0.06   0.05
   8   6     0.01   0.05   0.10    -0.06   0.09  -0.02    -0.07  -0.06   0.05
   9   6     0.05   0.03   0.05    -0.04   0.04  -0.01    -0.00  -0.03  -0.01
  10   6     0.11  -0.00   0.10    -0.02   0.09  -0.07    -0.04  -0.09   0.06
  11   6     0.16   0.00  -0.01    -0.01   0.05  -0.04    -0.06  -0.07   0.09
  12   6     0.13   0.04  -0.15    -0.02  -0.04   0.05    -0.04   0.00   0.04
  13   6     0.06   0.07  -0.19    -0.04  -0.09   0.11    -0.00   0.07  -0.04
  14   6     0.02   0.06  -0.09    -0.05  -0.05   0.08     0.01   0.05  -0.06
  15   6    -0.02  -0.03   0.17    -0.02   0.08  -0.05     0.01   0.01   0.00
  16   6    -0.04  -0.09   0.02     0.01   0.09  -0.01     0.00   0.04   0.07
  17   6    -0.04  -0.11  -0.07     0.02   0.05  -0.03     0.00   0.07   0.11
  18   6    -0.03  -0.08  -0.02    -0.00   0.01  -0.08     0.01   0.06   0.06
  19   6    -0.03  -0.08  -0.10     0.01  -0.03  -0.08     0.01   0.07   0.05
  20   6    -0.04  -0.08  -0.17     0.04  -0.04  -0.13     0.01   0.06   0.16
  21   6    -0.04  -0.08  -0.21     0.05  -0.07  -0.12     0.02   0.06   0.14
  22   6    -0.04  -0.08  -0.17     0.03  -0.10  -0.05    -0.00   0.06   0.03
  23   6    -0.04  -0.07  -0.15     0.03  -0.12  -0.04     0.01   0.04   0.03
  24   6    -0.04  -0.03  -0.08     0.05  -0.09  -0.01    -0.02   0.01   0.03
  25   6    -0.04   0.02   0.00     0.03  -0.04  -0.00    -0.01  -0.00   0.02
  26   6     0.01   0.00   0.00     0.02  -0.11  -0.06     0.04  -0.25  -0.15
  27   6    -0.00   0.07   0.10    -0.00  -0.04  -0.03     0.04  -0.28  -0.19
  28   6    -0.06   0.16   0.21    -0.02   0.11   0.04    -0.01  -0.05  -0.04
  29   6    -0.11   0.17   0.20    -0.01   0.17   0.09    -0.06   0.20   0.14
  30   6    -0.10   0.10   0.10     0.01   0.10   0.07    -0.06   0.21   0.17
  31   6    -0.02  -0.03  -0.07     0.10  -0.08   0.01    -0.01   0.00   0.00
  32   6    -0.05  -0.04  -0.09     0.07  -0.11  -0.01    -0.18  -0.10  -0.11
  33   6    -0.04  -0.03  -0.08     0.15  -0.09   0.02    -0.18  -0.13  -0.17
  34   6     0.00  -0.02  -0.06     0.27  -0.05   0.08    -0.01  -0.05  -0.11
  35   6     0.03  -0.01  -0.04     0.30  -0.03   0.11     0.17   0.05   0.01
  36   6     0.02  -0.01  -0.04     0.21  -0.04   0.07     0.16   0.07   0.07
  37   6    -0.04  -0.09  -0.10     0.01  -0.10   0.01    -0.01   0.08  -0.09
  38   6    -0.04  -0.09  -0.07    -0.00  -0.06  -0.01    -0.01   0.08  -0.07
  39   6    -0.01  -0.03   0.13    -0.04   0.01  -0.10     0.02   0.03  -0.00
  40   6    -0.01  -0.01   0.23    -0.04   0.04  -0.09     0.02   0.01  -0.02
  41   1    -0.01   0.01   0.11    -0.01   0.02  -0.03     0.01  -0.01  -0.02
  42   1     0.02   0.01   0.01    -0.06   0.01   0.03     0.05   0.00  -0.04
  43   1     0.04   0.01  -0.02    -0.10   0.00   0.06     0.06   0.00  -0.05
  44   1     0.03   0.02  -0.01    -0.09   0.01   0.05     0.02  -0.01  -0.01
  45   1     0.01   0.02   0.02    -0.04   0.03   0.00    -0.03  -0.02   0.03
  46   1    -0.01   0.02   0.04     0.00   0.03  -0.02    -0.04  -0.02   0.03
  47   1     0.04  -0.01   0.06    -0.00   0.05  -0.04    -0.02  -0.04   0.03
  48   1     0.06  -0.01   0.01     0.00   0.03  -0.03    -0.03  -0.04   0.04
  49   1     0.05   0.01  -0.07    -0.01  -0.02   0.02    -0.02   0.00   0.02
  50   1     0.01   0.03  -0.09    -0.01  -0.05   0.05     0.00   0.04  -0.02
  51   1    -0.01   0.02  -0.04    -0.02  -0.03   0.04     0.01   0.03  -0.04
  52   1    -0.01  -0.04  -0.00     0.01   0.04   0.01     0.00   0.01   0.03
  53   1    -0.01  -0.05  -0.05     0.01   0.02  -0.00    -0.00   0.03   0.05
  54   1    -0.01  -0.02  -0.06     0.02  -0.00  -0.05     0.01   0.01   0.07
  55   1    -0.01  -0.02  -0.08     0.02  -0.02  -0.05     0.01   0.01   0.07
  56   1    -0.01  -0.02  -0.05     0.01  -0.03  -0.02     0.01   0.01   0.01
  57   1     0.01  -0.02  -0.02     0.01  -0.06  -0.03     0.02  -0.12  -0.07
  58   1     0.01   0.02   0.03    -0.00  -0.03  -0.02     0.02  -0.14  -0.10
  59   1    -0.02   0.06   0.08    -0.01   0.05   0.02    -0.00  -0.02  -0.02
  60   1    -0.04   0.07   0.08    -0.01   0.08   0.04    -0.03   0.11   0.07
  61   1    -0.04   0.03   0.03     0.01   0.04   0.03    -0.03   0.12   0.09
  62   1    -0.02  -0.01  -0.03    -0.01  -0.04  -0.02    -0.09  -0.05  -0.05
  63   1    -0.02  -0.01  -0.03     0.04  -0.03   0.00    -0.09  -0.06  -0.08
  64   1     0.00  -0.01  -0.01     0.10  -0.01   0.03    -0.00  -0.02  -0.04
  65   1     0.02  -0.00  -0.01     0.11   0.00   0.04     0.09   0.03   0.02
  66   1     0.01  -0.00  -0.01     0.07  -0.01   0.03     0.08   0.04   0.05
  67   1    -0.01  -0.03  -0.02    -0.00  -0.04   0.02    -0.01   0.03  -0.05
  68   1    -0.01  -0.03  -0.00    -0.01  -0.02   0.01    -0.01   0.03  -0.04
  69   1     0.00   0.00   0.05    -0.02  -0.01  -0.04     0.01   0.01  -0.01
  70   1     0.00   0.01   0.10    -0.02   0.01  -0.03     0.01  -0.00  -0.02
                      7                      8                      9
                        a                      a                      a 
 Frequencies --    45.3744                52.5948                55.9788
 Red. masses --    10.1538                10.3609                10.4079
 Frc consts  --     0.0000                 0.0000                 0.0000
 IR Inten    --     0.2399                 0.4222                 0.4476
 Raman Activ --     0.0000                 0.0000                 0.0000
 Depolar     --     0.0000                 0.0000                 0.0000
 Atom AN      X      Y      Z        X      Y      Z        X      Y      Z
   1   6     0.00  -0.02  -0.08    -0.03  -0.02   0.00    -0.00   0.05   0.10
   2   6    -0.01  -0.05  -0.08    -0.04  -0.03   0.00    -0.01   0.05   0.06
   3   6    -0.02  -0.04  -0.05    -0.01  -0.03   0.02    -0.01   0.06   0.05
   4   6     0.14  -0.01  -0.17    -0.01  -0.00   0.07     0.06   0.07   0.00
   5   6     0.08  -0.03  -0.10     0.05  -0.01   0.08     0.05   0.07   0.02
   6   6    -0.14  -0.09   0.10     0.12  -0.05   0.04    -0.01   0.05   0.08
   7   6    -0.29  -0.13   0.22     0.12  -0.08  -0.01    -0.06   0.03   0.11
   8   6    -0.22  -0.11   0.13     0.05  -0.07  -0.01    -0.05   0.04   0.09
   9   6    -0.03  -0.02  -0.03    -0.04  -0.02  -0.01     0.02   0.02   0.04
  10   6    -0.13  -0.13   0.10    -0.02  -0.03   0.00     0.07  -0.09   0.18
  11   6    -0.18  -0.09   0.16    -0.01  -0.04  -0.01     0.11  -0.15   0.17
  12   6    -0.13   0.07   0.08    -0.02  -0.04  -0.03     0.08  -0.09   0.01
  13   6    -0.04   0.19  -0.07    -0.03  -0.03  -0.04     0.03   0.03  -0.15
  14   6     0.00   0.14  -0.12    -0.04  -0.02  -0.03    -0.00   0.08  -0.13
  15   6     0.01   0.03   0.01    -0.04   0.01  -0.02    -0.02   0.02  -0.03
  16   6     0.01   0.06   0.09    -0.08  -0.03  -0.13    -0.04  -0.00  -0.09
  17   6     0.01   0.07   0.08    -0.09   0.01  -0.15    -0.04  -0.02  -0.19
  18   6     0.02   0.05   0.03    -0.06   0.09  -0.04    -0.03  -0.02  -0.22
  19   6     0.02   0.03  -0.02    -0.07   0.11  -0.05    -0.03  -0.00  -0.18
  20   6     0.05   0.03  -0.14    -0.08   0.13  -0.20    -0.06  -0.01  -0.06
  21   6     0.05   0.01  -0.19    -0.07   0.12  -0.17    -0.05   0.01   0.07
  22   6     0.04  -0.02  -0.10    -0.05   0.10   0.02    -0.03   0.03   0.09
  23   6     0.04  -0.03  -0.11    -0.05   0.08   0.06    -0.03   0.04   0.19
  24   6     0.04  -0.02  -0.08    -0.06   0.07   0.07    -0.03   0.02   0.14
  25   6     0.05  -0.02  -0.03    -0.04   0.02   0.08    -0.03   0.02   0.08
  26   6     0.08   0.07   0.04     0.04  -0.10   0.00    -0.11   0.10   0.13
  27   6     0.09   0.08   0.11     0.08  -0.24  -0.04    -0.12   0.05   0.02
  28   6     0.07   0.01   0.11     0.05  -0.25   0.00    -0.03  -0.09  -0.14
  29   6     0.04  -0.07   0.04    -0.04  -0.10   0.10     0.05  -0.16  -0.18
  30   6     0.03  -0.09  -0.03    -0.08   0.03   0.13     0.05  -0.10  -0.06
  31   6     0.04  -0.01  -0.05    -0.02   0.04   0.02    -0.00  -0.00   0.09
  32   6     0.09   0.05  -0.01     0.14  -0.03   0.10    -0.08  -0.08   0.03
  33   6     0.11   0.07   0.04     0.28  -0.05   0.06    -0.02  -0.10   0.00
  34   6     0.06   0.04   0.05     0.24  -0.01  -0.07     0.11  -0.03   0.04
  35   6    -0.00  -0.02   0.00     0.06   0.06  -0.16     0.18   0.05   0.10
  36   6    -0.01  -0.04  -0.05    -0.06   0.08  -0.12     0.12   0.06   0.12
  37   6     0.02  -0.03   0.01    -0.05   0.08   0.15    -0.01   0.03  -0.06
  38   6     0.01   0.00   0.05    -0.05   0.09   0.12    -0.01   0.02  -0.19
  39   6     0.01   0.04   0.01    -0.02   0.13   0.09    -0.01  -0.02  -0.21
  40   6     0.02   0.04  -0.00    -0.01   0.08   0.08    -0.01   0.00  -0.10
  41   1     0.01  -0.01  -0.04    -0.00  -0.00   0.02     0.00   0.02   0.06
  42   1     0.09   0.01  -0.09    -0.02   0.01   0.03     0.03   0.03  -0.01
  43   1     0.06   0.00  -0.06     0.01   0.00   0.03     0.03   0.02  -0.00
  44   1    -0.06  -0.03   0.05     0.05  -0.02   0.01    -0.01   0.01   0.03
  45   1    -0.13  -0.05   0.11     0.05  -0.03  -0.01    -0.03   0.00   0.04
  46   1    -0.10  -0.04   0.06     0.01  -0.03  -0.01    -0.02   0.01   0.03
  47   1    -0.05  -0.08   0.05    -0.00  -0.01   0.01     0.03  -0.04   0.09
  48   1    -0.07  -0.05   0.08     0.00  -0.01  -0.00     0.04  -0.07   0.08
  49   1    -0.05   0.03   0.03    -0.00  -0.01  -0.01     0.03  -0.04   0.00
  50   1    -0.00   0.09  -0.04    -0.01  -0.01  -0.02     0.00   0.02  -0.08
  51   1     0.02   0.07  -0.06    -0.02  -0.01  -0.01    -0.01   0.05  -0.07
  52   1     0.00   0.02   0.04    -0.03  -0.03  -0.06    -0.02   0.00  -0.01
  53   1    -0.00   0.02   0.03    -0.04  -0.00  -0.07    -0.02  -0.01  -0.06
  54   1     0.02   0.02  -0.06    -0.03   0.04  -0.10    -0.02  -0.01  -0.02
  55   1     0.02   0.00  -0.08    -0.02   0.04  -0.08    -0.02   0.00   0.05
  56   1     0.01  -0.01  -0.04    -0.01   0.02   0.01    -0.01   0.02   0.07
  57   1     0.03   0.04   0.01     0.02  -0.03  -0.01    -0.05   0.06   0.07
  58   1     0.03   0.04   0.05     0.04  -0.10  -0.03    -0.05   0.03   0.02
  59   1     0.02   0.01   0.05     0.02  -0.10  -0.01    -0.01  -0.04  -0.07
  60   1     0.01  -0.04   0.01    -0.02  -0.03   0.04     0.03  -0.08  -0.09
  61   1     0.00  -0.04  -0.03    -0.04   0.04   0.06     0.03  -0.04  -0.03
  62   1     0.04   0.02  -0.00     0.05  -0.02   0.06    -0.05  -0.04   0.00
  63   1     0.04   0.03   0.02     0.12  -0.03   0.04    -0.02  -0.05  -0.01
  64   1     0.02   0.02   0.03     0.10  -0.01  -0.03     0.05  -0.01   0.01
  65   1    -0.01  -0.01   0.00     0.01   0.03  -0.08     0.08   0.03   0.04
  66   1    -0.02  -0.02  -0.02    -0.05   0.04  -0.05     0.05   0.03   0.05
  67   1     0.00  -0.02   0.02    -0.01   0.02   0.08     0.01   0.02  -0.02
  68   1     0.00  -0.00   0.04    -0.01   0.02   0.07     0.00   0.01  -0.09
  69   1     0.00   0.01   0.00    -0.00   0.05   0.05    -0.00  -0.01  -0.08
  70   1     0.01   0.01  -0.01     0.01   0.03   0.05     0.00   0.00  -0.02
                     10                     11                     12
                        a                      a                      a 
 Frequencies --    64.6138                65.4162                71.9361
 Red. masses --    10.3979                10.3976                10.2266
 Frc consts  --     0.0000                 0.0000                 0.0000
 IR Inten    --     0.0525                 1.1740                 0.7132
 Raman Activ --     0.0000                 0.0000                 0.0000
 Depolar     --     0.0000                 0.0000                 0.0000
 Atom AN      X      Y      Z        X      Y      Z        X      Y      Z
   1   6    -0.00  -0.09   0.11     0.01   0.00   0.08     0.06  -0.05   0.01
   2   6    -0.00  -0.10   0.12     0.03   0.03   0.04     0.07  -0.05  -0.01
   3   6    -0.02  -0.07   0.05     0.01   0.04  -0.00     0.05  -0.04  -0.04
   4   6    -0.05  -0.14  -0.02    -0.01   0.00  -0.04     0.00  -0.07  -0.03
   5   6    -0.09  -0.10  -0.12    -0.13   0.01  -0.03    -0.12  -0.08   0.02
   6   6    -0.10  -0.01  -0.15    -0.22   0.05   0.03    -0.19  -0.05   0.06
   7   6    -0.07   0.06  -0.08    -0.16   0.10   0.04    -0.10  -0.01   0.03
   8   6    -0.03   0.03   0.02    -0.04   0.10   0.02     0.02  -0.00  -0.03
   9   6    -0.02  -0.05   0.10     0.03   0.04   0.04     0.04  -0.02   0.02
  10   6    -0.06   0.06  -0.03     0.02   0.00   0.09    -0.03   0.00  -0.00
  11   6    -0.08   0.21  -0.16     0.01   0.03   0.07    -0.06   0.09  -0.03
  12   6    -0.06   0.25  -0.13     0.02   0.09   0.00    -0.03   0.16  -0.01
  13   6    -0.02   0.11   0.05     0.03   0.12  -0.03     0.03   0.12   0.04
  14   6     0.00  -0.04   0.16     0.04   0.09  -0.00     0.07   0.03   0.06
  15   6    -0.00  -0.08   0.11     0.02  -0.08  -0.01     0.06  -0.04   0.02
  16   6    -0.02  -0.07   0.12     0.04  -0.09  -0.03     0.03  -0.09  -0.12
  17   6    -0.03  -0.05   0.08     0.05  -0.14  -0.06     0.02  -0.08  -0.17
  18   6    -0.00  -0.05   0.03     0.03  -0.18  -0.10     0.05  -0.01  -0.04
  19   6    -0.01  -0.02  -0.02     0.03  -0.15  -0.03     0.04   0.01  -0.06
  20   6    -0.04  -0.02  -0.01    -0.03  -0.14   0.11     0.02   0.03  -0.25
  21   6    -0.04   0.02  -0.03    -0.04  -0.07   0.15     0.02   0.03  -0.18
  22   6    -0.02   0.04  -0.07     0.00  -0.00   0.05     0.05   0.01   0.06
  23   6    -0.03   0.07  -0.04    -0.01   0.07   0.04     0.05   0.01   0.14
  24   6    -0.02   0.08  -0.02    -0.00   0.10   0.04     0.06   0.03   0.16
  25   6    -0.00   0.05   0.02     0.01   0.08   0.04     0.04   0.04   0.09
  26   6     0.06   0.10   0.08     0.06  -0.07  -0.05    -0.05   0.01   0.04
  27   6     0.11  -0.03   0.07     0.09  -0.16  -0.09    -0.07   0.01  -0.08
  28   6     0.10  -0.21   0.01     0.06  -0.09  -0.02    -0.00   0.05  -0.15
  29   6     0.04  -0.24  -0.03    -0.01   0.07   0.09     0.09   0.09  -0.10
  30   6    -0.01  -0.10  -0.01    -0.03   0.14   0.12     0.11   0.09   0.02
  31   6    -0.01   0.07  -0.03     0.00   0.09   0.02     0.05   0.02   0.13
  32   6    -0.10   0.02  -0.10     0.17   0.10   0.12    -0.06  -0.06   0.05
  33   6    -0.02   0.02  -0.08     0.17   0.08   0.08    -0.22  -0.12  -0.09
  34   6     0.17   0.09   0.01    -0.01   0.05  -0.07    -0.25  -0.11  -0.15
  35   6     0.25   0.14   0.07    -0.18   0.04  -0.18    -0.09  -0.03  -0.04
  36   6     0.16   0.14   0.04    -0.17   0.06  -0.13     0.06   0.03   0.10
  37   6    -0.00   0.04  -0.10     0.07  -0.01  -0.04     0.06  -0.02   0.18
  38   6     0.01   0.01  -0.07     0.08  -0.09  -0.08     0.07  -0.02   0.14
  39   6     0.02  -0.06   0.02     0.00  -0.19  -0.17     0.07   0.05   0.13
  40   6     0.02  -0.07   0.07    -0.01  -0.14  -0.11     0.08   0.02   0.15
  41   1    -0.00  -0.03   0.02    -0.01   0.01   0.04     0.02  -0.01   0.02
  42   1    -0.01  -0.06  -0.00     0.02  -0.01  -0.02     0.01  -0.03  -0.02
  43   1    -0.03  -0.05  -0.05    -0.05  -0.01  -0.01    -0.05  -0.03   0.01
  44   1    -0.04   0.01  -0.07    -0.10   0.02   0.02    -0.09  -0.02   0.03
  45   1    -0.02   0.04  -0.03    -0.06   0.04   0.02    -0.04   0.01   0.01
  46   1    -0.00   0.02   0.02     0.00   0.04   0.01     0.02   0.01  -0.01
  47   1    -0.02   0.01  -0.02     0.00  -0.01   0.04    -0.01  -0.01  -0.00
  48   1    -0.03   0.09  -0.08     0.00   0.00   0.03    -0.03   0.03  -0.02
  49   1    -0.02   0.11  -0.07     0.00   0.03  -0.01    -0.02   0.07  -0.01
  50   1    -0.00   0.03   0.03     0.01   0.05  -0.02     0.02   0.05   0.02
  51   1     0.01  -0.04   0.08     0.01   0.03  -0.01     0.03  -0.00   0.03
  52   1    -0.01  -0.02   0.04     0.02  -0.02   0.01     0.00  -0.04  -0.06
  53   1    -0.02  -0.01   0.02     0.02  -0.04  -0.02     0.00  -0.04  -0.09
  54   1    -0.01  -0.01   0.01    -0.02  -0.06   0.05    -0.00   0.02  -0.13
  55   1    -0.02   0.01  -0.00    -0.03  -0.02   0.07     0.00   0.01  -0.09
  56   1    -0.01   0.02  -0.00    -0.01   0.02   0.01     0.01   0.00   0.04
  57   1     0.02   0.07   0.03     0.02  -0.03  -0.03    -0.03  -0.01   0.02
  58   1     0.05   0.00   0.03     0.04  -0.08  -0.05    -0.04  -0.01  -0.04
  59   1     0.04  -0.10  -0.00     0.02  -0.05  -0.01    -0.01   0.02  -0.07
  60   1     0.01  -0.11  -0.02    -0.01   0.04   0.04     0.04   0.04  -0.04
  61   1    -0.02  -0.03  -0.01    -0.02   0.07   0.06     0.05   0.03   0.02
  62   1    -0.07  -0.01  -0.05     0.09   0.04   0.06    -0.02  -0.02   0.02
  63   1    -0.03  -0.01  -0.04     0.09   0.03   0.05    -0.10  -0.05  -0.05
  64   1     0.07   0.03   0.01    -0.01   0.01  -0.03    -0.11  -0.05  -0.08
  65   1     0.11   0.06   0.04    -0.09   0.00  -0.09    -0.03  -0.00  -0.02
  66   1     0.06   0.05   0.03    -0.08   0.02  -0.06     0.04   0.03   0.05
  67   1     0.00   0.02  -0.04     0.03   0.01  -0.02     0.02  -0.01   0.09
  68   1     0.01   0.00  -0.03     0.04  -0.03  -0.05     0.03  -0.01   0.08
  69   1     0.01  -0.02  -0.00    -0.00  -0.07  -0.07     0.02   0.03   0.07
  70   1     0.01  -0.02   0.02    -0.01  -0.04  -0.04     0.03   0.02   0.08
                     13                     14                     15
                        a                      a                      a 
 Frequencies --    79.0003                88.9511                95.9387
 Red. masses --    10.3633                10.1416                10.1493
 Frc consts  --     0.0000                 0.0000                 0.0000
 IR Inten    --     0.4467                 2.3142                 0.0895
 Raman Activ --     0.0000                 0.0000                 0.0000
 Depolar     --     0.0000                 0.0000                 0.0000
 Atom AN      X      Y      Z        X      Y      Z        X      Y      Z
   1   6     0.04  -0.04   0.09     0.07  -0.05   0.02    -0.05   0.02   0.01
   2   6    -0.00  -0.10   0.17     0.04  -0.08   0.01    -0.11  -0.03   0.10
   3   6    -0.03  -0.08   0.13     0.05  -0.06  -0.03    -0.10  -0.02   0.07
   4   6     0.04  -0.12  -0.02    -0.08  -0.11   0.05    -0.20  -0.03   0.17
   5   6     0.11  -0.07  -0.19    -0.20  -0.12   0.10    -0.13  -0.02   0.13
   6   6     0.08   0.00  -0.20    -0.14  -0.07   0.04     0.08   0.01  -0.05
   7   6    -0.04   0.03  -0.01     0.05  -0.01  -0.10     0.19   0.03  -0.16
   8   6    -0.09  -0.02   0.15     0.14  -0.01  -0.13     0.08   0.01  -0.08
   9   6     0.01  -0.09   0.14     0.02  -0.07   0.07    -0.10  -0.08   0.12
  10   6     0.02   0.01   0.02    -0.05  -0.14   0.14    -0.07  -0.18   0.24
  11   6     0.03   0.11  -0.12    -0.08  -0.01   0.07    -0.04  -0.12   0.10
  12   6     0.03   0.11  -0.12    -0.04   0.18  -0.10    -0.05   0.05  -0.19
  13   6     0.02  -0.01   0.03     0.02   0.20  -0.11    -0.09   0.11  -0.28
  14   6     0.01  -0.10   0.15     0.05   0.06  -0.02    -0.12   0.02  -0.10
  15   6     0.02   0.03   0.05     0.05  -0.02  -0.03    -0.05   0.04  -0.02
  16   6    -0.04   0.11   0.18    -0.00  -0.06  -0.17    -0.01   0.09   0.11
  17   6    -0.05   0.14   0.10    -0.01   0.01  -0.15    -0.00   0.07   0.15
  18   6    -0.00   0.10  -0.11     0.01   0.10  -0.02    -0.00   0.01   0.03
  19   6    -0.01   0.10  -0.14     0.02   0.12  -0.02     0.01  -0.01   0.05
  20   6     0.02   0.09  -0.14     0.04   0.09   0.16     0.04  -0.02  -0.04
  21   6     0.03   0.06  -0.07     0.05   0.06   0.19     0.05  -0.03  -0.07
  22   6     0.02   0.03   0.03     0.01   0.05   0.03     0.05  -0.05   0.00
  23   6     0.03  -0.02   0.11     0.03  -0.01   0.01     0.05  -0.03  -0.03
  24   6     0.00  -0.07   0.07    -0.02  -0.10  -0.07     0.09   0.03   0.00
  25   6    -0.01  -0.06   0.03    -0.01  -0.11  -0.07     0.08   0.04   0.00
  26   6    -0.08  -0.09  -0.01    -0.03  -0.08  -0.05     0.09   0.03  -0.00
  27   6    -0.13   0.00  -0.04    -0.06   0.04   0.02     0.10   0.01  -0.01
  28   6    -0.10   0.12  -0.03    -0.08   0.11   0.07     0.10   0.00  -0.02
  29   6    -0.02   0.13  -0.01    -0.05   0.04   0.02     0.09   0.02  -0.01
  30   6     0.02   0.03   0.01    -0.02  -0.07  -0.05     0.09   0.04   0.00
  31   6    -0.00  -0.08   0.06    -0.04  -0.10  -0.06     0.09   0.03   0.02
  32   6     0.10  -0.06   0.12     0.02  -0.04  -0.02     0.03   0.04  -0.01
  33   6     0.10  -0.06   0.12     0.10   0.01   0.08    -0.07   0.02  -0.06
  34   6    -0.01  -0.09   0.05     0.10  -0.02   0.13    -0.11   0.00  -0.07
  35   6    -0.12  -0.11  -0.02     0.00  -0.09   0.06    -0.02   0.01  -0.01
  36   6    -0.11  -0.11  -0.01    -0.06  -0.13  -0.03     0.08   0.02   0.03
  37   6    -0.01   0.04   0.01    -0.02   0.09  -0.15     0.03  -0.05   0.12
  38   6    -0.02   0.08  -0.10    -0.03   0.12  -0.17     0.02  -0.03   0.13
  39   6     0.04   0.03  -0.24     0.08   0.13   0.11    -0.05  -0.04  -0.14
  40   6     0.06   0.01  -0.16     0.09   0.07   0.11    -0.06  -0.02  -0.17
  41   1     0.03  -0.03  -0.01     0.03  -0.01   0.04     0.00  -0.00  -0.01
  42   1     0.02  -0.06  -0.00    -0.03  -0.04   0.02    -0.09  -0.01   0.08
  43   1     0.06  -0.03  -0.09    -0.09  -0.05   0.05    -0.06  -0.01   0.06
  44   1     0.04   0.01  -0.10    -0.07  -0.02   0.02     0.05   0.01  -0.03
  45   1    -0.02   0.03   0.00     0.03   0.01  -0.05     0.10   0.01  -0.09
  46   1    -0.05   0.00   0.08     0.08   0.01  -0.06     0.04   0.01  -0.04
  47   1     0.01   0.01   0.00    -0.02  -0.08   0.07    -0.02  -0.09   0.12
  48   1     0.01   0.06  -0.07    -0.04  -0.02   0.03    -0.00  -0.06   0.06
  49   1     0.01   0.06  -0.07    -0.02   0.09  -0.05    -0.01   0.04  -0.10
  50   1     0.00  -0.01   0.01     0.01   0.10  -0.06    -0.03   0.07  -0.14
  51   1     0.00  -0.05   0.07     0.02   0.02  -0.00    -0.05   0.01  -0.04
  52   1    -0.02   0.04   0.09    -0.01  -0.04  -0.08     0.00   0.04   0.05
  53   1    -0.03   0.06   0.06    -0.01  -0.00  -0.07    -0.00   0.03   0.08
  54   1     0.01   0.03  -0.06     0.01   0.02   0.08     0.02   0.01  -0.03
  55   1     0.01   0.01  -0.02     0.03   0.01   0.10     0.01  -0.01  -0.04
  56   1     0.02  -0.01   0.04     0.02  -0.00   0.02     0.00  -0.01  -0.02
  57   1    -0.03  -0.05  -0.00    -0.01  -0.04  -0.02     0.03   0.01  -0.00
  58   1    -0.05  -0.00  -0.02    -0.02   0.02   0.01     0.03   0.00  -0.01
  59   1    -0.04   0.06  -0.01    -0.03   0.06   0.04     0.03  -0.01  -0.01
  60   1     0.00   0.06  -0.00    -0.02   0.03   0.01     0.03   0.00  -0.00
  61   1     0.02   0.01   0.01    -0.00  -0.03  -0.02     0.02   0.02   0.00
  62   1     0.05  -0.01   0.05     0.01  -0.00  -0.01     0.02   0.02  -0.00
  63   1     0.06  -0.01   0.05     0.05   0.02   0.04    -0.04   0.00  -0.03
  64   1    -0.00  -0.03   0.01     0.05   0.01   0.06    -0.06  -0.01  -0.03
  65   1    -0.06  -0.04  -0.02    -0.00  -0.03   0.03    -0.01  -0.00  -0.00
  66   1    -0.05  -0.04  -0.02    -0.03  -0.05  -0.02     0.04   0.01   0.02
  67   1    -0.00   0.00   0.02    -0.01   0.03  -0.08     0.00  -0.02   0.05
  68   1    -0.01   0.03  -0.04    -0.02   0.04  -0.09     0.01  -0.01   0.06
  69   1     0.02  -0.00  -0.11     0.04   0.06   0.06    -0.02  -0.03  -0.07
  70   1     0.03  -0.01  -0.07     0.04   0.03   0.06    -0.02  -0.02  -0.09
                     16                     17                     18
                        a                      a                      a 
 Frequencies --   116.2253               128.0010               171.5708
 Red. masses --    10.5881                10.7806                10.6500
 Frc consts  --     0.0000                 0.0000                 0.0000
 IR Inten    --     0.0339                 0.0752                 3.6617
 Raman Activ --     0.0000                 0.0000                 0.0000
 Depolar     --     0.0000                 0.0000                 0.0000
 Atom AN      X      Y      Z        X      Y      Z        X      Y      Z
   1   6    -0.07   0.06   0.04    -0.02   0.01   0.07     0.03  -0.04  -0.06
   2   6    -0.13  -0.01   0.01    -0.05  -0.02   0.13     0.05  -0.02   0.05
   3   6    -0.15  -0.03   0.05    -0.05  -0.01   0.11     0.09  -0.02   0.02
   4   6    -0.08   0.02   0.04     0.03  -0.02  -0.00     0.10  -0.06  -0.04
   5   6     0.08   0.02  -0.03     0.09   0.01  -0.10     0.02  -0.05  -0.05
   6   6     0.13  -0.02  -0.06     0.01   0.03  -0.04    -0.07  -0.02   0.01
   7   6    -0.01  -0.08   0.02    -0.11   0.02   0.10    -0.03   0.02   0.04
   8   6    -0.15  -0.08   0.07    -0.12   0.01   0.16     0.07   0.02   0.02
   9   6    -0.12  -0.03  -0.01    -0.03  -0.02   0.11     0.05  -0.02   0.09
  10   6    -0.12   0.01  -0.06     0.02   0.02   0.06     0.08  -0.01   0.08
  11   6    -0.11   0.01  -0.08     0.06   0.05  -0.04     0.09   0.03   0.02
  12   6    -0.12  -0.03  -0.04     0.04   0.02  -0.06     0.09   0.05  -0.02
  13   6    -0.13  -0.08   0.02    -0.02  -0.05   0.03     0.07   0.01   0.02
  14   6    -0.13  -0.07   0.02    -0.05  -0.06   0.10     0.05  -0.02   0.09
  15   6    -0.06   0.10   0.08    -0.04  -0.02  -0.15    -0.01  -0.02  -0.21
  16   6    -0.04   0.03  -0.06    -0.06  -0.08  -0.30    -0.07   0.01  -0.19
  17   6    -0.02  -0.02  -0.17    -0.06  -0.06  -0.30    -0.07   0.12   0.00
  18   6    -0.02   0.01  -0.10    -0.05   0.02  -0.10    -0.09   0.16   0.11
  19   6     0.01  -0.04  -0.14    -0.03   0.05   0.10    -0.07   0.09   0.12
  20   6     0.06  -0.08   0.08    -0.01   0.04   0.11     0.05   0.03   0.16
  21   6     0.07  -0.12   0.16     0.01   0.02   0.16     0.07  -0.12  -0.02
  22   6     0.06  -0.10   0.02     0.01   0.02   0.17    -0.06  -0.22  -0.16
  23   6     0.07  -0.06   0.04     0.02  -0.01  -0.00    -0.06  -0.20  -0.25
  24   6     0.12   0.03   0.06     0.04  -0.04  -0.15    -0.00   0.01   0.03
  25   6     0.12   0.07   0.05     0.05  -0.06  -0.16    -0.04   0.14   0.11
  26   6     0.10   0.04   0.03     0.13  -0.03  -0.12    -0.04   0.15   0.11
  27   6     0.11   0.01  -0.03     0.14   0.02   0.02    -0.01   0.02   0.01
  28   6     0.13   0.01  -0.07     0.07   0.05   0.11     0.03  -0.12  -0.11
  29   6     0.15   0.06  -0.03     0.00  -0.00   0.05     0.01  -0.01  -0.03
  30   6     0.14   0.09   0.03     0.00  -0.06  -0.09    -0.03   0.14   0.09
  31   6     0.13   0.03   0.06     0.05  -0.02  -0.11     0.06   0.03   0.10
  32   6     0.13   0.05   0.06    -0.01   0.05  -0.14     0.07   0.00   0.10
  33   6     0.03   0.04   0.02    -0.08   0.08  -0.08     0.03  -0.03   0.03
  34   6    -0.07  -0.00  -0.03    -0.05   0.04   0.01    -0.04  -0.03  -0.05
  35   6    -0.06  -0.02  -0.02     0.04  -0.02   0.05    -0.02   0.01  -0.03
  36   6     0.05  -0.00   0.02     0.08  -0.05  -0.02     0.04   0.05   0.06
  37   6     0.01  -0.06  -0.19    -0.01   0.02   0.28    -0.18  -0.18  -0.10
  38   6    -0.01  -0.03  -0.27    -0.01   0.03   0.26    -0.21  -0.02   0.00
  39   6    -0.04   0.11   0.15    -0.04   0.03  -0.09    -0.03   0.13   0.05
  40   6    -0.05   0.17   0.25    -0.03  -0.01  -0.14    -0.02   0.01  -0.16
  41   1    -0.01   0.02   0.03     0.01   0.01   0.06     0.02  -0.01   0.00
  42   1    -0.04   0.01   0.02     0.02  -0.02  -0.00     0.04  -0.03  -0.02
  43   1     0.05   0.02  -0.02     0.05   0.00  -0.06     0.01  -0.02  -0.03
  44   1     0.08  -0.00  -0.04     0.01   0.01  -0.03    -0.05  -0.01   0.01
  45   1    -0.00  -0.03   0.01    -0.05   0.01   0.04    -0.02   0.02   0.02
  46   1    -0.07  -0.04   0.03    -0.05   0.00   0.06     0.03   0.01   0.01
  47   1    -0.03   0.01  -0.02     0.01   0.01   0.02     0.03  -0.00   0.03
  48   1    -0.03   0.01  -0.04     0.03   0.03  -0.03     0.03   0.01  -0.00
  49   1    -0.03  -0.01  -0.01     0.02   0.01  -0.04     0.03   0.03  -0.03
  50   1    -0.04  -0.03   0.02    -0.01  -0.03   0.00     0.02   0.00  -0.00
  51   1    -0.04  -0.03   0.01    -0.02  -0.03   0.04     0.01  -0.01   0.03
  52   1    -0.01   0.00  -0.03    -0.02  -0.04  -0.10    -0.03  -0.01  -0.08
  53   1    -0.00  -0.02  -0.08    -0.01  -0.03  -0.11    -0.02   0.04   0.02
  54   1     0.02  -0.03   0.05    -0.00   0.02   0.01     0.04   0.02   0.08
  55   1     0.03  -0.04   0.10     0.00   0.01   0.04     0.06  -0.05  -0.01
  56   1     0.00  -0.01   0.01     0.00  -0.00  -0.01    -0.04  -0.07  -0.12
  57   1     0.02   0.01   0.01     0.05  -0.01  -0.05    -0.02   0.06   0.04
  58   1     0.03  -0.01  -0.02     0.06   0.01   0.01    -0.01  -0.00  -0.01
  59   1     0.04  -0.01  -0.03     0.02   0.03   0.07     0.02  -0.08  -0.07
  60   1     0.05   0.02  -0.01    -0.02   0.00   0.04     0.01  -0.02  -0.02
  61   1     0.05   0.03   0.02    -0.01  -0.03  -0.04    -0.01   0.06   0.04
  62   1     0.06   0.02   0.02    -0.00   0.02  -0.06     0.03  -0.00   0.04
  63   1     0.01   0.01   0.01    -0.04   0.04  -0.03     0.01  -0.02   0.01
  64   1    -0.05  -0.01  -0.02    -0.03   0.02   0.01    -0.03  -0.02  -0.04
  65   1    -0.04  -0.01  -0.02     0.02  -0.01   0.04    -0.02   0.00  -0.02
  66   1     0.02  -0.00   0.01     0.04  -0.03   0.00     0.02   0.02   0.02
  67   1    -0.00  -0.02  -0.08    -0.01  -0.00   0.09    -0.08  -0.07  -0.04
  68   1    -0.01   0.00  -0.12     0.00   0.01   0.09    -0.10   0.01  -0.00
  69   1    -0.01   0.04   0.07    -0.01   0.02  -0.01    -0.00   0.06   0.04
  70   1    -0.01   0.07   0.13    -0.01  -0.00  -0.03    -0.00  -0.00  -0.06
                     19                     20                     21
                        a                      a                      a 
 Frequencies --   174.1777               194.3193               207.5614
 Red. masses --    10.7200                10.8779                10.1528
 Frc consts  --     0.0000                 0.0000                 0.0000
 IR Inten    --     1.9965                 0.1077                 0.3064
 Raman Activ --     0.0000                 0.0000                 0.0000
 Depolar     --     0.0000                 0.0000                 0.0000
 Atom AN      X      Y      Z        X      Y      Z        X      Y      Z
   1   6    -0.10  -0.16   0.16    -0.08  -0.05   0.01     0.02   0.00   0.04
   2   6     0.02  -0.01   0.01    -0.07   0.03   0.06     0.02  -0.01  -0.01
   3   6     0.10  -0.01  -0.04    -0.07   0.02   0.11     0.01  -0.02  -0.01
   4   6     0.08  -0.03  -0.05    -0.06   0.02   0.08     0.00  -0.03  -0.01
   5   6    -0.05  -0.04   0.02     0.00   0.04  -0.01    -0.01  -0.03   0.00
   6   6    -0.09  -0.02   0.04     0.03   0.08  -0.05    -0.01  -0.03  -0.00
   7   6     0.05   0.03  -0.05    -0.05   0.07   0.04     0.02  -0.02  -0.02
   8   6     0.13   0.03  -0.07    -0.09   0.05   0.11     0.02  -0.02  -0.02
   9   6     0.02   0.11  -0.13    -0.08   0.08  -0.00     0.03  -0.01  -0.04
  10   6     0.02   0.12  -0.13    -0.04   0.09  -0.01     0.01  -0.01  -0.04
  11   6     0.01   0.01   0.02    -0.01   0.00   0.01    -0.01  -0.00  -0.00
  12   6     0.01  -0.08   0.15    -0.04  -0.07   0.01     0.00   0.01   0.03
  13   6     0.02   0.02   0.01    -0.08  -0.03  -0.05     0.03   0.02   0.02
  14   6     0.04   0.13  -0.14    -0.11   0.05  -0.06     0.05   0.01  -0.02
  15   6    -0.10  -0.20   0.12    -0.05  -0.20  -0.15     0.01   0.05   0.07
  16   6    -0.22  -0.15   0.14    -0.01  -0.23  -0.17    -0.02   0.06   0.05
  17   6    -0.26   0.01   0.12    -0.01  -0.14   0.05    -0.02   0.04  -0.03
  18   6    -0.15   0.07  -0.03     0.03  -0.04   0.20    -0.02   0.02  -0.09
  19   6    -0.15   0.12  -0.09     0.04   0.07   0.16    -0.02  -0.01  -0.05
  20   6    -0.06   0.09  -0.06     0.04   0.08   0.05    -0.01  -0.02   0.06
  21   6    -0.02   0.01   0.05     0.04   0.13  -0.16    -0.01  -0.04   0.07
  22   6    -0.02  -0.01   0.11     0.06   0.16  -0.21    -0.03  -0.04   0.01
  23   6     0.02  -0.06   0.10     0.11   0.06  -0.12    -0.03  -0.04  -0.18
  24   6     0.09  -0.02  -0.03     0.04   0.00   0.08    -0.04   0.05   0.04
  25   6     0.09   0.01  -0.05     0.09  -0.09   0.06    -0.01  -0.14  -0.18
  26   6     0.13   0.01  -0.04     0.04  -0.12   0.02     0.06  -0.18  -0.19
  27   6     0.14   0.02  -0.01    -0.02   0.02   0.00     0.02   0.01   0.02
  28   6     0.13   0.04   0.01     0.02   0.13  -0.00    -0.06   0.15   0.18
  29   6     0.10   0.04   0.01     0.12   0.03  -0.06    -0.05  -0.09  -0.01
  30   6     0.09   0.03  -0.03     0.16  -0.08  -0.02    -0.02  -0.24  -0.20
  31   6     0.14  -0.03  -0.03    -0.04   0.01   0.12    -0.01   0.18   0.29
  32   6     0.12   0.03  -0.03    -0.02  -0.07   0.12     0.05   0.03   0.29
  33   6     0.00   0.04  -0.01     0.03  -0.11   0.06     0.02  -0.10   0.04
  34   6    -0.08  -0.02   0.00     0.04  -0.08  -0.00    -0.06  -0.02  -0.19
  35   6    -0.01  -0.07   0.04    -0.01  -0.00  -0.02     0.04   0.18  -0.09
  36   6     0.11  -0.08   0.02    -0.05   0.03   0.06     0.07   0.29   0.17
  37   6    -0.12   0.03   0.04     0.04   0.18  -0.22    -0.02  -0.05   0.05
  38   6    -0.16   0.11  -0.10     0.06   0.13  -0.02    -0.03  -0.03  -0.02
  39   6    -0.04   0.00  -0.08    -0.00  -0.07   0.11    -0.00   0.03  -0.07
  40   6    -0.01  -0.13   0.02    -0.02  -0.17  -0.12     0.01   0.05   0.04
  41   1    -0.06  -0.04   0.06    -0.04  -0.00   0.04     0.01  -0.00   0.01
  42   1     0.04  -0.01  -0.02    -0.02   0.00   0.03     0.00  -0.01  -0.00
  43   1    -0.03  -0.02   0.01     0.01   0.01  -0.02    -0.01  -0.01   0.01
  44   1    -0.06  -0.01   0.03     0.03   0.03  -0.04    -0.01  -0.01   0.00
  45   1     0.02   0.02  -0.02    -0.01   0.03   0.01     0.01  -0.00  -0.01
  46   1     0.06   0.02  -0.03    -0.03   0.02   0.04     0.01  -0.01  -0.01
  47   1     0.01   0.05  -0.06    -0.01   0.04  -0.00     0.00  -0.01  -0.02
  48   1    -0.00  -0.01   0.02     0.01  -0.00   0.01    -0.01  -0.00   0.00
  49   1    -0.00  -0.06   0.09    -0.00  -0.04   0.02    -0.00   0.00   0.02
  50   1     0.01   0.00   0.02    -0.03  -0.02  -0.02     0.01   0.01   0.01
  51   1     0.01   0.05  -0.06    -0.05   0.02  -0.03     0.02   0.00  -0.00
  52   1    -0.08  -0.06   0.04    -0.00  -0.08  -0.08    -0.01   0.02   0.03
  53   1    -0.11   0.02   0.05    -0.01  -0.04   0.02    -0.01   0.01  -0.01
  54   1    -0.00   0.04  -0.04     0.02   0.02   0.03    -0.00  -0.01   0.03
  55   1     0.00   0.00   0.02     0.00   0.04  -0.06     0.00  -0.01   0.03
  56   1    -0.00  -0.01   0.03     0.06   0.01  -0.05    -0.02  -0.04  -0.15
  57   1     0.04   0.01  -0.02     0.01  -0.06   0.00     0.03  -0.07  -0.08
  58   1     0.04   0.00  -0.00    -0.03   0.01   0.00     0.02   0.02   0.03
  59   1     0.04   0.01   0.01    -0.01   0.07   0.00    -0.03   0.11   0.12
  60   1     0.02   0.01   0.01     0.05   0.02  -0.03    -0.03  -0.03   0.01
  61   1     0.03   0.01  -0.01     0.07  -0.04  -0.01    -0.01  -0.10  -0.08
  62   1     0.05   0.02  -0.01    -0.01  -0.03   0.05     0.02  -0.01   0.13
  63   1    -0.01   0.03  -0.01     0.02  -0.05   0.02     0.00  -0.08   0.00
  64   1    -0.06  -0.01  -0.00     0.02  -0.03  -0.01    -0.05  -0.04  -0.12
  65   1    -0.01  -0.03   0.02    -0.00   0.01  -0.02     0.01   0.08  -0.07
  66   1     0.05  -0.04   0.01    -0.02   0.02   0.02     0.03   0.14   0.06
  67   1    -0.05  -0.01   0.03     0.01   0.06  -0.09    -0.00  -0.02   0.03
  68   1    -0.05   0.04  -0.05     0.02   0.03   0.00    -0.01  -0.01  -0.02
  69   1     0.01   0.01  -0.05    -0.00  -0.02   0.05     0.00   0.01  -0.03
  70   1     0.03  -0.05  -0.00     0.00  -0.06  -0.06     0.00   0.02   0.02
                     22                     23                     24
                        a                      a                      a 
 Frequencies --   213.2783               240.8061               244.1661
 Red. masses --    10.4459                10.3623                10.2984
 Frc consts  --     0.0000                 0.0000                 0.0000
 IR Inten    --     0.2778                 0.6515                 0.1763
 Raman Activ --     0.0000                 0.0000                 0.0000
 Depolar     --     0.0000                 0.0000                 0.0000
 Atom AN      X      Y      Z        X      Y      Z        X      Y      Z
   1   6     0.07  -0.03  -0.02    -0.03  -0.06  -0.16    -0.01  -0.05  -0.35
   2   6     0.05  -0.04   0.03    -0.02  -0.05   0.10    -0.00  -0.00   0.03
   3   6    -0.11  -0.12   0.27     0.15  -0.07   0.11     0.09  -0.03   0.13
   4   6    -0.20  -0.20   0.24     0.16  -0.16  -0.01     0.07  -0.10   0.06
   5   6    -0.13  -0.15   0.01     0.00  -0.14  -0.07     0.01  -0.06  -0.04
   6   6     0.09   0.01  -0.23    -0.12  -0.06  -0.00    -0.04   0.03  -0.04
   7   6     0.01   0.06  -0.05     0.03   0.05   0.00    -0.01   0.09   0.03
   8   6    -0.14  -0.03   0.26     0.18   0.02   0.05     0.07   0.05   0.11
   9   6     0.10   0.10  -0.21    -0.08   0.10   0.07    -0.08   0.08   0.10
  10   6     0.03   0.11  -0.22    -0.00   0.14   0.03    -0.00   0.10   0.08
  11   6    -0.04  -0.03   0.08     0.07   0.03   0.02     0.07   0.00   0.04
  12   6    -0.01  -0.05   0.22     0.02  -0.09   0.03     0.03  -0.06  -0.03
  13   6     0.08   0.16  -0.04    -0.07  -0.02  -0.07    -0.06  -0.02  -0.08
  14   6     0.13   0.20  -0.23    -0.12   0.09  -0.04    -0.13   0.04   0.02
  15   6     0.06   0.01  -0.02    -0.05   0.07  -0.07     0.01  -0.01  -0.17
  16   6     0.04   0.02  -0.02    -0.03   0.10  -0.00     0.06   0.03  -0.02
  17   6     0.04   0.01  -0.09    -0.01   0.07   0.01     0.07  -0.00   0.09
  18   6     0.03   0.03  -0.06    -0.03   0.03  -0.01     0.03  -0.05   0.11
  19   6     0.04   0.01   0.00    -0.02  -0.07  -0.05     0.00  -0.06  -0.07
  20   6     0.03  -0.00   0.03     0.02  -0.09  -0.06    -0.07  -0.03  -0.13
  21   6     0.04  -0.03   0.03     0.02  -0.12   0.03    -0.08   0.03  -0.03
  22   6    -0.00  -0.05   0.00     0.03  -0.12   0.07    -0.04   0.05   0.09
  23   6    -0.02  -0.03  -0.06     0.01   0.03   0.10    -0.05   0.05   0.22
  24   6    -0.02  -0.01  -0.02     0.03   0.06   0.09    -0.02  -0.02  -0.04
  25   6    -0.04   0.04   0.01     0.10  -0.08   0.08    -0.08   0.02  -0.12
  26   6    -0.05   0.06   0.03     0.07  -0.14   0.02    -0.04   0.02  -0.10
  27   6    -0.04   0.00   0.01     0.02  -0.03  -0.02    -0.00  -0.02   0.00
  28   6    -0.03  -0.07  -0.03     0.05   0.13   0.01    -0.07  -0.05   0.07
  29   6    -0.05  -0.02   0.01     0.14   0.05  -0.03    -0.14  -0.07   0.05
  30   6    -0.07   0.04   0.04     0.18  -0.08  -0.01    -0.15  -0.04  -0.06
  31   6    -0.01  -0.01  -0.02    -0.17   0.05  -0.02     0.17  -0.01  -0.01
  32   6    -0.01   0.00  -0.02    -0.25   0.01  -0.08     0.24   0.07   0.04
  33   6    -0.01   0.01  -0.01    -0.06   0.03  -0.03     0.05   0.06  -0.00
  34   6     0.00   0.01   0.01     0.18   0.13   0.05    -0.17  -0.03  -0.08
  35   6     0.00  -0.00   0.00    -0.02   0.12  -0.07     0.03  -0.04   0.04
  36   6    -0.01  -0.01  -0.01    -0.23   0.09  -0.14     0.23  -0.02   0.08
  37   6     0.01  -0.05   0.06    -0.00  -0.11   0.03     0.02   0.04  -0.07
  38   6     0.01  -0.03   0.06    -0.02  -0.09  -0.01     0.03  -0.02  -0.17
  39   6     0.06   0.04  -0.01    -0.06   0.08   0.08    -0.01   0.01   0.23
  40   6     0.07   0.02  -0.02    -0.07   0.09   0.01    -0.03  -0.00  -0.00
  41   1     0.03  -0.01  -0.02     0.01  -0.03  -0.09     0.00  -0.03  -0.16
  42   1    -0.06  -0.08   0.08     0.08  -0.08  -0.02     0.03  -0.05   0.02
  43   1    -0.05  -0.06  -0.02    -0.01  -0.06  -0.04    -0.00  -0.04  -0.04
  44   1     0.08   0.02  -0.15    -0.08  -0.01   0.01    -0.03   0.01  -0.03
  45   1     0.03   0.05  -0.04     0.00   0.05  -0.00    -0.01   0.05   0.01
  46   1    -0.05   0.01   0.11     0.08   0.03   0.02     0.04   0.03   0.04
  47   1     0.00   0.03  -0.09     0.01   0.07   0.00     0.01   0.05   0.03
  48   1    -0.04  -0.04   0.06     0.04   0.01   0.01     0.05  -0.00   0.02
  49   1    -0.02  -0.06   0.14     0.02  -0.06   0.02     0.02  -0.03  -0.02
  50   1     0.03   0.07  -0.00    -0.03  -0.02  -0.04    -0.03  -0.01  -0.05
  51   1     0.05   0.07  -0.07    -0.06   0.04  -0.03    -0.06   0.02  -0.00
  52   1     0.00   0.01   0.01    -0.00   0.04  -0.00     0.03   0.02  -0.01
  53   1     0.01   0.00  -0.03     0.00   0.02   0.01     0.03  -0.00   0.03
  54   1     0.01  -0.00   0.01     0.01  -0.02  -0.03    -0.03  -0.02  -0.05
  55   1     0.02  -0.01   0.01     0.01  -0.04   0.01    -0.04   0.01  -0.00
  56   1    -0.01  -0.01  -0.03    -0.02   0.02   0.04    -0.01   0.02   0.10
  57   1    -0.02   0.03   0.01     0.01  -0.06   0.01    -0.00   0.02  -0.03
  58   1    -0.01  -0.00   0.00    -0.02  -0.01  -0.01     0.02  -0.00   0.01
  59   1    -0.00  -0.04  -0.02    -0.00   0.08   0.01    -0.02  -0.02   0.04
  60   1    -0.01  -0.01  -0.00     0.05   0.03  -0.01    -0.05  -0.02   0.03
  61   1    -0.03   0.02   0.01     0.08  -0.04  -0.01    -0.07  -0.01  -0.02
  62   1    -0.01   0.00  -0.01    -0.10  -0.01  -0.03     0.10   0.04   0.02
  63   1    -0.00   0.00  -0.00    -0.01  -0.01  -0.01     0.01   0.03  -0.00
  64   1     0.00   0.00   0.01     0.13   0.05   0.05    -0.12  -0.02  -0.06
  65   1     0.00  -0.00   0.00     0.01   0.04  -0.02    -0.00  -0.02   0.02
  66   1    -0.00  -0.00  -0.00    -0.10   0.04  -0.06     0.10  -0.02   0.04
  67   1     0.00  -0.02   0.02    -0.01  -0.04   0.01     0.02   0.03  -0.02
  68   1    -0.00  -0.01   0.03    -0.01  -0.03  -0.00     0.01  -0.00  -0.07
  69   1     0.02   0.02   0.01    -0.02   0.03   0.05    -0.01   0.02   0.11
  70   1     0.02   0.01   0.00    -0.03   0.03   0.01    -0.03   0.01   0.00
                     25                     26                     27
                        a                      a                      a 
 Frequencies --   253.9724               280.8529               287.8707
 Red. masses --    10.5806                10.8312                10.5758
 Frc consts  --     0.0000                 0.0000                 0.0000
 IR Inten    --     1.3932                12.9276                 0.2189
 Raman Activ --     0.0000                 0.0000                 0.0000
 Depolar     --     0.0000                 0.0000                 0.0000
 Atom AN      X      Y      Z        X      Y      Z        X      Y      Z
   1   6     0.02  -0.00  -0.16    -0.01   0.05  -0.10    -0.03   0.09   0.18
   2   6     0.08   0.06  -0.15     0.01   0.01  -0.02    -0.04  -0.01   0.06
   3   6    -0.12   0.05  -0.04     0.01  -0.04  -0.00    -0.06  -0.04  -0.06
   4   6    -0.19   0.09   0.08    -0.02  -0.09  -0.03    -0.06  -0.08  -0.10
   5   6    -0.03   0.10   0.05    -0.04  -0.10  -0.03    -0.05  -0.12  -0.04
   6   6     0.13   0.07  -0.07    -0.01  -0.11  -0.05    -0.01  -0.20  -0.03
   7   6    -0.06  -0.01   0.01     0.02  -0.08  -0.03     0.03  -0.19  -0.06
   8   6    -0.21  -0.01   0.04     0.01  -0.09   0.00    -0.02  -0.16  -0.07
   9   6     0.15  -0.09  -0.05     0.03   0.03   0.02     0.02   0.04   0.01
  10   6     0.11  -0.16   0.04     0.10   0.03   0.03     0.11   0.08   0.00
  11   6     0.05  -0.04   0.06     0.11   0.01   0.05     0.12   0.06   0.03
  12   6     0.12   0.16  -0.02     0.12   0.06   0.04     0.13   0.04   0.10
  13   6     0.18   0.09   0.08     0.08   0.07   0.03     0.08   0.08   0.05
  14   6     0.22  -0.07   0.11     0.06   0.05   0.06     0.06   0.11   0.02
  15   6     0.02  -0.10  -0.16    -0.04   0.17   0.01    -0.09   0.18   0.00
  16   6    -0.04  -0.04  -0.05    -0.00   0.16   0.02    -0.03   0.12  -0.09
  17   6    -0.06   0.03   0.12     0.02  -0.02  -0.05     0.01   0.01  -0.03
  18   6    -0.08   0.01   0.13    -0.07  -0.11  -0.01    -0.05  -0.04   0.07
  19   6    -0.10  -0.02  -0.04    -0.08  -0.09   0.03    -0.03  -0.06   0.13
  20   6    -0.08  -0.03  -0.13    -0.16  -0.06   0.04    -0.04  -0.05   0.06
  21   6    -0.07  -0.08  -0.03    -0.19   0.09  -0.03    -0.06   0.02  -0.10
  22   6    -0.05  -0.09   0.12    -0.09   0.17  -0.06    -0.01   0.07  -0.13
  23   6    -0.05  -0.00   0.22    -0.03   0.05  -0.06     0.02   0.05   0.07
  24   6     0.02   0.04   0.06    -0.03   0.01  -0.02     0.01  -0.01   0.03
  25   6     0.06  -0.04   0.00     0.01   0.09  -0.13     0.04  -0.10   0.17
  26   6     0.08  -0.10  -0.04     0.17   0.15  -0.07    -0.08  -0.19   0.10
  27   6     0.06  -0.03  -0.02     0.23   0.08  -0.03    -0.15  -0.08   0.02
  28   6     0.06   0.11   0.05     0.22   0.03  -0.03    -0.11   0.05   0.02
  29   6     0.09   0.02  -0.01     0.07   0.08  -0.03     0.05  -0.03  -0.00
  30   6     0.11  -0.08  -0.05     0.02   0.14  -0.11     0.10  -0.13   0.09
  31   6    -0.02   0.03  -0.02    -0.05  -0.03   0.08     0.10  -0.02  -0.11
  32   6    -0.06   0.04  -0.04    -0.05  -0.19   0.08     0.16   0.13  -0.07
  33   6    -0.02   0.05  -0.02     0.01  -0.21   0.08     0.05   0.16  -0.04
  34   6     0.05   0.08   0.00     0.04  -0.21   0.11    -0.10   0.09  -0.08
  35   6    -0.01   0.06  -0.03    -0.05  -0.13   0.08     0.04   0.01  -0.01
  36   6    -0.05   0.04  -0.06    -0.11  -0.10   0.10     0.18  -0.01  -0.03
  37   6    -0.11  -0.07  -0.02    -0.04   0.15  -0.04    -0.01   0.07  -0.12
  38   6    -0.13  -0.03  -0.13     0.00  -0.00   0.03     0.01  -0.01   0.05
  39   6    -0.03   0.01   0.17    -0.13  -0.07   0.02    -0.15  -0.04  -0.03
  40   6    -0.03  -0.09  -0.05    -0.15   0.08   0.04    -0.17   0.09  -0.05
  41   1    -0.02   0.00  -0.05     0.01   0.00  -0.06     0.02   0.03   0.09
  42   1    -0.09   0.05   0.04     0.00  -0.04  -0.01    -0.01  -0.03  -0.04
  43   1    -0.01   0.04   0.03    -0.01  -0.03  -0.00    -0.01  -0.02   0.01
  44   1     0.10   0.03  -0.05    -0.00  -0.03  -0.02    -0.00  -0.06  -0.00
  45   1    -0.01  -0.02   0.01     0.01  -0.01  -0.01     0.02  -0.05  -0.03
  46   1    -0.09  -0.02   0.02    -0.00  -0.03   0.00    -0.02  -0.06  -0.03
  47   1     0.02  -0.07   0.02     0.03   0.02   0.01     0.04   0.04   0.01
  48   1    -0.02  -0.02   0.03     0.02  -0.00   0.02     0.03   0.02   0.01
  49   1     0.02   0.09  -0.03     0.03   0.02   0.01     0.04  -0.00   0.04
  50   1     0.06   0.04   0.03     0.02   0.02  -0.00     0.02   0.02   0.01
  51   1     0.10  -0.04   0.06     0.03   0.01   0.02     0.03   0.03   0.00
  52   1    -0.02  -0.02  -0.01     0.01   0.06   0.01     0.01   0.04  -0.05
  53   1    -0.01   0.02   0.06     0.04  -0.02  -0.03     0.03  -0.01  -0.02
  54   1    -0.02   0.00  -0.06    -0.06  -0.03   0.03    -0.01  -0.02   0.04
  55   1    -0.02  -0.02  -0.01    -0.09   0.04  -0.01    -0.04   0.01  -0.04
  56   1    -0.04   0.01   0.09     0.01   0.00  -0.04     0.02   0.03   0.08
  57   1     0.02  -0.04  -0.01     0.07   0.08  -0.04    -0.04  -0.09   0.04
  58   1     0.01  -0.01  -0.01     0.08   0.02  -0.01    -0.07  -0.03  -0.00
  59   1     0.01   0.07   0.03     0.07  -0.01  -0.00    -0.05   0.05  -0.00
  60   1     0.02   0.01   0.00    -0.00   0.01   0.01     0.04   0.00  -0.02
  61   1     0.04  -0.04  -0.02    -0.00   0.05  -0.03     0.06  -0.05   0.02
  62   1    -0.02   0.01  -0.02    -0.04  -0.08   0.04     0.07   0.06  -0.03
  63   1    -0.00   0.01  -0.01     0.00  -0.06   0.02     0.02   0.06  -0.01
  64   1     0.03   0.03   0.01     0.03  -0.06   0.03    -0.08   0.02  -0.03
  65   1    -0.00   0.02  -0.01    -0.01  -0.02  -0.00     0.00  -0.01   0.02
  66   1    -0.02   0.02  -0.02    -0.04  -0.04   0.02     0.08  -0.01   0.00
  67   1    -0.04  -0.03  -0.01     0.01   0.06  -0.02     0.00   0.03  -0.05
  68   1    -0.05  -0.00  -0.06     0.03  -0.01   0.02     0.02  -0.01   0.03
  69   1    -0.00   0.02   0.08    -0.05  -0.04   0.00    -0.06  -0.04  -0.03
  70   1    -0.02  -0.03  -0.02    -0.08   0.04   0.01    -0.08   0.03  -0.03
                     28                     29                     30
                        a                      a                      a 
 Frequencies --   306.1443               314.8805               357.6549
 Red. masses --    10.5922                10.2611                10.4272
 Frc consts  --     0.0000                 0.0000                 0.0000
 IR Inten    --     0.5923                 0.1043                 0.5049
 Raman Activ --     0.0000                 0.0000                 0.0000
 Depolar     --     0.0000                 0.0000                 0.0000
 Atom AN      X      Y      Z        X      Y      Z        X      Y      Z
   1   6    -0.04  -0.01   0.01    -0.06  -0.13  -0.42    -0.14  -0.09   0.02
   2   6    -0.04   0.04  -0.02     0.06   0.05  -0.17    -0.06  -0.01   0.04
   3   6    -0.13   0.03  -0.17     0.05   0.02  -0.04    -0.03  -0.01   0.04
   4   6    -0.19   0.02  -0.11    -0.04   0.00   0.05     0.04   0.01  -0.00
   5   6    -0.07  -0.03  -0.03    -0.03   0.02   0.02     0.02   0.02  -0.00
   6   6     0.06  -0.19  -0.07     0.05   0.04  -0.06    -0.03   0.03   0.04
   7   6    -0.04  -0.25  -0.05    -0.04   0.02   0.02     0.02   0.04  -0.02
   8   6    -0.15  -0.19  -0.12    -0.04   0.01   0.04     0.01   0.02   0.00
   9   6    -0.12   0.19   0.16    -0.03   0.08   0.05     0.05  -0.06  -0.08
  10   6     0.10   0.24   0.15     0.04   0.04   0.11     0.06  -0.10  -0.03
  11   6     0.22   0.11   0.09     0.11  -0.03   0.10     0.01  -0.03  -0.01
  12   6     0.17   0.00   0.06     0.10   0.05  -0.06     0.06   0.07   0.02
  13   6    -0.04   0.05  -0.00     0.01   0.01  -0.02     0.09   0.03   0.07
  14   6    -0.15   0.19   0.09    -0.04  -0.00   0.13     0.12  -0.02   0.01
  15   6     0.00  -0.13  -0.03     0.00  -0.09   0.13    -0.20  -0.07  -0.19
  16   6     0.01  -0.13  -0.00    -0.07  -0.03   0.22    -0.18  -0.01  -0.04
  17   6    -0.00   0.00   0.09    -0.10  -0.07  -0.13    -0.15   0.08   0.17
  18   6     0.07   0.05   0.00    -0.05  -0.06  -0.23    -0.06   0.05  -0.05
  19   6     0.08   0.05  -0.08    -0.06   0.04  -0.07     0.05  -0.14  -0.18
  20   6     0.12   0.04  -0.07    -0.04   0.04   0.11     0.08  -0.15  -0.16
  21   6     0.13  -0.03   0.06    -0.03   0.05   0.10     0.09  -0.03   0.22
  22   6     0.08  -0.08   0.10    -0.01   0.08  -0.11     0.16   0.11   0.01
  23   6     0.03  -0.02   0.00     0.03  -0.04  -0.26     0.15   0.09  -0.16
  24   6     0.01  -0.00  -0.01    -0.00  -0.03  -0.05     0.03  -0.02  -0.07
  25   6    -0.04   0.04  -0.09     0.05  -0.08   0.15     0.01  -0.04  -0.03
  26   6    -0.02   0.09  -0.05    -0.04  -0.10   0.13    -0.04  -0.04  -0.04
  27   6     0.01   0.03  -0.01    -0.10  -0.01   0.04    -0.09   0.12   0.07
  28   6    -0.02  -0.06   0.00    -0.03   0.01  -0.05    -0.06  -0.09  -0.04
  29   6    -0.08  -0.01   0.02     0.08   0.00  -0.02    -0.04  -0.08  -0.03
  30   6    -0.10   0.04  -0.03     0.11  -0.02   0.12    -0.07   0.10   0.12
  31   6    -0.04   0.02   0.05     0.02  -0.02  -0.05    -0.03   0.00   0.01
  32   6    -0.07  -0.02   0.03     0.05   0.04  -0.03     0.00  -0.01   0.02
  33   6    -0.03  -0.04   0.00     0.02   0.06  -0.01    -0.00  -0.03  -0.00
  34   6     0.05  -0.00   0.02    -0.04   0.03  -0.04    -0.00  -0.03  -0.00
  35   6    -0.01   0.02  -0.01     0.02   0.00  -0.01     0.01  -0.00   0.01
  36   6    -0.07   0.03  -0.00     0.07  -0.01  -0.01    -0.02   0.00   0.01
  37   6     0.07  -0.07   0.06    -0.03   0.07   0.07     0.21   0.10  -0.01
  38   6     0.05   0.01  -0.06    -0.01   0.05   0.11     0.22  -0.06   0.07
  39   6     0.09   0.04   0.01     0.01  -0.03  -0.08    -0.16   0.15   0.12
  40   6     0.09  -0.05   0.01     0.04  -0.04   0.19    -0.16   0.06  -0.02
  41   1    -0.03   0.01   0.04    -0.06  -0.06  -0.23    -0.04  -0.02   0.04
  42   1    -0.07   0.02  -0.02    -0.03  -0.00   0.03     0.02   0.01  -0.01
  43   1    -0.01   0.02   0.03    -0.02   0.00   0.01     0.01   0.00  -0.01
  44   1     0.06  -0.06  -0.02     0.04   0.01  -0.04    -0.02   0.01   0.02
  45   1    -0.01  -0.09  -0.01    -0.02   0.00   0.02     0.02   0.01  -0.01
  46   1    -0.08  -0.09  -0.05    -0.02   0.00   0.02     0.02   0.01  -0.00
  47   1     0.05   0.12   0.06     0.02   0.03   0.04     0.01  -0.04  -0.00
  48   1     0.10   0.04   0.02     0.04  -0.02   0.05    -0.02  -0.01   0.00
  49   1     0.07  -0.04   0.01     0.04   0.03  -0.05     0.01   0.04   0.00
  50   1    -0.04  -0.02  -0.04    -0.01  -0.01  -0.03     0.03   0.01   0.04
  51   1    -0.07   0.06   0.02    -0.02  -0.02   0.05     0.06  -0.01   0.01
  52   1    -0.00  -0.04  -0.00    -0.04  -0.01   0.10    -0.04   0.01   0.00
  53   1    -0.03   0.02   0.05    -0.05  -0.02  -0.06    -0.07   0.06   0.10
  54   1     0.04   0.02  -0.04    -0.01   0.00   0.06     0.01  -0.05  -0.08
  55   1     0.06  -0.02   0.02    -0.01   0.01   0.06    -0.01  -0.00   0.14
  56   1    -0.00  -0.01  -0.02     0.02  -0.02  -0.09     0.06   0.01  -0.07
  57   1     0.00   0.04  -0.02    -0.02  -0.06   0.04    -0.01  -0.04  -0.02
  58   1     0.02   0.01   0.01    -0.06  -0.00   0.01    -0.03   0.08   0.05
  59   1     0.00  -0.04   0.00    -0.01   0.01  -0.04    -0.01  -0.05  -0.03
  60   1    -0.03  -0.01   0.02     0.04   0.01  -0.03     0.00  -0.04  -0.03
  61   1    -0.05   0.02  -0.01     0.06  -0.00   0.04    -0.04   0.07   0.06
  62   1    -0.03  -0.02   0.01     0.02   0.02  -0.01     0.00  -0.01   0.01
  63   1    -0.01  -0.02  -0.00     0.01   0.02  -0.00    -0.00  -0.01  -0.00
  64   1     0.03   0.00   0.01    -0.03   0.01  -0.01    -0.00  -0.01  -0.00
  65   1     0.00   0.01  -0.01     0.00  -0.01   0.01     0.01   0.01   0.00
  66   1    -0.03   0.02  -0.01     0.03  -0.00   0.00    -0.01   0.00   0.00
  67   1     0.01  -0.03   0.02    -0.01   0.02   0.04     0.07   0.04  -0.01
  68   1     0.00   0.01  -0.03     0.01   0.01   0.06     0.12  -0.04   0.07
  69   1     0.03   0.02   0.01     0.02   0.01  -0.02    -0.05   0.05   0.08
  70   1     0.05  -0.02   0.01     0.03   0.00   0.10    -0.03   0.03   0.03
                     31                     32                     33
                        a                      a                      a 
 Frequencies --   365.8629               367.8457               369.0121
 Red. masses --     9.2247                 9.0918                 9.0580
 Frc consts  --     0.0000                 0.0000                 0.0000
 IR Inten    --     0.2015                 0.0849                 0.0150
 Raman Activ --     0.0000                 0.0000                 0.0000
 Depolar     --     0.0000                 0.0000                 0.0000
 Atom AN      X      Y      Z        X      Y      Z        X      Y      Z
   1   6    -0.01   0.02  -0.01    -0.02  -0.01   0.05    -0.06  -0.05  -0.02
   2   6     0.02   0.04  -0.09    -0.03  -0.02   0.09    -0.01  -0.01   0.00
   3   6     0.06  -0.01   0.03    -0.06  -0.00  -0.01    -0.00  -0.00   0.00
   4   6    -0.11  -0.07   0.14    -0.16   0.01   0.09     0.04   0.01  -0.02
   5   6     0.11  -0.02  -0.11     0.19   0.05  -0.15    -0.02   0.01   0.03
   6   6     0.01  -0.00  -0.03    -0.03  -0.01   0.05    -0.00   0.01   0.01
   7   6    -0.13  -0.01   0.13    -0.13  -0.05   0.11     0.03   0.02  -0.02
   8   6     0.15   0.03  -0.05     0.17   0.04  -0.20    -0.03   0.00   0.02
   9   6    -0.00   0.04  -0.05     0.00  -0.05   0.02     0.01  -0.01  -0.02
  10   6    -0.00   0.08  -0.09     0.03   0.18  -0.27     0.02  -0.03   0.00
  11   6    -0.01  -0.10   0.12    -0.02  -0.17   0.20     0.01  -0.01  -0.00
  12   6    -0.00   0.03  -0.04     0.01  -0.01   0.04     0.02   0.02   0.00
  13   6    -0.00   0.06  -0.08     0.02   0.20  -0.23     0.03   0.00   0.02
  14   6    -0.01  -0.09   0.11     0.02  -0.19   0.22     0.03  -0.00   0.01
  15   6    -0.01   0.00  -0.05    -0.02   0.01   0.06    -0.06  -0.02  -0.01
  16   6    -0.02  -0.12  -0.32    -0.01   0.06   0.16    -0.07  -0.01   0.03
  17   6    -0.02   0.14   0.32    -0.01  -0.07  -0.17    -0.06   0.01  -0.02
  18   6    -0.01   0.00  -0.02     0.00   0.01   0.02    -0.02   0.03  -0.03
  19   6    -0.00  -0.04  -0.00     0.01   0.02   0.02     0.02  -0.02  -0.01
  20   6     0.01  -0.05   0.12     0.02   0.03  -0.08     0.05  -0.03  -0.02
  21   6    -0.02   0.02  -0.13     0.04  -0.02   0.07     0.05  -0.02   0.04
  22   6     0.01   0.02  -0.01     0.02  -0.02  -0.00     0.06   0.01  -0.06
  23   6     0.01   0.02   0.00     0.01  -0.00   0.03     0.04   0.03  -0.02
  24   6     0.00   0.01   0.00     0.01  -0.00   0.01     0.01   0.00  -0.00
  25   6    -0.00   0.00   0.00    -0.00   0.01  -0.02    -0.01   0.00  -0.00
  26   6    -0.01   0.02   0.01    -0.01   0.02  -0.01    -0.10   0.32   0.22
  27   6     0.00  -0.02  -0.02     0.00  -0.01  -0.01     0.05  -0.30  -0.21
  28   6    -0.01  -0.00   0.00    -0.01  -0.01   0.00    -0.03  -0.01   0.00
  29   6    -0.01   0.02   0.01    -0.02   0.01   0.01    -0.11   0.29   0.22
  30   6     0.00  -0.02  -0.01    -0.01  -0.01  -0.02     0.06  -0.32  -0.22
  31   6     0.00  -0.00  -0.01    -0.00   0.00   0.01    -0.01   0.01   0.01
  32   6     0.04   0.01   0.02    -0.04  -0.01  -0.01     0.10   0.02   0.08
  33   6    -0.05  -0.02  -0.03     0.04   0.01   0.03    -0.08  -0.04  -0.05
  34   6     0.00  -0.01   0.01     0.00   0.00  -0.00    -0.01  -0.01  -0.01
  35   6     0.04   0.00   0.03    -0.04  -0.00  -0.03     0.10   0.03   0.07
  36   6    -0.05  -0.02  -0.03     0.03   0.02   0.03    -0.09  -0.02  -0.04
  37   6     0.04  -0.00   0.13    -0.00  -0.00  -0.11     0.06   0.02  -0.07
  38   6     0.02  -0.00  -0.10     0.01   0.00   0.08     0.07  -0.02   0.07
  39   6    -0.02  -0.10  -0.29    -0.01   0.05   0.12    -0.05   0.06   0.01
  40   6    -0.01   0.14   0.32    -0.01  -0.06  -0.16    -0.04   0.01  -0.01
  41   1    -0.00   0.03   0.08    -0.01  -0.02  -0.04    -0.02  -0.02  -0.02
  42   1    -0.08  -0.04   0.08    -0.10  -0.00   0.07     0.02   0.01  -0.01
  43   1     0.06  -0.01  -0.07     0.11   0.03  -0.09    -0.02  -0.00   0.01
  44   1     0.00   0.00  -0.02    -0.02  -0.01   0.03    -0.00   0.00   0.00
  45   1    -0.08  -0.00   0.07    -0.08  -0.03   0.07     0.02   0.01  -0.02
  46   1     0.08   0.02  -0.04     0.11   0.02  -0.11    -0.01   0.00   0.01
  47   1     0.00   0.04  -0.04     0.01   0.12  -0.16     0.00  -0.01   0.00
  48   1    -0.01  -0.06   0.08    -0.02  -0.10   0.12    -0.00  -0.00  -0.00
  49   1    -0.00   0.01  -0.02    -0.00  -0.01   0.02     0.01   0.01  -0.00
  50   1    -0.00   0.03  -0.04     0.01   0.13  -0.15     0.01  -0.00   0.01
  51   1    -0.01  -0.07   0.08     0.01  -0.11   0.13     0.02  -0.00   0.00
  52   1    -0.00  -0.07  -0.17    -0.00   0.03   0.07    -0.02   0.00   0.02
  53   1    -0.01   0.09   0.19    -0.00  -0.05  -0.10    -0.03   0.01  -0.00
  54   1     0.01  -0.02   0.08     0.01   0.01  -0.05     0.01  -0.01  -0.01
  55   1    -0.02   0.01  -0.08     0.02  -0.01   0.04     0.01  -0.01   0.04
  56   1     0.01   0.01  -0.00     0.00   0.00   0.02     0.01   0.01   0.01
  57   1    -0.00   0.01   0.01    -0.00   0.01   0.00    -0.06   0.20   0.13
  58   1     0.00  -0.01  -0.01     0.01  -0.00  -0.00     0.04  -0.19  -0.13
  59   1    -0.00   0.00   0.00    -0.00  -0.00   0.00    -0.01  -0.01  -0.00
  60   1    -0.00   0.01   0.01    -0.01   0.01   0.01    -0.06   0.18   0.13
  61   1     0.00  -0.01  -0.01    -0.01  -0.01  -0.01     0.04  -0.20  -0.14
  62   1     0.03   0.01   0.01    -0.02  -0.01  -0.01     0.06   0.01   0.05
  63   1    -0.03  -0.01  -0.02     0.02   0.00   0.02    -0.05  -0.02  -0.03
  64   1     0.00  -0.00   0.00     0.00   0.00  -0.00    -0.01  -0.01  -0.01
  65   1     0.03   0.01   0.02    -0.02  -0.00  -0.02     0.06   0.02   0.04
  66   1    -0.03  -0.01  -0.02     0.02   0.01   0.02    -0.05  -0.01  -0.03
  67   1     0.02  -0.00   0.08    -0.01   0.00  -0.06     0.02   0.01  -0.03
  68   1     0.02   0.00  -0.06    -0.00  -0.00   0.05     0.03  -0.01   0.05
  69   1    -0.01  -0.06  -0.15    -0.00   0.02   0.06    -0.01   0.02   0.01
  70   1    -0.00   0.08   0.19    -0.00  -0.04  -0.10    -0.00   0.00  -0.00
                     34                     35                     36
                        a                      a                      a 
 Frequencies --   373.0119               381.5246               385.7374
 Red. masses --     8.9989                 9.7486                 9.3558
 Frc consts  --     0.0000                 0.0000                 0.0000
 IR Inten    --     1.0666                 0.1288                 0.9413
 Raman Activ --     0.0000                 0.0000                 0.0000
 Depolar     --     0.0000                 0.0000                 0.0000
 Atom AN      X      Y      Z        X      Y      Z        X      Y      Z
   1   6     0.03   0.02   0.03     0.09   0.04   0.08     0.00   0.00  -0.03
   2   6    -0.01  -0.01   0.05    -0.01  -0.02   0.08     0.04   0.04  -0.10
   3   6    -0.04  -0.00   0.00    -0.08  -0.01   0.01     0.06  -0.01  -0.00
   4   6    -0.03   0.01   0.00    -0.20  -0.02   0.12    -0.19  -0.08   0.19
   5   6     0.04   0.01  -0.03     0.15   0.03  -0.13     0.10  -0.02  -0.12
   6   6    -0.01  -0.01   0.02    -0.02  -0.02   0.02     0.03  -0.01  -0.06
   7   6    -0.01  -0.02   0.01    -0.13  -0.06   0.10    -0.17  -0.03   0.15
   8   6     0.03   0.00  -0.05     0.14   0.02  -0.18     0.18   0.02  -0.10
   9   6     0.00  -0.02   0.02     0.01  -0.02   0.04     0.01   0.08  -0.06
  10   6    -0.00   0.01  -0.02    -0.01  -0.06   0.09    -0.01  -0.11   0.18
  11   6    -0.00   0.01  -0.00    -0.01   0.12  -0.13     0.01   0.10  -0.10
  12   6    -0.01  -0.02   0.02    -0.03  -0.05   0.06    -0.00   0.02  -0.03
  13   6    -0.00   0.01  -0.02    -0.01  -0.05   0.07    -0.01  -0.12   0.15
  14   6    -0.00   0.00  -0.01     0.00   0.13  -0.17    -0.00   0.14  -0.16
  15   6     0.03   0.01  -0.02     0.08  -0.03  -0.16     0.01   0.02   0.10
  16   6     0.03   0.05   0.08     0.07   0.04   0.02    -0.01  -0.01   0.01
  17   6     0.04  -0.04  -0.06     0.07   0.04   0.09    -0.02   0.01  -0.03
  18   6     0.01  -0.03   0.01     0.01  -0.04  -0.02    -0.01   0.03   0.01
  19   6    -0.01   0.01  -0.05    -0.02  -0.05  -0.20    -0.01   0.03   0.10
  20   6    -0.04   0.00   0.05    -0.13  -0.04  -0.02     0.00   0.05  -0.20
  21   6    -0.04   0.03  -0.04    -0.14   0.06   0.08     0.04  -0.06   0.17
  22   6    -0.04   0.02   0.03    -0.10   0.09   0.07    -0.00  -0.06  -0.06
  23   6    -0.01  -0.03  -0.07    -0.05  -0.05  -0.23    -0.02   0.02   0.12
  24   6    -0.01   0.00  -0.01    -0.06  -0.03  -0.09     0.00   0.03   0.05
  25   6     0.01  -0.01   0.03     0.02  -0.08   0.08    -0.02   0.05  -0.01
  26   6     0.02  -0.09  -0.02    -0.00   0.02   0.16     0.02  -0.03  -0.07
  27   6    -0.02   0.06   0.05    -0.00  -0.07  -0.02     0.02   0.02   0.00
  28   6     0.01   0.01  -0.01     0.05   0.01  -0.05    -0.00   0.02   0.03
  29   6     0.04  -0.05  -0.05     0.06   0.11   0.03    -0.00  -0.05  -0.03
  30   6     0.01   0.07   0.07     0.11  -0.07   0.01    -0.03   0.03  -0.01
  31   6     0.01  -0.01  -0.01    -0.04  -0.02  -0.04     0.01   0.01   0.01
  32   6     0.33   0.09   0.19    -0.06  -0.01  -0.06     0.08   0.01   0.05
  33   6    -0.30  -0.08  -0.20     0.09   0.03   0.05    -0.05  -0.02  -0.03
  34   6    -0.00   0.00   0.00    -0.03  -0.01  -0.03    -0.00  -0.01   0.00
  35   6     0.30   0.08   0.20    -0.05  -0.02  -0.04     0.06   0.01   0.04
  36   6    -0.31  -0.10  -0.21     0.10   0.02   0.05    -0.06  -0.02  -0.03
  37   6    -0.01   0.01   0.12    -0.02   0.05   0.23    -0.05  -0.01  -0.34
  38   6    -0.03   0.02  -0.12    -0.02  -0.03  -0.12    -0.01  -0.03   0.29
  39   6     0.02   0.01   0.13     0.07   0.03   0.17    -0.00  -0.02  -0.12
  40   6     0.01  -0.05  -0.10     0.06  -0.04  -0.08     0.01   0.01   0.05
  41   1     0.01   0.00   0.00     0.04   0.02   0.07    -0.01   0.00  -0.00
  42   1    -0.01   0.01   0.00    -0.09  -0.00   0.06    -0.10  -0.04   0.10
  43   1     0.03   0.01  -0.02     0.10   0.02  -0.08     0.07  -0.00  -0.07
  44   1    -0.01  -0.01   0.01    -0.00  -0.01   0.01     0.02   0.00  -0.04
  45   1    -0.01  -0.01   0.00    -0.07  -0.03   0.06    -0.10  -0.01   0.09
  46   1     0.02  -0.00  -0.03     0.10   0.01  -0.11     0.10   0.02  -0.06
  47   1    -0.00   0.01  -0.01    -0.01  -0.04   0.05    -0.01  -0.08   0.11
  48   1    -0.00   0.00  -0.00     0.00   0.07  -0.08     0.01   0.05  -0.06
  49   1    -0.00  -0.01   0.01    -0.01  -0.03   0.04     0.00   0.01  -0.01
  50   1    -0.00   0.01  -0.01    -0.00  -0.03   0.05    -0.00  -0.08   0.10
  51   1    -0.00   0.00  -0.00    -0.01   0.07  -0.09    -0.01   0.06  -0.07
  52   1     0.01   0.03   0.05     0.02   0.03   0.05    -0.01  -0.02  -0.01
  53   1     0.02  -0.02  -0.04     0.03   0.02   0.06    -0.01  -0.00  -0.02
  54   1    -0.01  -0.01   0.04    -0.05  -0.04   0.02     0.00   0.04  -0.14
  55   1    -0.02   0.01  -0.03    -0.06   0.02   0.04     0.03  -0.03   0.11
  56   1    -0.00  -0.02  -0.05    -0.01  -0.03  -0.12    -0.01   0.02   0.07
  57   1     0.01  -0.05  -0.02    -0.01   0.03   0.07     0.01  -0.02  -0.03
  58   1    -0.02   0.04   0.03    -0.02  -0.04  -0.03     0.01   0.01   0.01
  59   1     0.00   0.00  -0.01     0.01   0.00  -0.03    -0.00   0.01   0.02
  60   1     0.02  -0.04  -0.03     0.02   0.06   0.02    -0.00  -0.03  -0.01
  61   1     0.00   0.04   0.04     0.06  -0.04  -0.01    -0.02   0.01  -0.00
  62   1     0.20   0.06   0.12    -0.04  -0.01  -0.03     0.05   0.01   0.03
  63   1    -0.20  -0.05  -0.13     0.06   0.02   0.04    -0.03  -0.01  -0.02
  64   1    -0.00   0.00   0.00    -0.02  -0.00  -0.01    -0.00  -0.00  -0.00
  65   1     0.19   0.05   0.13    -0.03  -0.01  -0.02     0.04   0.01   0.02
  66   1    -0.20  -0.06  -0.13     0.07   0.01   0.04    -0.04  -0.01  -0.02
  67   1     0.00   0.00   0.07     0.02   0.02   0.12    -0.03   0.00  -0.18
  68   1    -0.01   0.01  -0.07     0.01  -0.01  -0.05    -0.01  -0.02   0.17
  69   1     0.01   0.02   0.06     0.03   0.04   0.10    -0.00  -0.02  -0.07
  70   1    -0.00  -0.02  -0.06     0.01  -0.01  -0.02     0.01  -0.00   0.01
                     37                     38                     39
                        a                      a                      a 
 Frequencies --   389.9301               400.0120               411.9048
 Red. masses --     9.8298                10.1967                 9.9376
 Frc consts  --     0.0000                 0.0000                 0.0000
 IR Inten    --     0.2594                 0.0778                 1.2180
 Raman Activ --     0.0000                 0.0000                 0.0000
 Depolar     --     0.0000                 0.0000                 0.0000
 Atom AN      X      Y      Z        X      Y      Z        X      Y      Z
   1   6    -0.13  -0.07  -0.08     0.04  -0.13  -0.04     0.03   0.07   0.25
[...]
  50   1     0.00  -0.00  -0.00     0.00  -0.00  -0.00     0.13  -0.05  -0.04
  51   1     0.00  -0.00  -0.00     0.00  -0.00  -0.00     0.05  -0.56  -0.48
  52   1     0.02  -0.02   0.01    -0.00   0.00  -0.00     0.00  -0.00   0.00
  53   1     0.02   0.06  -0.03    -0.00  -0.00   0.00     0.00   0.01  -0.00
  54   1    -0.02   0.03   0.01     0.00  -0.00  -0.00    -0.02   0.02   0.00
  55   1    -0.00  -0.00  -0.00    -0.00  -0.00  -0.00     0.00   0.01   0.00
  56   1    -0.00  -0.02   0.00    -0.00  -0.02   0.01    -0.00  -0.00   0.00
  57   1     0.10  -0.03   0.08     0.49  -0.16   0.43    -0.00   0.00  -0.00
  58   1    -0.01  -0.02   0.03    -0.05  -0.18   0.24     0.00   0.00  -0.00
  59   1     0.06   0.02  -0.01     0.14   0.05  -0.03     0.00   0.00  -0.00
  60   1     0.04  -0.01   0.03     0.29  -0.10   0.24    -0.00   0.00  -0.00
  61   1    -0.00  -0.00   0.00    -0.08  -0.26   0.34     0.00   0.00  -0.00
  62   1    -0.30   0.48   0.26     0.04  -0.06  -0.03    -0.00   0.00   0.00
  63   1    -0.15  -0.04   0.24     0.02   0.01  -0.04    -0.00  -0.00   0.00
  64   1     0.01   0.25  -0.12    -0.00  -0.02   0.01    -0.00  -0.00   0.00
  65   1    -0.22   0.34   0.19     0.03  -0.05  -0.03     0.00  -0.00  -0.00
  66   1    -0.15  -0.04   0.24     0.04   0.01  -0.07    -0.00  -0.00   0.00
  67   1     0.00  -0.00  -0.00     0.01  -0.01  -0.00    -0.00   0.00  -0.00
  68   1     0.05   0.16   0.02    -0.00  -0.01  -0.00    -0.00  -0.01  -0.00
  69   1     0.10  -0.10   0.04    -0.01   0.01  -0.01     0.01  -0.01   0.00
  70   1    -0.02  -0.06   0.02     0.00   0.01  -0.00    -0.00  -0.00   0.00
                    196                    197                    198
                        a                      a                      a 
 Frequencies --  3082.3769              3082.7771              3084.4486
 Red. masses --     1.8475                 1.8410                 1.8321
 Frc consts  --     0.0000                 0.0000                 0.0000
 IR Inten    --   290.1853                70.8804                24.6251
 Raman Activ --     0.0000                 0.0000                 0.0000
 Depolar     --     0.0000                 0.0000                 0.0000
 Atom AN      X      Y      Z        X      Y      Z        X      Y      Z
   1   6     0.00  -0.00   0.00    -0.00  -0.00   0.00    -0.00  -0.00   0.00
   2   6    -0.00   0.00   0.00    -0.00   0.00  -0.00    -0.00   0.00  -0.00
   3   6    -0.00   0.00  -0.00    -0.00   0.00  -0.00    -0.00   0.00  -0.00
   4   6    -0.05  -0.02  -0.06    -0.02  -0.01  -0.03    -0.01  -0.00  -0.01
   5   6    -0.04   0.06  -0.04    -0.02   0.03  -0.02    -0.01   0.01  -0.00
   6   6     0.01   0.10   0.03     0.00   0.05   0.02     0.00   0.00   0.00
   7   6    -0.02  -0.01  -0.03    -0.01  -0.00  -0.01    -0.01  -0.00  -0.01
   8   6    -0.10   0.13  -0.09    -0.05   0.07  -0.04    -0.01   0.02  -0.01
   9   6     0.00   0.00   0.00     0.00   0.00   0.00    -0.00  -0.00  -0.00
  10   6    -0.00   0.00   0.00    -0.00   0.00   0.00    -0.00   0.00   0.00
  11   6    -0.00   0.01   0.01    -0.00   0.00   0.00    -0.00   0.00   0.00
  12   6     0.01   0.01   0.00     0.01   0.00   0.00     0.01   0.01   0.01
  13   6    -0.00   0.00   0.00    -0.00   0.00   0.00     0.00  -0.00  -0.00
  14   6    -0.00   0.02   0.02    -0.00   0.01   0.01    -0.00   0.00   0.00
  15   6     0.00  -0.00   0.00    -0.00   0.00  -0.00     0.00  -0.00   0.00
  16   6    -0.01   0.01  -0.01    -0.01   0.01  -0.00     0.03  -0.03   0.01
  17   6     0.01   0.02  -0.01    -0.00  -0.01   0.01     0.02   0.05  -0.02
  18   6    -0.00   0.00  -0.00     0.01  -0.00   0.00     0.00   0.00  -0.00
  19   6     0.00   0.00   0.00     0.00  -0.00  -0.00    -0.01  -0.00   0.00
  20   6    -0.02   0.02   0.01     0.08  -0.09  -0.02    -0.14   0.16   0.04
  21   6     0.00   0.01   0.00    -0.01  -0.04  -0.00     0.02   0.06   0.01
  22   6     0.00  -0.00  -0.00    -0.00   0.00   0.00     0.00  -0.00  -0.00
  23   6    -0.00  -0.00   0.00    -0.00  -0.00   0.00     0.00   0.00  -0.00
  24   6    -0.00   0.00   0.00     0.00  -0.00   0.00     0.00  -0.00  -0.00
  25   6     0.00   0.00  -0.00     0.00  -0.00   0.00     0.00   0.00  -0.00
  26   6     0.00  -0.00   0.00     0.00  -0.00   0.00     0.00  -0.00   0.00
  27   6    -0.00  -0.00   0.00    -0.00  -0.00   0.00    -0.00  -0.00   0.00
  28   6    -0.00  -0.00   0.00    -0.00  -0.00   0.00    -0.00  -0.00   0.00
  29   6    -0.00   0.00  -0.00    -0.00   0.00  -0.00    -0.00   0.00  -0.00
  30   6     0.00   0.00  -0.00    -0.00  -0.00   0.00    -0.00  -0.00   0.00
  31   6     0.00   0.00  -0.00    -0.00  -0.00  -0.00    -0.00  -0.00   0.00
  32   6    -0.00   0.00   0.00     0.00  -0.00  -0.00     0.01  -0.01  -0.01
  33   6    -0.00  -0.00   0.00     0.00   0.00  -0.00     0.00   0.00  -0.00
  34   6     0.00   0.00  -0.00     0.00   0.00  -0.00    -0.00  -0.00   0.00
  35   6    -0.00   0.00   0.00     0.00  -0.00  -0.00     0.00  -0.01  -0.00
  36   6    -0.00  -0.00   0.00     0.00   0.00  -0.00     0.00   0.00  -0.00
  37   6     0.02  -0.02  -0.00    -0.02   0.02   0.01    -0.03   0.03   0.01
  38   6     0.02   0.06   0.01    -0.03  -0.09  -0.01    -0.02  -0.07  -0.01
  39   6    -0.06   0.06  -0.02     0.12  -0.11   0.05     0.06  -0.06   0.03
  40   6     0.01   0.03  -0.01    -0.02  -0.06   0.02    -0.01  -0.03   0.01
  41   1     0.00   0.00  -0.00     0.00   0.01  -0.00     0.00   0.01  -0.00
  42   1     0.17   0.07   0.22     0.08   0.03   0.10     0.03   0.01   0.04
  43   1     0.14  -0.18   0.12     0.07  -0.09   0.06     0.02  -0.02   0.01
  44   1    -0.03  -0.34  -0.11    -0.01  -0.17  -0.05    -0.00  -0.01  -0.00
  45   1     0.07   0.03   0.09     0.03   0.01   0.04     0.02   0.01   0.02
  46   1     0.35  -0.46   0.30     0.17  -0.23   0.15     0.05  -0.07   0.04
  47   1     0.02  -0.01  -0.00     0.01  -0.01  -0.00     0.01  -0.00  -0.00
  48   1     0.00  -0.02  -0.02     0.00  -0.01  -0.01     0.00  -0.01  -0.01
  49   1    -0.04  -0.02  -0.02    -0.03  -0.01  -0.01    -0.05  -0.02  -0.02
  50   1     0.01  -0.01  -0.00     0.00  -0.00  -0.00    -0.01   0.01   0.00
  51   1     0.01  -0.07  -0.06     0.00  -0.03  -0.03     0.00  -0.01  -0.00
  52   1     0.05  -0.05   0.02     0.02  -0.02   0.01    -0.10   0.10  -0.05
  53   1    -0.02  -0.06   0.02     0.02   0.05  -0.02    -0.06  -0.20   0.09
  54   1     0.08  -0.08  -0.02    -0.29   0.33   0.07     0.49  -0.55  -0.13
  55   1    -0.01  -0.03  -0.00     0.04   0.12   0.01    -0.06  -0.20  -0.02
  56   1     0.00   0.00  -0.00     0.00   0.00  -0.00    -0.00  -0.01   0.00
  57   1    -0.00   0.00  -0.00    -0.00   0.00  -0.00    -0.00   0.00  -0.00
  58   1     0.00   0.00  -0.00     0.00   0.00  -0.00     0.00   0.00  -0.01
  59   1     0.00   0.00  -0.00     0.00   0.00  -0.00     0.01   0.00  -0.00
  60   1     0.00  -0.00   0.00     0.00  -0.00   0.00     0.00  -0.00   0.00
  61   1    -0.00  -0.00   0.00     0.00   0.00  -0.00     0.00   0.00  -0.00
  62   1     0.01  -0.02  -0.01    -0.01   0.01   0.00    -0.02   0.03   0.02
  63   1     0.00   0.00  -0.01    -0.01  -0.00   0.01    -0.00  -0.00   0.01
  64   1    -0.00  -0.01   0.00    -0.00  -0.01   0.00     0.00   0.01  -0.01
  65   1     0.01  -0.01  -0.01    -0.00   0.00   0.00    -0.01   0.02   0.01
  66   1     0.01   0.00  -0.01    -0.01  -0.00   0.01    -0.01  -0.00   0.02
  67   1    -0.06   0.07   0.02     0.09  -0.10  -0.03     0.11  -0.12  -0.03
  68   1    -0.07  -0.22  -0.03     0.10   0.31   0.04     0.08   0.26   0.04
  69   1     0.22  -0.21   0.09    -0.41   0.40  -0.17    -0.22   0.22  -0.09
  70   1    -0.03  -0.08   0.03     0.06   0.19  -0.08     0.03   0.10  -0.04
                    199                    200                    201
                        a                      a                      a 
 Frequencies --  3087.5634              3088.1901              3088.4257
 Red. masses --     1.9208                 1.9083                 1.9160
 Frc consts  --     0.0000                 0.0000                 0.0000
 IR Inten    --    77.2028               338.8466                44.3494
 Raman Activ --     0.0000                 0.0000                 0.0000
 Depolar     --     0.0000                 0.0000                 0.0000
 Atom AN      X      Y      Z        X      Y      Z        X      Y      Z
   1   6     0.00   0.00  -0.00     0.00   0.00  -0.00     0.00   0.00  -0.00
   2   6     0.00   0.00   0.00    -0.00  -0.00  -0.00    -0.00  -0.00  -0.00
   3   6    -0.00  -0.00  -0.00    -0.00  -0.00  -0.00    -0.00  -0.00  -0.00
   4   6    -0.00  -0.00  -0.00    -0.01  -0.00  -0.01    -0.01  -0.00  -0.01
   5   6    -0.00   0.00  -0.00    -0.01   0.02  -0.01    -0.01   0.02  -0.01
   6   6     0.00   0.00   0.00     0.00   0.05   0.02     0.00   0.05   0.02
   7   6     0.00   0.00   0.00     0.02   0.01   0.03     0.02   0.01   0.03
   8   6     0.00  -0.00   0.00     0.02  -0.03   0.02     0.02  -0.03   0.02
   9   6     0.00   0.00   0.00    -0.00  -0.00  -0.00    -0.00  -0.00  -0.00
  10   6     0.00  -0.00  -0.00    -0.05   0.02   0.01    -0.02   0.01   0.01
  11   6     0.00  -0.00  -0.00    -0.00   0.06   0.05    -0.00   0.03   0.02
  12   6    -0.01  -0.01  -0.01     0.15   0.07   0.06     0.06   0.03   0.03
  13   6    -0.01   0.00   0.00     0.08  -0.04  -0.03     0.03  -0.01  -0.01
  14   6    -0.00   0.01   0.01     0.00  -0.08  -0.07     0.00  -0.03  -0.03
  15   6    -0.00   0.00   0.00     0.00   0.00  -0.00     0.00   0.00  -0.00
  16   6    -0.00   0.00  -0.00     0.00  -0.00   0.00    -0.00   0.00  -0.00
  17   6     0.00   0.00  -0.00    -0.00  -0.00   0.00    -0.00  -0.00   0.00
  18   6     0.00  -0.00   0.00    -0.00  -0.00   0.00    -0.00  -0.00   0.00
  19   6    -0.00   0.00   0.00     0.00   0.00  -0.00     0.00   0.00   0.00
  20   6    -0.00   0.00   0.00     0.00  -0.00  -0.00     0.00  -0.00  -0.00
  21   6     0.00   0.00   0.00    -0.00  -0.00  -0.00    -0.00  -0.00  -0.00
  22   6     0.00  -0.00   0.00    -0.00  -0.00  -0.00     0.00   0.00   0.00
  23   6    -0.00  -0.00   0.00     0.00   0.00  -0.00    -0.00  -0.00   0.00
  24   6     0.00  -0.00   0.00    -0.00   0.00  -0.00     0.00  -0.00   0.00
  25   6    -0.00  -0.00   0.00    -0.00  -0.00   0.00     0.01   0.00  -0.00
  26   6    -0.02   0.01  -0.01    -0.04   0.01  -0.03     0.07  -0.02   0.06
  27   6     0.00   0.02  -0.02     0.01   0.03  -0.04    -0.02  -0.06   0.08
  28   6     0.04   0.01  -0.01     0.07   0.03  -0.01    -0.14  -0.05   0.02
  29   6     0.02  -0.01   0.02     0.04  -0.01   0.03    -0.08   0.03  -0.07
  30   6    -0.00  -0.01   0.02    -0.01  -0.02   0.03     0.01   0.05  -0.06
  31   6    -0.00  -0.01   0.00     0.00   0.00  -0.00    -0.00  -0.00   0.00
  32   6     0.06  -0.09  -0.05    -0.00   0.00   0.00     0.01  -0.02  -0.01
  33   6     0.07   0.02  -0.12    -0.00  -0.00   0.01     0.02   0.00  -0.03
  34   6     0.00   0.15  -0.07    -0.00  -0.01   0.00     0.00   0.03  -0.02
  35   6    -0.06   0.09   0.05     0.00  -0.00  -0.00    -0.01   0.02   0.01
  36   6    -0.03  -0.01   0.06     0.00   0.00  -0.00    -0.01  -0.00   0.02
  37   6     0.00  -0.01  -0.00     0.00  -0.00  -0.00     0.00  -0.00  -0.00
  38   6    -0.00  -0.00  -0.00     0.00   0.00   0.00    -0.00  -0.00  -0.00
  39   6    -0.00   0.00  -0.00    -0.00   0.00  -0.00    -0.00   0.00  -0.00
  40   6     0.00   0.00  -0.00     0.00   0.00  -0.00     0.00   0.00  -0.00
  41   1    -0.00  -0.00   0.00    -0.00  -0.00   0.00    -0.00  -0.00   0.00
  42   1     0.00   0.00   0.00     0.02   0.01   0.03     0.03   0.01   0.04
  43   1     0.00  -0.00   0.00     0.04  -0.06   0.04     0.04  -0.06   0.04
  44   1    -0.00  -0.00  -0.00    -0.01  -0.18  -0.06    -0.01  -0.18  -0.06
  45   1    -0.00  -0.00  -0.00    -0.07  -0.03  -0.09    -0.07  -0.03  -0.09
  46   1    -0.00   0.00  -0.00    -0.07   0.10  -0.06    -0.08   0.10  -0.07
  47   1    -0.01   0.01   0.00     0.17  -0.07  -0.05     0.07  -0.03  -0.02
  48   1    -0.00   0.01   0.01     0.01  -0.20  -0.16     0.01  -0.08  -0.07
  49   1     0.04   0.02   0.02    -0.50  -0.24  -0.22    -0.20  -0.10  -0.09
  50   1     0.02  -0.01  -0.01    -0.27   0.11   0.08    -0.11   0.05   0.03
  51   1     0.00  -0.02  -0.02    -0.02   0.26   0.23    -0.01   0.11   0.09
  52   1     0.00  -0.00   0.00    -0.00   0.00  -0.00     0.00  -0.00   0.00
  53   1    -0.00  -0.00   0.00     0.00   0.01  -0.00     0.00   0.01  -0.00
  54   1     0.01  -0.01  -0.00    -0.01   0.01   0.00    -0.01   0.01   0.00
  55   1    -0.00  -0.00  -0.00     0.00   0.01   0.00     0.00   0.00   0.00
  56   1     0.00   0.00  -0.00    -0.00  -0.00   0.00     0.00   0.01  -0.00
  57   1     0.06  -0.02   0.05     0.12  -0.04   0.11    -0.24   0.08  -0.21
  58   1    -0.02  -0.05   0.07    -0.03  -0.10   0.14     0.06   0.20  -0.27
  59   1    -0.13  -0.05   0.02    -0.24  -0.09   0.04     0.47   0.18  -0.08
  60   1    -0.07   0.02  -0.05    -0.13   0.04  -0.11     0.25  -0.09   0.21
  61   1     0.01   0.04  -0.05     0.02   0.08  -0.10    -0.05  -0.16   0.21
  62   1    -0.19   0.31   0.17     0.01  -0.02  -0.01    -0.04   0.07   0.04
  63   1    -0.24  -0.06   0.40     0.01   0.00  -0.02    -0.05  -0.01   0.09
  64   1    -0.01  -0.50   0.24     0.00   0.02  -0.01    -0.00  -0.11   0.05
  65   1     0.18  -0.28  -0.16    -0.01   0.01   0.01     0.04  -0.07  -0.04
  66   1     0.12   0.03  -0.19    -0.01  -0.00   0.01     0.03   0.01  -0.05
  67   1    -0.02   0.02   0.01    -0.01   0.01   0.00    -0.01   0.02   0.00
  68   1     0.00   0.01   0.00    -0.00  -0.01  -0.00     0.00   0.00   0.00
  69   1     0.00  -0.00   0.00     0.01  -0.01   0.00     0.01  -0.01   0.00
  70   1    -0.00  -0.00   0.00    -0.00  -0.01   0.00    -0.00  -0.01   0.00
                    202                    203                    204
                        a                      a                      a 
 Frequencies --  3089.7275              3096.9786              3098.4236
 Red. masses --     1.9074                 1.8500                 1.8559
 Frc consts  --     0.0000                 0.0000                 0.0000
 IR Inten    --   104.0459                78.3217                32.7804
 Raman Activ --     0.0000                 0.0000                 0.0000
 Depolar     --     0.0000                 0.0000                 0.0000
 Atom AN      X      Y      Z        X      Y      Z        X      Y      Z
   1   6    -0.00  -0.00   0.00     0.00   0.00  -0.00     0.00   0.00  -0.00
   2   6    -0.00  -0.00  -0.00    -0.00   0.00  -0.00     0.00   0.00  -0.00
   3   6    -0.00  -0.01  -0.00     0.00   0.00  -0.00     0.00   0.00  -0.00
   4   6    -0.04  -0.02  -0.06    -0.00  -0.00  -0.00     0.00   0.00   0.00
   5   6    -0.04   0.06  -0.04     0.00  -0.00   0.00     0.00  -0.00   0.00
   6   6     0.01   0.16   0.05    -0.00  -0.01  -0.00    -0.00  -0.00  -0.00
   7   6     0.07   0.03   0.08    -0.01  -0.00  -0.01    -0.00  -0.00  -0.00
   8   6     0.07  -0.09   0.06    -0.01   0.02  -0.01    -0.01   0.01  -0.01
   9   6     0.00   0.00   0.00    -0.00  -0.00  -0.00    -0.00  -0.00  -0.00
  10   6     0.03  -0.01  -0.01    -0.00   0.00   0.00    -0.00   0.00   0.00
  11   6     0.00  -0.03  -0.02    -0.00   0.00   0.00    -0.00   0.00   0.00
  12   6    -0.06  -0.03  -0.03     0.00   0.00   0.00     0.00   0.00   0.00
  13   6    -0.04   0.02   0.01     0.00  -0.00  -0.00     0.00  -0.00  -0.00
  14   6    -0.00   0.04   0.03     0.00  -0.00  -0.00     0.00  -0.00  -0.00
  15   6     0.00  -0.00  -0.00     0.01  -0.00   0.00     0.00  -0.00   0.00
  16   6     0.02  -0.02   0.01     0.17  -0.16   0.08     0.05  -0.05   0.02
  17   6    -0.00  -0.01   0.00    -0.03  -0.08   0.04    -0.01  -0.03   0.01
  18   6    -0.00   0.00  -0.00    -0.00   0.00  -0.00    -0.00   0.00  -0.00
  19   6    -0.00  -0.00   0.00    -0.00  -0.00   0.00     0.00  -0.00  -0.00
  20   6    -0.00   0.01   0.00     0.01  -0.01  -0.00     0.01  -0.01  -0.00
  21   6     0.00   0.00   0.00    -0.00  -0.00  -0.00    -0.00  -0.01  -0.00
  22   6    -0.00   0.00   0.00     0.00   0.00  -0.00    -0.01  -0.00   0.00
  23   6     0.00   0.00  -0.00     0.00  -0.00   0.00    -0.00   0.00  -0.00
  24   6     0.00  -0.00  -0.00    -0.00   0.00  -0.00     0.00  -0.00  -0.00
  25   6    -0.00  -0.00   0.00     0.00   0.00  -0.00     0.00   0.00   0.00
  26   6    -0.01   0.00  -0.01     0.00  -0.00   0.00     0.00  -0.00   0.00
  27   6     0.00   0.01  -0.01    -0.00  -0.00   0.00    -0.00  -0.00   0.00
  28   6     0.02   0.01  -0.00    -0.00  -0.00   0.00    -0.00  -0.00   0.00
  29   6     0.01  -0.00   0.01    -0.00   0.00  -0.00    -0.00   0.00  -0.00
  30   6    -0.00  -0.01   0.01     0.00   0.00  -0.00     0.00   0.00  -0.00
  31   6     0.00   0.00  -0.00     0.00   0.00   0.00    -0.00  -0.00  -0.00
  32   6    -0.00   0.01   0.00    -0.00   0.00   0.00     0.01  -0.01  -0.01
  33   6    -0.00  -0.00   0.01    -0.00   0.00   0.00     0.00   0.00  -0.01
  34   6    -0.00  -0.01   0.00     0.00   0.00  -0.00    -0.00   0.00  -0.00
  35   6     0.00  -0.01  -0.00    -0.00   0.00   0.00     0.00  -0.00  -0.00
  36   6     0.00   0.00  -0.01    -0.00  -0.00   0.00     0.00   0.00  -0.00
  37   6    -0.01   0.01   0.00     0.05  -0.06  -0.02    -0.16   0.18   0.05
  38   6    -0.00  -0.00  -0.00    -0.01  -0.03  -0.00     0.03   0.10   0.01
  39   6     0.00  -0.00   0.00    -0.01   0.01  -0.00    -0.01   0.01  -0.00
  40   6    -0.00  -0.00   0.00     0.00   0.01  -0.00     0.00   0.01  -0.00
  41   1     0.00   0.01  -0.00    -0.00  -0.00   0.00    -0.00  -0.00   0.00
  42   1     0.15   0.06   0.20     0.01   0.00   0.01    -0.00  -0.00  -0.00
  43   1     0.14  -0.19   0.12    -0.00   0.00  -0.00    -0.00   0.01  -0.00
  44   1    -0.04  -0.53  -0.17     0.00   0.02   0.01     0.00   0.02   0.00
  45   1    -0.21  -0.08  -0.26     0.02   0.01   0.03     0.01   0.00   0.01
  46   1    -0.23   0.31  -0.21     0.05  -0.07   0.04     0.02  -0.03   0.02
  47   1    -0.09   0.04   0.03     0.01  -0.01  -0.00     0.01  -0.00  -0.00
  48   1    -0.01   0.09   0.07     0.00  -0.01  -0.01     0.00  -0.01  -0.01
  49   1     0.20   0.10   0.09    -0.01  -0.00  -0.00    -0.01  -0.01  -0.00
  50   1     0.12  -0.05  -0.04    -0.01   0.00   0.00    -0.01   0.00   0.00
  51   1     0.01  -0.14  -0.12    -0.00   0.00   0.00    -0.00   0.01   0.01
  52   1    -0.06   0.06  -0.03    -0.59   0.57  -0.27    -0.18   0.17  -0.08
  53   1     0.01   0.02  -0.01     0.08   0.25  -0.11     0.03   0.08  -0.04
  54   1     0.02  -0.02  -0.00    -0.03   0.03   0.01    -0.04   0.05   0.01
  55   1    -0.00  -0.01  -0.00     0.00   0.00   0.00     0.01   0.04   0.00
  56   1    -0.00  -0.00   0.00     0.00   0.00  -0.00     0.00   0.00  -0.00
  57   1     0.04  -0.01   0.03    -0.00   0.00  -0.00    -0.01   0.00  -0.01
  58   1    -0.01  -0.03   0.04     0.00   0.00  -0.00     0.00   0.00  -0.01
  59   1    -0.07  -0.03   0.01     0.00   0.00  -0.00     0.01   0.00  -0.00
  60   1    -0.04   0.01  -0.03     0.00  -0.00   0.00     0.00  -0.00   0.00
  61   1     0.01   0.03  -0.03    -0.00  -0.00   0.00    -0.00  -0.00   0.00
  62   1     0.01  -0.02  -0.01     0.01  -0.01  -0.01    -0.02   0.04   0.02
  63   1     0.01   0.00  -0.03     0.00   0.00  -0.00    -0.01  -0.00   0.02
  64   1     0.00   0.03  -0.01    -0.00  -0.00   0.00    -0.00  -0.01   0.00
  65   1    -0.01   0.02   0.01     0.00  -0.01  -0.00    -0.00   0.00   0.00
  66   1    -0.01  -0.00   0.02     0.00   0.00  -0.01    -0.01  -0.00   0.01
  67   1     0.02  -0.02  -0.01    -0.18   0.20   0.05     0.56  -0.62  -0.16
  68   1     0.00   0.00   0.00     0.03   0.08   0.01    -0.10  -0.31  -0.04
  69   1    -0.01   0.01  -0.00     0.02  -0.02   0.01     0.04  -0.04   0.02
  70   1     0.00   0.00  -0.00    -0.01  -0.04   0.01    -0.01  -0.02   0.01
