 Entering Gaussian System
 *********************************************
 Gaussian 98:
 frequency output generated by the xtb code
 *********************************************
                         Standard orientation:
 --------------------------------------------------------------------
  Center     Atomic     Atomic              Coordinates (Angstroms)
  Number     Number      Type              X           Y           Z
 --------------------------------------------------------------------
    1          6             0        4.802544   -4.055842   -1.033064
    2          6             0        3.653989   -3.962416   -0.264898
    3          6             0        3.113212   -2.724820    0.030561
    4          6             0        3.710065   -1.562079   -0.444240
    5          6             0        3.159430   -0.203561   -0.054536
    6          6             0        1.645848   -0.173504   -0.005506
    7          6             0        0.978544    0.583680    0.948441
    8          6             0       -0.402456    0.645550    0.955468
    9          6             0       -1.159343   -0.027966    0.003526
   10         14             0       -3.051182    0.019236    0.010795
   11          6             0       -3.737671   -1.612278    0.689659
   12          6             0       -2.970694   -2.772441    0.716681
   13          6             0       -3.491415   -3.961681    1.194564
   14          6             0       -4.795916   -4.011387    1.655856
   15          6             0       -5.572853   -2.864949    1.640659
   16          6             0       -5.045488   -1.679250    1.162804
   17          6             0       -3.649138    0.282227   -1.768183
   18          6             0       -2.951980    1.130247   -2.624660
   19          6             0       -3.387064    1.353888   -3.918110
   20          6             0       -4.533101    0.728734   -4.380710
   21          6             0       -5.236255   -0.121193   -3.543769
   22          6             0       -4.795915   -0.339920   -2.250674
   23          6             0       -3.668321    1.429701    1.114466
   24          6             0       -4.114003    2.632604    0.576858
   25          6             0       -4.554403    3.659220    1.393014
   26          6             0       -4.555332    3.499244    2.768361
   27          6             0       -4.116145    2.307511    3.320934
   28          6             0       -3.678644    1.285005    2.499247
   29          6             0       -0.479869   -0.762130   -0.965829
   30          6             0        0.898326   -0.836308   -0.973774
   31          6             0        3.609598    0.917536   -0.970674
   32          6             0        3.307003    1.137153   -2.276199
   33          6             0        3.843562    2.265501   -2.928246
   34          6             0        4.681057    3.169661   -2.232931
   35          6             0        4.994216    2.986493   -0.922823
   36          6             0        4.460875    1.844207   -0.233619
   37          6             0        4.594827    1.410208    1.065537
   38          6             0        5.323436    1.941676    2.183831
   39          6             0        5.269085    1.288206    3.374835
   40          6             0        4.515931    0.101441    3.535443
   41          6             0        3.795625   -0.443678    2.453536
   42          6             0        3.821821    0.188378    1.251980
   43          6             0        4.869932   -1.663284   -1.201419
   44          6             0        5.408944   -2.902346   -1.498915
   45          1             0        5.224349   -5.022957   -1.263824
   46          1             0        3.177189   -4.858186    0.106155
   47          1             0        2.213985   -2.659745    0.626349
   48          1             0        1.545460    1.124469    1.693181
   49          1             0       -0.903955    1.234420    1.710308
   50          1             0       -1.950318   -2.739327    0.361985
   51          1             0       -2.879602   -4.852610    1.208023
   52          1             0       -5.205275   -4.939289    2.028582
   53          1             0       -6.590679   -2.896814    2.002941
   54          1             0       -5.653832   -0.785220    1.160610
   55          1             0       -2.053721    1.616465   -2.269582
   56          1             0       -2.832705    2.016248   -4.567933
   57          1             0       -4.875533    0.901801   -5.390821
   58          1             0       -6.129303   -0.614116   -3.900984
   59          1             0       -5.346588   -1.007967   -1.603611
   60          1             0       -4.119128    2.761546   -0.496348
   61          1             0       -4.898877    4.586151    0.956821
   62          1             0       -4.899212    4.299437    3.407859
   63          1             0       -4.116829    2.176443    4.393835
   64          1             0       -3.343205    0.353839    2.934798
   65          1             0       -1.044865   -1.279900   -1.728738
   66          1             0        1.401325   -1.423140   -1.729546
   67          1             0        2.670403    0.458222   -2.824378
   68          1             0        3.617254    2.441138   -3.967672
   69          1             0        5.071663    4.022782   -2.769283
   70          1             0        5.626791    3.678470   -0.388864
   71          1             0        5.902243    2.843449    2.057795
   72          1             0        5.810658    1.671261    4.228070
   73          1             0        4.494744   -0.390195    4.494756
   74          1             0        3.228094   -1.351878    2.594655
   75          1             0        5.352770   -0.766079   -1.561533
   76          1             0        6.308506   -2.965926   -2.093753
 --------------------------------------------------------------------
     1 basis functions        1 primitive gaussians
     1 alpha electrons        1 beta electrons
 
 Harmonic frequencies (cm**-1), IR intensities (km*mol⁻¹),
 Raman scattering activities (A**4/amu), Raman depolarization ratios,
 reduced masses (AMU), force constants (mDyne/A) and normal coordinates:
                      1                      2                      3
                        a                      a                      a 
 Frequencies --     6.9334                12.6215                19.9174
 Red. masses --    10.9356                10.9565                10.6532
 Frc consts  --     0.0000                 0.0000                 0.0000
 IR Inten    --     0.0413                 0.0276                 0.0764
 Raman Activ --     0.0000                 0.0000                 0.0000
 Depolar     --     0.0000                 0.0000                 0.0000
 Atom AN      X      Y      Z        X      Y      Z        X      Y      Z
   1   6     0.00  -0.05   0.21    -0.14  -0.05   0.09     0.08  -0.00   0.07
   2   6     0.00  -0.01   0.20    -0.16   0.01   0.05     0.04  -0.01   0.01
   3   6     0.00   0.00   0.14    -0.12   0.04   0.02     0.02  -0.02  -0.01
   4   6     0.00  -0.02   0.08    -0.05   0.00   0.02     0.03  -0.01   0.02
   5   6     0.00  -0.00   0.01    -0.00   0.03  -0.01     0.01  -0.02  -0.00
   6   6     0.00  -0.00   0.01    -0.00   0.09  -0.05     0.01  -0.02  -0.04
   7   6     0.00   0.02  -0.01    -0.01   0.09  -0.05    -0.00  -0.02  -0.05
   8   6     0.00   0.01  -0.00    -0.01   0.10  -0.06    -0.00  -0.02  -0.07
   9   6     0.00  -0.02   0.02    -0.00   0.11  -0.07     0.01  -0.03  -0.07
  10  14     0.00  -0.02   0.01    -0.01   0.07  -0.05     0.01  -0.04  -0.08
  11   6    -0.02  -0.03  -0.07     0.10   0.01  -0.02     0.02  -0.03  -0.04
  12   6    -0.03  -0.04  -0.08     0.16   0.04  -0.05    -0.01  -0.05  -0.14
  13   6    -0.05  -0.05  -0.14     0.23   0.02  -0.04    -0.00  -0.05  -0.14
  14   6    -0.06  -0.06  -0.18     0.25  -0.05   0.00     0.04  -0.03  -0.02
  15   6    -0.06  -0.06  -0.16     0.19  -0.09   0.04     0.07  -0.01   0.08
  16   6    -0.04  -0.04  -0.11     0.12  -0.06   0.02     0.06  -0.01   0.07
  17   6     0.02   0.07   0.01    -0.07   0.03  -0.01    -0.08  -0.01  -0.02
  18   6     0.05   0.09   0.06    -0.14   0.07  -0.03    -0.03  -0.14  -0.11
  19   6     0.07   0.16   0.06    -0.20   0.06  -0.01    -0.12  -0.12  -0.08
  20   6     0.05   0.21   0.03    -0.18   0.01   0.02    -0.25   0.04   0.05
  21   6     0.03   0.19  -0.02    -0.11  -0.04   0.04    -0.30   0.17   0.14
  22   6     0.01   0.12  -0.02    -0.06  -0.03   0.02    -0.21   0.14   0.11
  23   6     0.00  -0.06   0.07    -0.05   0.00  -0.01     0.08  -0.01  -0.03
  24   6     0.00  -0.03   0.12    -0.16  -0.03   0.02     0.20   0.04  -0.02
  25   6     0.00  -0.07   0.16    -0.20  -0.06   0.04     0.28   0.06  -0.01
  26   6    -0.00  -0.13   0.15    -0.13  -0.06   0.04     0.25   0.04  -0.01
  27   6    -0.00  -0.15   0.10    -0.01  -0.03   0.02     0.13  -0.01  -0.02
  28   6    -0.00  -0.12   0.06     0.03   0.00  -0.01     0.05  -0.03  -0.03
  29   6     0.00  -0.04   0.04    -0.00   0.12  -0.08     0.02  -0.02  -0.07
  30   6     0.00  -0.04   0.04    -0.00   0.11  -0.07     0.02  -0.02  -0.05
  31   6    -0.01  -0.05  -0.06     0.08  -0.00  -0.01     0.02  -0.01   0.01
  32   6    -0.01  -0.13  -0.07     0.12   0.00  -0.02     0.08  -0.04  -0.01
  33   6    -0.02  -0.16  -0.13     0.21  -0.04  -0.02     0.07  -0.03   0.00
  34   6    -0.02  -0.11  -0.19     0.25  -0.08  -0.01    -0.02   0.03   0.04
  35   6    -0.02  -0.04  -0.18     0.20  -0.08  -0.00    -0.08   0.06   0.06
  36   6    -0.01  -0.00  -0.11     0.12  -0.04   0.00    -0.06   0.03   0.04
  37   6    -0.00   0.07  -0.09     0.06  -0.03   0.01    -0.09   0.04   0.05
  38   6     0.00   0.13  -0.12     0.06  -0.06   0.02    -0.16   0.08   0.08
  39   6     0.01   0.20  -0.09    -0.02  -0.04   0.03    -0.17   0.07   0.07
  40   6     0.03   0.20  -0.02    -0.09   0.01   0.03    -0.10   0.02   0.04
  41   6     0.02   0.14   0.02    -0.09   0.03   0.01    -0.03  -0.01   0.01
  42   6     0.01   0.07  -0.02    -0.02   0.01   0.00    -0.03   0.00   0.02
  43   6     0.00  -0.06   0.09    -0.03  -0.06   0.06     0.07  -0.00   0.07
  44   6     0.00  -0.08   0.15    -0.08  -0.09   0.09     0.09   0.00   0.10
  45   1     0.00  -0.02   0.08    -0.05  -0.02   0.03     0.03  -0.00   0.03
  46   1     0.00   0.00   0.07    -0.06   0.01   0.02     0.01  -0.00  -0.00
  47   1    -0.00   0.01   0.04    -0.04   0.02  -0.00    -0.00  -0.01  -0.01
  48   1     0.00   0.01  -0.01    -0.00   0.02  -0.01    -0.00  -0.01  -0.01
  49   1    -0.00   0.01  -0.01    -0.00   0.03  -0.02    -0.00  -0.01  -0.02
  50   1    -0.00  -0.01  -0.01     0.04   0.03  -0.03    -0.01  -0.02  -0.06
  51   1    -0.02  -0.02  -0.04     0.08   0.01  -0.02    -0.01  -0.02  -0.06
  52   1    -0.02  -0.02  -0.06     0.09  -0.02   0.00     0.01  -0.01  -0.01
  53   1    -0.02  -0.02  -0.06     0.06  -0.04   0.02     0.03   0.00   0.05
  54   1    -0.01  -0.01  -0.03     0.02  -0.03   0.01     0.02   0.00   0.05
  55   1     0.02   0.02   0.02    -0.04   0.03  -0.02     0.02  -0.07  -0.06
  56   1     0.03   0.05   0.03    -0.07   0.03  -0.01    -0.02  -0.06  -0.04
  57   1     0.02   0.07   0.01    -0.07  -0.00   0.01    -0.09   0.02   0.02
  58   1     0.00   0.07  -0.01    -0.03  -0.02   0.02    -0.12   0.09   0.07
  59   1    -0.00   0.03  -0.02    -0.00  -0.02   0.01    -0.07   0.07   0.05
  60   1     0.00   0.00   0.04    -0.06  -0.01   0.00     0.06   0.02  -0.00
  61   1     0.00  -0.01   0.06    -0.08  -0.03   0.02     0.11   0.03   0.00
  62   1    -0.00  -0.04   0.05    -0.05  -0.03   0.02     0.09   0.02   0.00
  63   1    -0.00  -0.06   0.03     0.01  -0.01   0.00     0.03  -0.01  -0.01
  64   1     0.00  -0.04   0.01     0.03   0.01  -0.01    -0.01  -0.02  -0.01
  65   1     0.00  -0.02   0.02     0.00   0.04  -0.03     0.01  -0.01  -0.02
  66   1     0.00  -0.02   0.02     0.00   0.03  -0.02     0.01  -0.01  -0.01
  67   1    -0.00  -0.05  -0.01     0.03   0.01  -0.01     0.04  -0.02  -0.01
  68   1    -0.01  -0.06  -0.04     0.07  -0.01  -0.01     0.03  -0.01  -0.00
  69   1    -0.01  -0.04  -0.07     0.09  -0.03  -0.00    -0.01   0.01   0.02
  70   1    -0.01  -0.00  -0.06     0.07  -0.03   0.00    -0.04   0.03   0.03
  71   1    -0.00   0.04  -0.05     0.03  -0.03   0.01    -0.06   0.03   0.03
  72   1     0.00   0.07  -0.03    -0.00  -0.02   0.01    -0.06   0.03   0.03
  73   1     0.01   0.07   0.00    -0.04   0.01   0.01    -0.03   0.00   0.01
  74   1     0.01   0.04   0.02    -0.04   0.02   0.00     0.00  -0.01  -0.00
  75   1     0.00  -0.02   0.01     0.00  -0.02   0.02     0.02   0.00   0.03
  76   1     0.00  -0.03   0.05    -0.02  -0.04   0.03     0.04   0.00   0.04
                      4                      5                      6
                        a                      a                      a 
 Frequencies --    23.7123                24.9069                27.2358
 Red. masses --    10.0268                10.2274                10.5380
 Frc consts  --     0.0000                 0.0000                 0.0000
 IR Inten    --     0.0518                 0.0147                 0.0189
 Raman Activ --     0.0000                 0.0000                 0.0000
 Depolar     --     0.0000                 0.0000                 0.0000
 Atom AN      X      Y      Z        X      Y      Z        X      Y      Z
   1   6     0.06   0.03  -0.00     0.02  -0.07  -0.01    -0.01  -0.06  -0.05
   2   6     0.07   0.01   0.02    -0.01  -0.07  -0.05     0.00  -0.06  -0.04
   3   6     0.06   0.01   0.02    -0.00  -0.07  -0.05     0.01  -0.06  -0.02
   4   6     0.03   0.01   0.01     0.02  -0.07  -0.01     0.01  -0.06  -0.01
   5   6     0.02   0.01   0.02     0.03  -0.07  -0.02     0.02  -0.06  -0.00
   6   6     0.02  -0.01   0.03     0.03  -0.05  -0.02     0.02  -0.05   0.01
   7   6     0.02   0.00   0.02     0.04  -0.04  -0.02     0.04  -0.03   0.01
   8   6     0.02   0.00   0.03     0.04  -0.01  -0.03     0.04  -0.01   0.00
   9   6     0.02  -0.01   0.04     0.03   0.01  -0.03     0.03   0.01   0.00
  10  14     0.03   0.00   0.03     0.05   0.05  -0.03     0.05   0.03  -0.01
  11   6    -0.02   0.01   0.00     0.03   0.04  -0.00     0.08   0.01   0.02
  12   6    -0.12  -0.06  -0.21     0.01   0.03  -0.03     0.16   0.07   0.16
  13   6    -0.16  -0.06  -0.24     0.01   0.04  -0.01     0.22   0.07   0.23
  14   6    -0.10   0.02  -0.07     0.03   0.06   0.04     0.19   0.01   0.15
  15   6    -0.00   0.09   0.14     0.04   0.08   0.07     0.11  -0.05   0.00
  16   6     0.04   0.08   0.17     0.05   0.07   0.05     0.05  -0.05  -0.06
  17   6     0.02   0.00   0.02     0.03   0.04  -0.02     0.04   0.06  -0.01
  18   6     0.13  -0.16  -0.06    -0.05   0.15   0.03     0.15  -0.06  -0.04
  19   6     0.12  -0.17  -0.06    -0.05   0.15   0.03     0.15   0.00  -0.02
  20   6    -0.00  -0.01   0.03     0.03   0.03  -0.02     0.03   0.19   0.02
  21   6    -0.12   0.16   0.10     0.12  -0.08  -0.07    -0.08   0.31   0.05
  22   6    -0.10   0.16   0.10     0.11  -0.08  -0.07    -0.08   0.24   0.03
  23   6    -0.03   0.00  -0.01     0.04   0.02  -0.00    -0.04   0.01  -0.03
  24   6    -0.27  -0.10  -0.04    -0.22  -0.07   0.01    -0.02   0.00  -0.06
  25   6    -0.35  -0.12  -0.07    -0.22  -0.09   0.03    -0.13  -0.02  -0.08
  26   6    -0.19  -0.03  -0.06     0.04  -0.01   0.04    -0.25  -0.04  -0.09
  27   6     0.06   0.08  -0.02     0.29   0.07   0.03    -0.26  -0.03  -0.06
  28   6     0.14   0.09   0.00     0.29   0.09   0.01    -0.16  -0.01  -0.03
  29   6     0.02  -0.02   0.05     0.02   0.00  -0.03     0.02  -0.01   0.01
  30   6     0.02  -0.02   0.04     0.02  -0.03  -0.03     0.01  -0.04   0.01
  31   6     0.01   0.01   0.01     0.01  -0.06  -0.01    -0.01  -0.05  -0.00
  32   6    -0.04   0.03   0.03     0.09  -0.12  -0.04     0.01  -0.08  -0.01
  33   6    -0.03   0.02   0.02     0.01  -0.08  -0.02    -0.05  -0.05  -0.01
  34   6     0.02  -0.01  -0.00    -0.16   0.04   0.03    -0.13   0.01   0.01
  35   6     0.07  -0.03  -0.02    -0.24   0.10   0.06    -0.15   0.04   0.02
  36   6     0.05  -0.02  -0.01    -0.14   0.04   0.03    -0.08   0.01   0.01
  37   6     0.07  -0.02  -0.01    -0.15   0.05   0.04    -0.06   0.01   0.01
  38   6     0.12  -0.04  -0.03    -0.25   0.12   0.07    -0.09   0.04   0.01
  39   6     0.11  -0.03  -0.02    -0.18   0.08   0.05    -0.03   0.02   0.00
  40   6     0.07  -0.01  -0.00    -0.02  -0.03  -0.00     0.06  -0.04  -0.02
  41   6     0.04   0.01   0.01     0.07  -0.09  -0.03     0.09  -0.08  -0.02
  42   6     0.04   0.00   0.01    -0.00  -0.05  -0.01     0.03  -0.05  -0.01
  43   6     0.02   0.03  -0.01     0.05  -0.07   0.03     0.01  -0.06  -0.02
  44   6     0.03   0.04  -0.02     0.05  -0.07   0.03    -0.00  -0.06  -0.04
  45   1     0.02   0.01  -0.00     0.00  -0.02  -0.00    -0.00  -0.02  -0.02
  46   1     0.03   0.00   0.01    -0.01  -0.02  -0.02    -0.00  -0.02  -0.01
  47   1     0.02  -0.00   0.01    -0.01  -0.02  -0.02     0.01  -0.02  -0.00
  48   1     0.01   0.00   0.00     0.01  -0.02  -0.01     0.01  -0.01   0.00
  49   1     0.01   0.00   0.00     0.02   0.00  -0.01     0.01   0.00  -0.00
  50   1    -0.05  -0.04  -0.10    -0.00   0.00  -0.02     0.05   0.03   0.07
  51   1    -0.07  -0.03  -0.12    -0.00   0.01  -0.01     0.08   0.03   0.10
  52   1    -0.04   0.01  -0.03     0.01   0.02   0.02     0.07   0.00   0.06
  53   1     0.01   0.04   0.08     0.02   0.03   0.03     0.03  -0.03  -0.02
  54   1     0.03   0.04   0.10     0.02   0.02   0.02    -0.00  -0.03  -0.05
  55   1     0.06  -0.08  -0.03    -0.03   0.07   0.02     0.07  -0.06  -0.02
  56   1     0.06  -0.09  -0.03    -0.03   0.07   0.02     0.07  -0.03  -0.01
  57   1    -0.00  -0.00   0.01     0.01   0.01  -0.01     0.01   0.07   0.01
  58   1    -0.06   0.09   0.05     0.05  -0.05  -0.03    -0.05   0.13   0.02
  59   1    -0.05   0.09   0.05     0.05  -0.05  -0.03    -0.05   0.10   0.02
  60   1    -0.12  -0.05  -0.01    -0.12  -0.04   0.00     0.02   0.00  -0.02
  61   1    -0.16  -0.06  -0.03    -0.12  -0.05   0.01    -0.03  -0.01  -0.03
  62   1    -0.07  -0.01  -0.02     0.01  -0.01   0.02    -0.10  -0.02  -0.03
  63   1     0.06   0.04  -0.00     0.14   0.04   0.01    -0.10  -0.01  -0.02
  64   1     0.09   0.05   0.01     0.14   0.04  -0.00    -0.05  -0.00  -0.00
  65   1     0.01  -0.01   0.01     0.00   0.01  -0.01     0.00  -0.00   0.00
  66   1     0.00  -0.01   0.01     0.00  -0.01  -0.01     0.00  -0.02   0.00
  67   1    -0.02   0.02   0.01     0.06  -0.06  -0.02     0.02  -0.04  -0.01
  68   1    -0.02   0.01   0.01     0.02  -0.03  -0.01    -0.01  -0.02  -0.00
  69   1     0.01  -0.00  -0.00    -0.06   0.02   0.01    -0.05   0.01   0.00
  70   1     0.03  -0.01  -0.01    -0.10   0.05   0.03    -0.06   0.03   0.01
  71   1     0.04  -0.02  -0.01    -0.11   0.06   0.03    -0.05   0.03   0.01
  72   1     0.04  -0.01  -0.01    -0.07   0.04   0.02    -0.02   0.01   0.00
  73   1     0.02   0.00   0.00     0.01  -0.02  -0.00     0.03  -0.02  -0.01
  74   1     0.00   0.01   0.01     0.05  -0.05  -0.02     0.05  -0.03  -0.01
  75   1     0.00   0.01  -0.01     0.02  -0.02   0.02     0.00  -0.02  -0.01
  76   1     0.01   0.01  -0.01     0.02  -0.02   0.02    -0.00  -0.02  -0.02
                      7                      8                      9
                        a                      a                      a 
 Frequencies --    30.6149                35.6591                38.5009
 Red. masses --    10.7888                10.6154                10.4222
 Frc consts  --     0.0000                 0.0000                 0.0000
 IR Inten    --     0.0454                 0.0502                 0.0453
 Raman Activ --     0.0000                 0.0000                 0.0000
 Depolar     --     0.0000                 0.0000                 0.0000
 Atom AN      X      Y      Z        X      Y      Z        X      Y      Z
   1   6     0.25   0.09   0.07    -0.13   0.00  -0.08     0.11   0.02   0.00
   2   6     0.21   0.02   0.01    -0.10   0.03  -0.04     0.01  -0.01  -0.15
   3   6     0.12  -0.01  -0.02    -0.05   0.05  -0.02    -0.02  -0.01  -0.17
   4   6     0.07   0.02  -0.01    -0.04   0.03  -0.04     0.05   0.00  -0.05
   5   6    -0.01  -0.00  -0.02    -0.01   0.04  -0.04     0.04  -0.00  -0.06
   6   6    -0.01  -0.04  -0.04    -0.01   0.06  -0.06     0.03   0.02  -0.06
   7   6    -0.02   0.00  -0.08    -0.02   0.08  -0.09     0.04  -0.04  -0.01
   8   6    -0.02  -0.01  -0.10    -0.02   0.06  -0.07     0.04  -0.05   0.02
   9   6    -0.01  -0.07  -0.07    -0.02   0.00  -0.03     0.03   0.00  -0.00
  10  14    -0.02  -0.08  -0.10    -0.02  -0.02  -0.03     0.04   0.03   0.04
  11   6    -0.05  -0.01  -0.01    -0.03   0.01   0.01    -0.03   0.05   0.04
  12   6    -0.03   0.01   0.21    -0.03   0.01   0.11    -0.12  -0.01  -0.05
  13   6    -0.06   0.06   0.31    -0.03   0.04   0.18    -0.18   0.02  -0.03
  14   6    -0.11   0.09   0.18    -0.05   0.07   0.15    -0.14   0.11   0.08
  15   6    -0.13   0.07  -0.05    -0.06   0.06   0.04    -0.06   0.17   0.16
  16   6    -0.10   0.02  -0.14    -0.05   0.03  -0.03    -0.00   0.14   0.14
  17   6    -0.05  -0.00  -0.04     0.03  -0.01  -0.04     0.02   0.00   0.03
  18   6    -0.09   0.07  -0.01     0.18  -0.17  -0.08    -0.02   0.03   0.03
  19   6    -0.15   0.16   0.02     0.27  -0.23  -0.12    -0.03   0.01   0.02
  20   6    -0.16   0.18   0.02     0.20  -0.12  -0.11     0.00  -0.05   0.02
  21   6    -0.11   0.11  -0.01     0.05   0.06  -0.07     0.04  -0.08   0.02
  22   6    -0.06   0.02  -0.04    -0.04   0.11  -0.03     0.05  -0.06   0.03
  23   6     0.01  -0.05  -0.05     0.02  -0.05   0.04    -0.01  -0.01   0.04
  24   6    -0.09  -0.08  -0.03    -0.04  -0.04   0.12     0.08   0.04   0.05
  25   6    -0.10  -0.10  -0.01    -0.00  -0.08   0.19    -0.03  -0.02   0.06
  26   6     0.01  -0.08  -0.01     0.09  -0.13   0.18    -0.24  -0.11   0.05
  27   6     0.11  -0.05  -0.03     0.15  -0.14   0.11    -0.33  -0.15   0.03
  28   6     0.11  -0.04  -0.05     0.11  -0.10   0.04    -0.21  -0.10   0.03
  29   6     0.00  -0.11  -0.02    -0.01  -0.01  -0.02     0.02   0.06  -0.06
  30   6     0.01  -0.10  -0.01    -0.01   0.02  -0.04     0.02   0.07  -0.09
  31   6     0.00   0.01  -0.00     0.03   0.04  -0.02     0.07  -0.01  -0.05
  32   6    -0.04   0.05   0.01     0.08   0.04  -0.03     0.18  -0.06  -0.09
  33   6     0.00   0.03   0.02     0.13   0.03  -0.02     0.21  -0.07  -0.08
  34   6     0.09  -0.03   0.00     0.13   0.01   0.00     0.13  -0.03  -0.04
  35   6     0.12  -0.07  -0.01     0.08   0.01   0.02     0.03   0.02  -0.01
  36   6     0.07  -0.05  -0.01     0.03   0.02   0.00     0.01   0.02  -0.02
  37   6     0.05  -0.06  -0.01    -0.03   0.03   0.01    -0.03   0.03  -0.01
  38   6     0.08  -0.10  -0.01    -0.08   0.03   0.04    -0.09   0.05   0.01
  39   6     0.01  -0.07   0.00    -0.16   0.05   0.05    -0.08   0.02  -0.00
  40   6    -0.08  -0.01   0.01    -0.18   0.06   0.02    -0.01  -0.03  -0.04
  41   6    -0.10   0.02   0.01    -0.13   0.05  -0.01     0.03  -0.04  -0.07
  42   6    -0.03  -0.01  -0.01    -0.05   0.04  -0.02     0.01  -0.00  -0.05
  43   6     0.11   0.09   0.04    -0.06   0.00  -0.07     0.15   0.02   0.11
  44   6     0.20   0.12   0.08    -0.11  -0.01  -0.10     0.18   0.03   0.13
  45   1     0.09   0.03   0.03    -0.05  -0.00  -0.03     0.04   0.01   0.01
  46   1     0.07  -0.00   0.00    -0.03   0.01  -0.01    -0.01  -0.00  -0.07
  47   1     0.03  -0.02  -0.02    -0.01   0.02   0.00    -0.03  -0.01  -0.08
  48   1    -0.01   0.01  -0.03    -0.01   0.03  -0.03     0.01  -0.02   0.00
  49   1    -0.01   0.01  -0.04    -0.01   0.02  -0.03     0.02  -0.03   0.02
  50   1     0.00  -0.00   0.09    -0.00  -0.00   0.04    -0.04  -0.02  -0.04
  51   1    -0.01   0.02   0.14    -0.01   0.01   0.08    -0.07  -0.01  -0.03
  52   1    -0.04   0.04   0.07    -0.01   0.03   0.06    -0.05   0.04   0.03
  53   1    -0.05   0.03  -0.04    -0.02   0.02   0.00    -0.01   0.07   0.07
  54   1    -0.03   0.00  -0.09    -0.02   0.01  -0.03     0.02   0.05   0.06
  55   1    -0.02   0.02  -0.00     0.07  -0.08  -0.02    -0.01   0.02   0.01
  56   1    -0.05   0.06   0.01     0.11  -0.11  -0.04    -0.02   0.01   0.01
  57   1    -0.06   0.07   0.02     0.08  -0.05  -0.04    -0.00  -0.02   0.01
  58   1    -0.04   0.04  -0.00    -0.00   0.04  -0.02     0.02  -0.04   0.01
  59   1    -0.01  -0.01  -0.02    -0.04   0.07   0.00     0.02  -0.02   0.01
  60   1    -0.05  -0.03  -0.01    -0.03  -0.00   0.04     0.07   0.03   0.02
  61   1    -0.05  -0.04   0.00    -0.01  -0.02   0.07     0.01   0.01   0.02
  62   1     0.00  -0.03   0.00     0.04  -0.05   0.07    -0.10  -0.05   0.02
  63   1     0.06  -0.01  -0.01     0.07  -0.05   0.03    -0.14  -0.07   0.01
  64   1     0.05  -0.01  -0.02     0.05  -0.03  -0.01    -0.08  -0.04   0.00
  65   1     0.00  -0.05   0.00    -0.00  -0.02   0.00     0.00   0.03  -0.02
  66   1     0.00  -0.04   0.01    -0.00   0.00  -0.01     0.00   0.03  -0.04
  67   1    -0.03   0.03   0.01     0.02   0.02  -0.02     0.07  -0.03  -0.04
  68   1    -0.01   0.02   0.01     0.05   0.01  -0.01     0.09  -0.03  -0.03
  69   1     0.04  -0.01   0.00     0.05  -0.00   0.00     0.05  -0.01  -0.01
  70   1     0.05  -0.03  -0.01     0.02  -0.00   0.01    -0.01   0.01   0.01
  71   1     0.04  -0.04  -0.00    -0.02   0.01   0.02    -0.04   0.02   0.01
  72   1     0.01  -0.03   0.00    -0.06   0.02   0.02    -0.03   0.01   0.01
  73   1    -0.04   0.00   0.01    -0.07   0.02   0.01    -0.00  -0.02  -0.02
  74   1    -0.05   0.02   0.00    -0.04   0.02  -0.01     0.02  -0.02  -0.03
  75   1     0.02   0.03   0.02    -0.01  -0.00  -0.03     0.06   0.01   0.06
  76   1     0.07   0.05   0.03    -0.04  -0.01  -0.04     0.08   0.01   0.07
                     10                     11                     12
                        a                      a                      a 
 Frequencies --    41.9927                43.8015                46.8244
 Red. masses --    10.7345                11.4361                11.1649
 Frc consts  --     0.0000                 0.0000                 0.0000
 IR Inten    --     0.0180                 0.0674                 0.0485
 Raman Activ --     0.0000                 0.0000                 0.0000
 Depolar     --     0.0000                 0.0000                 0.0000
 Atom AN      X      Y      Z        X      Y      Z        X      Y      Z
   1   6    -0.01  -0.03  -0.04     0.18   0.03   0.18    -0.10  -0.07   0.00
   2   6    -0.01  -0.02  -0.03     0.07  -0.02   0.02     0.04  -0.01   0.20
   3   6     0.02  -0.01  -0.01    -0.03  -0.04  -0.06     0.10   0.01   0.21
   4   6     0.04  -0.02  -0.01    -0.02  -0.02   0.02     0.03  -0.02   0.04
   5   6     0.06  -0.01   0.00    -0.06  -0.04  -0.00     0.06  -0.01   0.05
   6   6     0.06   0.01   0.01    -0.06  -0.03   0.01     0.06  -0.02   0.03
   7   6     0.07   0.04  -0.00    -0.04  -0.01   0.00     0.04   0.02  -0.02
   8   6     0.08   0.07   0.01    -0.04   0.05  -0.02     0.04   0.04  -0.07
   9   6     0.06   0.06   0.03    -0.05   0.09  -0.04     0.06   0.02  -0.08
  10  14     0.09   0.10   0.07    -0.08   0.19  -0.07     0.10   0.04  -0.18
  11   6     0.02   0.06   0.01     0.01   0.09  -0.05     0.03   0.06  -0.07
  12   6     0.05   0.08   0.17     0.06   0.13  -0.06    -0.04   0.02  -0.08
  13   6    -0.03   0.07   0.03     0.13   0.11  -0.04    -0.07   0.07   0.00
  14   6    -0.14   0.02  -0.28     0.14   0.05  -0.01    -0.04   0.16   0.10
  15   6    -0.17   0.01  -0.43     0.09   0.02  -0.00     0.02   0.20   0.10
  16   6    -0.08   0.03  -0.28     0.02   0.04  -0.02     0.05   0.15   0.01
  17   6    -0.02  -0.02   0.06    -0.05   0.07  -0.06     0.00   0.01  -0.10
  18   6    -0.05  -0.10  -0.05    -0.00  -0.03  -0.12    -0.08   0.04  -0.13
  19   6    -0.11  -0.19  -0.04     0.05  -0.16  -0.16    -0.16   0.02  -0.11
  20   6    -0.15  -0.20   0.07     0.06  -0.19  -0.14    -0.15  -0.03  -0.06
  21   6    -0.13  -0.12   0.17     0.01  -0.08  -0.08    -0.06  -0.08  -0.03
  22   6    -0.06  -0.03   0.16    -0.04   0.05  -0.04     0.01  -0.05  -0.05
  23   6     0.03   0.05   0.05    -0.03   0.07   0.03     0.05  -0.03  -0.06
  24   6    -0.04   0.03   0.05    -0.03   0.11   0.12     0.08   0.02   0.03
  25   6    -0.10   0.00   0.05    -0.01   0.06   0.20     0.02  -0.06   0.09
  26   6    -0.08   0.01   0.05     0.03  -0.03   0.19    -0.07  -0.19   0.08
  27   6    -0.00   0.03   0.05     0.03  -0.07   0.10    -0.09  -0.23  -0.00
  28   6     0.05   0.05   0.05    -0.00  -0.02   0.02    -0.03  -0.15  -0.07
  29   6     0.04   0.03   0.04    -0.07   0.07  -0.04     0.09  -0.03  -0.02
  30   6     0.04   0.01   0.02    -0.07   0.01  -0.01     0.09  -0.05   0.04
  31   6     0.06  -0.01   0.00    -0.09  -0.03  -0.00     0.02  -0.00   0.05
  32   6     0.10  -0.04  -0.01    -0.15   0.00   0.02    -0.04   0.02   0.07
  33   6     0.08  -0.03  -0.01    -0.19   0.02   0.02    -0.11   0.06   0.07
  34   6     0.01   0.02   0.02    -0.15   0.00   0.00    -0.11   0.07   0.06
  35   6    -0.04   0.05   0.03    -0.09  -0.03  -0.02    -0.05   0.05   0.05
  36   6    -0.00   0.03   0.02    -0.06  -0.04  -0.02     0.01   0.02   0.04
  37   6    -0.00   0.03   0.02    -0.01  -0.07  -0.03     0.05   0.01   0.03
  38   6    -0.03   0.05   0.03     0.07  -0.11  -0.06     0.06   0.03   0.02
  39   6     0.02   0.02   0.01     0.12  -0.14  -0.07     0.10   0.03   0.02
  40   6     0.09  -0.03  -0.01     0.09  -0.12  -0.05     0.11   0.02   0.04
  41   6     0.11  -0.04  -0.01     0.01  -0.07  -0.03     0.10   0.01   0.05
  42   6     0.06  -0.01   0.00    -0.03  -0.05  -0.02     0.07  -0.00   0.04
  43   6     0.03  -0.03  -0.01     0.08   0.03   0.16    -0.11  -0.08  -0.16
  44   6     0.01  -0.04  -0.03     0.18   0.06   0.24    -0.17  -0.10  -0.18
  45   1    -0.01  -0.01  -0.02     0.08   0.01   0.07    -0.04  -0.03  -0.00
  46   1    -0.01  -0.00  -0.01     0.02  -0.01  -0.01     0.03   0.00   0.10
  47   1     0.01  -0.00  -0.00    -0.03  -0.02  -0.05     0.06   0.02   0.10
  48   1     0.03   0.01  -0.00    -0.01  -0.01   0.01     0.00   0.01  -0.00
  49   1     0.03   0.03  -0.00    -0.01   0.02  -0.01     0.00   0.02  -0.03
  50   1     0.04   0.03   0.11     0.02   0.05  -0.02    -0.02  -0.01  -0.04
  51   1    -0.00   0.02   0.05     0.05   0.04  -0.01    -0.03   0.01  -0.00
  52   1    -0.06   0.00  -0.12     0.06   0.01   0.00    -0.02   0.06   0.05
  53   1    -0.07  -0.01  -0.19     0.03  -0.01   0.01     0.01   0.08   0.05
  54   1    -0.03   0.00  -0.11    -0.01   0.00  -0.00     0.03   0.05   0.00
  55   1    -0.00  -0.03  -0.04    -0.00  -0.00  -0.04    -0.03   0.03  -0.05
  56   1    -0.04  -0.07  -0.04     0.03  -0.07  -0.06    -0.07   0.02  -0.04
  57   1    -0.06  -0.08   0.02     0.03  -0.09  -0.05    -0.06  -0.01  -0.01
  58   1    -0.05  -0.04   0.08     0.00  -0.03  -0.02    -0.01  -0.04   0.00
  59   1    -0.01   0.01   0.07    -0.02   0.04   0.00     0.02  -0.02  -0.01
  60   1    -0.02   0.01   0.01    -0.02   0.05   0.04     0.04   0.03   0.01
  61   1    -0.04  -0.01   0.01    -0.00   0.03   0.08     0.01  -0.01   0.05
  62   1    -0.03  -0.00   0.01     0.01  -0.02   0.07    -0.04  -0.07   0.04
  63   1     0.00   0.01   0.01     0.02  -0.04   0.03    -0.04  -0.10  -0.00
  64   1     0.03   0.02   0.01     0.00  -0.02  -0.01    -0.01  -0.05  -0.04
  65   1     0.01   0.00   0.02    -0.02   0.03  -0.01     0.03  -0.01  -0.01
  66   1     0.01  -0.00   0.01    -0.02  -0.00  -0.00     0.03  -0.03   0.02
  67   1     0.04  -0.02  -0.01    -0.05   0.00   0.01    -0.01   0.00   0.02
  68   1     0.03  -0.01  -0.01    -0.07   0.01   0.01    -0.05   0.02   0.03
  69   1    -0.00   0.01   0.01    -0.05   0.01   0.00    -0.05   0.03   0.02
  70   1    -0.03   0.03   0.01    -0.02  -0.01  -0.01    -0.02   0.02   0.01
  71   1    -0.02   0.03   0.01     0.03  -0.04  -0.02     0.01   0.01   0.00
  72   1     0.00   0.01   0.01     0.05  -0.05  -0.03     0.03   0.01   0.00
  73   1     0.04  -0.02  -0.01     0.04  -0.04  -0.02     0.04   0.01   0.01
  74   1     0.05  -0.02  -0.01    -0.00  -0.02  -0.01     0.03   0.00   0.02
  75   1     0.01  -0.01  -0.00     0.02   0.02   0.06    -0.05  -0.03  -0.09
  76   1     0.00  -0.01  -0.01     0.08   0.03   0.10    -0.08  -0.04  -0.10
                     13                     14                     15
                        a                      a                      a 
 Frequencies --    52.2063                61.4098                77.1696
 Red. masses --    10.7848                10.7491                10.4969
 Frc consts  --     0.0000                 0.0000                 0.0000
 IR Inten    --     0.1176                 0.0559                 0.0172
 Raman Activ --     0.0000                 0.0000                 0.0000
 Depolar     --     0.0000                 0.0000                 0.0000
 Atom AN      X      Y      Z        X      Y      Z        X      Y      Z
   1   6    -0.17  -0.01   0.10    -0.04   0.06  -0.34    -0.15  -0.11  -0.04
   2   6    -0.24   0.05  -0.01    -0.04  -0.03  -0.32    -0.26  -0.06  -0.21
   3   6    -0.18   0.08  -0.03     0.00  -0.06  -0.10    -0.16  -0.03  -0.16
   4   6    -0.05   0.05   0.04     0.03  -0.00   0.09     0.02  -0.05   0.02
   5   6    -0.00   0.08   0.02    -0.00  -0.03   0.15     0.06  -0.02  -0.01
   6   6    -0.00   0.07   0.03    -0.00  -0.07   0.16     0.06   0.02  -0.04
   7   6    -0.05  -0.14   0.16    -0.04  -0.15   0.19     0.08   0.14  -0.12
   8   6    -0.05  -0.20   0.14    -0.04  -0.12   0.13     0.08   0.14  -0.11
   9   6    -0.01  -0.05  -0.00    -0.01  -0.00   0.02     0.07   0.02  -0.02
  10  14    -0.02  -0.12  -0.08    -0.01   0.05  -0.09     0.12  -0.05   0.01
  11   6    -0.04  -0.05  -0.03     0.00   0.04  -0.05     0.06  -0.02   0.02
  12   6    -0.05  -0.05   0.06     0.02   0.05  -0.03     0.01  -0.05   0.02
  13   6    -0.06  -0.02   0.14     0.04   0.05   0.00    -0.04  -0.03   0.00
  14   6    -0.07   0.01   0.11     0.05   0.04   0.02    -0.05   0.02  -0.02
  15   6    -0.07   0.01   0.01     0.03   0.03  -0.00    -0.01   0.05  -0.02
  16   6    -0.06  -0.02  -0.06     0.01   0.03  -0.04     0.05   0.03   0.00
  17   6    -0.01  -0.05  -0.05    -0.01   0.02  -0.06     0.06  -0.04   0.02
  18   6     0.01  -0.05  -0.04    -0.04   0.01  -0.08     0.04  -0.02   0.02
  19   6    -0.00  -0.00  -0.03    -0.06  -0.01  -0.08    -0.00   0.01   0.04
  20   6    -0.04   0.06  -0.03    -0.06  -0.02  -0.05    -0.01   0.03   0.05
  21   6    -0.06   0.07  -0.04    -0.04  -0.02  -0.03     0.01   0.00   0.05
  22   6    -0.04   0.01  -0.05    -0.02   0.01  -0.03     0.05  -0.03   0.03
  23   6    -0.00  -0.07  -0.05    -0.00   0.02  -0.03     0.07  -0.03  -0.00
  24   6    -0.03  -0.08  -0.05    -0.02   0.03   0.01     0.06  -0.04  -0.02
  25   6     0.02  -0.07  -0.04    -0.01   0.00   0.04     0.02  -0.05  -0.04
  26   6     0.10  -0.05  -0.04     0.02  -0.03   0.04    -0.03  -0.04  -0.04
  27   6     0.13  -0.04  -0.04     0.04  -0.04  -0.00    -0.02  -0.03  -0.02
  28   6     0.07  -0.05  -0.05     0.02  -0.02  -0.04     0.03  -0.03  -0.00
  29   6     0.03   0.15  -0.12     0.03   0.04   0.01     0.06  -0.06   0.03
  30   6     0.04   0.21  -0.10     0.02   0.01   0.08     0.06  -0.04   0.01
  31   6     0.01   0.06   0.01    -0.04  -0.06   0.09     0.05  -0.02  -0.02
  32   6     0.06   0.03  -0.01    -0.08  -0.13   0.09    -0.13   0.08   0.04
  33   6     0.05   0.04  -0.01    -0.05  -0.20   0.00    -0.27   0.17   0.08
  34   6    -0.01   0.08   0.01     0.03  -0.21  -0.09    -0.21   0.14   0.05
  35   6    -0.04   0.10   0.02     0.06  -0.13  -0.08    -0.01   0.02  -0.01
  36   6    -0.02   0.09   0.01     0.02  -0.06   0.01     0.09  -0.04  -0.04
  37   6     0.02   0.07   0.00     0.03   0.02   0.04     0.11  -0.05  -0.04
  38   6     0.09   0.04  -0.03     0.04   0.09  -0.00     0.11  -0.04  -0.04
  39   6     0.23  -0.04  -0.06     0.02   0.18   0.05    -0.03   0.05   0.01
  40   6     0.28  -0.08  -0.07    -0.00   0.21   0.13    -0.15   0.14   0.05
  41   6     0.19  -0.03  -0.04     0.00   0.13   0.17    -0.10   0.10   0.04
  42   6     0.05   0.05   0.00     0.02   0.04   0.12     0.05  -0.00  -0.01
  43   6     0.01  -0.01   0.15     0.05   0.09   0.10     0.13  -0.09   0.21
  44   6    -0.04  -0.04   0.18     0.02   0.13  -0.11     0.06  -0.12   0.19
  45   1    -0.06  -0.01   0.04    -0.02   0.03  -0.15    -0.06  -0.04  -0.02
  46   1    -0.10   0.02  -0.02    -0.02  -0.02  -0.14    -0.12  -0.01  -0.11
  47   1    -0.06   0.04  -0.03     0.00  -0.04  -0.02    -0.07   0.00  -0.08
  48   1    -0.02  -0.08   0.08    -0.02  -0.06   0.08     0.02   0.06  -0.05
  49   1    -0.03  -0.10   0.07    -0.02  -0.05   0.04     0.02   0.06  -0.05
  50   1    -0.01  -0.02   0.02     0.00   0.02  -0.01     0.01  -0.02   0.01
  51   1    -0.02  -0.01   0.06     0.02   0.02   0.01    -0.02  -0.02   0.00
  52   1    -0.02   0.01   0.05     0.02   0.01   0.01    -0.03   0.01  -0.01
  53   1    -0.02   0.01  -0.01     0.01   0.01   0.00    -0.00   0.02  -0.01
  54   1    -0.02  -0.01  -0.04    -0.00   0.01  -0.02     0.02   0.02  -0.00
  55   1     0.01  -0.03  -0.01    -0.01   0.01  -0.03     0.01  -0.01   0.00
  56   1     0.00  -0.00  -0.01    -0.02  -0.00  -0.03    -0.01   0.01   0.01
  57   1    -0.01   0.03  -0.00    -0.02  -0.01  -0.01    -0.01   0.02   0.02
  58   1    -0.02   0.03  -0.01    -0.01  -0.01  -0.00     0.00   0.00   0.02
  59   1    -0.02   0.00  -0.02    -0.00   0.00  -0.00     0.02  -0.01   0.01
  60   1    -0.03  -0.03  -0.02    -0.01   0.02   0.00     0.03  -0.01  -0.01
  61   1    -0.00  -0.02  -0.01    -0.01   0.00   0.02     0.00  -0.02  -0.02
  62   1     0.04  -0.01  -0.01     0.01  -0.01   0.02    -0.02  -0.01  -0.02
  63   1     0.06  -0.01  -0.01     0.02  -0.02  -0.00    -0.01  -0.01  -0.01
  64   1     0.03  -0.01  -0.02     0.01  -0.01  -0.02     0.01  -0.00   0.00
  65   1     0.02   0.07  -0.06     0.02   0.03  -0.02     0.02  -0.04   0.02
  66   1     0.02   0.10  -0.05     0.01   0.01   0.02     0.02  -0.03   0.01
  67   1     0.03   0.00  -0.01    -0.04  -0.04   0.04    -0.05   0.03   0.02
  68   1     0.02   0.01  -0.00    -0.02  -0.07  -0.00    -0.12   0.08   0.04
  69   1    -0.01   0.03   0.00     0.02  -0.08  -0.05    -0.09   0.06   0.02
  70   1    -0.02   0.04   0.01     0.03  -0.04  -0.04     0.01  -0.00  -0.01
  71   1     0.01   0.02  -0.01     0.02   0.02  -0.02     0.06  -0.03  -0.02
  72   1     0.09  -0.02  -0.03     0.00   0.07   0.01    -0.01   0.02   0.00
  73   1     0.11  -0.04  -0.03    -0.00   0.08   0.05    -0.08   0.06   0.03
  74   1     0.07  -0.02  -0.01    -0.00   0.04   0.07    -0.06   0.05   0.02
  75   1     0.03  -0.01   0.06     0.02   0.04   0.08     0.08  -0.03   0.11
  76   1     0.00  -0.03   0.08     0.01   0.06  -0.03     0.05  -0.05   0.10
                     16                     17                     18
                        a                      a                      a 
 Frequencies --    79.1819               108.6781               138.2270
 Red. masses --    10.2380                 9.6260                11.0685
 Frc consts  --     0.0000                 0.0000                 0.0000
 IR Inten    --     0.1717                 0.0102                 0.9553
 Raman Activ --     0.0000                 0.0000                 0.0000
 Depolar     --     0.0000                 0.0000                 0.0000
 Atom AN      X      Y      Z        X      Y      Z        X      Y      Z
   1   6     0.06  -0.06   0.12    -0.01  -0.01   0.04     0.10   0.03  -0.01
   2   6     0.08  -0.02   0.14    -0.04  -0.00  -0.01     0.12  -0.03   0.02
   3   6     0.05  -0.01   0.04    -0.04   0.00  -0.03     0.03  -0.07   0.02
   4   6     0.02  -0.04  -0.06    -0.02  -0.00  -0.01    -0.04  -0.04   0.02
   5   6     0.03  -0.03  -0.07    -0.00   0.00  -0.01    -0.01  -0.04   0.06
   6   6     0.03  -0.06  -0.03     0.00   0.00   0.01    -0.00   0.13  -0.01
   7   6     0.04  -0.32   0.18     0.01   0.04  -0.01     0.02   0.17  -0.03
   8   6     0.04  -0.33   0.20     0.01   0.05  -0.02     0.02   0.24  -0.07
   9   6     0.04  -0.05   0.01     0.01   0.01   0.01     0.03   0.30  -0.12
  10  14     0.07   0.05   0.03     0.01  -0.00  -0.01     0.05  -0.07   0.02
  11   6     0.02   0.04   0.01     0.01  -0.00  -0.01     0.11  -0.05   0.06
  12   6     0.03   0.04   0.03     0.00  -0.01  -0.01     0.03  -0.10   0.08
  13   6     0.02   0.04   0.01    -0.00  -0.00  -0.00    -0.08  -0.07   0.04
  14   6     0.01   0.03  -0.04    -0.00   0.00   0.00    -0.10   0.00  -0.02
  15   6     0.00   0.03  -0.05     0.00   0.01   0.00    -0.02   0.06  -0.02
  16   6     0.01   0.03  -0.03     0.01   0.00  -0.00     0.09   0.03   0.03
  17   6     0.03   0.03   0.03     0.01  -0.01  -0.01     0.02  -0.10   0.02
  18   6     0.02   0.01  -0.00     0.00  -0.00  -0.01     0.04  -0.08   0.05
  19   6     0.01  -0.03  -0.00    -0.01   0.00  -0.01     0.05  -0.01   0.07
  20   6     0.00  -0.04   0.02    -0.01   0.01   0.00     0.02   0.05   0.05
  21   6     0.01  -0.01   0.05    -0.00   0.00   0.00     0.01   0.02   0.01
  22   6     0.02   0.02   0.05     0.01  -0.01  -0.01     0.01  -0.05  -0.00
  23   6     0.05   0.04   0.02    -0.00  -0.01  -0.01    -0.08  -0.10   0.01
  24   6     0.01   0.02   0.01     0.00  -0.00  -0.01    -0.05  -0.10  -0.02
  25   6    -0.04   0.00   0.01     0.01  -0.01  -0.00     0.04  -0.05  -0.04
  26   6    -0.06   0.00   0.01     0.01  -0.01  -0.00     0.10  -0.00  -0.04
  27   6    -0.01   0.02   0.01     0.00  -0.01  -0.01     0.02  -0.02  -0.01
  28   6     0.04   0.04   0.02     0.00  -0.01  -0.01    -0.07  -0.07   0.01
  29   6     0.03   0.18  -0.17    -0.00  -0.03   0.04     0.02   0.41  -0.21
  30   6     0.03   0.16  -0.18    -0.00  -0.03   0.04     0.01   0.32  -0.14
  31   6     0.02  -0.01  -0.06    -0.00   0.01  -0.00    -0.01  -0.07   0.04
  32   6    -0.10   0.11  -0.01    -0.23   0.17   0.08    -0.07  -0.12   0.05
  33   6    -0.14   0.15   0.03    -0.19   0.15   0.07    -0.12  -0.13   0.00
  34   6    -0.04   0.07   0.01     0.17  -0.09  -0.05    -0.10  -0.12  -0.03
  35   6     0.08  -0.04  -0.04     0.33  -0.21  -0.10    -0.04  -0.09  -0.04
  36   6     0.08  -0.06  -0.06     0.11  -0.07  -0.04    -0.01  -0.07   0.02
  37   6     0.06  -0.06  -0.06    -0.10   0.07   0.03    -0.01  -0.04   0.03
  38   6    -0.03  -0.02  -0.03    -0.33   0.23   0.10    -0.02  -0.03   0.03
  39   6    -0.20   0.08   0.02    -0.16   0.11   0.05    -0.02  -0.02   0.04
  40   6    -0.25   0.11   0.02     0.20  -0.13  -0.07     0.00  -0.03   0.05
  41   6    -0.13   0.05  -0.02     0.25  -0.16  -0.09     0.01  -0.04   0.05
  42   6     0.02  -0.03  -0.07     0.01  -0.00  -0.01     0.00  -0.05   0.05
  43   6    -0.01  -0.08  -0.11     0.00  -0.01   0.02    -0.07   0.03  -0.04
  44   6     0.01  -0.09  -0.02     0.01  -0.02   0.05    -0.00   0.07  -0.06
  45   1     0.03  -0.02   0.06    -0.00  -0.00   0.02     0.05   0.02  -0.00
  46   1     0.03  -0.00   0.07    -0.02   0.00  -0.01     0.06  -0.02   0.01
  47   1     0.02   0.01   0.01    -0.02   0.00  -0.02     0.01  -0.03   0.01
  48   1     0.01  -0.15   0.09     0.00   0.02  -0.01     0.01   0.03   0.01
  49   1     0.01  -0.16   0.11     0.00   0.02  -0.01     0.00   0.06  -0.01
  50   1     0.01   0.02   0.02     0.00  -0.00  -0.00     0.01  -0.05   0.03
  51   1     0.01   0.01   0.01    -0.00  -0.00   0.00    -0.04  -0.03   0.01
  52   1    -0.00   0.01  -0.02    -0.00   0.00   0.00    -0.05   0.01  -0.02
  53   1    -0.00   0.01  -0.03     0.00   0.00   0.00    -0.01   0.04  -0.02
  54   1     0.00   0.01  -0.01     0.00   0.00  -0.00     0.04   0.02   0.01
  55   1     0.01   0.00  -0.01     0.00  -0.00  -0.00     0.02  -0.03   0.02
  56   1    -0.00  -0.01  -0.01    -0.00   0.00  -0.00     0.02   0.00   0.03
  57   1    -0.00  -0.02   0.01    -0.01   0.00   0.00     0.00   0.03   0.02
  58   1    -0.00  -0.01   0.02    -0.00   0.00   0.00    -0.00   0.02  -0.00
  59   1     0.01   0.01   0.02     0.00  -0.00  -0.00    -0.00  -0.02  -0.01
  60   1     0.01   0.01   0.00     0.00  -0.00  -0.00    -0.02  -0.04  -0.01
  61   1    -0.02  -0.00  -0.00     0.00  -0.00  -0.00     0.02  -0.01  -0.02
  62   1    -0.03  -0.00   0.00     0.00  -0.00  -0.00     0.05   0.01  -0.01
  63   1    -0.01   0.01   0.00     0.00  -0.00  -0.00     0.01   0.01  -0.00
  64   1     0.02   0.01   0.01     0.00  -0.00  -0.00    -0.03  -0.02   0.01
  65   1     0.01   0.11  -0.09    -0.00  -0.02   0.02     0.01   0.15  -0.08
  66   1     0.01   0.09  -0.09    -0.00  -0.02   0.02     0.01   0.10  -0.04
  67   1    -0.05   0.05  -0.00    -0.12   0.09   0.04    -0.02  -0.04   0.03
  68   1    -0.07   0.07   0.02    -0.11   0.08   0.04    -0.05  -0.04   0.00
  69   1    -0.02   0.03   0.01     0.09  -0.05  -0.03    -0.04  -0.04  -0.02
  70   1     0.05  -0.03  -0.01     0.18  -0.12  -0.06    -0.01  -0.02  -0.03
  71   1     0.00  -0.01  -0.01    -0.18   0.12   0.06    -0.01  -0.01   0.01
  72   1    -0.09   0.04   0.02    -0.09   0.06   0.03    -0.01   0.00   0.01
  73   1    -0.11   0.06   0.02     0.11  -0.07  -0.04     0.00  -0.01   0.02
  74   1    -0.05   0.02  -0.01     0.13  -0.09  -0.04     0.00  -0.01   0.02
  75   1    -0.01  -0.03  -0.06     0.00  -0.00   0.01    -0.04   0.02  -0.02
  76   1    -0.01  -0.04  -0.02     0.01  -0.01   0.02    -0.01   0.04  -0.03
                     19                     20                     21
                        a                      a                      a 
 Frequencies --   145.0820               148.8127               160.1644
 Red. masses --    10.9792                11.0654                10.7275
 Frc consts  --     0.0000                 0.0000                 0.0000
 IR Inten    --     0.6780                 1.5080                 0.7941
 Raman Activ --     0.0000                 0.0000                 0.0000
 Depolar     --     0.0000                 0.0000                 0.0000
 Atom AN      X      Y      Z        X      Y      Z        X      Y      Z
   1   6     0.02   0.05   0.08     0.07  -0.11  -0.01    -0.02   0.06   0.03
   2   6    -0.03   0.04   0.01     0.07  -0.09  -0.03    -0.02   0.05   0.02
   3   6    -0.08   0.04  -0.07     0.06  -0.09  -0.05    -0.04   0.04   0.00
   4   6    -0.08   0.03  -0.08     0.06  -0.08  -0.05    -0.04   0.04  -0.00
   5   6    -0.04   0.03  -0.04     0.09  -0.05  -0.03    -0.03   0.03   0.01
   6   6    -0.02   0.06   0.12     0.06   0.02   0.03    -0.01   0.04   0.03
   7   6     0.05   0.06   0.17     0.06   0.04   0.02     0.02   0.05   0.03
   8   6     0.05   0.06   0.25     0.05   0.07   0.06     0.02   0.03   0.04
   9   6     0.03   0.06   0.27    -0.03   0.08   0.10     0.05   0.01   0.04
  10  14     0.10   0.03  -0.03    -0.14   0.01   0.01     0.12  -0.02   0.02
  11   6     0.06   0.02  -0.06    -0.12  -0.07  -0.16     0.02  -0.12  -0.32
  12   6     0.04   0.00  -0.05    -0.10  -0.05  -0.13    -0.02  -0.15  -0.24
  13   6     0.02   0.03  -0.02    -0.02  -0.02   0.03    -0.01  -0.04   0.05
  14   6     0.02   0.07   0.00     0.02  -0.02   0.16     0.04   0.09   0.22
  15   6     0.04   0.08  -0.02    -0.03  -0.06   0.04     0.03   0.08  -0.03
  16   6     0.06   0.05  -0.05    -0.11  -0.09  -0.12     0.02  -0.03  -0.30
  17   6     0.25  -0.14  -0.11    -0.07   0.07  -0.01     0.00   0.25   0.09
  18   6     0.17  -0.12  -0.15    -0.07   0.06  -0.02    -0.05   0.21   0.02
  19   6    -0.05   0.02  -0.06    -0.03  -0.01  -0.05    -0.02  -0.01  -0.03
  20   6    -0.16   0.13   0.08     0.00  -0.05  -0.07     0.06  -0.18   0.00
  21   6    -0.00  -0.00   0.09    -0.03  -0.00  -0.04     0.04  -0.05   0.12
  22   6     0.21  -0.14  -0.01    -0.06   0.06  -0.02     0.01   0.18   0.17
  23   6    -0.10  -0.02  -0.09    -0.30  -0.08   0.03     0.12  -0.10   0.13
  24   6    -0.09   0.00  -0.04    -0.25  -0.06   0.02     0.13  -0.15   0.01
  25   6     0.02   0.00   0.02     0.01   0.05   0.02     0.04  -0.10  -0.11
  26   6     0.11  -0.03   0.01     0.19   0.14   0.03    -0.05  -0.00  -0.10
  27   6     0.05  -0.09  -0.04    -0.01   0.06   0.03    -0.02   0.07   0.02
  28   6    -0.06  -0.08  -0.10    -0.26  -0.05   0.03     0.07   0.01   0.14
  29   6    -0.03   0.00   0.27    -0.02   0.07   0.11     0.02   0.01   0.03
  30   6    -0.05   0.01   0.19    -0.02   0.04   0.07     0.02   0.03   0.02
  31   6    -0.06   0.04  -0.04     0.13  -0.05  -0.03    -0.05   0.02   0.01
  32   6    -0.02   0.00  -0.05     0.13   0.01  -0.02    -0.06  -0.03   0.00
  33   6     0.02  -0.03  -0.08     0.04   0.10   0.05    -0.04  -0.07  -0.04
  34   6     0.00  -0.02  -0.07    -0.02   0.13   0.09    -0.02  -0.07  -0.07
  35   6    -0.05   0.02  -0.05     0.05   0.03   0.05    -0.04  -0.01  -0.05
  36   6    -0.04   0.03  -0.03     0.13  -0.05  -0.03    -0.05   0.02   0.00
  37   6     0.01  -0.02  -0.05     0.13  -0.06  -0.04    -0.03   0.01   0.01
  38   6    -0.02  -0.08  -0.00     0.05   0.05  -0.03    -0.02  -0.05   0.03
  39   6    -0.12  -0.09  -0.01    -0.03   0.15   0.02    -0.03  -0.09   0.01
  40   6    -0.14  -0.08  -0.04     0.02   0.12   0.02    -0.06  -0.08  -0.01
  41   6    -0.07  -0.06  -0.09     0.12   0.00   0.00    -0.06  -0.03  -0.03
  42   6     0.01  -0.03  -0.07     0.14  -0.06  -0.04    -0.03   0.01  -0.00
  43   6    -0.06   0.04  -0.05     0.06  -0.11  -0.05    -0.04   0.05   0.00
  44   6    -0.01   0.04   0.03     0.07  -0.11  -0.03    -0.03   0.06   0.01
  45   1     0.02   0.01   0.05     0.02  -0.03   0.00    -0.00   0.02   0.01
  46   1    -0.00   0.01   0.01     0.02  -0.02  -0.00    -0.00   0.01   0.01
  47   1    -0.03   0.01  -0.03     0.02  -0.02  -0.02    -0.01   0.01  -0.00
  48   1     0.03   0.02   0.04     0.02   0.01   0.01     0.01   0.02   0.01
  49   1     0.02   0.02   0.07     0.03   0.03   0.02     0.00   0.01   0.01
  50   1     0.01  -0.01  -0.01    -0.04  -0.02  -0.06    -0.01  -0.07  -0.09
  51   1    -0.00   0.00  -0.00     0.00   0.00   0.02    -0.01  -0.02   0.05
  52   1     0.00   0.02   0.01     0.03   0.00   0.10     0.03   0.06   0.15
  53   1     0.01   0.03  -0.00    -0.00  -0.02   0.03     0.02   0.05   0.01
  54   1     0.02   0.02  -0.02    -0.04  -0.03  -0.05     0.01  -0.01  -0.12
  55   1     0.07  -0.05  -0.07    -0.02   0.03  -0.01    -0.02   0.09  -0.01
  56   1    -0.04   0.02  -0.02    -0.00  -0.01  -0.02    -0.01  -0.02  -0.03
  57   1    -0.11   0.09   0.05     0.01  -0.03  -0.03     0.04  -0.12  -0.02
  58   1    -0.02   0.01   0.05    -0.00  -0.01  -0.01     0.02  -0.04   0.05
  59   1     0.09  -0.06   0.00    -0.02   0.02  -0.00     0.01   0.07   0.07
  60   1    -0.04   0.01  -0.01    -0.10  -0.03   0.01     0.05  -0.07  -0.00
  61   1     0.01   0.01   0.02     0.03   0.02   0.00     0.01  -0.04  -0.06
  62   1     0.07  -0.01   0.02     0.13   0.07   0.01    -0.04   0.01  -0.05
  63   1     0.03  -0.03  -0.01     0.02   0.03   0.01    -0.02   0.05   0.01
  64   1    -0.03  -0.03  -0.04    -0.11  -0.02   0.01     0.02   0.02   0.07
  65   1    -0.02  -0.00   0.09    -0.01   0.02   0.03     0.00   0.01   0.01
  66   1    -0.02   0.00   0.05    -0.02   0.01   0.01     0.01   0.01   0.01
  67   1    -0.01  -0.00  -0.01     0.04   0.01  -0.02    -0.02  -0.01   0.01
  68   1     0.02  -0.02  -0.03    -0.00   0.05   0.02    -0.01  -0.03  -0.02
  69   1     0.01  -0.01  -0.02    -0.03   0.06   0.04     0.00  -0.03  -0.03
  70   1    -0.02   0.01  -0.01     0.00   0.01   0.03    -0.01   0.00  -0.03
  71   1     0.01  -0.03   0.02     0.00   0.02  -0.02    -0.00  -0.02   0.02
  72   1    -0.04  -0.03   0.01    -0.04   0.07   0.01    -0.00  -0.04   0.00
  73   1    -0.06  -0.02  -0.01    -0.01   0.05   0.01    -0.02  -0.03  -0.01
  74   1    -0.03  -0.01  -0.04     0.04  -0.00   0.01    -0.02  -0.01  -0.02
  75   1    -0.02   0.01  -0.02     0.02  -0.03  -0.02    -0.01   0.02  -0.00
  76   1     0.00   0.01   0.02     0.02  -0.03  -0.01    -0.01   0.02   0.00
                     22                     23                     24
                        a                      a                      a 
 Frequencies --   180.1653               186.4645               198.8348
 Red. masses --    10.6402                10.7552                10.4771
 Frc consts  --     0.0000                 0.0000                 0.0000
 IR Inten    --     0.8296                 2.8554                 0.2466
 Raman Activ --     0.0000                 0.0000                 0.0000
 Depolar     --     0.0000                 0.0000                 0.0000
 Atom AN      X      Y      Z        X      Y      Z        X      Y      Z
   1   6     0.08  -0.01   0.04     0.06   0.01   0.09    -0.13   0.04  -0.11
   2   6     0.05  -0.04  -0.01    -0.01   0.00  -0.02    -0.02   0.11   0.06
   3   6    -0.03  -0.06  -0.06    -0.08  -0.01  -0.11     0.13   0.14   0.17
   4   6    -0.06  -0.04  -0.05    -0.08  -0.00  -0.10     0.17   0.09   0.11
   5   6     0.01  -0.02   0.01     0.01   0.01  -0.01     0.11   0.08   0.00
   6   6     0.01   0.11   0.04     0.01   0.06   0.15     0.10   0.07  -0.01
   7   6     0.00   0.13   0.03     0.01   0.05   0.16     0.06   0.03   0.00
   8   6    -0.01   0.11   0.04    -0.00   0.07   0.13     0.05  -0.04   0.03
   9   6    -0.03   0.07   0.08     0.00   0.06   0.12     0.03  -0.04   0.03
  10  14    -0.08  -0.03   0.01    -0.01  -0.05  -0.07    -0.03  -0.01  -0.00
  11   6    -0.25  -0.01  -0.10     0.14  -0.02   0.15    -0.12   0.03   0.05
  12   6    -0.16   0.04  -0.12     0.09  -0.05   0.18    -0.07   0.06   0.03
  13   6     0.01   0.01  -0.00    -0.03  -0.06   0.03     0.00   0.02  -0.00
  14   6     0.06  -0.09   0.14    -0.09  -0.04  -0.13     0.01  -0.07  -0.00
  15   6    -0.07  -0.18   0.05     0.02   0.03  -0.00    -0.04  -0.10   0.04
  16   6    -0.24  -0.14  -0.06     0.13   0.04   0.15    -0.11  -0.05   0.07
  17   6     0.00  -0.13  -0.04    -0.25   0.12   0.03    -0.05   0.03  -0.00
  18   6     0.03  -0.12  -0.01    -0.21   0.14   0.07    -0.05   0.03   0.00
  19   6     0.00  -0.01   0.01    -0.02   0.02  -0.02    -0.01   0.00  -0.02
  20   6    -0.05   0.08   0.01     0.12  -0.12  -0.17     0.02  -0.03  -0.05
  21   6    -0.02   0.01  -0.05    -0.04   0.03  -0.15    -0.01   0.01  -0.04
  22   6     0.00  -0.10  -0.08    -0.24   0.16  -0.05    -0.05   0.04  -0.02
  23   6     0.27   0.14  -0.01     0.08  -0.01  -0.08    -0.05   0.03  -0.05
  24   6     0.25   0.14   0.01     0.09  -0.01  -0.08    -0.06   0.05  -0.01
  25   6    -0.02   0.02   0.02     0.03  -0.05  -0.06    -0.02   0.03   0.03
  26   6    -0.24  -0.09   0.01    -0.02  -0.11  -0.07     0.03   0.01   0.02
  27   6     0.02  -0.00  -0.00     0.04  -0.10  -0.08     0.00  -0.02  -0.02
  28   6     0.28   0.12  -0.01     0.10  -0.05  -0.09    -0.04  -0.00  -0.06
  29   6    -0.01   0.12   0.05     0.01   0.01   0.18     0.08   0.01   0.02
  30   6    -0.01   0.15   0.03     0.00   0.02   0.18     0.09   0.06   0.01
  31   6     0.05  -0.04  -0.00     0.00   0.01  -0.01     0.16   0.01  -0.01
  32   6     0.04  -0.04  -0.00     0.02  -0.00  -0.02     0.05  -0.13   0.00
  33   6    -0.01  -0.01   0.01     0.04  -0.01  -0.02    -0.16  -0.11  -0.11
  34   6    -0.05   0.02   0.03    -0.01   0.02  -0.01    -0.20  -0.02  -0.18
  35   6    -0.00  -0.01   0.01    -0.02   0.03  -0.00     0.02   0.03  -0.21
  36   6     0.06  -0.05  -0.01     0.03  -0.01  -0.02     0.18   0.04  -0.03
  37   6     0.08  -0.06  -0.02     0.11  -0.06  -0.04     0.12   0.07   0.01
  38   6     0.02   0.00  -0.01     0.04  -0.03  -0.01    -0.02  -0.07   0.19
  39   6    -0.05   0.07   0.03    -0.11   0.05   0.03    -0.14  -0.21   0.12
  40   6     0.00   0.04   0.02    -0.06   0.01   0.00    -0.11  -0.24  -0.01
  41   6     0.08  -0.03   0.01     0.08  -0.06  -0.05    -0.04  -0.08  -0.11
  42   6     0.08  -0.06  -0.01     0.12  -0.07  -0.05     0.07   0.08  -0.02
  43   6    -0.06  -0.01  -0.06    -0.08   0.00  -0.09     0.17   0.05   0.12
  44   6     0.01   0.01  -0.02     0.00   0.01   0.01     0.00   0.01  -0.02
  45   1     0.04   0.00   0.03     0.04   0.01   0.06    -0.09   0.00  -0.08
  46   1     0.02  -0.02   0.00     0.00   0.00   0.00    -0.02   0.04   0.02
  47   1    -0.02  -0.03  -0.02    -0.03  -0.01  -0.04     0.05   0.06   0.06
  48   1     0.00   0.04   0.01     0.00   0.01   0.05     0.01   0.01   0.00
  49   1     0.00   0.03   0.01    -0.00   0.03   0.03     0.01  -0.02   0.02
  50   1    -0.06   0.03  -0.06     0.03  -0.03   0.07    -0.02   0.03   0.01
  51   1     0.03   0.03   0.00    -0.03  -0.03  -0.00     0.02   0.02  -0.01
  52   1     0.06  -0.03   0.08    -0.06  -0.02  -0.09     0.02  -0.03  -0.01
  53   1    -0.01  -0.08   0.03    -0.00   0.02  -0.02    -0.01  -0.05   0.01
  54   1    -0.10  -0.06  -0.02     0.06   0.02   0.06    -0.05  -0.03   0.03
  55   1     0.01  -0.05  -0.00    -0.08   0.06   0.04    -0.02   0.01   0.00
  56   1     0.00   0.00   0.01     0.02  -0.01   0.00     0.00  -0.00  -0.00
  57   1    -0.03   0.06   0.01     0.09  -0.09  -0.08     0.02  -0.02  -0.02
  58   1    -0.01   0.01  -0.02     0.00  -0.00  -0.07    -0.00   0.00  -0.01
  59   1     0.00  -0.04  -0.03    -0.10   0.07  -0.02    -0.02   0.02  -0.01
  60   1     0.10   0.06   0.01     0.03   0.00  -0.02    -0.02   0.02  -0.00
  61   1    -0.03  -0.00   0.01     0.00  -0.01  -0.01    -0.00   0.01   0.02
  62   1    -0.16  -0.07   0.00    -0.03  -0.05  -0.02     0.02   0.00   0.02
  63   1    -0.01  -0.02  -0.00     0.01  -0.03  -0.02     0.01  -0.01  -0.01
  64   1     0.12   0.05  -0.01     0.04  -0.01  -0.04    -0.01  -0.01  -0.02
  65   1    -0.00   0.04   0.01     0.00  -0.01   0.06     0.03  -0.00   0.00
  66   1    -0.01   0.05   0.00     0.00   0.01   0.05     0.03   0.02   0.00
  67   1     0.02  -0.01  -0.00     0.01  -0.00  -0.00     0.01  -0.07   0.04
  68   1    -0.01  -0.00   0.01     0.02  -0.01  -0.01    -0.08  -0.04  -0.03
  69   1    -0.03   0.02   0.01    -0.01   0.01  -0.00    -0.10   0.01  -0.06
  70   1    -0.01   0.00   0.00    -0.02   0.02   0.00     0.01   0.03  -0.10
  71   1     0.00   0.00  -0.00     0.01  -0.01   0.00    -0.00  -0.02   0.11
  72   1    -0.04   0.04   0.01    -0.07   0.03   0.02    -0.06  -0.08   0.06
  73   1    -0.01   0.02   0.01    -0.04   0.02   0.01    -0.05  -0.09  -0.02
  74   1     0.03  -0.01   0.00     0.03  -0.02  -0.02    -0.03  -0.02  -0.09
  75   1    -0.03  -0.00  -0.02    -0.03   0.00  -0.04     0.07   0.01   0.05
  76   1     0.01   0.01  -0.00     0.01   0.01   0.02    -0.01  -0.02  -0.02
                     25                     26                     27
                        a                      a                      a 
 Frequencies --   210.9005               218.4052               222.2909
 Red. masses --    10.5362                10.6813                10.5923
 Frc consts  --     0.0000                 0.0000                 0.0000
 IR Inten    --     1.6201                 2.9313                 2.6182
 Raman Activ --     0.0000                 0.0000                 0.0000
 Depolar     --     0.0000                 0.0000                 0.0000
 Atom AN      X      Y      Z        X      Y      Z        X      Y      Z
   1   6     0.05   0.02   0.04     0.00  -0.02  -0.04     0.05   0.06   0.21
   2   6     0.01  -0.02  -0.01     0.02  -0.04  -0.00    -0.10   0.10  -0.02
   3   6    -0.06  -0.04  -0.05     0.03  -0.04   0.03    -0.15   0.12  -0.23
   4   6    -0.07  -0.02  -0.02     0.01  -0.03   0.03    -0.05   0.08  -0.20
   5   6    -0.02  -0.01   0.01    -0.02  -0.02  -0.01     0.05   0.03   0.03
   6   6    -0.01   0.05  -0.03    -0.01   0.00  -0.03     0.04  -0.02   0.01
   7   6    -0.02   0.07  -0.06     0.02   0.02  -0.02    -0.02  -0.02  -0.05
   8   6    -0.02   0.01  -0.03     0.02   0.02   0.02    -0.03  -0.07  -0.15
   9   6     0.00  -0.06   0.00     0.01   0.01   0.04     0.03  -0.12  -0.15
  10  14     0.02  -0.03  -0.01     0.04  -0.01   0.02     0.03   0.01   0.01
  11   6    -0.19   0.09   0.16    -0.03  -0.01  -0.07    -0.09   0.09  -0.03
  12   6    -0.10   0.15   0.14    -0.03  -0.01  -0.10    -0.03   0.14  -0.08
  13   6     0.01   0.05   0.00     0.00   0.01  -0.01     0.06   0.13  -0.06
  14   6    -0.01  -0.14  -0.08     0.03   0.02   0.07     0.08   0.08  -0.00
  15   6    -0.07  -0.18   0.08    -0.00  -0.00  -0.02    -0.00   0.03  -0.01
  16   6    -0.17  -0.06   0.22    -0.04  -0.02  -0.10    -0.09   0.05  -0.04
  17   6     0.25   0.27  -0.03    -0.05   0.02   0.15    -0.05  -0.08   0.07
  18   6     0.10   0.25  -0.18    -0.02   0.05   0.24     0.00  -0.07   0.13
  19   6    -0.06   0.05  -0.17     0.07  -0.02   0.21     0.05  -0.02   0.13
  20   6    -0.04  -0.12   0.00     0.14  -0.11   0.18     0.05   0.00   0.10
  21   6     0.07  -0.03   0.19     0.03  -0.02   0.17     0.00  -0.01   0.04
  22   6     0.22   0.19   0.16    -0.06   0.03   0.20    -0.05  -0.06   0.05
  23   6    -0.01  -0.07  -0.04    -0.06   0.16  -0.34    -0.06  -0.03  -0.01
  24   6    -0.01  -0.09  -0.07    -0.10   0.22  -0.18    -0.09  -0.04  -0.01
  25   6     0.03  -0.08  -0.07    -0.03   0.09   0.04    -0.01  -0.01  -0.00
  26   6     0.07  -0.08  -0.07     0.07  -0.14   0.02     0.08   0.02  -0.00
  27   6     0.03  -0.09  -0.06     0.09  -0.22  -0.18    -0.01  -0.01  -0.00
  28   6    -0.01  -0.10  -0.05     0.02  -0.06  -0.38    -0.09  -0.04  -0.01
  29   6     0.01   0.01  -0.04    -0.02   0.04   0.00     0.10  -0.13  -0.10
  30   6     0.01   0.06  -0.06    -0.02   0.02  -0.03     0.11  -0.05  -0.03
  31   6     0.00  -0.03   0.01    -0.02  -0.02  -0.02    -0.04   0.09   0.12
  32   6     0.00  -0.02   0.01    -0.01   0.02  -0.01    -0.10  -0.03   0.11
  33   6    -0.01  -0.02   0.03     0.01   0.03   0.02    -0.03  -0.16  -0.02
  34   6    -0.01  -0.01   0.03     0.03   0.01   0.02    -0.02  -0.13  -0.07
  35   6    -0.00  -0.03   0.03     0.01  -0.02   0.02    -0.08   0.04  -0.03
  36   6     0.00  -0.03   0.01    -0.04  -0.01  -0.00    -0.00   0.07   0.08
  37   6    -0.01  -0.02   0.01    -0.08   0.02   0.01     0.16  -0.04   0.04
  38   6     0.00   0.01  -0.01    -0.03   0.02  -0.03     0.12  -0.05   0.08
  39   6     0.03   0.04   0.00     0.06  -0.02  -0.05    -0.07   0.07   0.14
  40   6     0.04   0.04   0.02     0.02   0.01  -0.02    -0.02   0.04   0.10
  41   6     0.02   0.01   0.04    -0.06   0.04   0.02     0.16  -0.06   0.02
  42   6    -0.01  -0.02   0.02    -0.07   0.02   0.01     0.16  -0.07   0.02
  43   6    -0.08   0.01  -0.04     0.01  -0.02   0.03    -0.08   0.03  -0.23
  44   6    -0.01   0.03  -0.00     0.00  -0.01  -0.01    -0.00   0.01   0.01
  45   1     0.04   0.01   0.03    -0.00  -0.01  -0.02     0.05   0.01   0.14
  46   1     0.01  -0.01  -0.00     0.01  -0.01  -0.00    -0.04   0.04   0.00
  47   1    -0.02  -0.02  -0.02     0.01  -0.02   0.01    -0.06   0.05  -0.09
  48   1    -0.01   0.03  -0.02     0.01   0.01  -0.01    -0.02   0.00  -0.01
  49   1    -0.01  -0.00  -0.01     0.01   0.00   0.01    -0.02  -0.02  -0.06
  50   1    -0.03   0.08   0.05    -0.01  -0.01  -0.04    -0.01   0.06  -0.03
  51   1     0.03   0.03  -0.02     0.00   0.00   0.00     0.03   0.04  -0.02
  52   1     0.01  -0.07  -0.07     0.02   0.01   0.05     0.04   0.02   0.01
  53   1    -0.02  -0.09   0.02     0.00  -0.00   0.00     0.00  -0.01   0.00
  54   1    -0.07  -0.03   0.09    -0.02  -0.01  -0.04    -0.04   0.01  -0.01
  55   1     0.03   0.11  -0.09    -0.02   0.02   0.09    -0.00  -0.03   0.06
  56   1    -0.05   0.00  -0.09     0.03  -0.01   0.06     0.02  -0.00   0.05
  57   1    -0.04  -0.09  -0.00     0.07  -0.06   0.04     0.02   0.01   0.03
  58   1     0.02  -0.04   0.10     0.01  -0.00   0.03     0.00   0.00  -0.00
  59   1     0.09   0.07   0.09    -0.02   0.02   0.07    -0.02  -0.02   0.01
  60   1    -0.00  -0.03  -0.02    -0.05   0.11  -0.05    -0.04  -0.02  -0.00
  61   1     0.01  -0.02  -0.02    -0.02   0.05   0.07     0.00  -0.00  -0.00
  62   1     0.03  -0.02  -0.02     0.04  -0.07   0.05     0.05   0.02   0.00
  63   1     0.01  -0.02  -0.02     0.04  -0.11  -0.06     0.00  -0.00  -0.00
  64   1    -0.01  -0.03  -0.02     0.01  -0.04  -0.16    -0.04  -0.02  -0.00
  65   1     0.00  -0.00  -0.01    -0.01   0.02   0.00     0.05  -0.05  -0.03
  66   1     0.01   0.03  -0.02    -0.01   0.01  -0.01     0.05  -0.01   0.00
  67   1     0.00  -0.01   0.00    -0.00   0.01  -0.01    -0.04  -0.02   0.06
  68   1    -0.00  -0.00   0.01     0.00   0.02   0.01     0.00  -0.07  -0.01
  69   1    -0.01  -0.00   0.01     0.02  -0.00   0.01     0.00  -0.06  -0.04
  70   1    -0.00  -0.01   0.01     0.01  -0.01   0.01    -0.03   0.04  -0.03
  71   1    -0.00   0.01  -0.01    -0.01   0.01  -0.02     0.04  -0.02   0.03
  72   1     0.01   0.02  -0.00     0.04  -0.02  -0.02    -0.06   0.04   0.06
  73   1     0.01   0.02   0.01     0.02   0.00  -0.01    -0.04   0.02   0.04
  74   1     0.01   0.00   0.02    -0.02   0.01   0.01     0.06  -0.03  -0.00
  75   1    -0.03   0.01  -0.02     0.00  -0.00   0.01    -0.03   0.00  -0.10
  76   1    -0.00   0.02   0.00    -0.00   0.00  -0.01     0.01  -0.02   0.03
                     28                     29                     30
                        a                      a                      a 
 Frequencies --   228.7270               231.3188               249.5666
 Red. masses --    10.7872                10.6978                10.4103
 Frc consts  --     0.0000                 0.0000                 0.0000
 IR Inten    --     2.3125                 2.2850                 0.0807
 Raman Activ --     0.0000                 0.0000                 0.0000
 Depolar     --     0.0000                 0.0000                 0.0000
 Atom AN      X      Y      Z        X      Y      Z        X      Y      Z
   1   6     0.02  -0.02   0.08    -0.01  -0.19  -0.01     0.15  -0.06   0.14
   2   6    -0.04   0.04  -0.01     0.00  -0.04  -0.02     0.01  -0.06  -0.08
   3   6    -0.02   0.06  -0.11     0.14   0.03  -0.06    -0.09  -0.06  -0.23
   4   6     0.04   0.04  -0.10     0.19  -0.00  -0.08    -0.04  -0.03  -0.11
   5   6     0.04   0.01   0.01     0.07  -0.03  -0.02     0.05   0.02   0.01
   6   6     0.03  -0.03  -0.02     0.07  -0.07   0.04     0.04   0.08  -0.06
   7   6     0.02  -0.02  -0.04     0.11  -0.00   0.03     0.05   0.04  -0.03
   8   6     0.02  -0.02  -0.06     0.11   0.11   0.05     0.04  -0.06   0.08
   9   6     0.01  -0.02  -0.05     0.04   0.17   0.06     0.02  -0.09   0.12
  10  14    -0.01  -0.00   0.01     0.00  -0.00  -0.00     0.01  -0.00   0.00
  11   6     0.14  -0.20  -0.00    -0.12   0.05   0.03     0.01   0.01  -0.00
  12   6     0.01  -0.31   0.07    -0.07   0.08   0.01     0.02   0.01  -0.00
  13   6    -0.12  -0.26   0.11     0.01   0.04  -0.01     0.01   0.01  -0.01
  14   6    -0.14  -0.17   0.09     0.01  -0.04  -0.00     0.01   0.02  -0.01
  15   6    -0.01  -0.08   0.02    -0.04  -0.08   0.03     0.01   0.02  -0.01
  16   6     0.13  -0.15  -0.01    -0.11  -0.03   0.06     0.02   0.02  -0.00
  17   6     0.11   0.09  -0.06    -0.05  -0.02  -0.01    -0.05  -0.02  -0.01
  18   6     0.04   0.08  -0.14    -0.05  -0.01  -0.00    -0.04  -0.02  -0.00
  19   6    -0.04   0.02  -0.13    -0.01   0.00  -0.01    -0.01  -0.00  -0.01
  20   6    -0.06  -0.01  -0.06     0.00   0.00  -0.05    -0.00   0.01  -0.05
  21   6     0.02   0.01   0.01    -0.02   0.01  -0.06    -0.02   0.01  -0.06
  22   6     0.10   0.07  -0.01    -0.05   0.01  -0.05    -0.05  -0.00  -0.05
  23   6    -0.04   0.19  -0.09     0.02  -0.05   0.03    -0.00  -0.01   0.02
  24   6    -0.06   0.27   0.05     0.04  -0.07  -0.02    -0.01  -0.01   0.01
  25   6    -0.08   0.20   0.16     0.03  -0.06  -0.05    -0.00   0.00   0.00
  26   6    -0.09   0.10   0.16     0.01  -0.04  -0.05     0.00   0.02   0.01
  27   6    -0.02   0.07   0.02     0.01  -0.02  -0.01    -0.01   0.01   0.01
  28   6    -0.01   0.16  -0.09     0.02  -0.04   0.03    -0.01   0.00   0.02
  29   6     0.03  -0.02  -0.05     0.01   0.16   0.04     0.01  -0.05   0.08
  30   6     0.03  -0.01  -0.04     0.00   0.01   0.04     0.02   0.04  -0.02
  31   6    -0.04   0.06   0.07    -0.17   0.14   0.06     0.19  -0.05   0.02
  32   6    -0.09   0.01   0.07    -0.24   0.17   0.08     0.14  -0.13   0.02
  33   6    -0.02  -0.07  -0.01     0.01  -0.00  -0.02    -0.14  -0.02   0.02
  34   6     0.03  -0.09  -0.05     0.22  -0.14  -0.10    -0.13   0.02  -0.02
  35   6    -0.04   0.03  -0.01    -0.09   0.08   0.01     0.13  -0.05  -0.09
  36   6    -0.05   0.07   0.06    -0.26   0.20   0.09     0.11   0.02   0.03
  37   6     0.03   0.02   0.04    -0.14   0.12   0.05    -0.18   0.21   0.13
  38   6     0.05  -0.01   0.05     0.02  -0.01   0.01    -0.12   0.12   0.15
  39   6     0.01   0.01   0.06     0.09  -0.09  -0.02     0.24  -0.15   0.02
  40   6    -0.01   0.02   0.05    -0.07   0.02   0.01     0.07  -0.03   0.04
  41   6     0.04  -0.00   0.03    -0.09   0.06   0.01    -0.24   0.22   0.11
  42   6     0.05  -0.01   0.02    -0.02   0.04   0.00    -0.15   0.17   0.09
  43   6     0.02  -0.02  -0.12     0.20  -0.16  -0.07    -0.11  -0.07  -0.21
  44   6     0.02  -0.06  -0.00     0.09  -0.24  -0.01     0.01  -0.07  -0.05
  45   1     0.01  -0.01   0.06    -0.03  -0.07   0.00     0.09  -0.02   0.11
  46   1    -0.02   0.02   0.00    -0.03   0.01   0.00    -0.00  -0.01  -0.02
  47   1    -0.01   0.03  -0.04     0.04   0.03  -0.01    -0.04  -0.02  -0.09
  48   1     0.00  -0.01  -0.01     0.04  -0.01   0.01     0.01   0.02  -0.02
  49   1     0.01  -0.00  -0.02     0.05   0.04   0.02     0.02  -0.03   0.04
  50   1     0.01  -0.13   0.03    -0.02   0.04   0.00     0.01   0.00   0.00
  51   1    -0.05  -0.09   0.04     0.02   0.02  -0.01     0.00   0.00  -0.00
  52   1    -0.07  -0.03   0.03     0.02  -0.02  -0.01     0.00   0.01  -0.01
  53   1    -0.01   0.02  -0.00    -0.01  -0.04   0.01     0.00   0.01  -0.00
  54   1     0.05  -0.03  -0.01    -0.05  -0.02   0.02     0.01   0.01  -0.00
  55   1     0.02   0.03  -0.06    -0.02  -0.00   0.00    -0.01  -0.01   0.00
  56   1    -0.03   0.00  -0.05     0.00   0.00   0.00     0.00   0.00   0.00
  57   1    -0.03  -0.01  -0.01     0.01  -0.00  -0.02     0.01   0.00  -0.02
  58   1     0.00  -0.01   0.03    -0.01   0.01  -0.02    -0.01   0.01  -0.02
  59   1     0.04   0.02   0.01    -0.02   0.00  -0.02    -0.02  -0.00  -0.02
  60   1    -0.03   0.12   0.02     0.02  -0.03  -0.01    -0.00  -0.00   0.00
  61   1    -0.03   0.07   0.07     0.01  -0.02  -0.02    -0.00  -0.00  -0.00
  62   1    -0.04   0.01   0.07    -0.00  -0.01  -0.02     0.00   0.01   0.00
  63   1     0.01  -0.02   0.00    -0.00   0.00  -0.00    -0.00   0.01   0.00
  64   1     0.01   0.04  -0.04     0.01  -0.01   0.01    -0.01   0.00   0.01
  65   1     0.01  -0.01  -0.02    -0.01   0.06   0.01     0.00  -0.02   0.03
  66   1     0.01  -0.00  -0.01    -0.02  -0.01   0.01    -0.00   0.02  -0.02
  67   1    -0.03  -0.00   0.04    -0.09   0.06   0.03     0.06  -0.07   0.02
  68   1     0.00  -0.04  -0.01     0.03  -0.02  -0.01    -0.08   0.01   0.02
  69   1     0.03  -0.05  -0.03     0.15  -0.10  -0.06    -0.07   0.02  -0.01
  70   1    -0.01   0.02  -0.02    -0.01   0.02  -0.00     0.07  -0.02  -0.06
  71   1     0.02  -0.01   0.01     0.03  -0.02   0.00    -0.04   0.04   0.05
  72   1     0.00   0.00   0.02     0.07  -0.06  -0.02     0.15  -0.11  -0.02
  73   1    -0.01   0.01   0.02    -0.03   0.00   0.00     0.05  -0.04  -0.01
  74   1     0.01  -0.00   0.00    -0.03   0.02  -0.00    -0.10   0.08   0.03
  75   1     0.01  -0.01  -0.05     0.08  -0.06  -0.04    -0.04  -0.03  -0.09
  76   1     0.01  -0.03   0.01     0.03  -0.09   0.00     0.01  -0.01  -0.01
                     31                     32                     33
                        a                      a                      a 
 Frequencies --   281.9109               302.2529               312.0463
 Red. masses --    10.5955                11.0145                12.2983
 Frc consts  --     0.0000                 0.0000                 0.0000
 IR Inten    --     0.6119                 0.6313                 9.8828
 Raman Activ --     0.0000                 0.0000                 0.0000
 Depolar     --     0.0000                 0.0000                 0.0000
 Atom AN      X      Y      Z        X      Y      Z        X      Y      Z
   1   6    -0.13   0.11   0.07    -0.02   0.03  -0.05    -0.05   0.18   0.06
   2   6    -0.12   0.25   0.06     0.03  -0.01   0.04    -0.09   0.10   0.02
   3   6     0.06   0.32  -0.05    -0.01  -0.04   0.07    -0.11   0.07   0.03
   4   6     0.19   0.17  -0.15    -0.04  -0.03   0.05    -0.05   0.01   0.01
   5   6    -0.02  -0.02  -0.05     0.01  -0.01  -0.04     0.04  -0.05   0.00
   6   6    -0.05  -0.16  -0.16     0.05   0.20  -0.27     0.14  -0.06   0.10
   7   6     0.09  -0.11  -0.10     0.13   0.23  -0.25     0.20  -0.04   0.11
   8   6     0.10   0.05   0.08     0.13  -0.15   0.15     0.21   0.05  -0.03
   9   6    -0.04   0.14   0.13     0.06  -0.34   0.33     0.25   0.06  -0.08
  10  14    -0.05   0.03   0.03     0.07  -0.05   0.05     0.28   0.00  -0.00
  11   6     0.01  -0.00  -0.00     0.01   0.01  -0.00    -0.08   0.04   0.03
  12   6     0.01  -0.01   0.00     0.03   0.02  -0.00    -0.10   0.02   0.00
  13   6    -0.00  -0.00   0.00     0.03   0.03  -0.02    -0.03  -0.02   0.00
  14   6    -0.00   0.01  -0.00     0.02   0.04  -0.02    -0.01  -0.09   0.06
  15   6     0.00   0.01  -0.00     0.02   0.04  -0.01    -0.04  -0.11   0.03
  16   6     0.01   0.00   0.00     0.02   0.04  -0.01    -0.10  -0.07   0.02
  17   6     0.00   0.00  -0.00    -0.05  -0.03  -0.01    -0.05  -0.06  -0.00
  18   6    -0.00   0.00  -0.01    -0.08  -0.01  -0.02    -0.08  -0.02   0.01
  19   6    -0.00  -0.00  -0.01    -0.04   0.00  -0.04    -0.02   0.01  -0.01
  20   6    -0.01   0.00  -0.01    -0.01   0.00  -0.10     0.01  -0.00  -0.09
  21   6    -0.00   0.00  -0.01    -0.03   0.03  -0.09    -0.03   0.03  -0.08
  22   6     0.00   0.00  -0.01    -0.06   0.01  -0.07    -0.07   0.01  -0.06
  23   6     0.01  -0.02  -0.00     0.00   0.01  -0.00     0.02   0.03  -0.01
  24   6     0.05  -0.03  -0.04    -0.03   0.01   0.01    -0.08   0.02   0.04
  25   6     0.03  -0.04  -0.04    -0.02   0.01   0.02    -0.05   0.03   0.05
  26   6    -0.01  -0.06  -0.05     0.02   0.03   0.03     0.05   0.09   0.06
  27   6     0.03  -0.04  -0.02    -0.02   0.01   0.01    -0.05   0.03   0.02
  28   6     0.05  -0.03  -0.01    -0.03   0.01  -0.00    -0.08   0.03   0.00
  29   6    -0.20   0.09   0.07     0.00  -0.08   0.09     0.26  -0.01  -0.03
  30   6    -0.20  -0.09  -0.09     0.01   0.21  -0.25     0.24  -0.07   0.06
  31   6    -0.00  -0.05   0.02    -0.02  -0.01   0.01    -0.05  -0.09  -0.09
  32   6     0.06  -0.15  -0.01    -0.13   0.03   0.04     0.03  -0.06  -0.10
  33   6    -0.03  -0.08   0.06    -0.04  -0.04   0.03    -0.02   0.06   0.04
  34   6    -0.13  -0.04   0.13     0.07  -0.13   0.02     0.02  -0.02   0.10
  35   6     0.04  -0.14   0.08    -0.10  -0.01   0.07     0.01  -0.12   0.07
  36   6     0.05  -0.16   0.03    -0.11   0.01   0.06    -0.14  -0.09  -0.04
  37   6    -0.03  -0.14   0.03    -0.04  -0.07   0.03    -0.17  -0.05  -0.03
  38   6    -0.03   0.00  -0.04     0.05  -0.06  -0.05    -0.10  -0.00  -0.13
  39   6     0.03   0.10   0.00    -0.01   0.07   0.01     0.03  -0.04  -0.16
  40   6     0.09   0.06   0.04    -0.00   0.07   0.04    -0.05   0.03  -0.04
  41   6     0.02  -0.02   0.11     0.10  -0.08   0.03    -0.09  -0.04   0.02
  42   6    -0.09  -0.09   0.06    -0.01  -0.08   0.02    -0.04  -0.08   0.01
  43   6     0.20   0.09  -0.14    -0.01   0.02   0.09    -0.08   0.13  -0.01
  44   6     0.05  -0.01  -0.01    -0.02   0.05  -0.00    -0.05   0.16   0.02
  45   1    -0.07   0.01   0.04    -0.01   0.01  -0.04    -0.00   0.05   0.03
  46   1    -0.06   0.09   0.03     0.03  -0.01   0.01    -0.01   0.02  -0.00
  47   1     0.02   0.15  -0.01    -0.00  -0.02   0.02    -0.03   0.03   0.01
  48   1     0.07  -0.05  -0.05     0.06   0.11  -0.12     0.06  -0.02   0.04
  49   1     0.07   0.03   0.04     0.05  -0.07   0.08     0.05   0.02  -0.02
  50   1     0.00  -0.00   0.00     0.01   0.01   0.00    -0.03   0.01  -0.01
  51   1    -0.00  -0.00   0.00     0.00   0.01  -0.01     0.01   0.01  -0.01
  52   1    -0.00   0.00  -0.00     0.01   0.01  -0.01     0.01  -0.03   0.03
  53   1     0.00   0.00  -0.00     0.01   0.01   0.00    -0.01  -0.04   0.01
  54   1     0.01   0.00   0.00     0.01   0.01  -0.01    -0.05  -0.03   0.01
  55   1    -0.00   0.00  -0.00    -0.02  -0.00  -0.00    -0.03  -0.00   0.01
  56   1    -0.00  -0.00  -0.00    -0.00   0.00   0.00     0.00   0.01   0.01
  57   1    -0.00   0.00  -0.00     0.01  -0.00  -0.03     0.02  -0.01  -0.03
  58   1    -0.00   0.00  -0.00    -0.01   0.01  -0.03    -0.01   0.02  -0.03
  59   1    -0.00   0.00  -0.00    -0.03   0.00  -0.03    -0.04   0.00  -0.03
  60   1     0.02  -0.01  -0.01    -0.02   0.01   0.00    -0.04   0.01   0.01
  61   1     0.01  -0.01  -0.01    -0.01   0.00   0.01    -0.02   0.01   0.01
  62   1    -0.01  -0.02  -0.02     0.02   0.01   0.01     0.04   0.04   0.02
  63   1     0.01  -0.01  -0.01    -0.01  -0.00   0.00    -0.02  -0.00   0.00
  64   1     0.02  -0.01  -0.01    -0.02   0.00   0.00    -0.03   0.01   0.00
  65   1    -0.10   0.05   0.03    -0.02  -0.03   0.05     0.08   0.00  -0.01
  66   1    -0.11  -0.05  -0.04    -0.01   0.09  -0.10     0.09  -0.02   0.03
  67   1     0.03  -0.06  -0.00    -0.05   0.01   0.02     0.03  -0.01  -0.06
  68   1    -0.01  -0.01   0.02    -0.01  -0.01   0.01    -0.01   0.05   0.02
  69   1    -0.07   0.02   0.06     0.06  -0.06  -0.00     0.02  -0.00   0.04
  70   1     0.02  -0.05   0.02    -0.04   0.00   0.02     0.02  -0.07   0.04
  71   1    -0.03   0.01  -0.04     0.03  -0.03  -0.04    -0.03  -0.00  -0.06
  72   1     0.00   0.05  -0.01    -0.01   0.03  -0.00     0.05  -0.02  -0.06
  73   1     0.05   0.02   0.02    -0.01   0.04   0.02    -0.01   0.03   0.00
  74   1     0.01  -0.00   0.07     0.06  -0.04   0.02    -0.02  -0.01   0.02
  75   1     0.08   0.01  -0.05    -0.01   0.02   0.04    -0.04   0.05   0.01
  76   1     0.02  -0.06   0.01    -0.01   0.02  -0.01    -0.01   0.04   0.01
                     34                     35                     36
                        a                      a                      a 
 Frequencies --   319.3107               332.0210               358.2649
 Red. masses --     8.9742                10.6636                 8.7695
 Frc consts  --     0.0000                 0.0000                 0.0000
 IR Inten    --     0.7365                 1.7465                 0.0676
 Raman Activ --     0.0000                 0.0000                 0.0000
 Depolar     --     0.0000                 0.0000                 0.0000
 Atom AN      X      Y      Z        X      Y      Z        X      Y      Z
   1   6     0.00  -0.01  -0.01    -0.04  -0.09  -0.03     0.00   0.00   0.00
   2   6     0.02  -0.00   0.02     0.01   0.07   0.01    -0.00  -0.00   0.00
   3   6    -0.00  -0.01  -0.01     0.16   0.14  -0.05    -0.00  -0.00   0.00
   4   6    -0.00   0.00  -0.00     0.16   0.09  -0.14    -0.00  -0.00   0.00
   5   6     0.00   0.00  -0.00    -0.01   0.01   0.01     0.00  -0.00  -0.00
   6   6    -0.02  -0.00   0.00    -0.01   0.25   0.22     0.00  -0.00  -0.01
   7   6    -0.04  -0.03   0.01    -0.20   0.23   0.14     0.00  -0.01  -0.00
   8   6    -0.04   0.02  -0.02    -0.23  -0.03  -0.05     0.01   0.01  -0.00
[...]
  74   1     0.21   0.33  -0.05     0.37   0.60  -0.09     0.16   0.26  -0.04
  75   1     0.20   0.36  -0.15    -0.11  -0.20   0.08    -0.09  -0.17   0.07
  76   1     0.01  -0.00  -0.01    -0.12   0.01   0.08    -0.01   0.00   0.01
                    214                    215                    216
                        a                      a                      a 
 Frequencies --  3084.1527              3085.2656              3085.3094
 Red. masses --     1.8727                 1.9184                 1.9184
 Frc consts  --     0.0000                 0.0000                 0.0000
 IR Inten    --    72.0951                92.4424                86.6125
 Raman Activ --     0.0000                 0.0000                 0.0000
 Depolar     --     0.0000                 0.0000                 0.0000
 Atom AN      X      Y      Z        X      Y      Z        X      Y      Z
   1   6     0.01  -0.02  -0.01     0.00  -0.00  -0.00     0.00  -0.00  -0.00
   2   6    -0.06  -0.12   0.05    -0.00  -0.00   0.00    -0.00  -0.00   0.00
   3   6    -0.11   0.01   0.07    -0.00   0.00   0.00    -0.00   0.00   0.00
   4   6     0.00   0.00  -0.00     0.00  -0.00  -0.00     0.00  -0.00  -0.00
   5   6    -0.00  -0.00   0.00    -0.00   0.00   0.00    -0.00  -0.00  -0.00
   6   6     0.00   0.00   0.00     0.00  -0.00  -0.00    -0.00   0.00   0.00
   7   6     0.00   0.00   0.00     0.00   0.00   0.00    -0.00  -0.00  -0.00
   8   6     0.00  -0.00  -0.00    -0.00   0.00   0.00     0.00  -0.00  -0.00
   9   6    -0.00   0.00   0.00    -0.00  -0.00  -0.00    -0.00  -0.00   0.00
  10  14     0.00  -0.00   0.00     0.00   0.00   0.00     0.00   0.00  -0.00
  11   6    -0.00   0.00   0.00     0.00   0.00  -0.00     0.00   0.00  -0.00
  12   6     0.00   0.00  -0.00     0.04   0.00  -0.01     0.04   0.00  -0.01
  13   6     0.00  -0.00   0.00     0.04  -0.06   0.00     0.04  -0.06   0.00
  14   6     0.00   0.01  -0.00    -0.04  -0.10   0.04    -0.05  -0.10   0.04
  15   6     0.01   0.00  -0.00    -0.07  -0.00   0.02    -0.07  -0.00   0.02
  16   6     0.00  -0.00   0.00    -0.01   0.02  -0.00    -0.01   0.02  -0.00
  17   6     0.00   0.00   0.00     0.00  -0.00   0.00    -0.00   0.00  -0.00
  18   6     0.00   0.00   0.00     0.01   0.01   0.00    -0.03  -0.01  -0.01
  19   6     0.00   0.00  -0.00     0.02   0.02  -0.02    -0.05  -0.06   0.06
  20   6    -0.00   0.00  -0.01    -0.02   0.01  -0.05     0.05  -0.03   0.15
  21   6    -0.00  -0.00  -0.00    -0.03  -0.02  -0.01     0.09   0.05   0.04
  22   6    -0.00  -0.00   0.00    -0.01  -0.01   0.01     0.03   0.04  -0.04
  23   6     0.00  -0.00  -0.00    -0.00   0.00   0.00     0.00  -0.00  -0.00
  24   6     0.00   0.00  -0.00    -0.00  -0.00   0.05     0.00   0.00  -0.02
  25   6    -0.00   0.00  -0.00     0.03  -0.09   0.05    -0.01   0.02  -0.01
  26   6    -0.00   0.00   0.00     0.05  -0.12  -0.10    -0.01   0.03   0.02
  27   6     0.00  -0.00   0.00    -0.00   0.01  -0.10     0.00  -0.00   0.02
  28   6     0.00  -0.00   0.00    -0.01   0.03  -0.01     0.00  -0.01   0.00
  29   6    -0.00  -0.00  -0.00     0.00   0.00   0.00    -0.00  -0.00  -0.00
  30   6     0.01  -0.01  -0.01    -0.00   0.00   0.00    -0.00   0.00   0.00
  31   6     0.00   0.00  -0.00     0.00   0.00  -0.00     0.00  -0.00   0.00
  32   6     0.01   0.01   0.01     0.00   0.00   0.00    -0.00  -0.00  -0.00
  33   6    -0.00   0.00  -0.00     0.00  -0.00   0.00    -0.00   0.00  -0.00
  34   6    -0.00  -0.00  -0.00     0.00   0.00   0.00    -0.00  -0.00   0.00
  35   6    -0.00  -0.00  -0.00     0.00   0.00   0.00    -0.00  -0.00  -0.00
  36   6    -0.00  -0.00  -0.00     0.00  -0.00   0.00    -0.00  -0.00  -0.00
  37   6     0.00   0.00  -0.00     0.00   0.00  -0.00     0.00   0.00  -0.00
  38   6     0.00   0.01  -0.00     0.00   0.00  -0.00     0.00   0.00  -0.00
  39   6    -0.00   0.00  -0.00     0.00   0.00  -0.00     0.00   0.00   0.00
  40   6     0.00   0.01  -0.01    -0.00   0.00  -0.00     0.00   0.00  -0.00
  41   6    -0.03  -0.04   0.01    -0.00  -0.00   0.00    -0.00  -0.00   0.00
  42   6    -0.00  -0.00  -0.00    -0.00  -0.00  -0.00    -0.00  -0.00  -0.00
  43   6    -0.06  -0.12   0.05    -0.00  -0.00   0.00    -0.00  -0.00   0.00
  44   6    -0.11   0.01   0.07    -0.00   0.00   0.00    -0.00   0.00   0.00
  45   1    -0.04   0.08   0.02    -0.00   0.00   0.00    -0.00   0.00   0.00
  46   1     0.21   0.40  -0.16     0.00   0.01  -0.00     0.01   0.01  -0.01
  47   1     0.37  -0.03  -0.25     0.01  -0.00  -0.00     0.01  -0.00  -0.01
  48   1    -0.00  -0.00  -0.00    -0.00  -0.00  -0.01     0.00   0.00   0.00
  49   1    -0.00   0.00   0.00     0.01  -0.01  -0.01    -0.00   0.00   0.00
  50   1    -0.01  -0.00   0.00    -0.12  -0.00   0.04    -0.13  -0.00   0.05
  51   1    -0.00   0.00  -0.00    -0.14   0.20  -0.00    -0.14   0.21  -0.00
  52   1    -0.01  -0.02   0.01     0.15   0.34  -0.14     0.15   0.35  -0.14
  53   1    -0.02  -0.00   0.01     0.22   0.01  -0.08     0.23   0.01  -0.08
  54   1    -0.01   0.01  -0.00     0.05  -0.07   0.00     0.05  -0.07   0.00
  55   1    -0.00  -0.00  -0.00    -0.03  -0.02  -0.01     0.09   0.05   0.04
  56   1    -0.00  -0.01   0.01    -0.05  -0.06   0.06     0.16   0.19  -0.18
  57   1     0.01  -0.00   0.02     0.05  -0.03   0.16    -0.17   0.09  -0.50
  58   1     0.01   0.01   0.01     0.09   0.05   0.04    -0.30  -0.17  -0.12
  59   1     0.01   0.01  -0.01     0.02   0.03  -0.03    -0.10  -0.12   0.12
  60   1     0.00  -0.00   0.00    -0.00   0.02  -0.17     0.00  -0.01   0.05
  61   1     0.00  -0.01   0.00    -0.11   0.31  -0.15     0.03  -0.07   0.03
  62   1     0.00  -0.01  -0.01    -0.17   0.40   0.32     0.04  -0.09  -0.07
  63   1     0.00   0.00  -0.01    -0.00  -0.04   0.31    -0.00   0.01  -0.07
  64   1    -0.00   0.01  -0.00     0.04  -0.10   0.05    -0.01   0.02  -0.01
  65   1     0.01   0.01   0.01    -0.00  -0.00  -0.00     0.00   0.00   0.00
  66   1    -0.02   0.03   0.03     0.00  -0.00  -0.00     0.00  -0.00  -0.00
  67   1    -0.04  -0.04  -0.03    -0.00  -0.00  -0.00     0.00   0.00   0.00
  68   1     0.00  -0.00   0.02    -0.00   0.00  -0.00     0.00  -0.00   0.00
  69   1     0.00   0.00  -0.00    -0.00  -0.00   0.00     0.00   0.00  -0.00
  70   1     0.01   0.02   0.01    -0.00  -0.00  -0.00     0.00   0.00   0.00
  71   1    -0.02  -0.02   0.00    -0.00  -0.00   0.00    -0.00  -0.00   0.00
  72   1     0.00   0.00   0.00     0.00   0.00   0.00    -0.00  -0.00  -0.00
  73   1    -0.00  -0.03   0.06    -0.00  -0.00   0.00    -0.00  -0.00   0.00
  74   1     0.09   0.15  -0.02     0.00   0.00  -0.00     0.00   0.01  -0.00
  75   1     0.21   0.40  -0.16     0.01   0.01  -0.00     0.01   0.02  -0.01
  76   1     0.38  -0.03  -0.25     0.01  -0.00  -0.01     0.01  -0.00  -0.01
                    217                    218                    219
                        a                      a                      a 
 Frequencies --  3086.3396              3089.9572              3091.9659
 Red. masses --     1.9196                 1.8572                 1.9214
 Frc consts  --     0.0000                 0.0000                 0.0000
 IR Inten    --    42.1622                 0.0702                64.4628
 Raman Activ --     0.0000                 0.0000                 0.0000
 Depolar     --     0.0000                 0.0000                 0.0000
 Atom AN      X      Y      Z        X      Y      Z        X      Y      Z
   1   6    -0.00   0.00   0.00    -0.00   0.00   0.00    -0.08   0.17   0.04
   2   6     0.00   0.00  -0.00     0.00   0.00  -0.00     0.05   0.10  -0.04
   3   6     0.00  -0.00  -0.00     0.00  -0.00  -0.00     0.05  -0.00  -0.03
   4   6     0.00  -0.00  -0.00     0.00  -0.00  -0.00     0.00  -0.00  -0.00
   5   6    -0.00  -0.00   0.00    -0.00   0.00  -0.00    -0.00   0.00   0.00
   6   6     0.00  -0.00   0.00     0.00  -0.00  -0.00    -0.00   0.00   0.00
   7   6     0.00   0.00   0.00    -0.00  -0.00  -0.00    -0.00  -0.00  -0.00
   8   6    -0.00   0.00   0.00     0.00  -0.00  -0.00     0.00  -0.00  -0.00
   9   6    -0.00   0.00   0.00     0.00   0.00   0.00     0.00  -0.00  -0.00
  10  14     0.00  -0.00  -0.00     0.00   0.00  -0.00     0.00   0.00   0.00
  11   6     0.00   0.00  -0.00    -0.00  -0.00   0.00    -0.00  -0.00   0.00
  12   6     0.04   0.00  -0.01    -0.00  -0.00   0.00    -0.00  -0.00   0.00
  13   6     0.04  -0.06   0.00    -0.00   0.00  -0.00    -0.00   0.00  -0.00
  14   6    -0.04  -0.10   0.04     0.00   0.00  -0.00     0.00   0.00  -0.00
  15   6    -0.07  -0.00   0.02    -0.00  -0.00   0.00     0.00   0.00  -0.00
  16   6    -0.01   0.02  -0.00    -0.00   0.00   0.00     0.00  -0.00   0.00
  17   6     0.00  -0.00   0.00    -0.00  -0.00   0.00    -0.00   0.00  -0.00
  18   6     0.02   0.01   0.01     0.00   0.00   0.00     0.00   0.00   0.00
  19   6     0.04   0.04  -0.04     0.00   0.00  -0.00    -0.00  -0.00   0.00
  20   6    -0.04   0.02  -0.11    -0.00  -0.00  -0.00     0.00  -0.00   0.00
  21   6    -0.07  -0.04  -0.03     0.00   0.00   0.00     0.00   0.00   0.00
  22   6    -0.02  -0.02   0.02     0.00   0.00  -0.00     0.00   0.00  -0.00
  23   6     0.00  -0.00  -0.00    -0.00  -0.00   0.00    -0.00   0.00   0.00
  24   6     0.00   0.00  -0.04    -0.00   0.00  -0.00     0.00  -0.00   0.00
  25   6    -0.03   0.07  -0.03    -0.00   0.00   0.00     0.00  -0.00   0.00
  26   6    -0.04   0.09   0.07     0.00  -0.00  -0.00     0.00  -0.00  -0.00
  27   6     0.00  -0.01   0.07     0.00   0.00  -0.00    -0.00   0.00  -0.00
  28   6     0.01  -0.02   0.01    -0.00   0.00  -0.00    -0.00   0.00  -0.00
  29   6    -0.00  -0.00  -0.00    -0.00  -0.00  -0.00     0.00   0.00   0.00
  30   6     0.00  -0.00  -0.00     0.00  -0.00  -0.00    -0.00   0.00   0.00
  31   6     0.00   0.00  -0.00     0.00   0.00   0.00    -0.00   0.00  -0.00
  32   6     0.00   0.00   0.00    -0.01  -0.01  -0.01     0.00   0.00   0.00
  33   6     0.00   0.00   0.00    -0.01   0.01  -0.03    -0.00   0.00  -0.00
  34   6     0.00   0.00  -0.00    -0.02  -0.05   0.03     0.00   0.00  -0.00
  35   6    -0.00  -0.00  -0.00    -0.11  -0.11  -0.09     0.01   0.01   0.01
  36   6    -0.00  -0.00  -0.00    -0.00  -0.00  -0.00     0.00  -0.00   0.00
  37   6    -0.00  -0.00   0.00     0.00   0.00  -0.00     0.00   0.00  -0.00
  38   6    -0.00  -0.00   0.00     0.09   0.15  -0.02     0.01   0.02  -0.00
  39   6    -0.00   0.00  -0.00     0.03   0.02   0.05     0.00   0.00   0.00
  40   6     0.00   0.00  -0.00    -0.00   0.01  -0.03    -0.00  -0.00   0.00
  41   6     0.00   0.00  -0.00     0.01   0.02  -0.00     0.00   0.00  -0.00
  42   6     0.00   0.00   0.00    -0.00  -0.00   0.00    -0.00  -0.00  -0.00
  43   6    -0.00  -0.00   0.00     0.00   0.00  -0.00    -0.03  -0.06   0.02
  44   6    -0.00   0.00   0.00     0.00  -0.00  -0.00    -0.12   0.01   0.08
  45   1     0.01  -0.01  -0.00     0.00  -0.01  -0.00     0.25  -0.58  -0.14
  46   1    -0.01  -0.01   0.01    -0.01  -0.01   0.00    -0.17  -0.33   0.14
  47   1    -0.02   0.00   0.01    -0.02   0.00   0.01    -0.17   0.01   0.11
  48   1    -0.01  -0.01  -0.02     0.00   0.00   0.01     0.00   0.00   0.00
  49   1     0.00  -0.00  -0.00    -0.00   0.00   0.00    -0.00   0.00   0.01
  50   1    -0.13  -0.00   0.05     0.00   0.00  -0.00     0.00   0.00  -0.00
  51   1    -0.15   0.21  -0.00     0.00  -0.00   0.00     0.00  -0.01   0.00
  52   1     0.15   0.34  -0.14    -0.00  -0.00   0.00    -0.00  -0.01   0.00
  53   1     0.23   0.01  -0.08     0.00  -0.00  -0.00    -0.01  -0.00   0.00
  54   1     0.05  -0.07   0.00     0.00  -0.00  -0.00    -0.00   0.00  -0.00
  55   1    -0.07  -0.04  -0.03    -0.00  -0.00  -0.00    -0.00  -0.00  -0.00
  56   1    -0.12  -0.14   0.14    -0.00  -0.00   0.00     0.00   0.00  -0.00
  57   1     0.12  -0.06   0.36    -0.00  -0.00   0.00    -0.00   0.00  -0.01
  58   1     0.22   0.12   0.09    -0.00  -0.00  -0.00    -0.01  -0.00  -0.00
  59   1     0.06   0.07  -0.07    -0.00  -0.00   0.00    -0.00  -0.00   0.00
  60   1     0.00  -0.01   0.12     0.00  -0.00   0.00     0.00   0.00  -0.00
  61   1     0.09  -0.23   0.11     0.00  -0.00   0.00    -0.00   0.00  -0.00
  62   1     0.13  -0.30  -0.24    -0.00   0.00   0.00    -0.00   0.01   0.00
  63   1     0.00   0.03  -0.24    -0.00  -0.00   0.00     0.00  -0.00   0.00
  64   1    -0.03   0.08  -0.03     0.00  -0.00   0.00     0.00  -0.00   0.00
  65   1     0.00   0.00   0.00     0.00   0.00   0.00    -0.00  -0.00  -0.00
  66   1    -0.01   0.01   0.01    -0.00   0.01   0.01     0.00  -0.00  -0.00
  67   1    -0.00  -0.01  -0.00     0.05   0.05   0.04    -0.01  -0.01  -0.00
  68   1    -0.00   0.00  -0.00     0.03  -0.02   0.13     0.00  -0.00   0.01
  69   1    -0.00  -0.00   0.00     0.08   0.17  -0.11    -0.01  -0.01   0.01
  70   1     0.01   0.01   0.01     0.37   0.41   0.31    -0.05  -0.05  -0.04
  71   1     0.01   0.01  -0.00    -0.33  -0.52   0.07    -0.04  -0.06   0.01
  72   1    -0.00  -0.00  -0.00    -0.11  -0.07  -0.17    -0.01  -0.01  -0.01
  73   1    -0.00  -0.00   0.00    -0.00  -0.06   0.12     0.00   0.00  -0.00
  74   1    -0.00  -0.00   0.00    -0.04  -0.06   0.01    -0.00  -0.00   0.00
  75   1     0.00   0.00  -0.00    -0.01  -0.01   0.00     0.11   0.21  -0.08
  76   1     0.00  -0.00  -0.00    -0.01   0.00   0.00     0.39  -0.03  -0.26
                    220                    221                    222
                        a                      a                      a 
 Frequencies --  3093.9623              3102.2792              3103.7890
 Red. masses --     1.8441                 1.8586                 1.8718
 Frc consts  --     0.0000                 0.0000                 0.0000
 IR Inten    --    90.9911                39.6149                 5.2442
 Raman Activ --     0.0000                 0.0000                 0.0000
 Depolar     --     0.0000                 0.0000                 0.0000
 Atom AN      X      Y      Z        X      Y      Z        X      Y      Z
   1   6     0.01  -0.02  -0.00     0.00  -0.00  -0.00     0.00  -0.01  -0.00
   2   6    -0.01  -0.01   0.00     0.00   0.00  -0.00    -0.00  -0.00   0.00
   3   6    -0.00   0.00   0.00     0.00  -0.00  -0.00    -0.00   0.00   0.00
   4   6    -0.00   0.00   0.00     0.00   0.00  -0.00    -0.00  -0.00  -0.00
   5   6     0.00   0.00   0.00    -0.00   0.00  -0.00     0.00  -0.00  -0.00
   6   6    -0.00   0.00   0.00     0.00  -0.00  -0.00    -0.00  -0.00  -0.00
   7   6    -0.00  -0.00  -0.00    -0.00  -0.00  -0.00    -0.00  -0.00  -0.00
   8   6    -0.00   0.00   0.00     0.00  -0.00  -0.00    -0.00   0.00   0.00
   9   6     0.00  -0.00  -0.00     0.00   0.00   0.00     0.00   0.00   0.00
  10  14    -0.00   0.00   0.00    -0.00   0.00  -0.00    -0.00   0.00  -0.00
  11   6     0.00   0.00  -0.00    -0.00  -0.00   0.00     0.00  -0.00   0.00
  12   6    -0.00  -0.00   0.00    -0.00  -0.00   0.00    -0.00  -0.00   0.00
  13   6     0.00  -0.00   0.00    -0.00   0.00  -0.00     0.00  -0.00   0.00
  14   6    -0.00  -0.00   0.00     0.00   0.00  -0.00    -0.00  -0.00   0.00
  15   6    -0.00  -0.00   0.00     0.00   0.00  -0.00    -0.00  -0.00   0.00
  16   6    -0.00   0.00  -0.00    -0.00   0.00   0.00    -0.00   0.00  -0.00
  17   6     0.00  -0.00   0.00    -0.00  -0.00   0.00     0.00  -0.00   0.00
  18   6    -0.00  -0.00  -0.00     0.00   0.00   0.00    -0.00  -0.00  -0.00
  19   6     0.00   0.00  -0.00     0.00   0.00  -0.00     0.00   0.00  -0.00
  20   6    -0.00   0.00  -0.00    -0.00   0.00  -0.00    -0.00   0.00  -0.00
  21   6    -0.00  -0.00  -0.00     0.00   0.00   0.00    -0.00  -0.00  -0.00
  22   6    -0.00  -0.00   0.00     0.00   0.00  -0.00    -0.00  -0.00   0.00
  23   6     0.00  -0.00  -0.00     0.00  -0.00   0.00     0.00  -0.00  -0.00
  24   6     0.00   0.00  -0.00    -0.00   0.00  -0.00    -0.00   0.00  -0.00
  25   6    -0.00   0.00  -0.00    -0.00   0.00  -0.00    -0.00   0.00  -0.00
  26   6    -0.00   0.00   0.00     0.00  -0.00  -0.00    -0.00   0.00   0.00
  27   6     0.00  -0.00   0.00     0.00   0.00  -0.00    -0.00  -0.00   0.00
  28   6     0.00  -0.00   0.00    -0.00   0.00  -0.00     0.00  -0.00   0.00
  29   6    -0.00  -0.00  -0.00    -0.00  -0.00  -0.00    -0.00  -0.00  -0.00
  30   6    -0.00   0.00   0.00     0.00  -0.00  -0.00     0.00  -0.00  -0.00
  31   6    -0.00  -0.00  -0.00     0.00  -0.00   0.00    -0.00  -0.00   0.00
  32   6     0.01   0.01   0.01    -0.03  -0.03  -0.03    -0.03  -0.03  -0.03
  33   6     0.01  -0.01   0.05    -0.04   0.03  -0.18    -0.04   0.03  -0.17
  34   6     0.02   0.04  -0.02     0.02   0.04  -0.03     0.02   0.04  -0.03
  35   6     0.10   0.11   0.09     0.02   0.02   0.02     0.03   0.03   0.02
  36   6     0.00   0.00   0.00     0.00   0.00   0.00     0.00   0.00   0.00
  37   6     0.00   0.00  -0.00    -0.00  -0.00   0.00     0.00   0.00  -0.00
  38   6     0.10   0.15  -0.02    -0.01  -0.02   0.01     0.03   0.04  -0.01
  39   6     0.03   0.02   0.04    -0.02  -0.01  -0.04     0.03   0.02   0.04
  40   6    -0.00   0.02  -0.05     0.00   0.08  -0.16    -0.00  -0.08   0.16
  41   6     0.01   0.02  -0.00     0.02   0.04  -0.01    -0.03  -0.04   0.01
  42   6    -0.00  -0.00   0.00     0.00  -0.00   0.00    -0.00   0.00  -0.00
  43   6     0.00   0.00  -0.00     0.00   0.00  -0.00     0.00   0.00   0.00
  44   6     0.01  -0.00  -0.01     0.00  -0.00  -0.00     0.00  -0.00  -0.00
  45   1    -0.03   0.06   0.02    -0.00   0.00   0.00    -0.01   0.02   0.00
  46   1     0.02   0.03  -0.01    -0.00  -0.00   0.00     0.01   0.02  -0.01
  47   1     0.01  -0.00  -0.01    -0.01   0.00   0.00     0.01  -0.00  -0.01
  48   1     0.00   0.00   0.00     0.00   0.00   0.00     0.00   0.00   0.00
  49   1     0.00  -0.00  -0.00    -0.00   0.00   0.00     0.00  -0.00  -0.00
  50   1     0.00   0.00  -0.00     0.00   0.00  -0.00     0.00  -0.00  -0.00
  51   1    -0.00   0.00  -0.00     0.00  -0.00   0.00    -0.00   0.00  -0.00
  52   1     0.00   0.01  -0.00    -0.00  -0.00   0.00     0.00   0.00  -0.00
  53   1     0.01   0.00  -0.00    -0.00  -0.00   0.00     0.00   0.00  -0.00
  54   1     0.00  -0.00   0.00     0.00  -0.00  -0.00     0.00  -0.00   0.00
  55   1     0.00   0.00   0.00    -0.00  -0.00  -0.00     0.00   0.00   0.00
  56   1    -0.00  -0.00   0.00    -0.00  -0.00   0.00    -0.00  -0.00   0.00
  57   1     0.00  -0.00   0.01     0.00  -0.00   0.00     0.00  -0.00   0.00
  58   1     0.00   0.00   0.00    -0.00  -0.00  -0.00     0.00   0.00   0.00
  59   1     0.00   0.00  -0.00    -0.00  -0.00   0.00     0.00   0.00  -0.00
  60   1    -0.00  -0.00   0.00     0.00  -0.00   0.00    -0.00  -0.00   0.00
  61   1     0.00  -0.01   0.00     0.00  -0.00   0.00     0.00  -0.00   0.00
  62   1     0.00  -0.01  -0.01    -0.00   0.00   0.00     0.00  -0.00  -0.00
  63   1    -0.00   0.00  -0.00    -0.00  -0.00   0.00     0.00   0.00  -0.00
  64   1    -0.00  -0.00   0.00     0.00  -0.00   0.00    -0.00   0.00  -0.00
  65   1     0.00   0.00   0.00     0.00   0.00   0.00     0.00   0.00   0.00
  66   1     0.00  -0.00  -0.00    -0.00   0.00   0.01    -0.00   0.00   0.01
  67   1    -0.04  -0.05  -0.04     0.09   0.10   0.08     0.09   0.10   0.08
  68   1    -0.04   0.03  -0.18     0.14  -0.11   0.63     0.13  -0.10   0.58
  69   1    -0.06  -0.13   0.08    -0.05  -0.12   0.07    -0.06  -0.13   0.08
  70   1    -0.36  -0.40  -0.31    -0.06  -0.07  -0.05    -0.09  -0.10  -0.08
  71   1    -0.34  -0.53   0.07     0.05   0.08  -0.01    -0.09  -0.13   0.02
  72   1    -0.08  -0.06  -0.13     0.07   0.05   0.11    -0.08  -0.06  -0.13
  73   1    -0.00  -0.09   0.17    -0.01  -0.28   0.55     0.01   0.29  -0.57
  74   1    -0.04  -0.06   0.01    -0.08  -0.12   0.02     0.08   0.13  -0.02
  75   1    -0.01  -0.02   0.01    -0.00  -0.01   0.00     0.00  -0.00  -0.00
  76   1    -0.05   0.00   0.03    -0.00   0.00   0.00    -0.01   0.00   0.01
