      -----------------------------------------------------------      
     |                   =====================                   |     
     |                           x T B                           |     
     |                   =====================                   |     
     |                         S. Grimme                         |     
     |          Mulliken Center for Theoretical Chemistry        |     
     |                    University of Bonn                     |     
      -----------------------------------------------------------      

   * xtb version 6.7.1 (edcfbbe) compiled by 'albert@albert-system' on 2024-07-22

   xtb is free software: you can redistribute it and/or modify it under
   the terms of the GNU Lesser General Public License as published by
   the Free Software Foundation, either version 3 of the License, or
   (at your option) any later version.
   
   xtb is distributed in the hope that it will be useful,
   but WITHOUT ANY WARRANTY; without even the implied warranty of
   MERCHANTABILITY or FITNESS FOR A PARTICULAR PURPOSE.  See the
   GNU Lesser General Public License for more details.
   
   Cite this work as:
   * C. Bannwarth, E. Caldeweyher, S. Ehlert, A. Hansen, P. Pracht,
     J. Seibert, S. Spicher, S. Grimme, WIREs Comput. Mol. Sci., 2020, 11,
     e01493. DOI: 10.1002/wcms.1493
   
   for GFN2-xTB:
   * C. Bannwarth, S. Ehlert and S. Grimme., J. Chem. Theory Comput., 2019,
     15, 1652-1671. DOI: 10.1021/acs.jctc.8b01176
   for GFN1-xTB:
   * S. Grimme, C. Bannwarth, P. Shushkov, J. Chem. Theory Comput., 2017,
     13, 1989-2009. DOI: 10.1021/acs.jctc.7b00118
   for GFN0-xTB:
   * P. Pracht, E. Caldeweyher, S. Ehlert, S. Grimme, ChemRxiv, 2019, preprint.
     DOI: 10.26434/chemrxiv.8326202.v1
   for GFN-FF:
   * S. Spicher and S. Grimme, Angew. Chem. Int. Ed., 2020, 59, 15665-15673.
     DOI: 10.1002/anie.202004239
   
   for ALPB and GBSA implicit solvation:
   * S. Ehlert, M. Stahn, S. Spicher, S. Grimme, J. Chem. Theory Comput.,
     2021, 17, 4250-4261. DOI: 10.1021/acs.jctc.1c00471
   
   for ddCOSMO and CPCM-X implicit solvation:
   * M. Stahn, S. Ehlert, S. Grimme, J. Phys. Chem. A,
     2023, XX, XXXX-XXXX. DOI: 10.1021/acs.jpca.3c04382
   
   for DFT-D4:
   * E. Caldeweyher, C. Bannwarth and S. Grimme, J. Chem. Phys., 2017,
     147, 034112. DOI: 10.1063/1.4993215
   * E. Caldeweyher, S. Ehlert, A. Hansen, H. Neugebauer, S. Spicher,
     C. Bannwarth and S. Grimme, J. Chem. Phys., 2019, 150, 154122.
     DOI: 10.1063/1.5090222
   * E. Caldeweyher, J.-M. Mewes, S. Ehlert and S. Grimme, Phys. Chem. Chem. Phys.
     2020, 22, 8499-8512. DOI: 10.1039/D0CP00502A
   
   for sTDA-xTB:
   * S. Grimme and C. Bannwarth, J. Chem. Phys., 2016, 145, 054103.
     DOI: 10.1063/1.4959605
   
   in the mass-spec context:
   * V. Asgeirsson, C. Bauer and S. Grimme, Chem. Sci., 2017, 8, 4879.
     DOI: 10.1039/c7sc00601b
   * J. Koopman and S. Grimme, ACS Omega 2019, 4, 12, 15120-15133.
     DOI: 10.1021/acsomega.9b02011
   
   for metadynamics refer to:
   * S. Grimme, J. Chem. Theory Comput., 2019, 155, 2847-2862
     DOI: 10.1021/acs.jctc.9b00143
   
   for SPH calculations refer to:
   * S. Spicher and S. Grimme, J. Chem. Theory Comput., 2021, 17, 1701-1714
     DOI: 10.1021/acs.jctc.0c01306
   
   for ONIOM refer to:
   * C. Plett, A. Katbashev, S. Ehlert, S. Grimme, M. Bursch,
     Phys. Chem. Chem. Phys., 2023, 25, 17860-17868. DOI: 10.1039/D3CP02178E
   
   for DIPRO refer to:
   * J. Kohn, N. Gildemeister, S. Grimme, D. Fazzi, A. Hansen,
     J. Chem. Phys., 2023, just accepted.
   
   for PTB refer to:
   * S. Grimme, M. Mueller, A. Hansen, J. Chem. Phys., 2023, 158, 124111.
     DOI: 10.1063/5.0137838
   
   with help from (in alphabetical order)
   P. Atkinson, C. Bannwarth, F. Bohle, G. Brandenburg, E. Caldeweyher
   M. Checinski, S. Dohm, S. Ehlert, S. Ehrlich, I. Gerasimov, C. Hölzer
   A. Katbashev, J. Kohn, J. Koopman, C. Lavigne, S. Lehtola, F. März, M. Müller,
   F. Musil, H. Neugebauer, J. Pisarek, C. Plett, P. Pracht, F. Pultar,
   J. Seibert, P. Shushkov, S. Spicher, M. Stahn, M. Steiner, T. Strunk,
   J. Stückrath, T. Rose, and J. Unsleber
   
 * started run on 2025/08/22 at 08:30:52.110     
   ID    Z sym.   atoms
    1    6 C      1-6, 8-25
    2    5 B      7
    3    1 H      26-52

           -------------------------------------------------
          |                Calculation Setup                |
           -------------------------------------------------

          program call               : xtb data2507/gas/N-B/N-B.xyz --gfn 2 --ohess vtight --parallel 40 --molden --ceasefiles --namespace data2507/gas/N-B/N-B_gas_S0_preOpt
          calculation namespace      : data2507/gas/N-B/N-B_gas_S0_preOpt
          coordinate file            : data2507/gas/N-B/N-B.xyz
          omp threads                :                    40


           -------------------------------------------------
          |                 G F N 2 - x T B                 |
           -------------------------------------------------

        Reference                      10.1021/acs.jctc.8b01176
      * Hamiltonian:
        H0-scaling (s, p, d)           1.850000    2.230000    2.230000
        zeta-weighting                 0.500000
      * Dispersion:
        s8                             2.700000
        a1                             0.520000
        a2                             5.000000
        s9                             5.000000
      * Repulsion:
        kExp                           1.500000    1.000000
        rExp                           1.000000
      * Coulomb:
        alpha                          2.000000
        third order                    shell-resolved
        anisotropic                    true
        a3                             3.000000
        a5                             4.000000
        cn-shift                       1.200000
        cn-exp                         4.000000
        max-rad                        5.000000


          ...................................................
          :                      SETUP                      :
          :.................................................:
          :  # basis functions                 127          :
          :  # atomic orbitals                 127          :
          :  # shells                           77          :
          :  # electrons                       126          :
          :  max. iterations                   250          :
          :  Hamiltonian                  GFN2-xTB          :
          :  restarted?                      false          :
          :  GBSA solvation                  false          :
          :  PC potential                    false          :
          :  electronic temp.          300.0000000     K    :
          :  accuracy                    1.0000000          :
          :  -> integral cutoff          0.2500000E+02      :
          :  -> integral neglect         0.1000000E-07      :
          :  -> SCF convergence          0.1000000E-05 Eh   :
          :  -> wf. convergence          0.1000000E-03 e    :
          :  Broyden damping             0.4000000          :
          :  net charge                          0          :
          :  unpaired electrons                  0          :
          ...................................................

 iter      E             dE          RMSdq      gap      omega  full diag
   1    -67.3660030 -0.673660E+02  0.450E+00    3.49       0.0  T
   2    -67.5141315 -0.148129E+00  0.298E+00    2.09       1.0  T
   3    -67.4937229  0.204086E-01  0.136E+00    3.29       1.0  T
   4    -67.5439369 -0.502140E-01  0.413E-01    2.53       1.0  T
   5    -67.5542584 -0.103215E-01  0.196E-01    2.86       1.0  T
   6    -67.5554860 -0.122759E-02  0.991E-02    2.82       1.0  T
   7    -67.5556316 -0.145600E-03  0.304E-02    2.80       1.0  T
   8    -67.5556663 -0.346993E-04  0.119E-02    2.81       1.2  T
   9    -67.5556707 -0.442030E-05  0.331E-03    2.81       4.2  T
  10    -67.5556707 -0.423428E-08  0.159E-03    2.81       8.7  T
  11    -67.5556708 -0.870845E-07  0.624E-04    2.81      22.2  T
  12    -67.5556708 -0.131992E-07  0.192E-04    2.81      72.1  T

   *** convergence criteria satisfied after 12 iterations ***

         #    Occupation            Energy/Eh            Energy/eV
      -------------------------------------------------------------
         1        2.0000           -0.6372036             -17.3392
       ...           ...                  ...                  ...
        57        2.0000           -0.3945648             -10.7367
        58        2.0000           -0.3939899             -10.7210
        59        2.0000           -0.3858148             -10.4986
        60        2.0000           -0.3778245             -10.2811
        61        2.0000           -0.3764771             -10.2445
        62        2.0000           -0.3722318             -10.1289
        63        2.0000           -0.3665772              -9.9751 (HOMO)
        64                         -0.2633955              -7.1674 (LUMO)
        65                         -0.2140403              -5.8243
        66                         -0.2107067              -5.7336
        67                         -0.2077361              -5.6528
        68                         -0.2066674              -5.6237
       ...                                ...                  ...
       127                          0.6874798              18.7073
      -------------------------------------------------------------
                  HL-Gap            0.1031817 Eh            2.8077 eV
             Fermi-level           -0.3149863 Eh           -8.5712 eV

 SCC (total)                   0 d,  0 h,  0 min,  0.070 sec
 SCC setup                      ...        0 min,  0.000 sec (  0.664%)
 Dispersion                     ...        0 min,  0.002 sec (  2.456%)
 classical contributions        ...        0 min,  0.000 sec (  0.241%)
 integral evaluation            ...        0 min,  0.004 sec (  5.373%)
 iterations                     ...        0 min,  0.058 sec ( 82.846%)
 molecular gradient             ...        0 min,  0.005 sec (  7.680%)
 printout                       ...        0 min,  0.000 sec (  0.618%)

         :::::::::::::::::::::::::::::::::::::::::::::::::::::
         ::                     SUMMARY                     ::
         :::::::::::::::::::::::::::::::::::::::::::::::::::::
         :: total energy             -66.362998414861 Eh    ::
         :: gradient norm              0.126159068466 Eh/a0 ::
         :: HOMO-LUMO gap              2.807716728626 eV    ::
         ::.................................................::
         :: SCC energy               -67.554200712568 Eh    ::
         :: -> isotropic ES            0.025842603164 Eh    ::
         :: -> anisotropic ES          0.015055117249 Eh    ::
         :: -> anisotropic XC          0.040220634480 Eh    ::
         :: -> dispersion             -0.061960841825 Eh    ::
         :: repulsion energy           1.191202297708 Eh    ::
         :: add. restraining           0.000000000000 Eh    ::
         :: total charge              -0.000000000000 e     ::
         :::::::::::::::::::::::::::::::::::::::::::::::::::::

      ----------------------------------------------------------- 
     |                   =====================                   |
     |                        A N C O P T                        |
     |                   =====================                   |
     |               Approximate Normal Coordinate               |
     |                Rational Function Optimizer                |
      ----------------------------------------------------------- 

Optimization log is written to '/dev/null'
      ----------------------------------------------------------- 
     |                   =====================                   |
     |                        A N C O P T                        |
     |                   =====================                   |
     |               Approximate Normal Coordinate               |
     |                Rational Function Optimizer                |
      ----------------------------------------------------------- 

          ...................................................
          :                      SETUP                      :
          :.................................................:
          :   optimization level         verytight          :
          :   max. optcycles                  1040          :
          :   ANC micro-cycles                  20          :
          :   degrees of freedom               150          :
          :.................................................:
          :   RF solver                   davidson          :
          :   write xtbopt.log                true          :
          :   linear?                        false          :
          :   energy convergence         0.1000000E-06 Eh   :
          :   grad. convergence          0.2000000E-03 Eh/α :
          :   maxmium RF displ.          1.0000000          :
          :   Hlow (freq-cutoff)         0.1000000E-01      :
          :   Hmax (freq-cutoff)         5.0000000          :
          :   S6 in model hess.         20.0000000          :
          ...................................................

generating ANC from exact Hessian ...
Using Lindh-Hessian (1995)
 Shifting diagonal of input Hessian by   9.691569078518560E-003
 Lowest  eigenvalues of input Hessian
    0.000000    0.000000    0.000000    0.000000    0.000000    0.000000
    0.010000    0.010037    0.010122    0.010316    0.010492    0.010810
    0.011593    0.011660    0.014281    0.014414    0.014530    0.014764
 Highest eigenvalues
    1.980928    1.983649    1.997678    2.011877    2.030872    2.037592
 

........................................................................
.............................. CYCLE    1 ..............................
........................................................................

 iter      E             dE          RMSdq      gap      omega  full diag
   1    -67.5556708 -0.675557E+02  0.738E-05    2.81       0.0  T
   2    -67.5556708 -0.816414E-10  0.466E-05    2.81     297.8  T
   3    -67.5556708 -0.575682E-10  0.269E-05    2.81     516.4  T
     SCC iter.                  ...        0 min,  0.013 sec
     gradient                   ...        0 min,  0.005 sec
 * total energy  :   -66.3629984 Eh     change       -0.1240537E-08 Eh
   gradient norm :     0.1261592 Eh/α   predicted     0.0000000E+00 (-100.00%)
   displ. norm   :     0.3430269 α      lambda       -0.2755288E-01
   maximum displ.:     0.1554827 α      in ANC's #71, #39, #74, ...

........................................................................
.............................. CYCLE    2 ..............................
........................................................................

 iter      E             dE          RMSdq      gap      omega  full diag
   1    -67.5868028 -0.675868E+02  0.264E-01    2.76       0.0  T
   2    -67.5868946 -0.917891E-04  0.157E-01    2.78       1.0  T
   3    -67.5866887  0.205863E-03  0.555E-02    2.74       1.0  T
   4    -67.5869195 -0.230732E-03  0.134E-02    2.77       1.0  T
   5    -67.5869314 -0.119663E-04  0.561E-03    2.77       2.5  T
   6    -67.5869327 -0.128919E-05  0.235E-03    2.77       5.9  T
   7    -67.5869328 -0.459001E-07  0.861E-04    2.77      16.1  T
   8    -67.5869328 -0.100082E-07  0.305E-04    2.77      45.5  T
     SCC iter.                  ...        0 min,  0.031 sec
     gradient                   ...        0 min,  0.005 sec
 * total energy  :   -66.3813720 Eh     change       -0.1837361E-01 Eh
   gradient norm :     0.0459419 Eh/α   predicted    -0.1539792E-01 ( -16.20%)
   displ. norm   :     0.2218758 α      lambda       -0.5406998E-02
   maximum displ.:     0.0634464 α      in ANC's #71, #29, #6, ...

........................................................................
.............................. CYCLE    3 ..............................
........................................................................

 iter      E             dE          RMSdq      gap      omega  full diag
   1    -67.5961385 -0.675961E+02  0.145E-01    2.75       0.0  T
   2    -67.5961619 -0.234240E-04  0.859E-02    2.76       1.0  T
   3    -67.5961265  0.354006E-04  0.283E-02    2.75       1.0  T
   4    -67.5961681 -0.416162E-04  0.524E-03    2.75       2.6  T
   5    -67.5961693 -0.116959E-05  0.266E-03    2.75       5.2  T
   6    -67.5961697 -0.367060E-06  0.121E-03    2.75      11.4  T
   7    -67.5961697 -0.293713E-07  0.463E-04    2.75      29.9  T
   8    -67.5961697 -0.359067E-08  0.160E-04    2.75      86.8  T
     SCC iter.                  ...        0 min,  0.031 sec
     gradient                   ...        0 min,  0.005 sec
 * total energy  :   -66.3843426 Eh     change       -0.2970584E-02 Eh
   gradient norm :     0.0077632 Eh/α   predicted    -0.2836880E-02 (  -4.50%)
   displ. norm   :     0.1273536 α      lambda       -0.3486961E-03
   maximum displ.:     0.0691358 α      in ANC's #6, #4, #20, ...

........................................................................
.............................. CYCLE    4 ..............................
........................................................................

 iter      E             dE          RMSdq      gap      omega  full diag
   1    -67.5940430 -0.675940E+02  0.511E-02    2.76       0.0  T
   2    -67.5940435 -0.485577E-06  0.303E-02    2.75       1.0  T
   3    -67.5940416  0.189326E-05  0.691E-03    2.76       2.0  T
   4    -67.5940439 -0.221531E-05  0.808E-04    2.75      17.2  T
   5    -67.5940439 -0.173155E-08  0.396E-04    2.75      35.0  T
   6    -67.5940439 -0.149218E-08  0.153E-04    2.75      90.7  T
     SCC iter.                  ...        0 min,  0.023 sec
     gradient                   ...        0 min,  0.005 sec
 * total energy  :   -66.3846035 Eh     change       -0.2608398E-03 Eh
   gradient norm :     0.0039698 Eh/α   predicted    -0.1771995E-03 ( -32.07%)
   displ. norm   :     0.2124949 α      lambda       -0.2990254E-03
   maximum displ.:     0.1331742 α      in ANC's #6, #4, #20, ...

........................................................................
.............................. CYCLE    5 ..............................
........................................................................

 iter      E             dE          RMSdq      gap      omega  full diag
   1    -67.5922804 -0.675923E+02  0.780E-02    2.76       0.0  T
   2    -67.5922812 -0.726522E-06  0.461E-02    2.76       1.0  T
   3    -67.5922788  0.238767E-05  0.778E-03    2.76       1.8  T
   4    -67.5922816 -0.282086E-05  0.113E-03    2.76      12.3  T
   5    -67.5922816 -0.323634E-08  0.556E-04    2.76      24.9  T
   6    -67.5922816 -0.218145E-08  0.183E-04    2.76      75.7  T
     SCC iter.                  ...        0 min,  0.023 sec
     gradient                   ...        0 min,  0.005 sec
 * total energy  :   -66.3848094 Eh     change       -0.2059040E-03 Eh
   gradient norm :     0.0033100 Eh/α   predicted    -0.1562805E-03 ( -24.10%)
   displ. norm   :     0.1842221 α      lambda       -0.1512288E-03
   maximum displ.:     0.1228342 α      in ANC's #6, #4, #20, ...

........................................................................
.............................. CYCLE    6 ..............................
........................................................................

 iter      E             dE          RMSdq      gap      omega  full diag
   1    -67.5922071 -0.675922E+02  0.653E-02    2.76       0.0  T
   2    -67.5922075 -0.393566E-06  0.385E-02    2.76       1.0  T
   3    -67.5922061  0.134577E-05  0.564E-03    2.75       2.5  T
   4    -67.5922077 -0.157255E-05  0.920E-04    2.76      15.1  T
   5    -67.5922077 -0.203741E-09  0.575E-04    2.75      24.1  T
   6    -67.5922077 -0.100010E-07  0.228E-04    2.75      60.8  T
     SCC iter.                  ...        0 min,  0.023 sec
     gradient                   ...        0 min,  0.005 sec
 * total energy  :   -66.3849345 Eh     change       -0.1251425E-03 Eh
   gradient norm :     0.0042380 Eh/α   predicted    -0.7819640E-04 ( -37.51%)
   displ. norm   :     0.2261957 α      lambda       -0.1778881E-03
   maximum displ.:     0.1502688 α      in ANC's #6, #4, #2, ...

........................................................................
.............................. CYCLE    7 ..............................
........................................................................

 iter      E             dE          RMSdq      gap      omega  full diag
   1    -67.5930365 -0.675930E+02  0.780E-02    2.75       0.0  T
   2    -67.5930370 -0.565475E-06  0.459E-02    2.75       1.0  T
   3    -67.5930350  0.203434E-05  0.679E-03    2.75       2.0  T
   4    -67.5930374 -0.235481E-05  0.108E-03    2.75      12.9  T
   5    -67.5930374 -0.600033E-08  0.685E-04    2.75      20.3  T
   6    -67.5930374 -0.155681E-07  0.277E-04    2.75      50.1  T
     SCC iter.                  ...        0 min,  0.023 sec
     gradient                   ...        0 min,  0.005 sec
 * total energy  :   -66.3850863 Eh     change       -0.1518006E-03 Eh
   gradient norm :     0.0037594 Eh/α   predicted    -0.9349523E-04 ( -38.41%)
   displ. norm   :     0.2970677 α      lambda       -0.2077338E-03
   maximum displ.:     0.1971089 α      in ANC's #6, #4, #2, ...

........................................................................
.............................. CYCLE    8 ..............................
........................................................................

 iter      E             dE          RMSdq      gap      omega  full diag
   1    -67.5937814 -0.675938E+02  0.989E-02    2.74       0.0  T
   2    -67.5937824 -0.971371E-06  0.582E-02    2.74       1.0  T
   3    -67.5937789  0.352073E-05  0.880E-03    2.74       1.6  T
   4    -67.5937829 -0.406141E-05  0.127E-03    2.74      11.0  T
   5    -67.5937829 -0.166607E-07  0.805E-04    2.74      17.2  T
   6    -67.5937830 -0.218913E-07  0.349E-04    2.74      39.8  T
     SCC iter.                  ...        0 min,  0.023 sec
     gradient                   ...        0 min,  0.005 sec
 * total energy  :   -66.3852598 Eh     change       -0.1734544E-03 Eh
   gradient norm :     0.0028566 Eh/α   predicted    -0.1130351E-03 ( -34.83%)
   displ. norm   :     0.3501552 α      lambda       -0.2052969E-03
   maximum displ.:     0.2306355 α      in ANC's #6, #4, #2, ...

........................................................................
.............................. CYCLE    9 ..............................
........................................................................

 iter      E             dE          RMSdq      gap      omega  full diag
   1    -67.5939266 -0.675939E+02  0.113E-01    2.73       0.0  T
   2    -67.5939279 -0.130050E-05  0.664E-02    2.73       1.0  T
   3    -67.5939231  0.481146E-05  0.103E-02    2.73       1.3  T
   4    -67.5939286 -0.554034E-05  0.131E-03    2.73      10.6  T
   5    -67.5939287 -0.256275E-07  0.841E-04    2.73      16.5  T
   6    -67.5939287 -0.253707E-07  0.372E-04    2.73      37.3  T
     SCC iter.                  ...        0 min,  0.023 sec
     gradient                   ...        0 min,  0.005 sec
 * total energy  :   -66.3854307 Eh     change       -0.1709903E-03 Eh
   gradient norm :     0.0032150 Eh/α   predicted    -0.1152340E-03 ( -32.61%)
   displ. norm   :     0.4254168 α      lambda       -0.2208672E-03
   maximum displ.:     0.2764120 α      in ANC's #6, #4, #2, ...

........................................................................
.............................. CYCLE   10 ..............................
........................................................................

 iter      E             dE          RMSdq      gap      omega  full diag
   1    -67.5935037 -0.675935E+02  0.135E-01    2.71       0.0  T
   2    -67.5935055 -0.184455E-05  0.794E-02    2.71       1.0  T
   3    -67.5934984  0.711300E-05  0.126E-02    2.71       1.1  T
   4    -67.5935066 -0.817492E-05  0.150E-03    2.71       9.2  T
   5    -67.5935066 -0.370765E-07  0.970E-04    2.71      14.3  T
   6    -67.5935066 -0.348985E-07  0.427E-04    2.71      32.5  T
     SCC iter.                  ...        0 min,  0.025 sec
     gradient                   ...        0 min,  0.005 sec
 * total energy  :   -66.3856100 Eh     change       -0.1792503E-03 Eh
   gradient norm :     0.0044025 Eh/α   predicted    -0.1304237E-03 ( -27.24%)
   displ. norm   :     0.4737637 α      lambda       -0.2303113E-03
   maximum displ.:     0.2980590 α      in ANC's #6, #4, #2, ...

........................................................................
.............................. CYCLE   11 ..............................
........................................................................

 iter      E             dE          RMSdq      gap      omega  full diag
   1    -67.5930930 -0.675931E+02  0.149E-01    2.70       0.0  T
   2    -67.5930952 -0.223014E-05  0.876E-02    2.70       1.0  T
   3    -67.5930861  0.905327E-05  0.143E-02    2.69       1.0  T
   4    -67.5930965 -0.103775E-04  0.169E-03    2.70       8.2  T
   5    -67.5930966 -0.418261E-07  0.111E-03    2.69      12.5  T
   6    -67.5930966 -0.461950E-07  0.484E-04    2.70      28.7  T
   7    -67.5930966 -0.476652E-08  0.899E-05    2.70     154.3  T
     SCC iter.                  ...        0 min,  0.029 sec
     gradient                   ...        0 min,  0.005 sec
 * total energy  :   -66.3857887 Eh     change       -0.1787503E-03 Eh
   gradient norm :     0.0050554 Eh/α   predicted    -0.1410030E-03 ( -21.12%)
   displ. norm   :     0.4163651 α      lambda       -0.2081319E-03
   maximum displ.:     0.2567012 α      in ANC's #4, #6, #2, ...

........................................................................
.............................. CYCLE   12 ..............................
........................................................................

 iter      E             dE          RMSdq      gap      omega  full diag
   1    -67.5942003 -0.675942E+02  0.129E-01    2.69       0.0  T
   2    -67.5942020 -0.174535E-05  0.759E-02    2.68       1.0  T
   3    -67.5941951  0.692154E-05  0.127E-02    2.68       1.1  T
   4    -67.5942030 -0.794100E-05  0.159E-03    2.68       8.7  T
   5    -67.5942030 -0.207703E-07  0.105E-03    2.68      13.3  T
   6    -67.5942031 -0.415016E-07  0.467E-04    2.68      29.7  T
   7    -67.5942031 -0.524079E-08  0.745E-05    2.68     186.2  T
     SCC iter.                  ...        0 min,  0.029 sec
     gradient                   ...        0 min,  0.005 sec
 * total energy  :   -66.3859438 Eh     change       -0.1550607E-03 Eh
   gradient norm :     0.0037279 Eh/α   predicted    -0.1221099E-03 ( -21.25%)
   displ. norm   :     0.4151427 α      lambda       -0.1378661E-03
   maximum displ.:     0.2548334 α      in ANC's #4, #6, #15, ...

........................................................................
.............................. CYCLE   13 ..............................
........................................................................

 iter      E             dE          RMSdq      gap      omega  full diag
   1    -67.5925594 -0.675926E+02  0.129E-01    2.67       0.0  T
   2    -67.5925611 -0.166350E-05  0.761E-02    2.67       1.0  T
   3    -67.5925541  0.694205E-05  0.126E-02    2.67       1.1  T
   4    -67.5925621 -0.794990E-05  0.152E-03    2.67       9.1  T
   5    -67.5925621 -0.315083E-07  0.994E-04    2.67      13.9  T
   6    -67.5925622 -0.347077E-07  0.438E-04    2.67      31.7  T
     SCC iter.                  ...        0 min,  0.025 sec
     gradient                   ...        0 min,  0.005 sec
 * total energy  :   -66.3860430 Eh     change       -0.9918340E-04 Eh
   gradient norm :     0.0034281 Eh/α   predicted    -0.8081541E-04 ( -18.52%)
   displ. norm   :     0.2875138 α      lambda       -0.1330612E-03
   maximum displ.:     0.1719825 α      in ANC's #4, #6, #8, ...

........................................................................
.............................. CYCLE   14 ..............................
........................................................................

 iter      E             dE          RMSdq      gap      omega  full diag
   1    -67.5966315 -0.675966E+02  0.830E-02    2.67       0.0  T
   2    -67.5966326 -0.108346E-05  0.489E-02    2.67       1.0  T
   3    -67.5966295  0.311235E-05  0.853E-03    2.66       1.6  T
   4    -67.5966331 -0.357938E-05  0.129E-03    2.67      10.7  T
   5    -67.5966331 -0.301389E-07  0.762E-04    2.67      18.2  T
   6    -67.5966331 -0.170179E-07  0.402E-04    2.67      34.5  T
     SCC iter.                  ...        0 min,  0.025 sec
     gradient                   ...        0 min,  0.005 sec
 * total energy  :   -66.3860963 Eh     change       -0.5329847E-04 Eh
   gradient norm :     0.0033392 Eh/α   predicted    -0.7203063E-04 (  35.15%)
   displ. norm   :     0.3844524 α      lambda       -0.9606439E-04
   maximum displ.:     0.2349174 α      in ANC's #4, #6, #15, ...

........................................................................
.............................. CYCLE   15 ..............................
........................................................................

 iter      E             dE          RMSdq      gap      omega  full diag
   1    -67.5915758 -0.675916E+02  0.122E-01    2.65       0.0  T
   2    -67.5915775 -0.169783E-05  0.720E-02    2.65       1.0  T
   3    -67.5915712  0.630663E-05  0.117E-02    2.65       1.2  T
   4    -67.5915784 -0.718547E-05  0.157E-03    2.65       8.8  T
   5    -67.5915785 -0.797469E-07  0.914E-04    2.65      15.2  T
   6    -67.5915785 -0.193975E-07  0.445E-04    2.65      31.2  T
     SCC iter.                  ...        0 min,  0.025 sec
     gradient                   ...        0 min,  0.005 sec
 * total energy  :   -66.3861378 Eh     change       -0.4151568E-04 Eh
   gradient norm :     0.0040856 Eh/α   predicted    -0.5513269E-04 (  32.80%)
   displ. norm   :     0.0594244 α      lambda       -0.4201596E-04
   maximum displ.:     0.0309252 α      in ANC's #6, #4, #2, ...

........................................................................
.............................. CYCLE   16 ..............................
........................................................................

 iter      E             dE          RMSdq      gap      omega  full diag
   1    -67.5937053 -0.675937E+02  0.204E-02    2.65       0.0  T
   2    -67.5937054 -0.905818E-07  0.121E-02    2.65       1.1  T
   3    -67.5937053  0.149249E-06  0.203E-03    2.65       6.8  T
   4    -67.5937055 -0.179605E-06  0.423E-04    2.65      32.8  T
   5    -67.5937055 -0.199407E-08  0.211E-04    2.65      65.7  T
     SCC iter.                  ...        0 min,  0.021 sec
     gradient                   ...        0 min,  0.005 sec
 * total energy  :   -66.3861697 Eh     change       -0.3184930E-04 Eh
   gradient norm :     0.0024264 Eh/α   predicted    -0.2108852E-04 ( -33.79%)
   displ. norm   :     0.1849621 α      lambda       -0.6895823E-04
   maximum displ.:     0.1016010 α      in ANC's #4, #6, #15, ...

........................................................................
.............................. CYCLE   17 ..............................
........................................................................

 iter      E             dE          RMSdq      gap      omega  full diag
   1    -67.5954536 -0.675955E+02  0.571E-02    2.65       0.0  T
   2    -67.5954540 -0.385559E-06  0.337E-02    2.65       1.0  T
   3    -67.5954530  0.101682E-05  0.484E-03    2.65       2.9  T
   4    -67.5954542 -0.116835E-05  0.935E-04    2.65      14.8  T
   5    -67.5954542 -0.144080E-07  0.554E-04    2.65      25.0  T
   6    -67.5954542 -0.858094E-08  0.262E-04    2.65      52.9  T
     SCC iter.                  ...        0 min,  0.024 sec
     gradient                   ...        0 min,  0.005 sec
 * total energy  :   -66.3862138 Eh     change       -0.4418992E-04 Eh
   gradient norm :     0.0016920 Eh/α   predicted    -0.3566092E-04 ( -19.30%)
   displ. norm   :     0.3794182 α      lambda       -0.3688892E-04
   maximum displ.:     0.2353972 α      in ANC's #4, #6, #15, ...

........................................................................
.............................. CYCLE   18 ..............................
........................................................................

 iter      E             dE          RMSdq      gap      omega  full diag
   1    -67.5942597 -0.675943E+02  0.113E-01    2.64       0.0  T
   2    -67.5942608 -0.115954E-05  0.665E-02    2.64       1.0  T
   3    -67.5942553  0.550570E-05  0.106E-02    2.64       1.3  T
   4    -67.5942615 -0.622594E-05  0.143E-03    2.64       9.7  T
   5    -67.5942616 -0.613558E-07  0.870E-04    2.64      15.9  T
   6    -67.5942616 -0.199043E-07  0.368E-04    2.64      37.7  T
     SCC iter.                  ...        0 min,  0.024 sec
     gradient                   ...        0 min,  0.005 sec
 * total energy  :   -66.3862315 Eh     change       -0.1763075E-04 Eh
   gradient norm :     0.0039837 Eh/α   predicted    -0.1962488E-04 (  11.31%)
   displ. norm   :     0.0825124 α      lambda       -0.3296571E-04
   maximum displ.:     0.0521200 α      in ANC's #4, #6, #15, ...

........................................................................
.............................. CYCLE   19 ..............................
........................................................................

 iter      E             dE          RMSdq      gap      omega  full diag
   1    -67.5946909 -0.675947E+02  0.224E-02    2.64       0.0  T
   2    -67.5946910 -0.979490E-07  0.132E-02    2.64       1.0  T
   3    -67.5946908  0.129305E-06  0.184E-03    2.64       7.5  T
   4    -67.5946910 -0.158112E-06  0.344E-04    2.64      40.3  T
   5    -67.5946910 -0.173843E-08  0.169E-04    2.64      82.1  T
     SCC iter.                  ...        0 min,  0.020 sec
     gradient                   ...        0 min,  0.005 sec
 * total energy  :   -66.3862550 Eh     change       -0.2349525E-04 Eh
   gradient norm :     0.0018304 Eh/α   predicted    -0.1659964E-04 ( -29.35%)
   displ. norm   :     0.1356268 α      lambda       -0.3399238E-04
   maximum displ.:     0.0760470 α      in ANC's #4, #2, #19, ...

........................................................................
.............................. CYCLE   20 ..............................
........................................................................

 iter      E             dE          RMSdq      gap      omega  full diag
   1    -67.5966150 -0.675966E+02  0.317E-02    2.65       0.0  T
   2    -67.5966153 -0.293452E-06  0.188E-02    2.65       1.0  T
   3    -67.5966149  0.375928E-06  0.289E-03    2.65       4.8  T
   4    -67.5966154 -0.435562E-06  0.705E-04    2.65      19.7  T
   5    -67.5966154 -0.155497E-07  0.333E-04    2.65      41.6  T
     SCC iter.                  ...        0 min,  0.020 sec
     gradient                   ...        0 min,  0.005 sec
 * total energy  :   -66.3862819 Eh     change       -0.2697813E-04 Eh
   gradient norm :     0.0028530 Eh/α   predicted    -0.1713771E-04 ( -36.48%)
   displ. norm   :     0.2230530 α      lambda       -0.3085488E-04
   maximum displ.:     0.1415094 α      in ANC's #4, #6, #15, ...
 * RMSD in coord.:     0.6246409 α      energy gain  -0.2328353E-01 Eh

generating ANC from exact Hessian ...
Using Lindh-Hessian (1995)
 Shifting diagonal of input Hessian by   9.665498624962344E-003
 Lowest  eigenvalues of input Hessian
    0.000000    0.000000    0.000000    0.000000    0.000000    0.000000
    0.010000    0.010030    0.010116    0.010207    0.010433    0.010695
    0.011553    0.011621    0.014038    0.014302    0.014488    0.014569
 Highest eigenvalues
    1.948912    1.949985    1.976949    1.978347    1.983469    2.004651
 

........................................................................
.............................. CYCLE   21 ..............................
........................................................................

 iter      E             dE          RMSdq      gap      omega  full diag
   1    -67.5949830 -0.675950E+02  0.595E-02    2.64       0.0  T
   2    -67.5949834 -0.359226E-06  0.350E-02    2.64       1.0  T
   3    -67.5949826  0.818663E-06  0.460E-03    2.64       3.0  T
   4    -67.5949836 -0.977308E-06  0.731E-04    2.64      19.0  T
   5    -67.5949836 -0.814083E-08  0.437E-04    2.64      31.8  T
     SCC iter.                  ...        0 min,  0.020 sec
     gradient                   ...        0 min,  0.005 sec
 * total energy  :   -66.3863031 Eh     change       -0.2116515E-04 Eh
   gradient norm :     0.0029099 Eh/α   predicted     0.0000000E+00 (-100.00%)
   displ. norm   :     0.0252589 α      lambda       -0.2288720E-04
   maximum displ.:     0.0111235 α      in ANC's #1, #7, #8, ...

........................................................................
.............................. CYCLE   22 ..............................
........................................................................

 iter      E             dE          RMSdq      gap      omega  full diag
   1    -67.5953338 -0.675953E+02  0.995E-03    2.64       0.0  T
   2    -67.5953338 -0.347186E-07  0.594E-03    2.64       2.3  T
   3    -67.5953337  0.105170E-06  0.136E-03    2.64      10.2  T
   4    -67.5953338 -0.119892E-06  0.264E-04    2.64      52.6  T
   5    -67.5953338 -0.200356E-08  0.135E-04    2.64     102.4  T
     SCC iter.                  ...        0 min,  0.020 sec
     gradient                   ...        0 min,  0.005 sec
 * total energy  :   -66.3863190 Eh     change       -0.1588043E-04 Eh
   gradient norm :     0.0009966 Eh/α   predicted    -0.1146725E-04 ( -27.79%)
   displ. norm   :     0.0605597 α      lambda       -0.1371661E-04
   maximum displ.:     0.0311644 α      in ANC's #1, #7, #8, ...

........................................................................
.............................. CYCLE   23 ..............................
........................................................................

 iter      E             dE          RMSdq      gap      omega  full diag
   1    -67.5956871 -0.675957E+02  0.138E-02    2.64       0.0  T
   2    -67.5956871 -0.539774E-07  0.817E-03    2.64       1.7  T
   3    -67.5956870  0.142660E-06  0.182E-03    2.64       7.6  T
   4    -67.5956872 -0.168150E-06  0.273E-04    2.64      50.8  T
   5    -67.5956872 -0.549306E-09  0.154E-04    2.64      90.0  T
     SCC iter.                  ...        0 min,  0.021 sec
     gradient                   ...        0 min,  0.005 sec
 * total energy  :   -66.3863309 Eh     change       -0.1187841E-04 Eh
   gradient norm :     0.0016458 Eh/α   predicted    -0.6873443E-05 ( -42.13%)
   displ. norm   :     0.0605692 α      lambda       -0.9073640E-05
   maximum displ.:     0.0332330 α      in ANC's #1, #7, #19, ...

........................................................................
.............................. CYCLE   24 ..............................
........................................................................

 iter      E             dE          RMSdq      gap      omega  full diag
   1    -67.5956153 -0.675956E+02  0.125E-02    2.65       0.0  T
   2    -67.5956153 -0.166959E-07  0.738E-03    2.65       1.9  T
   3    -67.5956152  0.812719E-07  0.121E-03    2.65      11.5  T
   4    -67.5956153 -0.927190E-07  0.208E-04    2.65      66.7  T
   5    -67.5956153 -0.601688E-09  0.124E-04    2.65     111.9  T
     SCC iter.                  ...        0 min,  0.020 sec
     gradient                   ...        0 min,  0.005 sec
 * total energy  :   -66.3863429 Eh     change       -0.1198718E-04 Eh
   gradient norm :     0.0015865 Eh/α   predicted    -0.4584776E-05 ( -61.75%)
   displ. norm   :     0.1753363 α      lambda       -0.2450527E-04
   maximum displ.:     0.0978911 α      in ANC's #1, #19, #7, ...

........................................................................
.............................. CYCLE   25 ..............................
........................................................................

 iter      E             dE          RMSdq      gap      omega  full diag
   1    -67.5951736 -0.675952E+02  0.357E-02    2.65       0.0  T
   2    -67.5951738 -0.161974E-06  0.211E-02    2.65       1.0  T
   3    -67.5951724  0.132323E-05  0.467E-03    2.65       3.0  T
   4    -67.5951739 -0.147096E-05  0.619E-04    2.65      22.4  T
   5    -67.5951739 -0.874638E-08  0.362E-04    2.65      38.3  T
   6    -67.5951739 -0.371286E-08  0.148E-04    2.65      93.4  T
     SCC iter.                  ...        0 min,  0.024 sec
     gradient                   ...        0 min,  0.005 sec
 * total energy  :   -66.3863671 Eh     change       -0.2421178E-04 Eh
   gradient norm :     0.0009841 Eh/α   predicted    -0.1242070E-04 ( -48.70%)
   displ. norm   :     0.1129450 α      lambda       -0.9810371E-05
   maximum displ.:     0.0710686 α      in ANC's #1, #19, #15, ...

........................................................................
.............................. CYCLE   26 ..............................
........................................................................

 iter      E             dE          RMSdq      gap      omega  full diag
   1    -67.5952446 -0.675952E+02  0.219E-02    2.66       0.0  T
   2    -67.5952446 -0.474207E-07  0.130E-02    2.66       1.1  T
   3    -67.5952444  0.242669E-06  0.215E-03    2.66       6.4  T
   4    -67.5952447 -0.279914E-06  0.369E-04    2.66      37.5  T
   5    -67.5952447  0.172619E-09  0.229E-04    2.66      60.5  T
     SCC iter.                  ...        0 min,  0.020 sec
     gradient                   ...        0 min,  0.005 sec
 * total energy  :   -66.3863776 Eh     change       -0.1050133E-04 Eh
   gradient norm :     0.0008855 Eh/α   predicted    -0.4934354E-05 ( -53.01%)
   displ. norm   :     0.0866570 α      lambda       -0.7891560E-05
   maximum displ.:     0.0591471 α      in ANC's #1, #19, #15, ...

........................................................................
.............................. CYCLE   27 ..............................
........................................................................

 iter      E             dE          RMSdq      gap      omega  full diag
   1    -67.5955425 -0.675955E+02  0.149E-02    2.66       0.0  T
   2    -67.5955425 -0.310566E-07  0.879E-03    2.66       1.6  T
   3    -67.5955424  0.132525E-06  0.169E-03    2.66       8.2  T
   4    -67.5955425 -0.154760E-06  0.245E-04    2.66      56.5  T
   5    -67.5955425  0.198426E-09  0.132E-04    2.66     105.4  T
     SCC iter.                  ...        0 min,  0.022 sec
     gradient                   ...        0 min,  0.005 sec
 * total energy  :   -66.3863875 Eh     change       -0.9918854E-05 Eh
   gradient norm :     0.0006268 Eh/α   predicted    -0.3961179E-05 ( -60.06%)
   displ. norm   :     0.1102141 α      lambda       -0.9940562E-05
   maximum displ.:     0.0761178 α      in ANC's #1, #19, #15, ...

........................................................................
.............................. CYCLE   28 ..............................
........................................................................

 iter      E             dE          RMSdq      gap      omega  full diag
   1    -67.5956771 -0.675957E+02  0.170E-02    2.66       0.0  T
   2    -67.5956772 -0.419946E-07  0.101E-02    2.66       1.4  T
   3    -67.5956770  0.157520E-06  0.170E-03    2.66       8.2  T
   4    -67.5956772 -0.186132E-06  0.300E-04    2.66      46.3  T
   5    -67.5956772  0.781753E-09  0.161E-04    2.66      86.3  T
     SCC iter.                  ...        0 min,  0.021 sec
     gradient                   ...        0 min,  0.005 sec
 * total energy  :   -66.3863994 Eh     change       -0.1193323E-04 Eh
   gradient norm :     0.0005104 Eh/α   predicted    -0.5001327E-05 ( -58.09%)
   displ. norm   :     0.1033777 α      lambda       -0.7148721E-05
   maximum displ.:     0.0725760 α      in ANC's #1, #19, #7, ...

........................................................................
.............................. CYCLE   29 ..............................
........................................................................

 iter      E             dE          RMSdq      gap      omega  full diag
   1    -67.5956937 -0.675957E+02  0.157E-02    2.66       0.0  T
   2    -67.5956937 -0.334803E-07  0.928E-03    2.66       1.5  T
   3    -67.5956936  0.111581E-06  0.134E-03    2.66      10.3  T
   4    -67.5956938 -0.131935E-06  0.281E-04    2.66      49.4  T
   5    -67.5956938  0.271228E-09  0.170E-04    2.66      81.6  T
     SCC iter.                  ...        0 min,  0.021 sec
     gradient                   ...        0 min,  0.005 sec
 * total energy  :   -66.3864078 Eh     change       -0.8399042E-05 Eh
   gradient norm :     0.0004822 Eh/α   predicted    -0.3594665E-05 ( -57.20%)
   displ. norm   :     0.0844026 α      lambda       -0.4829227E-05
   maximum displ.:     0.0592313 α      in ANC's #1, #19, #4, ...

........................................................................
.............................. CYCLE   30 ..............................
........................................................................

 iter      E             dE          RMSdq      gap      omega  full diag
   1    -67.5957064 -0.675957E+02  0.150E-02    2.67       0.0  T
   2    -67.5957064 -0.255290E-07  0.885E-03    2.66       1.6  T
   3    -67.5957063  0.970737E-07  0.123E-03    2.66      11.3  T
   4    -67.5957064 -0.112091E-06  0.242E-04    2.66      57.3  T
   5    -67.5957064 -0.713527E-09  0.145E-04    2.66      95.8  T
     SCC iter.                  ...        0 min,  0.021 sec
     gradient                   ...        0 min,  0.005 sec
 * total energy  :   -66.3864137 Eh     change       -0.5879213E-05 Eh
   gradient norm :     0.0003711 Eh/α   predicted    -0.2422731E-05 ( -58.79%)
   displ. norm   :     0.0743709 α      lambda       -0.3965563E-05
   maximum displ.:     0.0515210 α      in ANC's #1, #4, #19, ...

........................................................................
.............................. CYCLE   31 ..............................
........................................................................

 iter      E             dE          RMSdq      gap      omega  full diag
   1    -67.5955940 -0.675956E+02  0.154E-02    2.67       0.0  T
   2    -67.5955941 -0.211220E-07  0.903E-03    2.67       1.5  T
   3    -67.5955939  0.115233E-06  0.134E-03    2.66      10.4  T
   4    -67.5955941 -0.130513E-06  0.215E-04    2.67      64.6  T
   5    -67.5955941 -0.849397E-09  0.130E-04    2.66     106.9  T
     SCC iter.                  ...        0 min,  0.020 sec
     gradient                   ...        0 min,  0.005 sec
 * total energy  :   -66.3864188 Eh     change       -0.5141788E-05 Eh
   gradient norm :     0.0002437 Eh/α   predicted    -0.1992450E-05 ( -61.25%)
   displ. norm   :     0.0816188 α      lambda       -0.4484665E-05
   maximum displ.:     0.0560640 α      in ANC's #1, #4, #6, ...

........................................................................
.............................. CYCLE   32 ..............................
........................................................................

 iter      E             dE          RMSdq      gap      omega  full diag
   1    -67.5955294 -0.675955E+02  0.187E-02    2.67       0.0  T
   2    -67.5955294 -0.269398E-07  0.110E-02    2.67       1.3  T
   3    -67.5955293  0.111156E-06  0.144E-03    2.66       9.6  T
   4    -67.5955294 -0.127875E-06  0.230E-04    2.67      60.4  T
   5    -67.5955294 -0.961620E-09  0.143E-04    2.67      97.0  T
     SCC iter.                  ...        0 min,  0.020 sec
     gradient                   ...        0 min,  0.005 sec
 * total energy  :   -66.3864249 Eh     change       -0.6017672E-05 Eh
   gradient norm :     0.0003270 Eh/α   predicted    -0.2252150E-05 ( -62.57%)
   displ. norm   :     0.1019108 α      lambda       -0.5726637E-05
   maximum displ.:     0.0684731 α      in ANC's #1, #4, #6, ...

........................................................................
.............................. CYCLE   33 ..............................
........................................................................

 iter      E             dE          RMSdq      gap      omega  full diag
   1    -67.5954683 -0.675955E+02  0.243E-02    2.67       0.0  T
   2    -67.5954684 -0.419944E-07  0.143E-02    2.67       1.0  T
   3    -67.5954682  0.177948E-06  0.184E-03    2.66       7.5  T
   4    -67.5954684 -0.204720E-06  0.282E-04    2.67      49.2  T
   5    -67.5954684 -0.148012E-08  0.177E-04    2.67      78.2  T
     SCC iter.                  ...        0 min,  0.020 sec
     gradient                   ...        0 min,  0.005 sec
 * total energy  :   -66.3864326 Eh     change       -0.7700165E-05 Eh
   gradient norm :     0.0004620 Eh/α   predicted    -0.2878878E-05 ( -62.61%)
   displ. norm   :     0.1500245 α      lambda       -0.7879788E-05
   maximum displ.:     0.0992828 α      in ANC's #1, #4, #6, ...

........................................................................
.............................. CYCLE   34 ..............................
........................................................................

 iter      E             dE          RMSdq      gap      omega  full diag
   1    -67.5953599 -0.675954E+02  0.370E-02    2.67       0.0  T
   2    -67.5953600 -0.912841E-07  0.217E-02    2.67       1.0  T
   3    -67.5953596  0.340890E-06  0.261E-03    2.66       5.3  T
   4    -67.5953600 -0.396600E-06  0.412E-04    2.67      33.7  T
   5    -67.5953600 -0.275891E-08  0.261E-04    2.67      53.1  T
     SCC iter.                  ...        0 min,  0.020 sec
     gradient                   ...        0 min,  0.005 sec
 * total energy  :   -66.3864425 Eh     change       -0.9944385E-05 Eh
   gradient norm :     0.0005073 Eh/α   predicted    -0.3980350E-05 ( -59.97%)
   displ. norm   :     0.1985064 α      lambda       -0.8075465E-05
   maximum displ.:     0.1309147 α      in ANC's #1, #4, #6, ...

........................................................................
.............................. CYCLE   35 ..............................
........................................................................

 iter      E             dE          RMSdq      gap      omega  full diag
   1    -67.5952698 -0.675953E+02  0.501E-02    2.67       0.0  T
   2    -67.5952700 -0.167619E-06  0.294E-02    2.67       1.0  T
   3    -67.5952695  0.525760E-06  0.337E-03    2.66       4.1  T
   4    -67.5952701 -0.621062E-06  0.546E-04    2.67      25.4  T
   5    -67.5952701 -0.386642E-08  0.348E-04    2.66      39.9  T
     SCC iter.                  ...        0 min,  0.020 sec
     gradient                   ...        0 min,  0.005 sec
 * total energy  :   -66.3864513 Eh     change       -0.8803354E-05 Eh
   gradient norm :     0.0004416 Eh/α   predicted    -0.4108982E-05 ( -53.32%)
   displ. norm   :     0.1572720 α      lambda       -0.3753398E-05
   maximum displ.:     0.1043190 α      in ANC's #1, #4, #6, ...

........................................................................
.............................. CYCLE   36 ..............................
........................................................................

 iter      E             dE          RMSdq      gap      omega  full diag
   1    -67.5953105 -0.675953E+02  0.397E-02    2.67       0.0  T
   2    -67.5953106 -0.104854E-06  0.233E-02    2.67       1.0  T
   3    -67.5953102  0.395111E-06  0.278E-03    2.66       5.0  T
   4    -67.5953107 -0.459973E-06  0.450E-04    2.67      30.8  T
   5    -67.5953107 -0.296828E-08  0.284E-04    2.67      48.8  T
     SCC iter.                  ...        0 min,  0.021 sec
     gradient                   ...        0 min,  0.005 sec
 * total energy  :   -66.3864547 Eh     change       -0.3368738E-05 Eh
   gradient norm :     0.0003056 Eh/α   predicted    -0.1898064E-05 ( -43.66%)
   displ. norm   :     0.0560121 α      lambda       -0.8650177E-06
   maximum displ.:     0.0374717 α      in ANC's #1, #4, #6, ...

........................................................................
.............................. CYCLE   37 ..............................
........................................................................

 iter      E             dE          RMSdq      gap      omega  full diag
   1    -67.5955610 -0.675956E+02  0.143E-02    2.67       0.0  T
   2    -67.5955610 -0.154627E-07  0.838E-03    2.67       1.7  T
   3    -67.5955610  0.244116E-07  0.834E-04    2.67      16.6  T
   4    -67.5955610 -0.312794E-07  0.163E-04    2.67      85.3  T
     SCC iter.                  ...        0 min,  0.016 sec
     gradient                   ...        0 min,  0.005 sec
 * total energy  :   -66.3864554 Eh     change       -0.7709682E-06 Eh
   gradient norm :     0.0001201 Eh/α   predicted    -0.4379466E-06 ( -43.20%)
   displ. norm   :     0.0259439 α      lambda       -0.3622874E-06
   maximum displ.:     0.0170441 α      in ANC's #1, #4, #19, ...

........................................................................
.............................. CYCLE   38 ..............................
........................................................................

 iter      E             dE          RMSdq      gap      omega  full diag
   1    -67.5955713 -0.675956E+02  0.532E-03    2.67       0.0  T
   2    -67.5955713 -0.253620E-08  0.313E-03    2.67       4.4  T
   3    -67.5955712  0.168077E-07  0.471E-04    2.67      29.4  T
   4    -67.5955713 -0.188960E-07  0.797E-05    2.67     174.0  T
     SCC iter.                  ...        0 min,  0.016 sec
     gradient                   ...        0 min,  0.005 sec
 * total energy  :   -66.3864559 Eh     change       -0.4067025E-06 Eh
   gradient norm :     0.0001493 Eh/α   predicted    -0.1822029E-06 ( -55.20%)
   displ. norm   :     0.0282291 α      lambda       -0.4303231E-06
   maximum displ.:     0.0168018 α      in ANC's #1, #4, #19, ...

........................................................................
.............................. CYCLE   39 ..............................
........................................................................

 iter      E             dE          RMSdq      gap      omega  full diag
   1    -67.5956026 -0.675956E+02  0.510E-03    2.67       0.0  T
   2    -67.5956026 -0.340562E-08  0.301E-03    2.67       4.6  T
   3    -67.5956026  0.758372E-08  0.360E-04    2.67      38.5  T
   4    -67.5956026 -0.904662E-08  0.882E-05    2.67     157.3  T
     SCC iter.                  ...        0 min,  0.016 sec
     gradient                   ...        0 min,  0.005 sec
 * total energy  :   -66.3864563 Eh     change       -0.4324083E-06 Eh
   gradient norm :     0.0001162 Eh/α   predicted    -0.2170320E-06 ( -49.81%)
   displ. norm   :     0.0238688 α      lambda       -0.2567638E-06
   maximum displ.:     0.0124739 α      in ANC's #1, #19, #4, ...

........................................................................
.............................. CYCLE   40 ..............................
........................................................................

 iter      E             dE          RMSdq      gap      omega  full diag
   1    -67.5954791 -0.675955E+02  0.360E-03    2.67       0.0  T
   2    -67.5954791 -0.185717E-08  0.213E-03    2.67       6.5  T
   3    -67.5954791  0.294925E-08  0.248E-04    2.67      56.0  T
   4    -67.5954791 -0.374445E-08  0.658E-05    2.67     210.9  T
     SCC iter.                  ...        0 min,  0.016 sec
     gradient                   ...        0 min,  0.005 sec
 * total energy  :   -66.3864565 Eh     change       -0.2562884E-06 Eh
   gradient norm :     0.0001442 Eh/α   predicted    -0.1320340E-06 ( -48.48%)
   displ. norm   :     0.0280615 α      lambda        0.5873203E-07
   maximum displ.:     0.0146490 α      in ANC's #1, #19, #4, ...

........................................................................
.............................. CYCLE   41 ..............................
........................................................................

 iter      E             dE          RMSdq      gap      omega  full diag
   1    -67.5953425 -0.675953E+02  0.421E-03    2.67       0.0  T
   2    -67.5953425 -0.253081E-08  0.250E-03    2.67       5.6  T
   3    -67.5953424  0.543238E-08  0.327E-04    2.67      42.4  T
   4    -67.5953425 -0.667022E-08  0.778E-05    2.67     178.2  T
     SCC iter.                  ...        0 min,  0.016 sec
     gradient                   ...        0 min,  0.005 sec
 * total energy  :   -66.3864565 Eh     change        0.1972916E-07 Eh
   gradient norm :     0.0002746 Eh/α   predicted     0.2640600E-07 (  33.84%)
   displ. norm   :     0.0105977 α      lambda       -0.2682931E-06
   maximum displ.:     0.0069505 α      in ANC's #1, #19, #4, ...

........................................................................
.............................. CYCLE   42 ..............................
........................................................................

 iter      E             dE          RMSdq      gap      omega  full diag
   1    -67.5955188 -0.675955E+02  0.220E-03    2.67       0.0  T
   2    -67.5955188 -0.214197E-08  0.129E-03    2.67      10.7  T
   3    -67.5955188  0.668109E-09  0.149E-04    2.67      93.0  T
   4    -67.5955188 -0.890594E-09  0.567E-05    2.67     244.5  T
     SCC iter.                  ...        0 min,  0.017 sec
     gradient                   ...        0 min,  0.005 sec
 * total energy  :   -66.3864568 Eh     change       -0.2969410E-06 Eh
   gradient norm :     0.0000866 Eh/α   predicted    -0.1386337E-06 ( -53.31%)
   displ. norm   :     0.0137117 α      lambda       -0.2741452E-06
   maximum displ.:     0.0081436 α      in ANC's #1, #6, #8, ...
 * RMSD in coord.:     0.2056039 α      energy gain  -0.1748743E-03 Eh

generating ANC from exact Hessian ...
Using Lindh-Hessian (1995)
 Shifting diagonal of input Hessian by   9.663800636498774E-003
 Lowest  eigenvalues of input Hessian
    0.000000    0.000000    0.000000    0.000000    0.000000    0.000000
    0.010000    0.010015    0.010119    0.010196    0.010418    0.010670
    0.011519    0.011600    0.013976    0.014310    0.014498    0.014571
 Highest eigenvalues
    1.949559    1.949738    1.976862    1.977239    1.983417    2.003309
 

........................................................................
.............................. CYCLE   43 ..............................
........................................................................

 iter      E             dE          RMSdq      gap      omega  full diag
   1    -67.5956188 -0.675956E+02  0.371E-03    2.67       0.0  T
   2    -67.5956188 -0.128382E-08  0.218E-03    2.67       6.4  T
   3    -67.5956188  0.512789E-08  0.296E-04    2.67      46.8  T
   4    -67.5956188 -0.587853E-08  0.530E-05    2.67     261.8  T
     SCC iter.                  ...        0 min,  0.016 sec
     gradient                   ...        0 min,  0.005 sec
 * total energy  :   -66.3864571 Eh     change       -0.3189517E-06 Eh
   gradient norm :     0.0001092 Eh/α   predicted     0.0000000E+00 (-100.00%)
   displ. norm   :     0.0033989 α      lambda       -0.1573829E-07
   maximum displ.:     0.0017473 α      in ANC's #8, #7, #4, ...

........................................................................
.............................. CYCLE   44 ..............................
........................................................................

 iter      E             dE          RMSdq      gap      omega  full diag
   1    -67.5955418 -0.675955E+02  0.916E-04    2.67       0.0  T
   2    -67.5955418 -0.684722E-09  0.544E-04    2.67      25.5  T
   3    -67.5955418  0.286249E-08  0.200E-04    2.67      69.4  T
     SCC iter.                  ...        0 min,  0.012 sec
     gradient                   ...        0 min,  0.005 sec
 * total energy  :   -66.3864572 Eh     change       -0.9771263E-07 Eh
   gradient norm :     0.0000512 Eh/α   predicted    -0.4631774E-07 ( -52.60%)
   displ. norm   :     0.0089185 α      lambda       -0.1448327E-06
   maximum displ.:     0.0043191 α      in ANC's #8, #7, #4, ...

   *** GEOMETRY OPTIMIZATION CONVERGED AFTER 44 ITERATIONS ***

------------------------------------------------------------------------
 total energy gain   :        -0.0234588 Eh      -14.7206 kcal/mol
 total RMSD          :         0.7101746 a0        0.3758 Å
 total power (kW/mol):        -1.3997984 (step)  -43.8508 (real)
------------------------------------------------------------------------

 ANCopt (total)                0 d,  0 h,  0 min,  1.405 sec
 optimizer setup                ...        0 min,  0.000 sec (  0.012%)
 model hessian                  ...        0 min,  0.107 sec (  7.602%)
 ANC generation                 ...        0 min,  0.008 sec (  0.560%)
 coordinate transformation      ...        0 min,  0.004 sec (  0.284%)
 single point calculation       ...        0 min,  1.266 sec ( 90.126%)
 optimization log               ...        0 min,  0.008 sec (  0.565%)
 hessian update                 ...        0 min,  0.004 sec (  0.308%)
 rational function              ...        0 min,  0.004 sec (  0.289%)

================
 final structure:
================
52
 xtb: 6.7.1 (edcfbbe)
C           -5.28908764051994       -2.07885010404256        0.54448623836196
C           -3.93729340051163       -1.44559023090789        0.41178128992169
C           -2.90450925596409       -1.76251378483782        1.28030180558292
C           -1.64550043824643       -1.19695922368584        1.14832182442792
C           -0.57750891764777       -1.56868245487765        2.13541859793398
C           -1.38581717049767       -0.26675297756018        0.12839291491235
B            0.01302204082756        0.43199353853975       -0.00142187337351
C            0.06322788467173        1.99502381450665       -0.01138969568588
C           -0.90009793722681        2.75826812196318        0.65636716343732
C           -0.85227283261976        4.13937706447875        0.65810079043384
C            0.15367292571675        4.79936968639205       -0.02889623785954
C            1.11468817934865        4.06740685538956       -0.70724839343677
C            1.07342007613785        2.68622314639771       -0.68828691517645
C            1.36471614971987       -0.35555050460596       -0.12238340611714
C            2.43091617958114       -0.09254212014726        0.75214069220829
C            2.29933762514237        0.89753369564192        1.87601820467127
C            3.63831124368838       -0.75865766405437        0.61096123269992
C            3.83908690208602       -1.69106302858406       -0.39540981725009
C            5.14821058964163       -2.40911732292616       -0.52401897941172
C            2.78639599827207       -1.95541087749077       -1.25798803196115
C            1.56455694982661       -1.31287212868039       -1.13088621614170
C            0.47360583704905       -1.63144334544264       -2.11145065674310
C           -2.43289536430015        0.05095874005631       -0.75130433961639
C           -2.23919375705555        1.01854636070845       -1.88572068780118
C           -3.67863680062409       -0.53862171038509       -0.60492583055925
H           -5.41389930734682       -2.85610550245462       -0.21031772948476
H           -6.07592389179121       -1.34146388655203        0.39605948862135
H           -5.41208266236138       -2.53340230495816        1.52462841820339
H           -3.08375187118286       -2.47059724187258        2.07821349622701
H           -0.90995274921223       -2.38558572132785        2.77197115061677
H            0.33265377609293       -1.87027856376206        1.62225800837433
H           -0.33326077894321       -0.71856623810420        2.77163793193994
H           -1.69202430837371        2.25014967421008        1.18975120189316
H           -1.60373661450692        4.70633878487817        1.18969025996991
H            0.18856753036772        5.87944758101909       -0.03558884643129
H            1.90096698534196        4.57812079503375       -1.24546293693081
H            1.83075605957542        2.12153142162992       -1.21495317831761
H            2.85959382669840        0.55891398156486        2.74604228463502
H            1.26200495593135        1.04569575013788        2.16050599970487
H            2.70474184170789        1.86297054860517        1.57181087991696
H            4.44285811971752       -0.54390189211026        1.30159386298768
H            5.97889876221138       -1.73746664773490       -0.31611559711758
H            5.19543372846188       -3.23075739013760        0.19181419815573
H            5.26929914480351       -2.82237898813903       -1.52261390850166
H            2.92059796430963       -2.68273442743335       -2.04739777306185
H           -0.45352459848744       -1.86506783899779       -1.59331234273207
H            0.75204451352949       -2.47865336497958       -2.73417455017799
H            0.28403783561528       -0.77818208514286       -2.76199297492492
H           -2.57712196027910        2.01217812588042       -1.59000058407379
H           -2.82438239818497        0.71003489636567       -2.75046242202123
H           -1.19529620566936        1.09349736679563       -2.17492746596412
H           -4.46785376452126       -0.28381037825575       -1.29961654496109
 
 Bond Distances (Angstroems)
 ---------------------------
C1-C2=1.4987         C1-H26=1.0906        C1-H27=1.0885        C1-H28=1.0874        C2-C1=1.4987         C2-C3=1.3862         
C2-C25=1.3868        C3-C2=1.3862         C3-C4=1.3865         C3-H29=1.0817        C4-C3=1.3865         C4-C5=1.5010         
C4-C6=1.4046         C5-C4=1.5010         C5-H30=1.0877        C5-H31=1.0875        C5-H32=1.0896        C6-C4=1.4046         
C6-B7=1.5690         C6-C23=1.4040        B7-C6=1.5690         B7-C8=1.5639         B7-C14=1.5691        C8-B7=1.5639         
C8-C9=1.3987         C8-C13=1.3987        C9-C8=1.3987         C9-C10=1.3819        C9-H33=1.0816        C10-C9=1.3819        
C10-C11=1.3855       C10-H34=1.0811       C11-C10=1.3855       C11-C12=1.3855       C11-H35=1.0807       C12-C11=1.3855       
C12-C13=1.3819       C12-H36=1.0811       C13-C8=1.3987        C13-C12=1.3819       C13-H37=1.0816       C14-B7=1.5691        
C14-C15=1.4038       C14-C21=1.4048       C15-C14=1.4038       C15-C16=1.5036       C15-C17=1.3862       C16-C15=1.5036       
C16-H38=1.0888       C16-H39=1.0858       C16-H40=1.0904       C17-C15=1.3862       C17-C18=1.3865       C17-H41=1.0818       
C18-C17=1.3865       C18-C19=1.4986       C18-C20=1.3864       C19-C18=1.4986       C19-H42=1.0883       C19-H43=1.0908       
C19-H44=1.0875       C20-C18=1.3864       C20-C21=1.3863       C20-H45=1.0817       C21-C14=1.4048       C21-C20=1.3863       
C21-C22=1.5011       C22-C21=1.5011       C22-H46=1.0875       C22-H47=1.0877       C22-H48=1.0896       C23-C6=1.4040        
C23-C24=1.5035       C23-C25=1.3860       C24-C23=1.5035       C24-H49=1.0904       C24-H50=1.0888       C24-H51=1.0858       
C25-C2=1.3868        C25-C23=1.3860       C25-H52=1.0818       H26-C1=1.0906        H27-C1=1.0885        H28-C1=1.0874        
H29-C3=1.0817        H30-C5=1.0877        H31-C5=1.0875        H32-C5=1.0896        H33-C9=1.0816        H34-C10=1.0811       
H35-C11=1.0807       H36-C12=1.0811       H37-C13=1.0816       H38-C16=1.0888       H39-C16=1.0858       H40-C16=1.0904       
H41-C17=1.0818       H42-C19=1.0883       H43-C19=1.0908       H44-C19=1.0875       H45-C20=1.0817       H46-C22=1.0875       
H47-C22=1.0877       H48-C22=1.0896       H49-C24=1.0904       H50-C24=1.0888       H51-C24=1.0858       H52-C25=1.0818       
 C  H  Rav=1.0861 sigma=0.0035  Rmin=1.0807  Rmax=1.0908    27
 C  B  Rav=1.5673 sigma=0.0024  Rmin=1.5639  Rmax=1.5691     3
 C  C  Rav=1.4186 sigma=0.0482  Rmin=1.3819  Rmax=1.5036    24
 
 selected bond angles (degree)
 --------------------
H26-C1-C2=110.07               H27-C1-C2=110.71               H27-C1-H26=107.80              H28-C1-C2=111.01               
H28-C1-H26=108.24              H28-C1-H27=108.92              C3-C2-C1=121.33                C25-C2-C1=120.63               
C25-C2-C3=118.03               C4-C3-C2=121.58                H29-C3-C2=119.23               H29-C3-C4=119.19               
C5-C4-C3=118.85                C6-C4-C3=120.47                C6-C4-C5=120.66                H30-C5-C4=110.69               
H31-C5-C4=110.72               H31-C5-H30=108.88              H32-C5-C4=110.50               H32-C5-H30=108.23              
H32-C5-H31=107.72              B7-C6-C4=121.32                C23-C6-C4=117.84               C23-C6-B7=120.82               
C8-B7-C6=118.31                C14-B7-C6=123.43               C14-B7-C8=118.26               C9-C8-B7=121.35                
C13-C8-B7=121.34               C13-C8-C9=117.31               C10-C9-C8=121.47               H33-C9-C8=118.90               
H33-C9-C10=119.62              C11-C10-C9=120.04              H34-C10-C9=120.05              H34-C10-C11=119.91             
 
 selected dihedral angles (degree)
 ---------------------------------
C3-C2-C1-H26=257.21           C3-C2-C1-H27=138.13           C3-C2-C1-H28= 17.03           C25-C2-C1-H26= 76.06          
C25-C2-C1-H27=316.98          C25-C2-C1-H28=195.87          C4-C3-C2-C1=178.88            C4-C3-C2-C25=  0.00           
H29-C3-C2-C1=359.10           H29-C3-C2-C25=180.23          C5-C4-C3-C2=179.11            C5-C4-C3-H29=358.90           
C6-C4-C3-C2=  0.71            C6-C4-C3-H29=180.49           H30-C5-C4-C3=  8.64           H30-C5-C4-C6=187.04           
H31-C5-C4-C3=129.49           H31-C5-C4-C6=307.89           H32-C5-C4-C3=248.76           H32-C5-C4-C6= 67.16           
B7-C6-C4-C3=177.32            B7-C6-C4-C5=358.95            C23-C6-C4-C3=359.22           C23-C6-C4-C5=180.84           
C8-B7-C6-C4=235.51            C8-B7-C6-C23= 53.55           C14-B7-C6-C4= 55.53           C14-B7-C6-C23=233.58          
C9-C8-B7-C6= 29.06            C9-C8-B7-C14=209.04           C13-C8-B7-C6=209.05           C13-C8-B7-C14= 29.03          
C10-C9-C8-B7=179.48           C10-C9-C8-C13=359.49          H33-C9-C8-B7=  0.10           H33-C9-C8-C13=180.11          
C11-C10-C9-C8=  1.01          C11-C10-C9-H33=180.39         H34-C10-C9-C8=180.58          H34-C10-C9-H33=359.95         
           -------------------------------------------------
          |                Final Singlepoint                |
           -------------------------------------------------

          ...................................................
          :                      SETUP                      :
          :.................................................:
          :  # basis functions                 127          :
          :  # atomic orbitals                 127          :
          :  # shells                           77          :
          :  # electrons                       126          :
          :  max. iterations                   250          :
          :  Hamiltonian                  GFN2-xTB          :
          :  restarted?                      false          :
          :  GBSA solvation                  false          :
          :  PC potential                    false          :
          :  electronic temp.          300.0000000     K    :
          :  accuracy                    1.0000000          :
          :  -> integral cutoff          0.2500000E+02      :
          :  -> integral neglect         0.1000000E-07      :
          :  -> SCF convergence          0.1000000E-05 Eh   :
          :  -> wf. convergence          0.1000000E-03 e    :
          :  Broyden damping             0.4000000          :
          :  net charge                          0          :
          :  unpaired electrons                  0          :
          ...................................................

 iter      E             dE          RMSdq      gap      omega  full diag
   1    -67.5955418 -0.675955E+02  0.389E-05    2.67       0.0  T
   2    -67.5955418 -0.105445E-10  0.315E-05    2.67     439.6  T
   3    -67.5955418 -0.874394E-10  0.101E-05    2.67    1370.0  T

   *** convergence criteria satisfied after 3 iterations ***

         #    Occupation            Energy/Eh            Energy/eV
      -------------------------------------------------------------
         1        2.0000           -0.6356355             -17.2965
       ...           ...                  ...                  ...
        57        2.0000           -0.3974781             -10.8159
        58        2.0000           -0.3944041             -10.7323
        59        2.0000           -0.3874532             -10.5431
        60        2.0000           -0.3775235             -10.2729
        61        2.0000           -0.3764088             -10.2426
        62        2.0000           -0.3695591             -10.0562
        63        2.0000           -0.3638120              -9.8998 (HOMO)
        64                         -0.2657953              -7.2327 (LUMO)
        65                         -0.2152530              -5.8573
        66                         -0.2100464              -5.7157
        67                         -0.2075584              -5.6480
        68                         -0.2033400              -5.5332
       ...                                ...                  ...
       127                          0.6710288              18.2596
      -------------------------------------------------------------
                  HL-Gap            0.0980167 Eh            2.6672 eV
             Fermi-level           -0.3148036 Eh           -8.5662 eV

 SCC (total)                   0 d,  0 h,  0 min,  0.020 sec
 SCC setup                      ...        0 min,  0.000 sec (  0.588%)
 Dispersion                     ...        0 min,  0.000 sec (  1.568%)
 classical contributions        ...        0 min,  0.000 sec (  0.112%)
 integral evaluation            ...        0 min,  0.002 sec ( 10.418%)
 iterations                     ...        0 min,  0.012 sec ( 61.131%)
 molecular gradient             ...        0 min,  0.005 sec ( 24.639%)
 printout                       ...        0 min,  0.000 sec (  1.244%)

         :::::::::::::::::::::::::::::::::::::::::::::::::::::
         ::                     SUMMARY                     ::
         :::::::::::::::::::::::::::::::::::::::::::::::::::::
         :: total energy             -66.386457240025 Eh    ::
         :: gradient norm              0.000051701300 Eh/a0 ::
         :: HOMO-LUMO gap              2.667169682951 eV    ::
         ::.................................................::
         :: SCC energy               -67.594068073440 Eh    ::
         :: -> isotropic ES            0.026599367114 Eh    ::
         :: -> anisotropic ES          0.013239141001 Eh    ::
         :: -> anisotropic XC          0.038463131766 Eh    ::
         :: -> dispersion             -0.061205624279 Eh    ::
         :: repulsion energy           1.207610833415 Eh    ::
         :: add. restraining           0.000000000000 Eh    ::
         :: total charge               0.000000000000 e     ::
         :::::::::::::::::::::::::::::::::::::::::::::::::::::

           ------------------------------------------------- 
          |                Numerical Hessian                |
           ------------------------------------------------- 
step length          :   0.00500
SCC accuracy         :   0.30000
Hessian scale factor :   1.00000
frozen atoms in %    :   0.00000    0
RMS gradient         :   0.00005
estimated CPU  time      2.70 min
estimated wall time      0.07 min

writing file <hessian>.

 projected vibrational frequencies (cm⁻¹)
eigval :       -0.00    -0.00    -0.00     0.00     0.00     0.00
eigval :       -7.42     6.00    27.98    31.55    31.84    35.16
eigval :       43.57    52.53    77.75    81.90   103.61   119.11
eigval :      125.91   127.71   158.82   163.22   182.07   189.01
eigval :      202.48   202.57   207.52   235.16   275.45   277.44
eigval :      309.07   322.96   323.81   343.01   363.11   415.75
eigval :      462.62   479.90   489.14   496.22   496.28   506.86
eigval :      506.95   513.41   537.28   553.26   586.98   598.11
eigval :      599.02   601.43   628.89   671.89   681.22   681.41
eigval :      741.77   839.01   840.52   877.94   882.97   886.24
eigval :      890.07   890.11   910.34   935.02   935.59   964.22
eigval :      964.71   976.33   976.67   988.29  1020.40  1022.10
eigval :     1027.90  1028.19  1030.84  1031.09  1032.66  1033.84
eigval :     1040.03  1041.25  1045.81  1045.92  1085.19  1104.99
eigval :     1120.13  1165.44  1183.13  1193.65  1206.62  1220.13
eigval :     1224.14  1235.89  1236.79  1285.55  1308.53  1308.62
eigval :     1309.77  1333.52  1334.57  1403.10  1403.18  1404.13
eigval :     1404.21  1405.25  1408.03  1419.41  1428.41  1429.83
eigval :     1453.81  1455.71  1463.75  1479.03  1481.00  1482.83
eigval :     1483.85  1484.26  1485.56  1485.86  1487.13  1487.75
eigval :     1489.82  1496.25  1498.45  1561.43  1562.18  1568.69
eigval :     1592.60  1601.15  1603.37  2992.91  2994.48  2996.59
eigval :     2997.01  3003.72  3004.20  3020.37  3020.77  3024.00
eigval :     3026.81  3033.93  3034.19  3037.36  3038.60  3038.81
eigval :     3039.26  3054.64  3054.98  3059.74  3059.88  3060.05
eigval :     3060.40  3061.52  3061.97  3068.42  3073.34  3083.18
           -------------------------------------------------
          |                Property Printout                |
           -------------------------------------------------

    * Orbital Energies and Occupations

         #    Occupation            Energy/Eh            Energy/eV
      -------------------------------------------------------------
         1        2.0000           -0.6356355             -17.2965
       ...           ...                  ...                  ...
        51        2.0000           -0.4300223             -11.7015
        52        2.0000           -0.4164397             -11.3319
        53        2.0000           -0.4140021             -11.2656
        54        2.0000           -0.4112672             -11.1912
        55        2.0000           -0.4095149             -11.1435
        56        2.0000           -0.3985434             -10.8449
        57        2.0000           -0.3974781             -10.8159
        58        2.0000           -0.3944040             -10.7323
        59        2.0000           -0.3874532             -10.5431
        60        2.0000           -0.3775235             -10.2729
        61        2.0000           -0.3764087             -10.2426
        62        2.0000           -0.3695590             -10.0562
        63        2.0000           -0.3638119              -9.8998 (HOMO)
        64                         -0.2657952              -7.2327 (LUMO)
        65                         -0.2152530              -5.8573
[...]
    25   6 C        2.930    -0.057    29.419     8.895
    26   1 H        0.924     0.043     2.411     2.428
    27   1 H        0.925     0.040     2.445     2.445
    28   1 H        0.925     0.038     2.478     2.462
    29   1 H        0.925     0.022     2.703     2.571
    30   1 H        0.925     0.037     2.494     2.470
    31   1 H        0.925     0.049     2.331     2.388
    32   1 H        0.925     0.037     2.485     2.465
    33   1 H        0.925     0.025     2.655     2.548
    34   1 H        0.926     0.023     2.683     2.561
    35   1 H        0.926     0.025     2.662     2.551
    36   1 H        0.926     0.023     2.683     2.561
    37   1 H        0.925     0.025     2.654     2.548
    38   1 H        0.925     0.039     2.465     2.455
    39   1 H        0.925     0.037     2.489     2.467
    40   1 H        0.924     0.043     2.412     2.429
    41   1 H        0.925     0.023     2.693     2.566
    42   1 H        0.925     0.040     2.450     2.448
    43   1 H        0.924     0.043     2.409     2.427
    44   1 H        0.925     0.038     2.474     2.460
    45   1 H        0.925     0.022     2.702     2.570
    46   1 H        0.925     0.049     2.331     2.388
    47   1 H        0.925     0.037     2.494     2.470
    48   1 H        0.925     0.037     2.485     2.465
    49   1 H        0.924     0.043     2.412     2.429
    50   1 H        0.925     0.039     2.466     2.456
    51   1 H        0.925     0.037     2.489     2.467
    52   1 H        0.925     0.023     2.692     2.566

 Mol. C6AA /au·bohr⁶  :      29572.072589
 Mol. C8AA /au·bohr⁸  :     717887.691603
 Mol. α(0) /au        :        273.080781


MOs/occ written to file <molden.input>


molecular dipole:
                 x           y           z       tot (Debye)
 q only:       -0.002      -0.048      -0.000
   full:        0.001       0.054      -0.002       0.137
molecular quadrupole (traceless):
                xx          xy          yy          xz          yz          zz
 q only:        1.182      -0.099      -1.499       1.123      -0.012       0.317
  q+dip:        4.200      -0.182      -0.576       0.122       0.003      -3.624
   full:        1.928      -0.130      -1.234       1.030      -0.008      -0.694

           -------------------------------------------------
          |                Geometry Summary                 |
           -------------------------------------------------

      molecular mass/u    :      326.2830899
   center of mass at/Å    :        0.0040113       0.1258818      -0.0006371
  moments of inertia/u·Å² :        0.1874329E+04   0.2662740E+04   0.3733480E+04
rotational constants/cm⁻¹ :        0.8993956E-02   0.6330935E-02   0.4515260E-02

 * 45 selected distances

     #   Z          #   Z                                           value/Å
     2   6 C        3   6 C                                       1.3861500
     3   6 C        4   6 C                                       1.3864971
     4   6 C        6   6 C                                       1.4046261
     8   6 C        9   6 C                                       1.3987273
     9   6 C       10   6 C                                       1.3819380
    10   6 C       11   6 C                                       1.3854539
    11   6 C       12   6 C                                       1.3854537
     8   6 C       13   6 C                                       1.3987262
    12   6 C       13   6 C                                       1.3819303
    14   6 C       15   6 C                                       1.4038336
    15   6 C       17   6 C                                       1.3861619
    17   6 C       18   6 C                                       1.3865330
    18   6 C       20   6 C                                       1.3863908
    14   6 C       21   6 C                                       1.4048058 (max)
    20   6 C       21   6 C                                       1.3863268
     6   6 C       23   6 C                                       1.4039876
     2   6 C       25   6 C                                       1.3867908
    23   6 C       25   6 C                                       1.3859668
     1   6 C       26   1 H                                       1.0906114
     1   6 C       27   1 H                                       1.0885221
     1   6 C       28   1 H                                       1.0873934
     3   6 C       29   1 H                                       1.0817455
     5   6 C       30   1 H                                       1.0876807
     5   6 C       31   1 H                                       1.0875157
     5   6 C       32   1 H                                       1.0895550
     9   6 C       33   1 H                                       1.0815870
    10   6 C       34   1 H                                       1.0810786
    11   6 C       35   1 H                                       1.0806623 (min)
    12   6 C       36   1 H                                       1.0810820
    13   6 C       37   1 H                                       1.0815785
    16   6 C       38   1 H                                       1.0888032
    16   6 C       39   1 H                                       1.0857921
    16   6 C       40   1 H                                       1.0903959
    17   6 C       41   1 H                                       1.0818454
    19   6 C       42   1 H                                       1.0882929
    19   6 C       43   1 H                                       1.0907519
    19   6 C       44   1 H                                       1.0874924
    20   6 C       45   1 H                                       1.0817475
    22   6 C       46   1 H                                       1.0874828
    22   6 C       47   1 H                                       1.0876940
    22   6 C       48   1 H                                       1.0895854
    24   6 C       49   1 H                                       1.0903899
    24   6 C       50   1 H                                       1.0887624
    24   6 C       51   1 H                                       1.0858087
    25   6 C       52   1 H                                       1.0818446

 * 2 distinct bonds (by element types)

   Z      Z             #   av. dist./Å        max./Å        min./Å
   1 H    6 C          27     1.0861371     1.0907519     1.0806623
   6 C    6 C          18     1.3911277     1.4048058     1.3819303

           -------------------------------------------------
          |               Frequency Printout                |
           -------------------------------------------------
 projected vibrational frequencies (cm⁻¹)
eigval :       -0.00    -0.00    -0.00     0.00     0.00     0.00
eigval :       -7.42     6.00    27.98    31.55    31.84    35.16
eigval :       43.57    52.53    77.75    81.90   103.61   119.11
eigval :      125.91   127.71   158.82   163.22   182.07   189.01
eigval :      202.48   202.57   207.52   235.16   275.45   277.44
eigval :      309.07   322.96   323.81   343.01   363.11   415.75
eigval :      462.62   479.90   489.14   496.22   496.28   506.86
eigval :      506.95   513.41   537.28   553.26   586.98   598.11
eigval :      599.02   601.43   628.89   671.89   681.22   681.41
eigval :      741.77   839.01   840.52   877.94   882.97   886.24
eigval :      890.07   890.11   910.34   935.02   935.59   964.22
eigval :      964.71   976.33   976.67   988.29  1020.40  1022.10
eigval :     1027.90  1028.19  1030.84  1031.09  1032.66  1033.84
eigval :     1040.03  1041.25  1045.81  1045.92  1085.19  1104.99
eigval :     1120.13  1165.44  1183.13  1193.65  1206.62  1220.13
eigval :     1224.14  1235.89  1236.79  1285.55  1308.53  1308.62
eigval :     1309.77  1333.52  1334.57  1403.10  1403.18  1404.13
eigval :     1404.21  1405.25  1408.03  1419.41  1428.41  1429.83
eigval :     1453.81  1455.71  1463.75  1479.03  1481.00  1482.83
eigval :     1483.85  1484.26  1485.56  1485.86  1487.13  1487.75
eigval :     1489.82  1496.25  1498.45  1561.43  1562.18  1568.69
eigval :     1592.60  1601.15  1603.37  2992.91  2994.48  2996.59
eigval :     2997.01  3003.72  3004.20  3020.37  3020.77  3024.00
eigval :     3026.81  3033.93  3034.19  3037.36  3038.60  3038.81
eigval :     3039.26  3054.64  3054.98  3059.74  3059.88  3060.05
eigval :     3060.40  3061.52  3061.97  3068.42  3073.34  3083.18
 reduced masses (amu)
   1: 10.78   2: 10.93   3: 10.74   4: 10.93   5: 10.73   6: 10.60   7:  1.14   8:  1.14
   9:  9.60  10:  9.73  11:  8.84  12: 10.13  13:  7.68  14: 10.01  15:  1.85  16:  5.15
  17:  6.49  18:  9.18  19:  5.22  20:  2.63  21:  9.22  22: 10.16  23:  9.04  24:  8.23
  25:  9.63  26:  9.66  27:  8.78  28: 10.17  29:  8.23  30:  8.31  31:  9.07  32:  8.73
  33:  9.55  34: 10.38  35:  8.80  36: 10.02  37:  9.02  38:  8.88  39: 10.36  40:  9.66
  41:  9.73  42: 10.51  43: 10.68  44: 10.33  45: 10.00  46: 10.28  47: 11.07  48: 10.25
  49: 10.21  50: 10.23  51: 10.85  52: 10.01  53: 10.40  54: 10.98  55:  4.03  56:  3.27
  57:  3.09  58: 10.08  59:  3.66  60: 10.06  61:  3.80  62:  3.77  63:  3.89  64:  4.23
  65:  2.86  66:  7.52  67:  7.48  68:  8.15  69:  8.26  70: 10.78  71:  4.51  72:  4.43
  73:  4.36  74:  4.33  75:  4.68  76:  4.67  77:  4.72  78:  4.72  79:  6.43  80:  6.43
  81:  6.94  82:  6.93  83:  8.06  84:  9.85  85:  4.75  86:  7.83  87:  1.32  88:  5.08
  89:  2.07  90:  7.64  91:  6.65  92:  4.37  93:  4.88  94:  3.72  95: 10.93  96: 10.94
  97: 11.31  98: 10.96  99: 10.92 100:  3.11 101:  3.12 102:  3.32 103:  3.34 104:  3.43
 105:  3.28 106:  8.66 107: 10.15 108: 10.11 109:  9.35 110:  8.52 111:  8.53 112:  1.75
 113:  1.68 114:  1.92 115:  1.66 116:  1.70 117:  2.43 118:  1.82 119:  1.70 120:  1.99
 121:  3.02 122:  1.98 123:  2.62 124: 11.33 125: 11.35 126: 11.34 127: 11.43 128: 11.33
 129: 11.38 130:  1.81 131:  1.82 132:  1.83 133:  1.83 134:  1.82 135:  1.82 136:  1.64
 137:  1.64 138:  1.67 139:  1.69 140:  1.87 141:  1.85 142:  1.63 143:  1.57 144:  1.52
 145:  1.45 146:  1.66 147:  1.66 148:  1.81 149:  1.80 150:  1.76 151:  1.78 152:  1.81
 153:  1.82 154:  1.82 155:  1.87 156:  1.92
 IR intensities (km·mol⁻¹)
   1:  0.01   2:  0.00   3:  0.01   4:  0.00   5:  0.00   6:  0.00   7:  0.23   8:  0.14
   9:  0.11  10:  0.27  11:  0.33  12:  0.04  13:  0.16  14:  0.03  15:  1.68  16:  0.22
  17:  0.76  18:  0.01  19:  0.56  20:  0.03  21:  0.10  22:  0.72  23:  1.53  24:  2.25
  25:  0.10  26:  0.12  27:  0.10  28:  0.28  29:  0.55  30:  0.54  31:  0.28  32:  0.29
  33:  0.45  34:  0.07  35:  0.88  36:  2.01  37:  2.49  38:  0.08  39:  6.27  40:  1.80
  41:  1.71  42:  2.44  43:  0.46  44:  1.38  45:  0.93  46:  4.31  47:  3.25  48: 13.79
  49:  0.02  50: 16.26  51:  2.29  52:  2.15  53: 12.79  54:  0.09  55: 12.73  56: 12.91
  57:  4.74  58: 21.24  59:  0.12  60: 20.13  61:  0.00  62:  1.42  63:  0.15  64:  1.46
  65:  0.04  66:  0.25  67:  0.16  68:  2.96  69:  1.58  70:  1.45  71: 10.95  72: 28.10
  73:  0.97  74:  2.27  75:  7.11  76:  9.11  77:  0.68  78:  1.64  79: 18.05  80:  0.78
  81:  2.06  82:  3.57  83:  0.00  84:  7.46  85:  0.49  86: 82.33  87:  0.05  88: 51.76
  89:  6.03  90: 54.14  91: 25.36  92: 13.09  93: 30.87  94:  1.39  95:  1.44  96:  1.13
  97:  0.81  98: 34.29  99:  6.88 100:  1.86 101:  4.67 102:  4.75 103:  4.37 104:  2.50
 105:  0.07 106:  4.20 107: 14.50 108: 20.73 109: 29.01 110:  6.41 111: 17.65 112:  6.68
 113:  2.76 114:  4.61 115: 10.36 116:  8.14 117:  6.20 118:  8.36 119:  2.29 120: 14.15
 121:  1.77 122:  0.23 123: 10.94 124: 20.06 125: 38.12 126:  2.96 127: 15.79 128: 94.02
 129: 19.71 130: 27.96 131: 27.55 132:  5.42 133: 45.42 134: 21.96 135: 22.37 136: 37.89
 137: 12.95 138: 29.96 139: 25.98 140: 29.48 141: 13.08 142: 24.77 143: 14.12 144: 24.00
 145: 16.29 146: 27.60 147: 12.02 148: 86.09 149: 79.71 150:  0.56 151: 12.44 152:105.30
 153:  6.08 154: 13.96 155:121.69 156: 79.64
 Raman intensities (Ä⁴*amu⁻¹)
   1:  0.00   2:  0.00   3:  0.00   4:  0.00   5:  0.00   6:  0.00   7:  0.00   8:  0.00
   9:  0.00  10:  0.00  11:  0.00  12:  0.00  13:  0.00  14:  0.00  15:  0.00  16:  0.00
  17:  0.00  18:  0.00  19:  0.00  20:  0.00  21:  0.00  22:  0.00  23:  0.00  24:  0.00
  25:  0.00  26:  0.00  27:  0.00  28:  0.00  29:  0.00  30:  0.00  31:  0.00  32:  0.00
  33:  0.00  34:  0.00  35:  0.00  36:  0.00  37:  0.00  38:  0.00  39:  0.00  40:  0.00
  41:  0.00  42:  0.00  43:  0.00  44:  0.00  45:  0.00  46:  0.00  47:  0.00  48:  0.00
  49:  0.00  50:  0.00  51:  0.00  52:  0.00  53:  0.00  54:  0.00  55:  0.00  56:  0.00
  57:  0.00  58:  0.00  59:  0.00  60:  0.00  61:  0.00  62:  0.00  63:  0.00  64:  0.00
  65:  0.00  66:  0.00  67:  0.00  68:  0.00  69:  0.00  70:  0.00  71:  0.00  72:  0.00
  73:  0.00  74:  0.00  75:  0.00  76:  0.00  77:  0.00  78:  0.00  79:  0.00  80:  0.00
  81:  0.00  82:  0.00  83:  0.00  84:  0.00  85:  0.00  86:  0.00  87:  0.00  88:  0.00
  89:  0.00  90:  0.00  91:  0.00  92:  0.00  93:  0.00  94:  0.00  95:  0.00  96:  0.00
  97:  0.00  98:  0.00  99:  0.00 100:  0.00 101:  0.00 102:  0.00 103:  0.00 104:  0.00
 105:  0.00 106:  0.00 107:  0.00 108:  0.00 109:  0.00 110:  0.00 111:  0.00 112:  0.00
 113:  0.00 114:  0.00 115:  0.00 116:  0.00 117:  0.00 118:  0.00 119:  0.00 120:  0.00
 121:  0.00 122:  0.00 123:  0.00 124:  0.00 125:  0.00 126:  0.00 127:  0.00 128:  0.00
 129:  0.00 130:  0.00 131:  0.00 132:  0.00 133:  0.00 134:  0.00 135:  0.00 136:  0.00
 137:  0.00 138:  0.00 139:  0.00 140:  0.00 141:  0.00 142:  0.00 143:  0.00 144:  0.00
 145:  0.00 146:  0.00 147:  0.00 148:  0.00 149:  0.00 150:  0.00 151:  0.00 152:  0.00
 153:  0.00 154:  0.00 155:  0.00 156:  0.00
 output can be read by thermo (or use thermo option).
 writing <g98.out> molden fake output.
 recommended (thermochemical) frequency scaling factor: 1.0
           -------------------------------------------------
          |             Thermodynamic Functions             |
           -------------------------------------------------

Molecule has no symmetry elements
It seems to be the C1 point group
c1  symmetry found (for desy threshold:  0.10E+00) used in thermo
 inverting freq            1   7.41575632571735     

          ...................................................
          :                      SETUP                      :
          :.................................................:
          :  # frequencies                         150      :
          :  # imaginary freq.                       0      :
          :  linear?                             false      :
          :  only rotor calc.                    false      :
          :  symmetry                               c1      :
          :  rotational number                       1      :
          :  scaling factor                  1.0000000      :
          :  rotor cutoff                   50.0000000 cm⁻¹ :
          :  imag. cutoff                  -20.0000000 cm⁻¹ :
          :.................................................:

    mode    ω/cm⁻¹     T·S(HO)/kcal·mol⁻¹    T·S(FR)/kcal·mol⁻¹   T·S(vib)
   ------------------------------------------------------------------------
       1      7.42    -2.56560 (  0.05%)    -1.62166 ( 99.95%)    -1.62212
       2      6.00    -2.69074 (  0.02%)    -1.68418 ( 99.98%)    -1.68439
       3     27.98    -1.77936 (  8.93%)    -1.22851 ( 91.07%)    -1.27768
       4     31.55    -1.70832 ( 13.68%)    -1.19293 ( 86.32%)    -1.26343
       5     31.84    -1.70291 ( 14.12%)    -1.19022 ( 85.88%)    -1.26259
       6     35.16    -1.64413 ( 19.66%)    -1.16077 ( 80.34%)    -1.25578
       7     43.57    -1.51756 ( 36.57%)    -1.09731 ( 63.43%)    -1.25097
       8     52.53    -1.40719 ( 54.92%)    -1.04189 ( 45.08%)    -1.24252
       9     77.75    -1.17677 ( 85.39%)    -0.92575 ( 14.61%)    -1.14011
      10     81.90    -1.14634 ( 87.80%)    -0.91035 ( 12.20%)    -1.11756
      11    103.61    -1.00930 ( 94.86%)    -0.84069 (  5.14%)    -1.00063
      12    119.11    -0.92868 ( 96.99%)    -0.79940 (  3.01%)    -0.92479
      13    125.91    -0.89670 ( 97.57%)    -0.78294 (  2.43%)    -0.89394
      14    127.71    -0.88855 ( 97.70%)    -0.77873 (  2.30%)    -0.88603
      15    158.82    -0.76441 ( 99.03%)    -0.71416 (  0.97%)    -0.76392
      16    163.22    -0.74899 ( 99.13%)    -0.70606 (  0.87%)    -0.74861
      17    182.07    -0.68785 ( 99.43%)    -0.67369 (  0.57%)    -0.68777
      18    189.01    -0.66710 ( 99.51%)    -0.66260 (  0.49%)    -0.66708
      19    202.48    -0.62923 ( 99.63%)    -0.64221 (  0.37%)    -0.62928
      20    202.57    -0.62899 ( 99.63%)    -0.64208 (  0.37%)    -0.62903
      21    207.52    -0.61580 ( 99.66%)    -0.63493 (  0.34%)    -0.61586
      22    235.16    -0.54835 ( 99.80%)    -0.59788 (  0.20%)    -0.54845
      23    275.45    -0.46563 ( 99.89%)    -0.55104 (  0.11%)    -0.46573
      24    277.44    -0.46196 ( 99.89%)    -0.54891 (  0.11%)    -0.46205
   ------------------------------------------------------------------------

   temp. (K)  partition function   enthalpy   heat capacity  entropy
                                   cal/mol     cal/K/mol   cal/K/mol   J/K/mol
 298.15  VIB  0.338E+14            15141.847     86.312     98.471
         ROT  0.104E+08              888.752      2.981     35.095
         INT  0.352E+21            16030.600     89.293    133.566
         TR   0.570E+28             1481.254      4.968     43.223
         TOT                       17511.8534    94.2613   176.7891   739.6854

       T/K    H(0)-H(T)+PV         H(T)/Eh          T*S/Eh         G(T)/Eh
   ------------------------------------------------------------------------
    298.15    0.279069E-01    0.459169E+00    0.839982E-01    0.375171E+00
   ------------------------------------------------------------------------

         :::::::::::::::::::::::::::::::::::::::::::::::::::::
         ::                  THERMODYNAMIC                  ::
         :::::::::::::::::::::::::::::::::::::::::::::::::::::
         :: total free energy         -66.011286693987 Eh   ::
         ::.................................................::
         :: total energy              -66.386457240026 Eh   ::
         :: zero point energy           0.431261815114 Eh   ::
         :: G(RRHO) w/o ZPVE           -0.056091269074 Eh   ::
         :: G(RRHO) contrib.            0.375170546039 Eh   ::
         :::::::::::::::::::::::::::::::::::::::::::::::::::::
imag cut-off (cm-1) :    5.00
 found            1  significant imaginary frequency
 writing imag mode distorted coords to xtbhess.xyz
 for further optimization.

optimized geometry written to: xtbopt.xyz


           -------------------------------------------------
          | TOTAL ENERGY              -66.386457240026 Eh   |
          | TOTAL ENTHALPY            -65.927288510129 Eh   |
          | TOTAL FREE ENERGY         -66.011286693987 Eh   |
          | GRADIENT NORM               0.000051673473 Eh/α |
          | HOMO-LUMO GAP               2.667171006196 eV   |
           -------------------------------------------------

------------------------------------------------------------------------
 * finished run on 2025/08/22 at 08:30:54.889     
------------------------------------------------------------------------
 total:
 * wall-time:     0 d,  0 h,  0 min,  2.778 sec
 *  cpu-time:     0 d,  0 h,  1 min, 45.158 sec
 * ratio c/w:    37.860 speedup
 SCF:
 * wall-time:     0 d,  0 h,  0 min,  0.070 sec
 *  cpu-time:     0 d,  0 h,  0 min,  2.781 sec
 * ratio c/w:    39.664 speedup
 ANC optimizer:
 * wall-time:     0 d,  0 h,  0 min,  1.426 sec
 *  cpu-time:     0 d,  0 h,  0 min, 57.047 sec
 * ratio c/w:    39.996 speedup
 analytical hessian:
 * wall-time:     0 d,  0 h,  0 min,  0.966 sec
 *  cpu-time:     0 d,  0 h,  0 min, 36.499 sec
 * ratio c/w:    37.795 speedup

