49
 energy: -80.717376567679 gnorm: 0.000027915587 xtb: 6.7.1 (edcfbbe)
C            5.56973121840322        1.32357307292408        0.64246057672902
C            5.18700647932931       -0.02049304992835        0.01741863216843
C            5.55223046583426       -1.15743760886217        0.98028033319519
C            5.90458341012380       -0.18648260031162       -1.32270154556588
N            3.74293690572195       -0.03206218361628       -0.20480018013135
C            3.09923371301742       -1.10714521278035       -0.82677093672958
O            3.70754042284269       -2.03299847324248       -1.38735672514716
C            1.69241111026430       -0.99790681787992       -0.68642577637428
C            0.71021546437539       -1.87360208049024       -1.22991225862320
C           -0.60620890632921       -1.58913663661699       -1.05711322263506
C           -1.03257703474662       -0.44295705869469       -0.30931788831805
N           -2.38235635088565       -0.16609323883406       -0.15852276099590
C           -2.97229037913969        1.07305689579287       -0.31321312050711
C           -2.40095570755484        2.28174843333453       -0.69379174769916
C           -3.23193665067374        3.38259993217669       -0.79851125009266
C           -4.59824335797804        3.28730022045794       -0.54366204393914
C           -5.17940931542261        2.07790237825601       -0.19532753973546
C           -4.36778977658248        0.96163687862546       -0.08506528583781
C           -4.62051088954412       -0.42193076729550        0.22079497906063
C           -5.76298684504188       -1.13710974883572        0.53601066877313
C           -5.64242437239580       -2.49017452997030        0.81324667461493
C           -4.40009960637939       -3.12055869872499        0.79788431961407
C           -3.24487658635671       -2.42695664141627        0.48600690545895
C           -3.36345714604129       -1.07802921669604        0.17118352277554
C           -0.06556170918261        0.39876376468624        0.28134152115840
C            1.24695140124017        0.10161685546998        0.10343123498153
S            2.68350064589449        0.89276770924646        0.75371340443041
O            2.75228228562670        2.27066247444360        0.36567984691388
O            2.88509544847974        0.60464765950409        2.14571715928379
H            5.23768656995481        2.14296684492789        0.01052697947831
H            5.10570591525989        1.43530993742703        1.61832670827344
H            6.65018665181530        1.37185548334712        0.75494077029988
H            5.30643949355817       -2.11458073245994        0.52587033540384
H            4.99056873830873       -1.04709886372197        1.90548560216926
H            6.61580182274263       -1.13237216084393        1.20186365095490
H            5.61180537018342       -1.12854027718960       -1.78261798201254
H            5.63783564774752        0.62552118922120       -1.99494900875743
H            6.98006199818145       -0.18568127436615       -1.16755211813361
H            1.04263322562261       -2.71987041240142       -1.80945293742269
H           -1.36448800139966       -2.19087927518920       -1.53487742122832
H           -1.34788659679552        2.35935369336935       -0.91418263095769
H           -2.81283923933240        4.33356138386757       -1.08872195063541
H           -5.21455074490495        4.16894894385413       -0.63206462804749
H           -6.24152485110957        2.00485010509497       -0.01908615825150
H           -6.72492890549384       -0.64934891356140        0.57057353583565
H           -6.52241587007985       -3.06408323580596        1.06063353140077
H           -4.33649330163759       -4.16941268893100        1.04357937885260
H           -2.28231666297691       -2.91301407449738        0.50740073607707
H           -0.36659912433715        1.22036902772785        0.91261200884434
