62
 energy: -100.760711199881 gnorm: 0.000190010194 xtb: 6.7.1 (edcfbbe)
O            2.35757652225296       -1.30749177302215        2.38698128959827
P            2.28720484315593       -1.16742985125854        0.92707052262390
C            3.82612211730763       -0.57997647911546        0.16248918087063
C            3.86373471687637        0.08589825596339       -1.05512899652747
C            5.07764962142874        0.50731270772626       -1.56666849840427
C            6.25040124689896        0.26112993916036       -0.87022507596667
C            6.21271540576270       -0.40126851484453        0.34606938508128
C            5.00015421123680       -0.82008087530087        0.86284561497399
C            1.74689949051635       -2.67676231241304        0.07301850332128
C            1.62094238866163       -2.74618242487050       -1.30813983299833
C            1.13689893521191       -3.90173209661997       -1.89275417533958
C            0.78160139570619       -4.98480290167037       -1.10318680319328
C            0.91319310994596       -4.91716581810306        0.27413218653073
C            1.39547437889452       -3.76159144116987        0.86300364139826
C            1.00984751791581        0.05380089961937        0.46149580134207
N            1.35106618607881        1.32030203498920        0.36253099989921
C            0.33321095082875        2.15978029018889        0.14017672735562
C            0.65130258822640        3.57341227304258       -0.04299690424479
C            1.94395062664505        4.02565270294983        0.22046683670748
C            2.25504310782662        5.36066902550839        0.05136635972349
C            1.28580185635509        6.25145269259828       -0.38395073666000
C            0.00172268645482        5.80435826318578       -0.65502899503049
C           -0.31819394056309        4.47124516975580       -0.48673799300793
N           -0.93407706319216        1.77855520373011        0.06432356463107
C           -1.17440692550521        0.47378606740297        0.19953999501614
N           -2.45866945991223        0.03719739128675        0.13050966982352
C           -2.86756848830543       -1.29863131557101        0.01468852683811
C           -2.12194309913077       -2.46482461839660       -0.01767808470385
C           -2.79961896053906       -3.66368322834119       -0.16587772093192
C           -4.18377905129890       -3.71082907930026       -0.27968866036587
C           -4.93267826294312       -2.54941334585883       -0.24868791347414
C           -4.27200074090619       -1.33923800049709       -0.10156846463440
C           -4.74134433167118        0.02103528453674       -0.03098640960294
C           -6.01101969980515        0.57738914261821       -0.06536849631140
C           -6.13457222259990        1.94860751363550        0.05719060231866
C           -5.01097317455882        2.74939327247955        0.22433479517104
C           -3.73503136059601        2.21156402637534        0.25928244980504
C           -3.60462117142955        0.84107973350655        0.11599714126327
N           -0.20862555351767       -0.43548723924904        0.37898705073399
H            2.94761057198995        0.29341243846652       -1.58864052075439
H            5.11047878238648        1.03302172349259       -2.51007272100971
H            7.19537087780550        0.59315143395815       -1.27492841830368
H            7.12699312145002       -0.58662144224977        0.89053309884330
H            4.93980570439570       -1.32535731539306        1.81609766160268
H            1.89869007182270       -1.89885150631021       -1.91825589946315
H            1.03248194452125       -3.95979071789981       -2.96645541832515
H            0.40141518215209       -5.88376953018949       -1.56640728851809
H            0.63693115620927       -5.76228480624018        0.88766049628029
H            1.50234237740369       -3.67635640874438        1.93466118309239
H            2.68307212116248        3.31603634918559        0.55877041538011
H            3.25538711410887        5.71067948305514        0.25903610510644
H            1.53173733585270        7.29512707966039       -0.51466906347115
H           -0.75005901462164        6.49907338187634       -0.99972572311882
H           -1.30972429549926        4.10794352123869       -0.70681958847077
H           -1.05086380571296       -2.44747225459307        0.07723183934843
H           -2.23046762702483       -4.58091237175688       -0.19088779349127
H           -4.67727864422732       -4.66477852129709       -0.39163767263835
H           -6.00806267202088       -2.57761681371098       -0.33644984748977
H           -6.88052690162460       -0.05161435973977       -0.17997234229244
H           -7.11332206630039        2.40398305933324        0.03213818082211
H           -5.13309256541515        3.81673813604408        0.33383315209671
H           -2.87143596556629        2.83682808051286        0.40361227521833
