$hessian                                                                        
        0.0420218179  -0.0000465508   0.0294488725  -0.0582675189   0.0023588035
       -0.0281337568   0.0061153653  -0.0005865491   0.0164159919  -0.0034849618
       -0.0005886410   0.0004111856  -0.0005811556  -0.0010391047   0.0004335523
        0.0002989155  -0.0001412202   0.0002560082   0.0014900985  -0.0003640036
        0.0002518375   0.0019161280   0.0007680134   0.0004193527   0.0056213047
       -0.0005962056  -0.0062981377   0.0004990053  -0.0014095728  -0.0003042039
       -0.0007071112   0.0000743172  -0.0001991721   0.0000481943   0.0000589732
       -0.0000712187  -0.0003381621   0.0006500656  -0.0001042877   0.0005584268
        0.0007920028  -0.0002810993   0.0035895249  -0.0010361424  -0.0166698953
       -0.0006120939   0.0020002124  -0.0004975758  -0.0002537398  -0.0011134211
        0.0023232374   0.0000447044   0.0005606093  -0.0001929140  -0.0004082440
        0.0001303072  -0.0001271850  -0.0000934233   0.0000223781  -0.0000238174
       -0.0000459153  -0.0000249268  -0.0000138181   0.0001547179   0.0000722395
        0.0000366162   0.0002710082  -0.0001547382   0.0000326176  -0.0000074016
        0.0003704388  -0.0013549186   0.0024319990  -0.0007143899   0.0028354142
       -0.0012790613  -0.0003131640  -0.0002617381   0.0001802997   0.0004739389
        0.0000526251   0.0001330783  -0.0001904222  -0.0000641701   0.0000260222
        0.0001693449   0.0000020785  -0.0001130315   0.0000720679  -0.0000043463
        0.0000492217  -0.0001208106  -0.0000101694  -0.0000900219   0.0001700867
        0.0000092215  -0.0000636145  -0.0002040622  -0.0000151639   0.0000000006
        0.0001134650   0.0000158882  -0.0000338079  -0.0000931348  -0.0000159116
        0.0001156114  -0.0000469558   0.0000110020  -0.0001458171   0.0001023028
       -0.0000100899   0.0005437109  -0.0003630719  -0.0000482443   0.0010394013
        0.0011636906  -0.0004464188  -0.0001035101   0.0000261923   0.0005620294
       -0.0002694678  -0.0001993849   0.0002870661  -0.0001108179   0.0000071576
        0.0002185165   0.0001294717   0.0000440195  -0.0000386390  -0.0000277233
       -0.0007673463   0.0014890555   0.0002455043  -0.0001949498  -0.0000637611
       -0.0001739907  -0.0000222040  -0.0000623311   0.0001066548  -0.0000611086
       -0.0000373897   0.0000472818   0.0000504617   0.0000293406  -0.0004141113
       -0.0000778214  -0.0004051149  -0.0000529793  -0.0000114354   0.0000118894
        0.0000664475   0.0000747402   0.0000165867   0.0000224730   0.0000269245
       -0.0000001389   0.0000001556   0.0000383018   0.0000026976   0.0000473876
       -0.0000522458   0.0000471920   0.0000128474   0.0002148772   0.0001251467
        0.0000026654  -0.0000160580   0.0000059144  -0.0000457650  -0.0000498638
       -0.0000013731  -0.0000518314  -0.0000091390  -0.0000000984  -0.0000323074
       -0.0000113892   0.0000004554  -0.0000431951   0.0000234314  -0.0000015243
       -0.0000189343   0.0000411616   0.0000069558   0.0000402694  -0.0000504919
        0.0000002756
       -0.0000465508   0.0454223573  -0.0567137929   0.0027112371  -0.0594703209
        0.0547246832  -0.0006998368   0.0043713498   0.0086987125  -0.0012323203
        0.0007794633   0.0000164786  -0.0004465862  -0.0009649430  -0.0003415191
        0.0002090443  -0.0000101809   0.0001261885   0.0003187923  -0.0006333027
       -0.0003908195   0.0007811996  -0.0000375251   0.0008385108  -0.0012235502
        0.0068372606  -0.0158901277  -0.0014105333  -0.0030592575  -0.0006066919
       -0.0001791284  -0.0009873130  -0.0009102458   0.0000496245   0.0003205507
       -0.0004412049   0.0007528284   0.0013389133  -0.0005019614   0.0005467785
        0.0015437715  -0.0002018364  -0.0013198481   0.0033203153   0.0172862252
        0.0009438745   0.0006637435  -0.0001625998  -0.0016823515   0.0013843841
       -0.0025939139  -0.0000980281  -0.0003461908   0.0002844800   0.0000759945
        0.0001001254  -0.0000178282   0.0001235000  -0.0000621794   0.0000178620
        0.0000180816   0.0000386948   0.0000042377  -0.0000952722  -0.0000391025
       -0.0000446772  -0.0001842273   0.0001043281  -0.0000132921   0.0011522008
        0.0010474401   0.0013191750  -0.0022978229  -0.0013208114  -0.0024912817
        0.0020185193   0.0007713595   0.0001506854  -0.0003620720  -0.0010828356
       -0.0000460894   0.0002076159   0.0002818517   0.0000018488  -0.0000543039
       -0.0002181638  -0.0000187350   0.0001315666  -0.0000248269   0.0000098446
       -0.0000947274   0.0001166059  -0.0000057869   0.0002241948  -0.0001573847
        0.0000064480  -0.0000368409   0.0002245189   0.0000144407   0.0000790233
       -0.0001338550  -0.0000127711   0.0000804393   0.0001494981   0.0000241132
       -0.0001871198   0.0000619856  -0.0000159395   0.0001156655  -0.0001713254
       -0.0000166218  -0.0004428653   0.0004314943   0.0000411937   0.0022328347
       -0.0004635847   0.0005551382  -0.0000669322   0.0003400488  -0.0000139168
       -0.0000822329  -0.0001481915  -0.0000046540  -0.0000605439   0.0001880346
        0.0000690393  -0.0000559352   0.0000257059  -0.0000208656  -0.0003814811
       -0.0000351983  -0.0000939921  -0.0001461014  -0.0001057438  -0.0004819568
       -0.0000854210  -0.0002690426  -0.0003290157  -0.0000948203  -0.0000863797
       -0.0001954748   0.0000639522   0.0001336219   0.0000596297  -0.0000650728
       -0.0001954105  -0.0017912274   0.0001325120   0.0000981958   0.0000017698
       -0.0000148743  -0.0000148791  -0.0000049699  -0.0000000812  -0.0000526039
        0.0000172009   0.0000323993  -0.0000506056   0.0000112550   0.0000094343
        0.0000109236  -0.0000040470   0.0001079498  -0.0002779529   0.0000545364
        0.0000241043   0.0001738003   0.0000139801   0.0000009137   0.0000401928
        0.0000050247  -0.0000045114   0.0000247047  -0.0000001679   0.0000400283
        0.0000131194   0.0000034795   0.0000280913   0.0000002986   0.0000044588
        0.0000043822  -0.0000065261  -0.0000024587  -0.0000647893   0.0000669790
        0.0000198427
        0.0294488725  -0.0567137929   0.6253818782  -0.0234494954   0.0458561804
       -0.5823938122  -0.0004350108   0.0036174296  -0.0138730195   0.0050418817
        0.0001908296  -0.0009471771  -0.0004130711   0.0007920342  -0.0005099767
       -0.0005498204  -0.0002666128   0.0002956692  -0.0002181438   0.0001177668
        0.0004273895  -0.0024543144   0.0014423314  -0.0018835043  -0.0006685056
        0.0017369107  -0.0160585244  -0.0020922341  -0.0052219379  -0.0009763603
        0.0000578604   0.0002658115  -0.0009553296   0.0002394099   0.0005842521
        0.0002755585   0.0002285898   0.0003229822   0.0004555699   0.0005451218
        0.0023339593  -0.0024720761  -0.0022588657   0.0042479636  -0.0133220558
       -0.0023445243   0.0033647949   0.0007518961   0.0008197196  -0.0003344301
        0.0006597722  -0.0002416020   0.0005733547  -0.0000073244  -0.0003269827
        0.0000836496   0.0000613823  -0.0000812436   0.0000353440  -0.0000023340
       -0.0000439104  -0.0000935666  -0.0000034524   0.0001214828   0.0000050658
        0.0000412076   0.0002503206  -0.0000329785   0.0000330559  -0.0004315745
       -0.0004055183  -0.0005972284   0.0016896349  -0.0001371923   0.0005258490
       -0.0018405669  -0.0001002718   0.0002858781   0.0001045413   0.0004265342
       -0.0001438496   0.0000111530  -0.0001483277   0.0002501540   0.0000537743
        0.0000578046   0.0000678977  -0.0000503939   0.0001029873   0.0000144691
        0.0000921371  -0.0000933583   0.0000336613  -0.0001392869   0.0001550758
       -0.0000199584  -0.0000541734  -0.0001926826  -0.0000240448   0.0000111431
        0.0001073504   0.0000420410  -0.0000156439  -0.0000918320   0.0000048803
        0.0001111878  -0.0000427406   0.0000335478  -0.0001351565   0.0000562381
        0.0000707714   0.0004158665  -0.0003732074  -0.0001382206  -0.0025873930
        0.0013137023   0.0013003083   0.0002398749  -0.0007238946   0.0009137609
        0.0004107021   0.0001959187  -0.0001777289   0.0001744681  -0.0001992054
        0.0000334194   0.0003402443  -0.0000508230   0.0001124109   0.0007682353
       -0.0009080571   0.0008334080  -0.0000272778  -0.0001582289   0.0012723971
       -0.0002061059  -0.0004330158  -0.0002497801  -0.0000170682  -0.0001532627
        0.0001277017  -0.0001015210  -0.0003219827   0.0001670120  -0.0001896056
       -0.0009463744   0.0011578991   0.0000393002  -0.0000486592  -0.0002009587
        0.0000536283   0.0000156972  -0.0000345958   0.0000297495   0.0000435644
       -0.0000231295  -0.0000228222   0.0000450683  -0.0000207943   0.0000114490
       -0.0000426558  -0.0000112690   0.0001317606   0.0000557444  -0.0003579711
        0.0000374719   0.0000552376  -0.0000630304  -0.0000211667  -0.0000445393
       -0.0000314350  -0.0000545987   0.0000092907  -0.0000208098  -0.0000257719
       -0.0000097827  -0.0000168371  -0.0000328035   0.0000264136  -0.0000110756
       -0.0000048737   0.0000395685  -0.0000107366   0.0000559469   0.0000120750
       -0.0000724459
       -0.0582675189   0.0027112371  -0.0234494954   0.3821468711   0.0083288020
        0.0165945784  -0.1290178195  -0.0376365674   0.0374309253   0.0002097720
       -0.0050950403   0.0116243760   0.0044031344   0.0006661668   0.0002205025
       -0.0018880877   0.0002197875  -0.0006623148  -0.0035816081   0.0013674778
       -0.0031271422  -0.0304208705  -0.0047762346   0.0009813420  -0.0492310928
       -0.0266581373  -0.0122152415  -0.0026081168  -0.0011702958  -0.0058287507
        0.0061351308  -0.0004421769  -0.0009276186  -0.0002632755  -0.0005923703
        0.0004663282   0.0054503850  -0.0033386639   0.0006699765  -0.0036705881
       -0.0098134329  -0.0000257887  -0.0877284357   0.0717449186  -0.0130065604
        0.0023579292  -0.0007231742   0.0009082217   0.0014641037   0.0025139492
       -0.0027035880  -0.0001964541  -0.0019956655   0.0004593878   0.0013449149
       -0.0003373056   0.0004318378   0.0002792745  -0.0000866105   0.0001332780
        0.0001403162   0.0001240913   0.0000234915  -0.0005034799  -0.0001777244
       -0.0000952310  -0.0008683638   0.0004719566  -0.0001709372   0.0004892634
       -0.0021026326   0.0013617336  -0.0108286766  -0.0009027715  -0.0035286174
        0.0034281196   0.0020487664   0.0003771719  -0.0003588740  -0.0014276799
        0.0000258103  -0.0006584001   0.0005553411   0.0000501755  -0.0000501936
       -0.0005079641  -0.0000521694   0.0003644706  -0.0002087257   0.0000101714
       -0.0001639752   0.0003835166   0.0000057697   0.0003173877  -0.0006226111
       -0.0000298349   0.0001007436   0.0007688023   0.0000555381  -0.0000260851
       -0.0003967625  -0.0000329753   0.0000988875   0.0003098494   0.0000400163
       -0.0003989640   0.0001514162   0.0000001144   0.0004818759  -0.0002960391
        0.0000105607  -0.0018608098   0.0010769293  -0.0000926827  -0.0219577764
        0.0035460725  -0.0025977218   0.0000975445   0.0007847455  -0.0020033024
        0.0003025006   0.0003173466  -0.0008257984   0.0003961784   0.0000818654
       -0.0003436032  -0.0005432916  -0.0002313635   0.0004074792  -0.0001698895
        0.0003730075  -0.0014528786  -0.0016163129   0.0007650960   0.0008174801
        0.0001762659  -0.0000840005   0.0001556417  -0.0013796904   0.0006028836
        0.0001571650  -0.0000876056  -0.0002268432  -0.0001656223  -0.0016595548
        0.0009746637   0.0004117176   0.0000181901   0.0000341196  -0.0001477397
       -0.0001946703  -0.0001932831  -0.0000612225  -0.0000610753  -0.0000658513
       -0.0000131845   0.0000082151  -0.0000991670   0.0000041192  -0.0000896568
        0.0001236189  -0.0001217565  -0.0002625138  -0.0009485931  -0.0001951532
       -0.0000251512   0.0000206062   0.0000125686   0.0001410762   0.0001392283
        0.0000232505   0.0001527814   0.0000222159   0.0000081081   0.0000827762
        0.0000368287   0.0000121464   0.0001188081  -0.0000678512  -0.0000010484
        0.0000476593  -0.0001228978  -0.0000158816  -0.0001156977   0.0000831303
        0.0000028774
        0.0023588035  -0.0594703209   0.0458561804   0.0083288020   0.3702438857
       -0.0377621132  -0.0308162275  -0.0519947849   0.0118399429  -0.0078156614
       -0.0062541037   0.0070356106   0.0004824826   0.0041942774   0.0047406049
       -0.0001988432  -0.0003505258   0.0004960401   0.0007862205   0.0058448407
        0.0019872992  -0.0032069036   0.0016038620  -0.0043007879  -0.0309507790
       -0.1260906034  -0.0406415509  -0.0007932707  -0.0011662438  -0.0128407005
        0.0002757434   0.0058090526   0.0000383741  -0.0006238230  -0.0021038292
        0.0014419552  -0.0027927634  -0.0026375299   0.0030638351  -0.0097994253
       -0.0268050381  -0.0012275094   0.0693967295  -0.0836884740   0.0123634542
        0.0053289561  -0.0186274459   0.0025448498   0.0027666131  -0.0080102473
        0.0033248649   0.0011146440   0.0006509085  -0.0001635684  -0.0003491882
       -0.0002447323   0.0000829217  -0.0003753211   0.0002089146  -0.0001262335
       -0.0000440675  -0.0001138808  -0.0000020223   0.0003855844   0.0000430497
        0.0001245188   0.0005446334  -0.0006416282   0.0001567924  -0.0042842584
       -0.0024566960  -0.0010575821   0.0061639755   0.0044133457   0.0024331476
       -0.0067819097  -0.0025044579  -0.0005029670   0.0010516929   0.0032884389
        0.0001206748  -0.0007770237  -0.0008440904  -0.0001469750   0.0002154102
        0.0006625001   0.0000529490  -0.0003684675   0.0001239875  -0.0000323452
        0.0003145835  -0.0003528345   0.0000174318  -0.0007604732   0.0005253753
       -0.0000080304   0.0001164707  -0.0007631188  -0.0000454747  -0.0002184156
        0.0004521122   0.0000179651  -0.0002247687  -0.0004832254  -0.0000721182
        0.0005746765  -0.0001975133   0.0000166411  -0.0003791561   0.0005105988
        0.0000469153   0.0013014441  -0.0013818055   0.0000728543  -0.0028557574
        0.0036119915  -0.0008625056   0.0003379047  -0.0014061864  -0.0008536768
       -0.0003792240   0.0000427073   0.0001743736   0.0003208352  -0.0012974675
       -0.0007029021   0.0004727102   0.0000339407   0.0000403277   0.0009469420
       -0.0019740473  -0.0003727346   0.0008072309   0.0001051077   0.0019291178
        0.0001252099   0.0002954577   0.0008217196   0.0005572690   0.0002370077
        0.0002771222  -0.0002434439  -0.0004290051  -0.0004525826   0.0007658880
       -0.0003932668   0.0012814709  -0.0003227511  -0.0003409169  -0.0000975154
        0.0000517861   0.0000424646   0.0000011635  -0.0000071937   0.0001362364
       -0.0000382162  -0.0000928912   0.0001083889  -0.0000377246  -0.0000878550
        0.0000057912  -0.0000095606  -0.0003413143   0.0006705916   0.0000144287
       -0.0000367116  -0.0005238646   0.0000041570   0.0000216296  -0.0001022161
       -0.0000092653   0.0000267959  -0.0000595698   0.0000085221  -0.0001022719
       -0.0000390784  -0.0000126923  -0.0000709627   0.0000005532  -0.0000041272
       -0.0000044385   0.0000268926   0.0000071127   0.0001638946  -0.0001435318
       -0.0000518573
       -0.0281337568   0.0547246832  -0.5823938122   0.0165945784  -0.0377621132
        0.7573974611   0.0453686136   0.0152011274  -0.0567379598   0.0130497256
        0.0078598388  -0.0108203903   0.0000911189   0.0041678893  -0.0017454249
        0.0002825954   0.0007081195  -0.0012942421  -0.0036582984   0.0020592598
        0.0011546246  -0.0001977370  -0.0055191694   0.0078709094  -0.0184377407
       -0.0510732485  -0.0602442718  -0.0060700799  -0.0150342398  -0.0139443816
       -0.0005218421  -0.0000956909  -0.0040880394  -0.0001850787  -0.0003103125
       -0.0013271832   0.0009822246   0.0033777850  -0.0003686933   0.0011895957
        0.0006435923   0.0100815047  -0.0191800497   0.0181235331  -0.0460680874
        0.0017009999   0.0004583014  -0.0002784771  -0.0002668291   0.0007955498
        0.0086469967   0.0003779688  -0.0005539709  -0.0008128200   0.0002628700
       -0.0001220044  -0.0001094982   0.0000398451  -0.0000221267   0.0000980007
        0.0000575654   0.0000807229   0.0000014333  -0.0001442349   0.0000344387
        0.0000358301  -0.0001878018  -0.0000270005  -0.0001709138   0.0007207878
       -0.0009956035  -0.0044369606  -0.0017687773   0.0004250116   0.0098214786
        0.0014206434  -0.0000266564  -0.0007216871   0.0000136848  -0.0001444952
        0.0002480037  -0.0000961782   0.0000568854  -0.0003140788   0.0000061649
        0.0000402504  -0.0001052479   0.0000094019  -0.0000993364  -0.0000155103
       -0.0000865675   0.0000598458  -0.0000499838   0.0000962569  -0.0001151350
        0.0000144893   0.0000562806   0.0001363692   0.0000192186  -0.0000434911
       -0.0000769202  -0.0000009368  -0.0000035116   0.0000413120  -0.0000246055
       -0.0000445253   0.0000371514   0.0000408122   0.0000775929  -0.0000692694
       -0.0000999137  -0.0002873319   0.0003096634  -0.0002324378  -0.0002744080
       -0.0010993854  -0.0022991451  -0.0007529877  -0.0003630471  -0.0011984499
        0.0005960412   0.0002505331  -0.0003341780  -0.0001513060  -0.0004213105
       -0.0004240568  -0.0011131873  -0.0000947707   0.0000614843  -0.0023417194
        0.0002875824  -0.0020980901   0.0003592898   0.0008874556  -0.0010270138
       -0.0003031053  -0.0006677302  -0.0004639146   0.0000361748   0.0002194686
       -0.0001761150   0.0004157838   0.0011282324   0.0000115078   0.0008614518
        0.0027738691  -0.0021185514  -0.0000643309   0.0000919704   0.0002185354
       -0.0000364639   0.0000083767   0.0000522821  -0.0000235314  -0.0000398290
        0.0000013499   0.0000145563  -0.0000274103   0.0000393848   0.0000063026
        0.0000264743   0.0000202988  -0.0003542601  -0.0000495127   0.0004661707
       -0.0000606471  -0.0001469723   0.0000769392   0.0000164872   0.0000330900
        0.0000490894   0.0000605663  -0.0000189024   0.0000244821   0.0000141345
        0.0000029655   0.0000278241   0.0000277027  -0.0000232450  -0.0000078484
       -0.0000007266  -0.0000340440   0.0000137977  -0.0000164996  -0.0000178956
        0.0000590110
        0.0061153653  -0.0006998368  -0.0004350108  -0.1290178195  -0.0308162275
        0.0453686136   0.5355887963   0.0184170433   0.0611400115  -0.0871232721
       -0.0174240328   0.0230751836   0.0200989811  -0.0116746948   0.0237054385
       -0.0104317049   0.0128495766  -0.0247621052  -0.0667437559  -0.0182087283
        0.0176063257  -0.2514016199   0.0437298661  -0.1264929539  -0.0003501687
       -0.0023970388   0.0002078279  -0.0000203272  -0.0001169654   0.0009569011
       -0.0001392269  -0.0000268581   0.0000205468   0.0000296452   0.0001399497
        0.0000776481  -0.0000343451  -0.0001311006  -0.0000312839  -0.0003052223
        0.0004135899  -0.0002816813  -0.0055304994  -0.0067901457   0.0024905239
        0.0000714694   0.0009127892  -0.0002360903   0.0004773360  -0.0011925398
       -0.0001107325   0.0000917643   0.0002465888   0.0000102369  -0.0001894665
       -0.0000090515  -0.0000354684  -0.0000691210   0.0000206366  -0.0000386030
       -0.0000115271  -0.0000368987   0.0000006952   0.0000790750   0.0000041754
        0.0000144560   0.0001180454  -0.0001112701   0.0000413020  -0.0000194372
        0.0003022208   0.0002067651   0.0008717993  -0.0005049428  -0.0002979711
       -0.0010468152   0.0000093782  -0.0001070851   0.0001547540   0.0003628214
        0.0000140044  -0.0000018211  -0.0000903187  -0.0000257618   0.0000272514
        0.0000952732   0.0000120164  -0.0000502726   0.0000346198  -0.0000024117
        0.0000440636  -0.0000552168   0.0000012863  -0.0000739620   0.0000870470
        0.0000036628  -0.0000482933  -0.0001059443  -0.0000052851  -0.0000008360
        0.0000559935   0.0000024376  -0.0000142883  -0.0000554526  -0.0000068021
        0.0000674885  -0.0000339440  -0.0000051271  -0.0000690087   0.0000647027
        0.0000031498   0.0002560750  -0.0002549681   0.0000194913  -0.0045788361
        0.0024258497  -0.0003464332   0.0001003822   0.0123538965  -0.0219986686
       -0.0040931168  -0.0026600294   0.0023725766   0.0006157875   0.0006449862
       -0.0005010260  -0.0046111823  -0.0023743874   0.0018962296   0.0009066888
        0.0017760457  -0.0030808572   0.0002324678   0.0005794061  -0.0004022005
        0.0000147866   0.0000785643   0.0000121360   0.0000471197   0.0000269905
       -0.0000083189   0.0000362037   0.0000149870  -0.0000101490  -0.0000607420
        0.0000419722  -0.0001031327   0.0000398789  -0.0000225028   0.0000131833
        0.0000272989   0.0000174043   0.0000148728   0.0000044921   0.0000221272
        0.0000007074  -0.0000088270   0.0000144778  -0.0000042011   0.0000021454
       -0.0000162755   0.0000125998  -0.0000084031   0.0001308900   0.0000350836
       -0.0000001332  -0.0000369728  -0.0000012445  -0.0000151783  -0.0000260729
       -0.0000040662  -0.0000206370  -0.0000043954  -0.0000005363  -0.0000199511
       -0.0000071158  -0.0000027719  -0.0000213919   0.0000102269   0.0000012213
       -0.0000052989   0.0000196170   0.0000022837   0.0000173475  -0.0000197854
       -0.0000014395
       -0.0005865491   0.0043713498   0.0036174296  -0.0376365674  -0.0519947849
        0.0152011274   0.0184170433   0.2202167068  -0.2110086552   0.0086165839
       -0.1088753382   0.1193737751  -0.0384938501  -0.0092594824   0.0163275075
        0.0132280915  -0.0138790439   0.0156822135   0.0085242057   0.0153495856
       -0.0190011421   0.0201052565  -0.0620613650   0.0380049406  -0.0099343170
       -0.0008346079   0.0043252657  -0.0005345479  -0.0009990318   0.0010047096
        0.0007843135  -0.0003545133   0.0000483063   0.0000607292   0.0002649317
        0.0002161583   0.0008442016  -0.0008962625  -0.0000253543  -0.0012561758
       -0.0008853008  -0.0023190915   0.0050969023   0.0062456708  -0.0029926291
        0.0005279938  -0.0004791434   0.0002663168  -0.0012301315   0.0012800250
       -0.0002121429  -0.0000286130  -0.0003356975   0.0000630211   0.0001968103
        0.0000289239   0.0000575402   0.0000293722   0.0000013260   0.0000121361
        0.0000009680   0.0000175029  -0.0000062419  -0.0000547592  -0.0000128167
       -0.0000099951  -0.0001765821   0.0000909926  -0.0000477357   0.0007256855
        0.0001096752  -0.0000873401  -0.0013695432  -0.0000440134   0.0001825486
        0.0016796506   0.0002906033   0.0001227370  -0.0002580114  -0.0007094424
       -0.0000273828   0.0000802056   0.0001720368   0.0000353289  -0.0000477817
       -0.0001746099  -0.0000194722   0.0000956993  -0.0000123946   0.0000097428
       -0.0000578105   0.0000773658  -0.0000018710   0.0001357357  -0.0001297326
       -0.0000043893   0.0000100509   0.0001581128   0.0000094365   0.0000469319
       -0.0000846406   0.0000020613   0.0000531187   0.0000914228   0.0000142954
       -0.0001335506   0.0000431744   0.0000043173   0.0000939476  -0.0001109322
       -0.0000090316  -0.0002985094   0.0003583331  -0.0000468889   0.0052580512
       -0.0018213329   0.0009350574   0.0013272550  -0.0035705818   0.0056874255
       -0.0026165738   0.0056927038   0.0038691927   0.0004624518  -0.0005531194
       -0.0002233453  -0.0025628972   0.0058232391   0.0035031410   0.0116524838
       -0.0028596127   0.0078264961  -0.0001559894   0.0003543111  -0.0000186056
       -0.0000295721  -0.0000756631  -0.0001524301  -0.0002398897   0.0000137616
       -0.0000300257  -0.0000480569  -0.0003026960  -0.0000591565  -0.0004666567
        0.0003750436  -0.0000569947   0.0000268425  -0.0000344479  -0.0000245087
       -0.0000207369  -0.0000241914  -0.0000044347  -0.0000038660  -0.0000147756
        0.0000009850   0.0000089146  -0.0000281064   0.0000088526   0.0000047282
        0.0000131941  -0.0000094855   0.0000984512  -0.0002200428  -0.0000249218
        0.0000185419   0.0001230122   0.0000022431   0.0000068922   0.0000277645
        0.0000035149   0.0000002363   0.0000146492  -0.0000013643   0.0000261845
        0.0000074986   0.0000037907   0.0000179118  -0.0000009871  -0.0000008666
        0.0000063209  -0.0000104497  -0.0000017438  -0.0000272248   0.0000362435
        0.0000056323
        0.0164159919   0.0086987125  -0.0138730195   0.0374309253   0.0118399429
       -0.0567379598   0.0611400115  -0.2110086552   0.5135890740  -0.0252932940
        0.1148936793  -0.2592073095   0.0753629029   0.0218319228  -0.0204074863
       -0.0254392532   0.0161438980  -0.0415827369  -0.0313933587  -0.0249688163
        0.0431161444  -0.0795467203   0.0426900537  -0.1439474843  -0.0034422616
        0.0002540610   0.0047961696   0.0001243646  -0.0000442574   0.0005294162
        0.0003538352   0.0002948626   0.0001236728  -0.0000176789  -0.0000289478
        0.0001561832   0.0002511406  -0.0004474706   0.0001804874  -0.0006156209
       -0.0006448282  -0.0009251671  -0.0035160515  -0.0006032701   0.0036497184
        0.0004802134  -0.0000773972  -0.0004878687  -0.0004504691   0.0002321997
       -0.0005667066  -0.0000254211  -0.0000599637   0.0000507045  -0.0000214393
        0.0000526403  -0.0000556343   0.0000485100  -0.0000037315   0.0000117353
       -0.0000034364   0.0000093451   0.0000069234  -0.0000126687  -0.0000065858
       -0.0000053143  -0.0000227720   0.0000247962   0.0000034774   0.0001523650
        0.0002455728   0.0003283916  -0.0005402966   0.0000706684  -0.0007096513
        0.0002057830   0.0001455971   0.0000664709  -0.0000392498  -0.0001148022
       -0.0000244635   0.0000233280   0.0000324925   0.0000282130  -0.0000155112
       -0.0000416998   0.0000051760   0.0000096005  -0.0000038259   0.0000023756
       -0.0000161674   0.0000175099   0.0000037058   0.0000272292  -0.0000215968
       -0.0000001627  -0.0000120203   0.0000319187   0.0000025736   0.0000044689
       -0.0000201105  -0.0000009241   0.0000034207   0.0000223385   0.0000050181
       -0.0000265261   0.0000111762  -0.0000002673   0.0000144347  -0.0000154666
        0.0000059410  -0.0000605883   0.0000367932   0.0000015567  -0.0007355283
        0.0005987480  -0.0000444313  -0.0020802850   0.0076085461  -0.0154883577
        0.0020247025   0.0037555643   0.0017378667  -0.0005882576  -0.0001928424
       -0.0004209605   0.0019444865   0.0035387957   0.0019077732  -0.0216775805
        0.0056938037  -0.0156851479  -0.0003203024  -0.0001145724  -0.0000586297
       -0.0000089212  -0.0000006776  -0.0000057791  -0.0000526898   0.0000185532
        0.0000028501  -0.0000383725  -0.0001712394  -0.0000542375  -0.0001353387
       -0.0002336604  -0.0000252144   0.0000217767   0.0000407808   0.0000527233
       -0.0000047136  -0.0000024587  -0.0000049592   0.0000028568  -0.0000191508
        0.0000044892   0.0000108403  -0.0000095319  -0.0000008025   0.0000109163
       -0.0000043875   0.0000021826   0.0000724656  -0.0000236260  -0.0000341807
        0.0000135758   0.0000355674  -0.0000049279   0.0000024037   0.0000068367
       -0.0000025782  -0.0000007041   0.0000026386  -0.0000021527   0.0000057675
        0.0000036949  -0.0000017421   0.0000050103  -0.0000014126  -0.0000003092
       -0.0000013421  -0.0000015107  -0.0000016519  -0.0000084862   0.0000027851
       -0.0000027952
       -0.0034849618  -0.0012323203   0.0050418817   0.0002097720  -0.0078156614
        0.0130497256  -0.0871232721   0.0086165839  -0.0252932940   0.6620047693
        0.0393134191   0.0353200122  -0.2776920045  -0.0871073241   0.1100970742
       -0.0672881545   0.0102549111  -0.0331330046  -0.0152441787  -0.0158661743
        0.0273655339   0.0299338337   0.0141981178  -0.0209662107  -0.0019034792
        0.0001316976  -0.0000785214  -0.0003057435  -0.0006690206   0.0004361845
        0.0001431179   0.0000873100  -0.0001133207   0.0000079345   0.0000250714
        0.0000450369   0.0002032757  -0.0000198579  -0.0000461049  -0.0000682766
       -0.0001808035  -0.0003151981  -0.0007790001  -0.0011226630  -0.0000573243
       -0.0007280656   0.0007008640  -0.0006340409  -0.0001846414   0.0000042127
        0.0004656142  -0.0000268376   0.0000741464  -0.0000837798   0.0000052107
       -0.0000211604  -0.0000393767   0.0000380535   0.0000467359   0.0000066447
        0.0000133684  -0.0000225105   0.0000077072  -0.0000160585  -0.0000247300
       -0.0000012817  -0.0000191418   0.0000288353  -0.0000252400   0.0001548899
        0.0001637384  -0.0001268273  -0.0002207893  -0.0002064288   0.0003229575
        0.0001049209   0.0001152738  -0.0001162441  -0.0000430672  -0.0001018979
        0.0000226344   0.0000448692   0.0000284111  -0.0000354534  -0.0000017785
       -0.0000198492  -0.0000064819   0.0000099182  -0.0000004339   0.0000006516
       -0.0000065177   0.0000116046  -0.0000054405   0.0000144638  -0.0000011858
        0.0000045637  -0.0000174290   0.0000077034   0.0000019589   0.0000156262
       -0.0000094151  -0.0000024427   0.0000109458   0.0000125970  -0.0000011347
       -0.0000131617   0.0000087435  -0.0000013485   0.0000026526  -0.0000216732
       -0.0000208905  -0.0000253388   0.0000190063   0.0000017540  -0.0002149970
        0.0004097495   0.0001510628  -0.2270316047   0.0419276365  -0.1076006436
       -0.0024100612  -0.0017778522   0.0024953091  -0.0040594816   0.0002904130
       -0.0032005327   0.0004459720  -0.0002356064   0.0006132189  -0.0041557902
        0.0004712965  -0.0031962248  -0.0003139426  -0.0005791878  -0.0003560930
       -0.0000221882  -0.0000563268  -0.0000877366  -0.0000277797   0.0000261653
       -0.0000340186  -0.0000188789  -0.0000354598  -0.0000190098  -0.0000342756
        0.0001739013  -0.0000331408   0.0001243387   0.0000379774   0.0000706036
       -0.0000115621  -0.0000474122  -0.0000013601   0.0000002787  -0.0000126448
        0.0000061063  -0.0000057631  -0.0000096102   0.0000065357  -0.0000137566
       -0.0000085878   0.0000099023   0.0000269114  -0.0000245337   0.0000519161
        0.0000049355   0.0000223566   0.0000079463  -0.0000034351   0.0000022085