$hessian                                                                        
        0.1366606363  -0.1565089615  -0.0820221137  -0.1158095410   0.1245871085
        0.0704817207  -0.0280541130   0.0473038378   0.0233522663   0.0027708910
        0.0032633010   0.0026618417   0.0001089486   0.0015521654   0.0012538172
        0.0001945736  -0.0007919521  -0.0004657185  -0.0002517613   0.0016864892
        0.0013520782  -0.0106852341  -0.0032307762  -0.0048402305   0.0035828130
        0.0021579435   0.0024277769  -0.0041670596  -0.0024000737  -0.0029764665
        0.0005219980  -0.0011330321  -0.0004359346   0.0002888919  -0.0007848052
       -0.0004701385   0.0015635751   0.0005841349   0.0007865368   0.0001017685
        0.0001483006   0.0000670504   0.0000335159  -0.0000346069  -0.0000417518
        0.0000021833   0.0000645728   0.0000224430  -0.0000658621  -0.0000541515
       -0.0000049875   0.0000011605   0.0000452140   0.0000273871   0.0000251859
       -0.0000059098  -0.0000290183  -0.0000007674  -0.0000025981   0.0000038046
       -0.0000066270  -0.0000069971   0.0000002542   0.0000011190  -0.0000120422
       -0.0000098359  -0.0000152428  -0.0000050492   0.0000089666  -0.0000038722
       -0.0000180200  -0.0000093635  -0.0000053661   0.0000028993   0.0000045064
       -0.0000062514  -0.0000217462  -0.0000115805  -0.0000009488  -0.0000008848
       -0.0000040857  -0.0000146826   0.0000201530   0.0000138750   0.0000457979
       -0.0000037712  -0.0000165721  -0.0000179690  -0.0000450363  -0.0000183578
        0.0000781516  -0.0000250455   0.0000396417  -0.0001263062   0.0000298631
       -0.0000977447   0.0000302146  -0.0000430434   0.0000926618  -0.0000258307
       -0.0000128100  -0.0000497736  -0.0000222311  -0.0000058127   0.0000132180
       -0.0000134598   0.0000022952   0.0000048209   0.0000008719  -0.0000103838
       -0.0000164860  -0.0000098837   0.0000027163   0.0000087984   0.0000022556
        0.0000158396  -0.0000137632  -0.0000100351  -0.0000125848   0.0000023140
       -0.0000028719   0.0000037338  -0.0000086601  -0.0000034495   0.0000004258
       -0.0000141112  -0.0000430784  -0.0000082127  -0.0000035074   0.0001086714
       -0.0000241245  -0.0000086979   0.0000403710   0.0000533175  -0.0001292649
       -0.0016440639  -0.0018765152  -0.0014616708   0.0142154235  -0.0142888191
       -0.0094534444   0.0002398690   0.0001696344   0.0001126338  -0.0000140458
       -0.0000670254  -0.0000608951  -0.0000993411   0.0000803218  -0.0000285065
       -0.0007157989   0.0003903855   0.0001073612  -0.0001787187  -0.0002522677
       -0.0002172224   0.0000289089  -0.0000577272  -0.0000737428  -0.0000047742
       -0.0000087823   0.0000190175  -0.0000127868   0.0000100585   0.0000208137
       -0.0000029965   0.0000027131   0.0000006133  -0.0000049352  -0.0000051511
       -0.0000009709  -0.0000040705  -0.0000006500   0.0000030000  -0.0000036895
       -0.0000031491   0.0000012383  -0.0000026218  -0.0000002951   0.0000047070
        0.0000074799   0.0000058782   0.0000014277   0.0000145616  -0.0000047671
       -0.0000027866  -0.0000259120   0.0000030688   0.0000102662   0.0000104283
        0.0000133991   0.0000398998   0.0000031152  -0.0000018789   0.0000057381
        0.0000036739   0.0000088264   0.0000010776   0.0000014462   0.0000058341
        0.0000070880   0.0000056421   0.0000046663   0.0000018701   0.0000020791
        0.0000041943   0.0000065438   0.0000066813  -0.0000016282   0.0000042234
        0.0000296807   0.0000137083   0.0000002056   0.0001278727  -0.0001032360
        0.0001505666   0.0012157425  -0.0003626759  -0.0001266675
       -0.1565089615   0.5013270766   0.2855992531   0.1245684659  -0.4199841473
       -0.2172648639   0.0428100960  -0.0301191018  -0.0218171975  -0.0076587707
       -0.0029783202  -0.0032860781   0.0024133477  -0.0025307339  -0.0005801743
       -0.0006729635   0.0022350569   0.0014451896  -0.0001835606  -0.0011613406
        0.0001636640   0.0064324612   0.0076222850   0.0036283983   0.0017394142
       -0.0047800746  -0.0017634311  -0.0117111794   0.0039071858  -0.0020452263
        0.0007008918  -0.0016302513   0.0000245622  -0.0009642620   0.0019594381
        0.0013418542  -0.0005315632  -0.0031935992  -0.0015304341   0.0007639684
       -0.0002297111   0.0000054446  -0.0005081787   0.0004010726   0.0002030108
        0.0006333348   0.0003595806  -0.0001289890  -0.0004694430  -0.0003947988
       -0.0000133727  -0.0000181492   0.0002800966   0.0001858665  -0.0000718221
       -0.0000362148  -0.0000851878  -0.0000043472   0.0000614774   0.0000402560
       -0.0000557298  -0.0000102066   0.0000468860   0.0000289490   0.0000196532
       -0.0000065184  -0.0000849225  -0.0000321291   0.0000711131  -0.0000291609
       -0.0000921056  -0.0000500034  -0.0000091052   0.0000276821   0.0000193143
       -0.0000057488  -0.0000036113  -0.0000006760   0.0000451006   0.0000176521
       -0.0000382025  -0.0000611842   0.0000060607   0.0000733962   0.0003120506
       -0.0000360389  -0.0001854346  -0.0000309578   0.0000909657  -0.0000651553
        0.0003012282  -0.0006647998   0.0000264996  -0.0000855209   0.0006572568
        0.0000737841  -0.0002502180  -0.0002813109   0.0001519683   0.0001060441
        0.0000459055  -0.0000445561   0.0000285551  -0.0000217049   0.0000395495
       -0.0000084177   0.0000573742   0.0000272257   0.0000300163   0.0000127829
        0.0000070433  -0.0000776429   0.0000980496   0.0000705872   0.0000144420
        0.0000899579  -0.0000623994  -0.0000009956  -0.0000022134   0.0000282160
        0.0000127547   0.0000567971  -0.0000266560   0.0000432823  -0.0000440919
       -0.0000164059  -0.0000173591   0.0000304659   0.0001040489   0.0001825512
       -0.0001338729  -0.0002160765  -0.0005757677  -0.0000817943   0.0000847562
        0.0088942468  -0.0006679554   0.0008580442  -0.0098472731  -0.0512081264
       -0.0449282826   0.0007348954   0.0009473812   0.0007199556   0.0003453281
        0.0000696516   0.0000402088   0.0001495102   0.0001384191  -0.0000735745
        0.0004860764  -0.0002343049  -0.0001200490  -0.0003583714  -0.0004796354
       -0.0004506432  -0.0000515748   0.0000846572  -0.0002115334   0.0001327829
        0.0000200717  -0.0000479152   0.0000802220  -0.0000073602   0.0000218158
        0.0000378081   0.0000068937  -0.0000100627   0.0000132082  -0.0000074752
       -0.0000093495  -0.0000018504  -0.0000155435   0.0000006939   0.0000015566
       -0.0000135388  -0.0000075740  -0.0000069187  -0.0000107849   0.0000040080
       -0.0000095806  -0.0000042819   0.0000104817   0.0000132464  -0.0000177268
       -0.0000238311  -0.0000295551  -0.0000065513  -0.0000276704  -0.0000247649
       -0.0000680568  -0.0000036179   0.0000013706  -0.0000173587  -0.0000393427
       -0.0000122634   0.0000119077  -0.0000290432  -0.0000229857   0.0000125600
       -0.0000121381  -0.0000251014   0.0000177384  -0.0000096193  -0.0000241545
        0.0000051910   0.0000043997  -0.0000187183  -0.0000131954   0.0000096578
       -0.0000083867  -0.0000298572  -0.0000318416  -0.0000996142  -0.0000030258
       -0.0000743181  -0.0009201605   0.0005686068   0.0002062921
       -0.0820221137   0.2855992531   0.1943607151   0.0705118577  -0.2173974746
       -0.1834055795   0.0203695435  -0.0209435603   0.0047022742  -0.0045136168
       -0.0013289491  -0.0017715260   0.0018060582  -0.0007400770  -0.0011434086
       -0.0003722540   0.0014260171   0.0007506444   0.0000966836   0.0005201396
       -0.0011105753   0.0015883305   0.0017933246   0.0054786408   0.0020832872
       -0.0015838509  -0.0024960567  -0.0090679501  -0.0004430869   0.0020101280
        0.0008160146  -0.0002783662  -0.0015212888  -0.0005762353   0.0012361579
        0.0006965824   0.0000155347  -0.0012673453  -0.0019029695   0.0005103204
       -0.0002103876   0.0000994958  -0.0003761942   0.0002118737   0.0001610419
        0.0004211040   0.0002481924  -0.0001092411  -0.0003212473  -0.0002974581
        0.0000165385  -0.0000249464   0.0001988909   0.0001152443  -0.0000342666
       -0.0000229221  -0.0000588943   0.0000007996   0.0000396547   0.0000280014
       -0.0000420280  -0.0000100477   0.0000350692   0.0000200061   0.0000087844
       -0.0000051167  -0.0000595262  -0.0000193229   0.0000493048  -0.0000237625
       -0.0000680334  -0.0000365854  -0.0000056229   0.0000172368   0.0000127004
       -0.0000050459  -0.0000074103   0.0000028871   0.0000325526   0.0000099544
       -0.0000241643  -0.0000348450  -0.0000000325   0.0000614587   0.0002169833
       -0.0000156537  -0.0001463977  -0.0000415799   0.0000413114  -0.0000325932
        0.0001935066  -0.0004109625   0.0000026443  -0.0001076616   0.0003922906
        0.0000569151  -0.0001135076  -0.0001247029   0.0000714098   0.0000210409
        0.0000251720  -0.0000432258  -0.0000006048  -0.0000275745   0.0000277359
       -0.0000292023   0.0000325140   0.0000334202   0.0000217456   0.0000019333
       -0.0000033652  -0.0000401261   0.0000354041   0.0000382559   0.0000074757
        0.0000780312  -0.0000428138  -0.0000010078  -0.0000097781   0.0000106668
        0.0000045410   0.0000210585  -0.0000008133   0.0000218182  -0.0000183626
       -0.0000098408  -0.0000091489   0.0000290953   0.0000682926   0.0001581046
       -0.0001110787  -0.0001521596  -0.0002976524  -0.0000054397   0.0000712179
        0.0056339343  -0.0008432929   0.0004196705  -0.0066560393  -0.0457124097
       -0.0162751531   0.0005265054   0.0006092026   0.0005770945   0.0002073799
       -0.0000281794   0.0001080550   0.0000215253  -0.0000953632   0.0002496503
        0.0001720494  -0.0001368068   0.0000265461  -0.0002805781  -0.0004196903
       -0.0002376043  -0.0000764761  -0.0001530253   0.0001449997   0.0000808441
        0.0000040106  -0.0000392514   0.0000505427   0.0000036453   0.0000106593
        0.0000253332   0.0000071062  -0.0000081932   0.0000070598  -0.0000052623
       -0.0000095108  -0.0000046535  -0.0000104043  -0.0000025664  -0.0000015367
       -0.0000086489  -0.0000082840  -0.0000095928  -0.0000055578   0.0000002574
       -0.0000127292   0.0000015460   0.0000030836   0.0000076917  -0.0000041603
       -0.0000282837  -0.0000237969  -0.0000030060  -0.0000221423   0.0000163756
       -0.0000245250   0.0000051103   0.0000128410  -0.0000167187  -0.0000076066
        0.0000017691   0.0000035967  -0.0000146373  -0.0000101281   0.0000150020
       -0.0000062873  -0.0000100355   0.0000081380  -0.0000097734  -0.0000166674
        0.0000068180   0.0000029851  -0.0000191068  -0.0000060514   0.0000097600
       -0.0000074975  -0.0000205559  -0.0000272486   0.0000501582  -0.0000033521
       -0.0000296144  -0.0004823344   0.0002135324   0.0002236154
       -0.1158095410   0.1245684659   0.0705118577   0.5003260923  -0.1053468881
       -0.0089937968  -0.1802001554   0.0282191813  -0.0028323193  -0.0448389436
       -0.0055372406  -0.0117889624   0.0040501740  -0.0078960232  -0.0058646419
       -0.0003240084   0.0037257555   0.0024438044   0.0001804286   0.0007924369
       -0.0007763623   0.0033847254   0.0322425162   0.0224402296  -0.0240130126
       -0.0080030883  -0.0092464016   0.0265609766  -0.0097021133  -0.0012327863
       -0.0007240807   0.0031342883   0.0006818354   0.0010520045  -0.0008598063
       -0.0004892270  -0.0043195126   0.0060889467   0.0018931248  -0.0016193418
       -0.0005384141  -0.0005963472   0.0002118737  -0.0000436748  -0.0000890468
       -0.0004739111  -0.0003008725   0.0000971989   0.0003518218   0.0003211957
        0.0000144324   0.0000147688  -0.0002145781  -0.0001277402   0.0000200087
        0.0000315782   0.0000938484   0.0000129871  -0.0000234339  -0.0000296324
        0.0000463251   0.0000146572  -0.0000335059  -0.0000200329   0.0000063295
        0.0000229598   0.0000740865   0.0000232396  -0.0000584729   0.0000198701
        0.0000805321   0.0000501614   0.0000129897  -0.0000256249  -0.0000192317
        0.0000111822   0.0000387286   0.0000226752  -0.0000140530  -0.0000028253
        0.0000259748   0.0000601033  -0.0000223793  -0.0000592701  -0.0002306744
        0.0000234404   0.0001137069   0.0000530828  -0.0000087077   0.0000701215
       -0.0003031960   0.0004231583  -0.0000349421   0.0002780329  -0.0004032401
        0.0001221983   0.0000574383   0.0001752899  -0.0001948286   0.0000255655
       -0.0000206390   0.0001099797   0.0000337415   0.0000236251  -0.0000391283
        0.0000372937  -0.0000188992  -0.0000312628  -0.0000236785   0.0000194159
        0.0000315340   0.0000544094  -0.0000459569  -0.0000491126  -0.0000164939
       -0.0000775400   0.0000610479   0.0000213034   0.0000304764  -0.0000190354
       -0.0000057685  -0.0000235786   0.0000261970  -0.0000119449   0.0000116499
        0.0000346559   0.0000805807  -0.0000184555  -0.0000430144  -0.0002744387
        0.0001033744   0.0001094819   0.0003740217  -0.0000939034   0.0001670392
       -0.0375986835  -0.0150437917  -0.0165437724  -0.1268938223  -0.0462255218
       -0.0416834664   0.0003819021   0.0008353182   0.0010930376  -0.0001729276
        0.0003613111   0.0001817726   0.0003047418  -0.0002066538   0.0002406751
        0.0004619583  -0.0005347638  -0.0002280466   0.0004599551   0.0008556786
        0.0006830298  -0.0000370354  -0.0000234762   0.0003554669  -0.0000779080
        0.0000191777  -0.0000082804  -0.0000362171  -0.0000127496  -0.0000466860
       -0.0000155742  -0.0000148059   0.0000021179   0.0000024764   0.0000064197
        0.0000064539   0.0000088935   0.0000030485  -0.0000058879   0.0000041113
        0.0000067966   0.0000041443   0.0000061496  -0.0000010139  -0.0000075357
       -0.0000101634  -0.0000116121  -0.0000027967  -0.0000327231   0.0000060602
        0.0000167570   0.0000508154  -0.0000095290  -0.0000095447  -0.0000237608
        0.0000053894  -0.0000568168  -0.0000107751   0.0000187725  -0.0000050986
       -0.0000065024  -0.0000103003   0.0000060247   0.0000010791  -0.0000107228
       -0.0000095192  -0.0000065725  -0.0000091477   0.0000039068   0.0000013886
       -0.0000064127  -0.0000104233  -0.0000061923   0.0000090526  -0.0000085365
       -0.0000432187  -0.0000027988   0.0000143979  -0.0002019846   0.0000582179
       -0.0001836988  -0.0006925104  -0.0009323422  -0.0002926700
        0.1245871085  -0.4199841473  -0.2173974746  -0.1053468881   0.6118654956
        0.2748982443   0.0239010555  -0.0699653760  -0.0010183461  -0.0046081041
        0.0096479419   0.0052776597  -0.0059424997   0.0033308229  -0.0038978124
        0.0004904604  -0.0033915062  -0.0020957189   0.0024455872  -0.0017827614
       -0.0056954440   0.0209021832  -0.0183161763  -0.0066699182  -0.0074966237
        0.0084073957   0.0060226242   0.0008410951  -0.0289381890  -0.0174091162
        0.0014454878  -0.0014115738  -0.0056011611   0.0024311611  -0.0035578418
       -0.0021218480   0.0047094373   0.0077513125   0.0010033445  -0.0008261696
        0.0008205974   0.0002372173   0.0010499085  -0.0006544837  -0.0002852984
       -0.0009663717  -0.0005475939   0.0001703583   0.0007648589   0.0006509654
       -0.0000064013   0.0000433687  -0.0004599308  -0.0002896212   0.0000955119
        0.0000642258   0.0001399348   0.0000017333  -0.0000869976  -0.0000690694
        0.0000870366   0.0000158702  -0.0000671205  -0.0000521774  -0.0000304316
        0.0000156644   0.0001402628   0.0000505285  -0.0001115055   0.0000529960
        0.0001545182   0.0000839182   0.0000057251  -0.0000537525  -0.0000270144
        0.0000087395   0.0000174727   0.0000072457  -0.0000704786  -0.0000258753
        0.0000614027   0.0001000128  -0.0000025489  -0.0001207641  -0.0004903958
        0.0000507621   0.0003050658   0.0000513032  -0.0001110289   0.0001062339
       -0.0005262437   0.0010645672  -0.0000765901   0.0001998997  -0.0010482115
       -0.0000765620   0.0003643353   0.0004282047  -0.0002577089  -0.0001366664
       -0.0000722212   0.0000890606  -0.0000368322   0.0000443988  -0.0000681601
        0.0000235607  -0.0000806580  -0.0000402885  -0.0000540853  -0.0000063549
        0.0000007090   0.0001206543  -0.0001456264  -0.0001076876  -0.0000239557
       -0.0001565533   0.0001052399   0.0000026376   0.0000165922  -0.0000407712
       -0.0000209753  -0.0000797152   0.0000381734  -0.0000648816   0.0000672676
        0.0000346070   0.0000401683  -0.0000599743  -0.0001585980  -0.0003390225
        0.0002204875   0.0003428797   0.0009480379   0.0001011621  -0.0000963257
       -0.0156812533   0.0056056902   0.0009361648  -0.0415716493  -0.0953647665
       -0.0297035792  -0.0022263114  -0.0015295514   0.0004258723  -0.0014788778
        0.0001770211  -0.0001932745  -0.0003881014  -0.0005945654   0.0007277821
        0.0008206061  -0.0003307623   0.0000503576  -0.0004795497  -0.0003590855
       -0.0001636428   0.0000649767  -0.0004885532   0.0009429387  -0.0001718146
       -0.0000341879   0.0000723308  -0.0001080187  -0.0000137586  -0.0000381622
       -0.0000499216  -0.0000075127   0.0000223006  -0.0000124469   0.0000163243
        0.0000176424   0.0000130907   0.0000244083  -0.0000009645   0.0000064440
        0.0000230923   0.0000123584   0.0000163990   0.0000143381  -0.0000065575
        0.0000167638  -0.0000055749  -0.0000139126  -0.0000248811   0.0000139624
        0.0000396421   0.0000485730   0.0000060004   0.0000481114   0.0000207411
        0.0000903868  -0.0000111285  -0.0000073597   0.0000231603   0.0000459578
        0.0000104700  -0.0000177981   0.0000368576   0.0000294461  -0.0000268442
        0.0000137589   0.0000298203  -0.0000300887   0.0000154254   0.0000295647
       -0.0000125804  -0.0000069944   0.0000257207   0.0000157871  -0.0000150277
        0.0000028230   0.0000438667   0.0000477724   0.0001028916   0.0000035013
        0.0001058417   0.0021098992  -0.0010429690   0.0014588722
        0.0704817207  -0.2172648639  -0.1834055795  -0.0089937968   0.2748982443
        0.3423058653  -0.0055891805  -0.0004854746  -0.0630074862  -0.0112879466
        0.0052457485   0.0017378739  -0.0046258727  -0.0041872975   0.0038272883
        0.0002680839  -0.0015186946  -0.0010797782   0.0003276158  -0.0059648751
        0.0035013139   0.0148427942  -0.0046054376  -0.0028798166  -0.0087123659
        0.0057245632  -0.0001397002   0.0055002584  -0.0191836759  -0.0141188370
       -0.0005284610  -0.0052423938   0.0036887312   0.0018441457  -0.0024175212
       -0.0015440260   0.0013604859   0.0010058225   0.0085125125  -0.0009944056
        0.0004415292   0.0001320134   0.0007387316  -0.0003815583  -0.0003021103
       -0.0007777608  -0.0004242843   0.0001553714   0.0005812544   0.0005238615
       -0.0000237576   0.0000431148  -0.0003501694  -0.0002030880   0.0000544862
        0.0000524625   0.0001101389  -0.0000044703  -0.0000638432  -0.0000500191
        0.0000675911   0.0000171270  -0.0000510677  -0.0000404616  -0.0000126858
        0.0000166653   0.0001060123   0.0000381001  -0.0000855649   0.0000430683
        0.0001268076   0.0000659206   0.0000029608  -0.0000364228  -0.0000198642
        0.0000082653   0.0000217715   0.0000080365  -0.0000530430  -0.0000134134
        0.0000437133   0.0000754159   0.0000033725  -0.0001012833  -0.0003840084
        0.0000338105   0.0002443848   0.0000674016  -0.0000656296   0.0000784243
       -0.0004130812   0.0007300464  -0.0000350050   0.0002108157  -0.0007106033
       -0.0000762391   0.0002166055   0.0002420326  -0.0001490789  -0.0000630468
       -0.0000346198   0.0000833790  -0.0000079958   0.0000433190  -0.0000455420
        0.0000366681  -0.0000515477  -0.0000463982  -0.0000386982  -0.0000024984
        0.0000115722   0.0000764825  -0.0000763004  -0.0000834798  -0.0000081648
       -0.0001356074   0.0000818349  -0.0000037781   0.0000270315  -0.0000260380
       -0.0000074569  -0.0000418782   0.0000164063  -0.0000409043   0.0000377001
        0.0000220637   0.0000380242  -0.0000556209  -0.0001072668  -0.0002875371
        0.0001903901   0.0002547882   0.0006685340   0.0000015103  -0.0000996139
       -0.0171711447   0.0008220663  -0.0018015402  -0.0381985109  -0.0306307409
       -0.0887497595  -0.0009098969   0.0009683163  -0.0022522178  -0.0010286308
        0.0001350652  -0.0000210740   0.0001348773   0.0007621022  -0.0012730958
        0.0006636120  -0.0002023356  -0.0001878914  -0.0001972116   0.0000615473
       -0.0002125465   0.0003134183   0.0008325453  -0.0010335104  -0.0001336310
        0.0000050311   0.0000588348  -0.0000760889  -0.0000131902  -0.0000290765
       -0.0000357479  -0.0000132761   0.0000188723  -0.0000087142   0.0000101742
        0.0000169107   0.0000100536   0.0000187502   0.0000023102   0.0000053769
        0.0000179423   0.0000115199   0.0000118272   0.0000128379  -0.0000042800
        0.0000111285  -0.0000038946  -0.0000113786  -0.0000163487   0.0000069348
        0.0000352511   0.0000403553   0.0000042434   0.0000288053  -0.0000091569
        0.0000364007  -0.0000207412  -0.0000040110   0.0000209237   0.0000063371
        0.0000058955  -0.0000135505   0.0000169702   0.0000233254  -0.0000232368
        0.0000012474   0.0000180415  -0.0000171834   0.0000066190   0.0000256651
       -0.0000079951  -0.0000130745   0.0000236331   0.0000163669  -0.0000199009
       -0.0000024664   0.0000396087   0.0000327401  -0.0000536912   0.0000148491
        0.0000511081   0.0017599408   0.0010613638  -0.0018750965
       -0.0280541130   0.0428100960   0.0203695435  -0.1802001554   0.0239010555
       -0.0055891805   0.5938905619  -0.0284323222   0.0688818569  -0.1821599785
       -0.0959991317  -0.0883892051  -0.0621704843   0.0088320514  -0.0061508519
       -0.0011781036  -0.0187289477  -0.0116551672  -0.0012266862   0.0253543979
        0.0159882452  -0.1097178689   0.0609301341   0.0297578706   0.0132651166
       -0.0179117203  -0.0106225564  -0.0034240669   0.0035265996   0.0020364267
       -0.0012901111  -0.0005213724  -0.0003894869   0.0005562445  -0.0003168902
       -0.0001502117  -0.0009990388  -0.0002933429  -0.0002396964   0.0002192052
       -0.0003220231  -0.0001225635  -0.0002259663   0.0000329746   0.0000139821
        0.0001180483   0.0000791280   0.0000406817  -0.0001216624  -0.0001023526
       -0.0000168748   0.0000023724   0.0000753086   0.0000424749  -0.0000036546
       -0.0000115464  -0.0000328257  -0.0000043858   0.0000012528   0.0000103519
       -0.0000157593  -0.0000103095   0.0000101808   0.0000033784  -0.0000087437
       -0.0000069272  -0.0000244258  -0.0000070800   0.0000201505  -0.0000032720
       -0.0000229899  -0.0000136138  -0.0000097214   0.0000042920   0.0000097620
       -0.0000077439  -0.0000194162  -0.0000081193   0.0000019972   0.0000036515
       -0.0000039611  -0.0000221529   0.0000080332   0.0000184674   0.0000654429
       -0.0000078180  -0.0000281305   0.0000091584  -0.0000292905  -0.0000224324
        0.0000970433  -0.0000789506   0.0000251736  -0.0000963186   0.0000743451
       -0.0000665158   0.0000049481  -0.0000396252   0.0000653854  -0.0000252031
        0.0000116062  -0.0000395655  -0.0000180502   0.0000031432   0.0000080520
       -0.0000159427   0.0000022337   0.0000076594   0.0000044753  -0.0000112388
       -0.0000145780  -0.0000126488   0.0000122552   0.0000098750   0.0000050809
        0.0000164589  -0.0000182829  -0.0000105278  -0.0000083495   0.0000035739
       -0.0000011184   0.0000043705  -0.0000100765  -0.0000025584   0.0000040112
       -0.0000117860  -0.0000327542   0.0000072749   0.0000019503   0.0000819297
       -0.0000179011  -0.0000100850  -0.0000677517   0.0000153422  -0.0000534459
        0.0010400734  -0.0029966513  -0.0024656410  -0.0348772285  -0.0054681558
       -0.0115271437   0.0052644039   0.0010365478   0.0015526103  -0.0050835449
        0.0024835001  -0.0008539470   0.0006527887  -0.0006152808  -0.0001744006
       -0.0051938034   0.0025533580  -0.0005077583  -0.0000275350  -0.0000272331
       -0.0000263592   0.0000471936   0.0000220288  -0.0000470203   0.0000373381
        0.0000076811  -0.0000035447   0.0000108771   0.0000110884   0.0000261684
        0.0000030829   0.0000079388   0.0000030290  -0.0000003845   0.0000011621
        0.0000021430   0.0000009357   0.0000032338   0.0000038582   0.0000008549
        0.0000009863   0.0000009115   0.0000021693   0.0000030125   0.0000024179
        0.0000079566   0.0000056249  -0.0000005570   0.0000137371  -0.0000004284
       -0.0000056715  -0.0000226770   0.0000084027   0.0000007984   0.0000121213
       -0.0000095026   0.0000268653   0.0000054354  -0.0000062965   0.0000034727
        0.0000054156  -0.0000003993   0.0000008368   0.0000037203  -0.0000002262
        0.0000048339   0.0000070867  -0.0000000598  -0.0000008578   0.0000036161
        0.0000010438   0.0000027365   0.0000063401  -0.0000028128   0.0000022758
        0.0000222877   0.0000012771  -0.0000015872   0.0000672035  -0.0000457768
        0.0000641664   0.0008077573   0.0002172835   0.0002618402
        0.0473038378  -0.0301191018  -0.0209435603   0.0282191813  -0.0699653760
       -0.0004854746  -0.0284323222   0.4942720879   0.2464407453  -0.0539709586
       -0.1387582822  -0.0696715069  -0.0349425818   0.0333685659   0.0137088731
       -0.0125257974  -0.0338545279  -0.0212975925   0.0599912878  -0.0106204481
        0.0018449508   0.0284665549  -0.2100570475  -0.0996208082  -0.0110593091
       -0.0300235556  -0.0261616585   0.0037522260  -0.0002496525   0.0017984403
       -0.0001073248  -0.0000702622   0.0005550222   0.0003838932   0.0002000605
        0.0000111906  -0.0004744138   0.0006642981   0.0009131479  -0.0003626826
       -0.0002936712   0.0001044923  -0.0001019518   0.0001078807   0.0000238743
        0.0000220625   0.0000354405  -0.0000239989  -0.0000736095  -0.0000410243
        0.0000035291  -0.0000017180   0.0000352805   0.0000233447  -0.0000016954
       -0.0000046942  -0.0000149976  -0.0000020499   0.0000137024   0.0000021967
       -0.0000066294  -0.0000011679   0.0000020145   0.0000006173   0.0000012261
       -0.0000053870  -0.0000105296  -0.0000036677   0.0000072775  -0.0000074990
       -0.0000129926  -0.0000058365  -0.0000014075   0.0000019606  -0.0000002594
       -0.0000036896  -0.0000008306  -0.0000015387   0.0000073369   0.0000021173
       -0.0000068817  -0.0000092724   0.0000037288   0.0000108463   0.0000446114
       -0.0000044703  -0.0000315129  -0.0000026107   0.0000009893  -0.0000045672
        0.0000122629  -0.0000966318   0.0000010436  -0.0000163426   0.0000865152
        0.0000179888  -0.0000317601  -0.0000359309   0.0000208701   0.0000210433
       -0.0000036733  -0.0000118267  -0.0000014663  -0.0000049340   0.0000111026
       -0.0000003152   0.0000120016   0.0000094746   0.0000045880   0.0000051012
        0.0000039598  -0.0000081924   0.0000126107   0.0000128153  -0.0000005815
        0.0000170020  -0.0000045533   0.0000008315  -0.0000003479   0.0000075646
        0.0000004504   0.0000079660   0.0000000678   0.0000079473  -0.0000077201
        0.0000005029  -0.0000034137  -0.0000008563   0.0000198993   0.0000313776
       -0.0000236055  -0.0000338961  -0.0000190519  -0.0000434921  -0.0000086697
       -0.0038718457  -0.0009833866  -0.0036177821  -0.0096697271   0.0081241228
       -0.0028567331  -0.0167255402  -0.0159445615  -0.0143131806   0.0027961409
        0.0026436708  -0.0033722666  -0.0003954545  -0.0004133467   0.0000139831
        0.0018701895   0.0020691660  -0.0027419236   0.0000756871   0.0001516712
        0.0000664218  -0.0000136663   0.0000544340  -0.0001325592   0.0000086563
        0.0000116398  -0.0000046688   0.0000083995   0.0000000394   0.0000024994
        0.0000036287   0.0000014734  -0.0000045497  -0.0000014229  -0.0000024125
       -0.0000058088  -0.0000035702  -0.0000039709  -0.0000022411  -0.0000027954
       -0.0000033397  -0.0000029889  -0.0000039045  -0.0000025692   0.0000007933
       -0.0000025764  -0.0000041754   0.0000031462   0.0000018754  -0.0000062399
       -0.0000045820  -0.0000092471  -0.0000008141  -0.0000030701  -0.0000023762
       -0.0000040546   0.0000083991   0.0000002794   0.0000007068  -0.0000020866
       -0.0000010580   0.0000086279  -0.0000016483  -0.0000021026   0.0000057713
        0.0000021289  -0.0000036557   0.0000048657   0.0000031101  -0.0000051840
        0.0000019850   0.0000050042  -0.0000033173  -0.0000023368   0.0000045446
       -0.0000009308  -0.0000035861  -0.0000052692  -0.0000073550  -0.0000487494
       -0.0000125659  -0.0001300604  -0.0002052013  -0.0002468143
        0.0233522663  -0.0218171975   0.0047022742  -0.0028323193  -0.0010183461
       -0.0630074862   0.0688818569   0.2464407453   0.2914181446  -0.0604541609
       -0.0774634941  -0.1114626869  -0.0352107672   0.0216848667   0.0110681694
       -0.0075258805  -0.0223926395  -0.0215506496   0.0389390725  -0.0046196576
        0.0075257018   0.0082929155  -0.0935849014  -0.1129661724  -0.0060878626
       -0.0274594758  -0.0132022508   0.0022785151   0.0017507192  -0.0003241469
       -0.0001515887   0.0004671792  -0.0006271714   0.0003264267  -0.0001296054
        0.0002354997  -0.0004156076   0.0009870290  -0.0003574113  -0.0000580011
        0.0001247054  -0.0005019815  -0.0000086822   0.0000475220   0.0000324378
        0.0000579634   0.0000845547   0.0000408114  -0.0000654737  -0.0000609640
       -0.0000007747  -0.0000052159   0.0000426870   0.0000281983   0.0000028849
       -0.0000076688  -0.0000138126  -0.0000012175   0.0000064667   0.0000079967
       -0.0000071978  -0.0000057427   0.0000115298   0.0000023862  -0.0000031211
        0.0000001476  -0.0000130190  -0.0000042490   0.0000150971  -0.0000051071
       -0.0000156715  -0.0000071167  -0.0000018736   0.0000038817   0.0000063509
       -0.0000032449  -0.0000036954   0.0000018056   0.0000060842   0.0000055855
       -0.0000052889  -0.0000078811   0.0000059724   0.0000143567   0.0000497047
        0.0000001707  -0.0000306265  -0.0000087450  -0.0000142843  -0.0000043434