$hessian                                                                        
        0.5222308440   0.0022764566  -0.0089159123  -0.0674681287   0.0046687883
       -0.0176701217  -0.0077332755   0.0006159207  -0.0248097457  -0.0030670363
       -0.0017657824  -0.0014000839  -0.0007531161  -0.0001711680  -0.0012876897
       -0.0001929272   0.0000408999  -0.0000341200   0.0000035066  -0.0000209319
       -0.0000092784   0.0000070704  -0.0000044848  -0.0000007021  -0.0000047887
       -0.0000060022  -0.0000003370   0.0003050070  -0.0001692244  -0.0001525396
        0.0000228187   0.0001197397   0.0000905830   0.0000928095  -0.0000072549
        0.0000157829  -0.0001183069   0.0000620912  -0.0000043126   0.0000068995
       -0.0000328336  -0.0000471169  -0.0001464171   0.0000127155  -0.0000380950
        0.0001933524  -0.0000662753   0.0000383791   0.0000246846  -0.0000067059
       -0.0000099371  -0.0000703221  -0.0000464477   0.0000235264   0.0001044213
        0.0000774669  -0.0000276980  -0.0000658474  -0.0000455413   0.0000187441
       -0.0000874597   0.0000294858  -0.0000055147   0.0001228673  -0.0000596637
        0.0000087411  -0.0000790716   0.0000374431  -0.0000046953   0.0000368461
        0.0000076414   0.0000035516   0.0001243316   0.0001052697  -0.0000580506
       -0.0000500448  -0.0000939488   0.0000250435  -0.0000809959  -0.0000482896
        0.0001318441   0.0001003761   0.0001016709  -0.0000071595  -0.0001510337
        0.0000311242   0.0000531761   0.0000580696   0.0001522708   0.0000514787
       -0.0002663081  -0.0002041987  -0.0000235081   0.0001416576   0.0001194018
       -0.0000344513   0.0000139244   0.0000445694   0.0000761392  -0.0000131073
        0.0000108775  -0.0000115089   0.0000013065  -0.0000139638   0.0000197540
        0.0000025296   0.0000018796   0.0000080858   0.0000662053  -0.0000772081
        0.0000221699  -0.0000066141  -0.0000042733   0.0000068109  -0.0000158154
       -0.0000032902   0.0000103617   0.0000002433  -0.0000088373   0.0000069798
        0.0001258165  -0.0000240791  -0.0000180863  -0.0000093103  -0.0001882745
       -0.0001073637  -0.0000621106   0.0000476727   0.0000468745   0.0000181680
       -0.0000470443  -0.0000183740  -0.0000003315  -0.0000201440  -0.0000181443
       -0.0001844703  -0.0000501194   0.0000177265  -0.0478619563   0.0252127873
       -0.0041907261  -0.2093691941  -0.0963299314  -0.0548703381  -0.1895472104
        0.0661514518   0.0957390183   0.0023298355  -0.0025309934   0.0232287842
        0.0001105737   0.0014688016  -0.0043638653   0.0005659445   0.0006563449
       -0.0001286661   0.0007363056   0.0000218498  -0.0009927440  -0.0000693783
       -0.0000751246   0.0000082934  -0.0000918605  -0.0000534148  -0.0001618052
       -0.0000057551   0.0000801572   0.0000064658   0.0000169931  -0.0000229556
       -0.0000161742  -0.0000156291   0.0000076856  -0.0000001116   0.0000018401
       -0.0000045688  -0.0000109280   0.0000069922   0.0000024905  -0.0000041171
        0.0000015460  -0.0000006838   0.0000067978   0.0000021470   0.0000030109
       -0.0000066609  -0.0000003549  -0.0000053239  -0.0000054194  -0.0000042112
       -0.0000001793  -0.0000034993   0.0000006462  -0.0000543857  -0.0000542460
       -0.0000145849  -0.0000079681  -0.0000091126  -0.0000050770   0.0000138558
       -0.0000001954  -0.0000002325  -0.0000102111   0.0000051774  -0.0000066018
        0.0000125577   0.0000015505  -0.0000107957  -0.0000038774  -0.0000287373
        0.0000039758  -0.0000136423  -0.0000022721   0.0000040451   0.0000010158
        0.0000088760   0.0000015059  -0.0000050033  -0.0000137658  -0.0000029270
        0.0000135964  -0.0000123179  -0.0000038011   0.0000072056  -0.0000117882
        0.0000069000   0.0000030329  -0.0000058066   0.0000075754   0.0000039573
       -0.0000054851   0.0000021279   0.0000135036   0.0000059968  -0.0000024580
       -0.0000067866  -0.0000017851   0.0000002492  -0.0000075929  -0.0000119176
       -0.0000006923   0.0000097719   0.0000065641   0.0000021602   0.0000107549
       -0.0000146268  -0.0000013013   0.0000089640  -0.0000077127   0.0000028254
        0.0000107033  -0.0000111234   0.0000062563   0.0000022624  -0.0000169235
        0.0000102357   0.0000070645  -0.0000040311   0.0000012618   0.0000230236
        0.0000081351   0.0000043476  -0.0000069242   0.0000030899   0.0000160076
       -0.0000001640  -0.0000204024  -0.0000095663   0.0000044690   0.0000034689
        0.0000074811   0.0000068887  -0.0000066287   0.0000131189  -0.0000345335
       -0.0000240367  -0.0000109834   0.0000438711   0.0000300205  -0.0000052429
       -0.0000042118  -0.0000054741
        0.0022764566   0.5211883237   0.0082753187   0.0044796551  -0.0701115110
        0.0192129434  -0.0034233350   0.0010012440  -0.0125423966  -0.0018416747
       -0.0007843205  -0.0008543208  -0.0005675599   0.0001518563  -0.0006659749
       -0.0000535765  -0.0000228166   0.0000150352   0.0000089148  -0.0000110901
        0.0000049637   0.0000144198  -0.0000251176   0.0000001421  -0.0000042279
       -0.0000089371  -0.0000047099   0.0002478733  -0.0001550867  -0.0001012173
       -0.0000629018   0.0000676145  -0.0000374440   0.0000685267  -0.0000028303
        0.0000110491  -0.0000858280   0.0000651968  -0.0000002678  -0.0000005742
       -0.0000554989  -0.0000007329  -0.0000709680   0.0000261339  -0.0000577241
        0.0001264939  -0.0000409407   0.0000369869   0.0000126253  -0.0000000594
       -0.0000078462  -0.0000291744  -0.0000199134   0.0000078818   0.0000389450
        0.0000300378  -0.0000087364  -0.0000239019  -0.0000169217   0.0000060651
       -0.0000408947   0.0000104912  -0.0000045424   0.0000500066  -0.0000203614
        0.0000073888  -0.0000334938   0.0000157186  -0.0000020558   0.0000218279
       -0.0000018991   0.0000011945   0.0000679817   0.0000799658  -0.0000431326
        0.0000134663  -0.0000966817   0.0000341279  -0.0000967279  -0.0000243924
        0.0000797700   0.0000959091   0.0000828283  -0.0000051770  -0.0001394669
        0.0000234174   0.0000453700   0.0000457561   0.0001435463   0.0000465057
       -0.0002784051  -0.0002073472  -0.0000077329   0.0001516210   0.0001236411
       -0.0000514376   0.0000132087   0.0000587918   0.0000661323  -0.0000207665
        0.0000392892  -0.0000313169  -0.0000036083   0.0000093295   0.0000212704
       -0.0000050864   0.0000072716   0.0000011082   0.0000502422  -0.0000673441
        0.0000218145   0.0000145199   0.0000210605  -0.0000475995  -0.0000319145
       -0.0000040519  -0.0000452302   0.0000212482  -0.0000163416   0.0000021558
        0.0001241116  -0.0000187696  -0.0000282308  -0.0000310801  -0.0001562400
       -0.0000747142  -0.0000175802   0.0000330925   0.0000312784   0.0000056974
       -0.0000853100  -0.0000362070   0.0000479432   0.0000241502   0.0000114322
       -0.0001696385  -0.0000245841   0.0000094092   0.0252701109  -0.2711524487
        0.0443565479  -0.0963147081  -0.1008929131  -0.0328917861   0.0661681748
       -0.0754488878  -0.0435973655  -0.0007004110   0.0020121969  -0.0104899672
        0.0047148694  -0.0070497003   0.0304758640  -0.0002502354   0.0008663002
       -0.0010652289   0.0002726899   0.0002071119   0.0000582243  -0.0000965090
        0.0000431763  -0.0001818434  -0.0000127922  -0.0000125641   0.0000664684
        0.0000023811   0.0000931321  -0.0000303095  -0.0000022377   0.0000222137
       -0.0000106710  -0.0000024226   0.0000080050   0.0000059360  -0.0000095197
        0.0000111851  -0.0000044395  -0.0000019488   0.0000099885  -0.0000077086
       -0.0000107452   0.0000123267   0.0000015702  -0.0000014565   0.0000066107
       -0.0000089978  -0.0000023225   0.0000023497  -0.0000011945  -0.0000008695
        0.0000032044  -0.0000043698  -0.0000528239  -0.0000176787   0.0000077246
       -0.0000061272   0.0000114130   0.0000044769   0.0000069644   0.0000153161
        0.0000044551   0.0000024033  -0.0000027835   0.0000037429  -0.0000010351
        0.0000073847   0.0000022847  -0.0000039043   0.0000018658  -0.0000211715
        0.0000040481  -0.0000076359  -0.0000002554   0.0000049759   0.0000005256
        0.0000046061   0.0000055030  -0.0000101392  -0.0000042829  -0.0000020085
        0.0000082883  -0.0000041168  -0.0000028624  -0.0000042057   0.0000033283
        0.0000106465  -0.0000025385   0.0000055933   0.0000047119  -0.0000066795
       -0.0000011528   0.0000041366   0.0000062075   0.0000095386   0.0000035000
       -0.0000087038   0.0000055974   0.0000018141  -0.0000073424  -0.0000057507
        0.0000051218  -0.0000023265   0.0000074895   0.0000054892   0.0000002444
        0.0000006195   0.0000011147  -0.0000005117   0.0000050745  -0.0000190756
        0.0000453981   0.0000323384  -0.0000401733  -0.0000039034  -0.0000106233
        0.0000182796  -0.0000157184   0.0000383745   0.0000667132   0.0000344062
       -0.0000657786  -0.0000024003   0.0000065451   0.0000311397   0.0000135816
       -0.0000054240  -0.0000004046  -0.0000174206  -0.0000074451  -0.0000069497
        0.0000078981   0.0000018007  -0.0000009985   0.0000008883  -0.0000320897
       -0.0000210445  -0.0000131674   0.0000245387   0.0000154487   0.0000060952
        0.0000052710  -0.0000006287
       -0.0089159123   0.0082753187   0.4625189761  -0.0166500426   0.0198886798
       -0.1969256196  -0.0079215268  -0.0014895333  -0.0154969482  -0.0014738540
       -0.0008286242  -0.0001983000  -0.0006305119  -0.0000387626  -0.0004798560
       -0.0000655574   0.0000991470   0.0000548946   0.0000831526   0.0000277523
       -0.0000020859   0.0000081349   0.0000133763   0.0000412646   0.0000187222
        0.0000150078   0.0000186278   0.0003552733  -0.0002564073  -0.0001277548
        0.0000228632   0.0001391202   0.0000692392   0.0001196004  -0.0000120060
        0.0000145891  -0.0000796737  -0.0000064582   0.0000168134   0.0001141445
        0.0000879009  -0.0001059236  -0.0000528512  -0.0001998036   0.0001209574
       -0.0000478327   0.0000966642  -0.0000751253  -0.0000094333  -0.0000244342
       -0.0000033164  -0.0000168152  -0.0000128757   0.0000028583   0.0000573411
        0.0000404070  -0.0000133614  -0.0000327202  -0.0000202076   0.0000055987
       -0.0000151974   0.0000098704  -0.0000126179   0.0000583491  -0.0000285667
        0.0000026251  -0.0000352883   0.0000167840  -0.0000030670  -0.0000108864
        0.0000230511   0.0000026728  -0.0000364822  -0.0000954785   0.0000766673
       -0.0000616138   0.0001800161  -0.0001117328   0.0000974354  -0.0001127654
        0.0001045589   0.0000154924   0.0000686979  -0.0000247073   0.0000127474
        0.0000015796  -0.0000072144   0.0000152536  -0.0000055360   0.0000028789
        0.0000421279   0.0000175764  -0.0000135140  -0.0000333723   0.0000143929
        0.0000127168  -0.0000048219  -0.0000511968  -0.0000237112   0.0000060361
       -0.0000089107  -0.0000027333   0.0000032395  -0.0000196470  -0.0000038219
        0.0000077844   0.0000022784   0.0000016710   0.0000091953  -0.0000194027
        0.0000175937   0.0000061093  -0.0000702222   0.0000381505   0.0000604295
       -0.0000589589   0.0000683693  -0.0000145819  -0.0000489051   0.0000408403
       -0.0000175723  -0.0000096433   0.0000079257   0.0000869988  -0.0000608148
       -0.0000654251  -0.0001002373   0.0000562412   0.0000649306   0.0001035975
       -0.0000373816   0.0000054355  -0.0001069966  -0.0000364997  -0.0000227201
       -0.0001536556   0.0000013025  -0.0000185295  -0.0044054328   0.0444506354
       -0.0514426143  -0.0551072162  -0.0330109410  -0.0607460609   0.0957988052
       -0.0437724140  -0.1053690671   0.0001724060   0.0013046370  -0.0224090352
       -0.0022960531   0.0047227047  -0.0112376056   0.0007031170   0.0003786735
        0.0006816252   0.0006741491   0.0003658905   0.0009619723   0.0000224860
       -0.0002047052   0.0000666628  -0.0001528456   0.0000960764   0.0001336196
       -0.0000134214   0.0000311713  -0.0000544587  -0.0000037307  -0.0000351152
       -0.0000309641  -0.0000439526  -0.0000074923   0.0000173567  -0.0000155229
       -0.0000053554  -0.0000125899  -0.0000236742  -0.0000032351  -0.0000171877
        0.0000087323  -0.0000186561  -0.0000062479  -0.0000075965   0.0000019987
       -0.0000193871   0.0000010712  -0.0000082978  -0.0000121757  -0.0000109490
       -0.0000051455   0.0000062166  -0.0000156833  -0.0000070163  -0.0000307735
       -0.0000183570   0.0000050698   0.0000046402  -0.0000104529   0.0000033128
       -0.0000030994  -0.0000014936  -0.0000070682  -0.0000053841  -0.0000013649
        0.0000064739   0.0000041187  -0.0000101081   0.0000095143   0.0000071684
       -0.0000023555   0.0000070572   0.0000049874  -0.0000048372   0.0000015169
        0.0000119181  -0.0000050459   0.0000113821   0.0000040185   0.0000029204
        0.0000067925   0.0000061525  -0.0000035199   0.0000013526   0.0000035048
       -0.0000043170   0.0000056023   0.0000008866   0.0000002992   0.0000050944
        0.0000045189   0.0000016109   0.0000053415   0.0000130362  -0.0000001845
       -0.0000032271   0.0000056625  -0.0000034256  -0.0000040000   0.0000007357
       -0.0000053941   0.0000080792   0.0000088923  -0.0000032600   0.0000053847
        0.0000023618  -0.0000023649   0.0000168503  -0.0000091083  -0.0000073981
        0.0000168933  -0.0000090103   0.0000170281   0.0000187145  -0.0000153322
       -0.0000138694   0.0000414753  -0.0000362293  -0.0000398375  -0.0000161405
       -0.0000303484  -0.0000010951   0.0000137440  -0.0000314761  -0.0000237098
        0.0000219649   0.0000181102   0.0000317838   0.0000322594   0.0000071950
       -0.0000080295   0.0000060274   0.0000056257   0.0000128535  -0.0000120467
       -0.0000100552   0.0000146347  -0.0000051517  -0.0000129505  -0.0000119894
        0.0000021944  -0.0000025951
       -0.0674681287   0.0044796551  -0.0166500426   0.4916585948  -0.0256193080
       -0.0260215611  -0.1552553583  -0.0503545802  -0.0266120223  -0.0081559623
       -0.0034772667  -0.0078211970   0.0007078984   0.0002057489  -0.0011520712
        0.0000179865  -0.0000825516   0.0000491226  -0.0000129915  -0.0000760991
        0.0000391513  -0.0000459775   0.0000182376   0.0000285236  -0.0000291083
       -0.0000013190   0.0000194057  -0.0003220328   0.0001613734   0.0000049418
        0.0001794228  -0.0001366209   0.0000324358  -0.0000447490   0.0000466886
        0.0000203238   0.0000912227  -0.0000004786   0.0000028016  -0.0000050069
       -0.0000194057   0.0001034962   0.0000301106   0.0001230203  -0.0000223235
       -0.0000627333  -0.0000283124   0.0000170978  -0.0000247448   0.0000013498
        0.0000102896   0.0000330771   0.0000186362  -0.0000079200  -0.0000490292
       -0.0000317810   0.0000131444   0.0000256150   0.0000219020  -0.0000081596
        0.0000205377  -0.0000162648   0.0000067759  -0.0000385347   0.0000220979
       -0.0000021805   0.0000188088  -0.0000097514   0.0000040305  -0.0000044061
       -0.0000127834   0.0000017143  -0.0000827196  -0.0000179074  -0.0000018749
        0.0000425793   0.0000079126   0.0000191775   0.0000216476   0.0000452602
       -0.0001353934  -0.0000403646  -0.0000525879   0.0000108951   0.0000714769
       -0.0000478637  -0.0000382139  -0.0000268186  -0.0000806365  -0.0000115245
        0.0000804664   0.0000800239  -0.0000063607  -0.0000362323  -0.0000402031
        0.0000475529  -0.0000071377  -0.0000361866  -0.0000429292  -0.0000061661
       -0.0000199169   0.0000073040  -0.0000102541  -0.0000060096  -0.0000110130
       -0.0000053904  -0.0000110536  -0.0000032455  -0.0000447835   0.0000417947
       -0.0000205156  -0.0000750340  -0.0000216250   0.0000384052  -0.0000789527
        0.0000515352  -0.0000660246  -0.0000430578  -0.0000071128  -0.0000094229
       -0.0000380331   0.0000107121   0.0000183307  -0.0000178185   0.0000961424
        0.0000584325   0.0000400120  -0.0000214418  -0.0000262224  -0.0001214702
       -0.0000571522  -0.0000414404   0.0000208742   0.0001005793   0.0000567360
        0.0002687701   0.0000240576   0.0000509746  -0.0004486210   0.0012480593
       -0.0043863486  -0.0056533449   0.0022807762  -0.0257146917   0.0022335268
       -0.0028046874   0.0236843416  -0.1843355617   0.0654060266   0.0907362012
       -0.0469993410   0.0229229792  -0.0016680615  -0.0003944267  -0.0030802953
       -0.0002969679  -0.0270941349  -0.0115415922  -0.0056988814   0.0003819947
       -0.0000004067   0.0006915833   0.0010412281   0.0001524145   0.0010582664
       -0.0000565354  -0.0000503262  -0.0001121665   0.0000543625   0.0000858725
       -0.0000212479   0.0000283631  -0.0000265836  -0.0000234776   0.0000220221
        0.0000255120  -0.0000450653   0.0000319524   0.0000039061  -0.0000189557
        0.0000195448  -0.0000240189  -0.0000035923   0.0000025241   0.0000008217
       -0.0000219921   0.0000054007   0.0000037896  -0.0000121434   0.0000032814
       -0.0000114475  -0.0000060282  -0.0001930340   0.0001280376  -0.0001003895
       -0.0000209953  -0.0000035836  -0.0000185491  -0.0000109814  -0.0000132012
       -0.0000075994   0.0000052687   0.0000088918   0.0000011252   0.0000011418
       -0.0000050131  -0.0000002284   0.0000080832   0.0000138736   0.0000187718
        0.0000130192   0.0000252377   0.0000113200  -0.0000043560   0.0000029907
       -0.0000095989  -0.0000005534  -0.0000032979   0.0000044624   0.0000016374
        0.0000036367   0.0000049554  -0.0000042963   0.0000092877  -0.0000001748
        0.0000127800   0.0000058254   0.0000030980   0.0000102611   0.0000058108
        0.0000031951   0.0000053187   0.0000045639   0.0000027496   0.0000011189
        0.0000016399  -0.0000023578   0.0000022513  -0.0000039756  -0.0000029794
        0.0000011576   0.0000032852   0.0000048424   0.0000075181   0.0000004608
        0.0000058638   0.0000093856   0.0000022881  -0.0000060681   0.0000027937
        0.0000107385   0.0000120551  -0.0000035120   0.0000072152  -0.0000185207
        0.0000295209  -0.0000117579   0.0000092480   0.0000705650  -0.0000338022
        0.0000075626   0.0000197677   0.0000122096   0.0000217717   0.0000119560
       -0.0000192123   0.0000100599   0.0000117399   0.0000043091  -0.0000174721
       -0.0000001506   0.0000071298  -0.0000059175  -0.0000112130   0.0000265638
        0.0000169674   0.0000158443  -0.0000961809  -0.0000442506  -0.0000103761
        0.0000447209   0.0000058812
        0.0046687883  -0.0701115110   0.0198886798  -0.0256193080   0.5239888907
       -0.0005000776  -0.0502098007  -0.0976489449  -0.0175390369  -0.0003600466
        0.0001400431  -0.0018585563   0.0010083546   0.0003660265   0.0006502997
        0.0001691831  -0.0000016112   0.0000213827  -0.0000308186   0.0000055528
        0.0000261403  -0.0000056867   0.0000048191   0.0000019214  -0.0000154560
       -0.0000079250   0.0000047089  -0.0003497097   0.0001769717   0.0001010311
       -0.0000182062  -0.0002409618   0.0000498587  -0.0000999211   0.0000512852
       -0.0000002202   0.0000918183  -0.0000352429  -0.0000121807  -0.0000053172
        0.0000053785   0.0000991854   0.0000954205   0.0000619711  -0.0000029064
       -0.0001413005   0.0000259046  -0.0000110416  -0.0000266158  -0.0000000504
        0.0000128639   0.0000622897   0.0000343857  -0.0000156053  -0.0000927006
       -0.0000651972   0.0000263139   0.0000549347   0.0000387987  -0.0000138643
        0.0000613926  -0.0000278172   0.0000052578  -0.0000963362   0.0000546192
       -0.0000063891   0.0000542987  -0.0000291153   0.0000050112  -0.0000207611
       -0.0000110589  -0.0000022848  -0.0001201131  -0.0000740427   0.0000343444
        0.0000628983   0.0000546109  -0.0000002884   0.0000469996   0.0000580104
       -0.0001469868  -0.0000836121  -0.0000813501   0.0000129121   0.0001213948
       -0.0000355202  -0.0000438353  -0.0000635484  -0.0001155928  -0.0000593545
        0.0002024621   0.0001274989   0.0000461493  -0.0000916996  -0.0000712470
       -0.0000297909  -0.0000080205  -0.0000471176  -0.0000425042  -0.0000003959
        0.0000296779  -0.0000060683  -0.0000253788   0.0000361301  -0.0000154486
       -0.0000270192   0.0000058654  -0.0000106517  -0.0000761980   0.0001084903
       -0.0000629347  -0.0000123184   0.0000696451  -0.0001189351  -0.0000393369
        0.0000275752  -0.0001620490  -0.0000370083  -0.0000335666  -0.0001069597
       -0.0000908354   0.0000195000  -0.0000021817  -0.0000023639   0.0001520768
        0.0000933645   0.0000726451  -0.0000302655  -0.0000380871  -0.0001261408
       -0.0000416041  -0.0000407019   0.0000597698   0.0000939608   0.0000689390
        0.0002518656   0.0000264957  -0.0000295701   0.0045736821  -0.0072385395
        0.0307266436  -0.0029064034   0.0016761347  -0.0139334314  -0.0012688001
        0.0017276728  -0.0107066923   0.0651226349  -0.0763552490  -0.0404555443
        0.0232206819  -0.2631079674   0.0381533571  -0.0261170452  -0.0198241474
       -0.0084136949   0.0070203189   0.0050663401   0.0025809573   0.0007853686
        0.0008641435   0.0009636599   0.0000563899   0.0000952325   0.0001008591
       -0.0001001133   0.0000210634   0.0001760321   0.0000722936   0.0001106258
        0.0000160931  -0.0000079777   0.0000010427  -0.0000472844  -0.0000056180
        0.0000248648  -0.0000200023   0.0000238910   0.0000076975  -0.0000067489
        0.0000109604  -0.0000112793  -0.0000019081   0.0000071103   0.0000027433
       -0.0000138218  -0.0000001623  -0.0000026994  -0.0000049500  -0.0000025096
        0.0000032222  -0.0000085361   0.0001872712   0.0001344329   0.0000799479
        0.0000216018   0.0000045530   0.0000063594   0.0000041303  -0.0000112109
       -0.0000102382   0.0000051963   0.0000112926   0.0000002341   0.0000068863
       -0.0000099658   0.0000004044   0.0000145565   0.0000122456   0.0000254676
        0.0000110965   0.0000223326   0.0000082354   0.0000014371   0.0000083016
        0.0000043049  -0.0000086596  -0.0000135929   0.0000090234   0.0000062496
       -0.0000155575   0.0000128914   0.0000211335  -0.0000115593   0.0000025936
       -0.0000050903  -0.0000358844   0.0000135604   0.0000075327  -0.0000063379
        0.0000028854   0.0000085213  -0.0000151395  -0.0000105130   0.0000067498
       -0.0000021972  -0.0000008603   0.0000110342  -0.0000039046  -0.0000052226
        0.0000069440  -0.0000041519   0.0000009008  -0.0000084765  -0.0000127027
        0.0000125777   0.0000055604  -0.0000103604   0.0000149824   0.0000236871
       -0.0001276848   0.0000272903   0.0000762762  -0.0000006688   0.0000723351
        0.0000050534   0.0000164013   0.0000132706  -0.0000996787  -0.0000609300
        0.0003214202   0.0000064838   0.0000215067   0.0000149683   0.0000048175
        0.0000133690  -0.0000003589   0.0000088133   0.0000202824   0.0000240968
        0.0000052977  -0.0000056864   0.0000015614  -0.0000281864   0.0000182943
        0.0000137241   0.0000112244  -0.0000853242  -0.0000407987   0.0000092931
        0.0000345043   0.0000101155
       -0.0176701217   0.0192129434  -0.1969256196  -0.0260215611  -0.0005000776
        0.4731212986  -0.0278885945  -0.0181676587  -0.0695880942  -0.0222432841
       -0.0113014165  -0.0139533079  -0.0034642511  -0.0003249447  -0.0058497390
       -0.0006617052   0.0002299744  -0.0001852216   0.0001254821  -0.0000220500
        0.0000206463   0.0000504243  -0.0000204030   0.0000598867   0.0000292861
       -0.0000027475   0.0000228210   0.0008597446  -0.0007455940  -0.0007542649
        0.0000469831   0.0002229628   0.0000923099   0.0003073254  -0.0000139456
        0.0000888759  -0.0001926188   0.0000125563   0.0000935225   0.0002998967
        0.0003646302  -0.0004253265  -0.0001552610  -0.0007371355   0.0003373053
       -0.0000847363   0.0003184883  -0.0002221339  -0.0000043309  -0.0000767694
       -0.0000169102  -0.0000570821  -0.0000503601   0.0000265619   0.0001647057
        0.0001225830  -0.0000283404  -0.0000926041  -0.0000615597   0.0000239951
       -0.0000539802   0.0000413176  -0.0000315378   0.0001746481  -0.0000845320
        0.0000094087  -0.0001047964   0.0000512856  -0.0000046562  -0.0000230146
        0.0000622539   0.0000141093  -0.0000603768  -0.0002599378   0.0002433671
       -0.0001602370   0.0005141305  -0.0003645629   0.0002098594  -0.0004465009
        0.0005240459   0.0001810898   0.0003220705  -0.0000938275  -0.0001603545
        0.0000863118   0.0000674002   0.0000548498   0.0001893704   0.0001057292
       -0.0001188285  -0.0001552613  -0.0000723684   0.0000812592   0.0001138273
       -0.0000122845   0.0000070826  -0.0000856549   0.0000247507  -0.0000078605
        0.0000269853  -0.0000339254   0.0000024856  -0.0000406917   0.0000144171
        0.0000215586   0.0000119882   0.0000055784   0.0000055307  -0.0001005117
        0.0001127510   0.0000552267  -0.0000747221  -0.0000026706   0.0000845595
       -0.0001319827   0.0001432079   0.0000264872  -0.0000631072   0.0000901159
        0.0000884534  -0.0000821740  -0.0000101632   0.0002206956  -0.0003640143
       -0.0002965837  -0.0002889746   0.0001708561   0.0001984646   0.0002867966
       -0.0001561404   0.0000621560  -0.0001629654  -0.0001208958  -0.0000893647
       -0.0006989829  -0.0000802669   0.0000670061  -0.0019560479   0.0055437254
       -0.0105489731  -0.0041825796   0.0004098478  -0.0128898884   0.0010470941
        0.0010322448  -0.0222414181   0.0912910084  -0.0404856977  -0.0980584479
       -0.0014186175   0.0388767031  -0.0487172088   0.0029595106   0.0014880795
        0.0015177639   0.0109897889   0.0057764777   0.0036809638  -0.0004254217
       -0.0008054202   0.0006730951  -0.0009264382  -0.0001972383   0.0005134133
        0.0000242278   0.0001123113   0.0000022296   0.0000539935  -0.0000971008
       -0.0000411923  -0.0000624500   0.0000116618  -0.0000274721  -0.0000163616
       -0.0000101684  -0.0000221007  -0.0000191230   0.0000077230  -0.0000187435
       -0.0000097167  -0.0000070676   0.0000063402  -0.0000041811   0.0000024763
       -0.0000225279  -0.0000101113  -0.0000150428  -0.0000182239  -0.0000248687
       -0.0000063272  -0.0000067851  -0.0000743503   0.0001156298  -0.0000193589
       -0.0000307507   0.0000016716   0.0000115718  -0.0000110959   0.0000176358
       -0.0000153270  -0.0000021694  -0.0000273185   0.0000001012  -0.0000088611
        0.0000319170   0.0000161442  -0.0000332383   0.0000133146  -0.0000184286
       -0.0000096764  -0.0000266474  -0.0000084574   0.0000014614   0.0000066337
        0.0000094927  -0.0000085352   0.0000013351  -0.0000126168   0.0000087160
        0.0000225230  -0.0000119934  -0.0000126185   0.0000052378  -0.0000077972
        0.0000073346   0.0000117608  -0.0000046228   0.0000111044   0.0000084836
       -0.0000105927   0.0000034946   0.0000213257   0.0000196657  -0.0000063691
       -0.0000158552  -0.0000035010  -0.0000059985  -0.0000185925  -0.0000188850
       -0.0000058298   0.0000214054   0.0000163887  -0.0000089545   0.0000149038
       -0.0000240675   0.0000028023   0.0000251979  -0.0000118184  -0.0000244873
        0.0000534350  -0.0000025389  -0.0000360057   0.0000438502  -0.0000475984
       -0.0000053879   0.0000451827  -0.0000296635  -0.0000570505   0.0001104933
       -0.0000940795  -0.0000137867  -0.0000192140  -0.0000399428   0.0000175764
        0.0000246791  -0.0000190486  -0.0000335795   0.0000348901  -0.0000336358
        0.0000010355   0.0000155296  -0.0000042619   0.0000405191  -0.0000601366
       -0.0000487082  -0.0000058680   0.0000759380   0.0000305269  -0.0000170457
        0.0000041236  -0.0000065993
       -0.0077332755  -0.0034233350  -0.0079215268  -0.1552553583  -0.0502098007
       -0.0278885945   0.4945601513  -0.0235546220  -0.0316340494  -0.0569546236
        0.0070153660  -0.0029089918  -0.0168431692  -0.0051371557  -0.0277372043
       -0.0014537439   0.0015202735  -0.0010068485   0.0000891154  -0.0001960759
        0.0001184544   0.0001053049  -0.0000430404  -0.0000012524  -0.0000062155
       -0.0000074574   0.0000071372   0.0025368580  -0.0016811933  -0.0025925819
        0.0001263539   0.0005353487   0.0001294846   0.0004695597  -0.0000402757
        0.0000336571  -0.0002990755   0.0001856000   0.0000916193   0.0002923995
        0.0001656520  -0.0002512915  -0.0001926612  -0.0004671672   0.0002145814
        0.0000321738   0.0001905732  -0.0001299589  -0.0000081874  -0.0000527638
       -0.0000205105  -0.0000561613  -0.0000585249   0.0000310548   0.0001543299
        0.0001156441  -0.0000334112  -0.0000865491  -0.0000630782   0.0000236686
       -0.0000785398   0.0000331738  -0.0000169069   0.0001837591  -0.0000871078
        0.0000082031  -0.0001049904   0.0000514843  -0.0000066081   0.0000061469
        0.0000462351   0.0000033744  -0.0000233160  -0.0001452514   0.0001610058
       -0.0001010859   0.0003286082  -0.0002599118   0.0001216683  -0.0003314139
        0.0004036272   0.0001732398   0.0003203267  -0.0000865050  -0.0002248846
        0.0000891809   0.0000974667   0.0000589136   0.0002363825   0.0001307016
       -0.0002290070  -0.0002205152  -0.0000597053   0.0001683652   0.0001410611
       -0.0000363481   0.0000240408  -0.0000646364   0.0000714481  -0.0000277517
        0.0000454609  -0.0000421498  -0.0000028187  -0.0000289698   0.0000289431
        0.0000056149   0.0000107758   0.0000112931  -0.0000298215  -0.0000579419
        0.0000770680  -0.0000004766  -0.0000077332  -0.0000259947  -0.0000332635
       -0.0000284913   0.0000331761   0.0000096861  -0.0000582437   0.0000100891
        0.0001522556  -0.0000871793  -0.0000295561   0.0001782027  -0.0003913210
       -0.0002994161  -0.0002571100   0.0001616590   0.0001847023   0.0005387338
       -0.0004302789   0.0002065959  -0.0002763406  -0.0001122544  -0.0001822787
       -0.0013871607  -0.0002887111   0.0003983438   0.0003498140  -0.0000855099
        0.0006562884   0.0004928246   0.0002029065  -0.0010229599   0.0011386858
        0.0002139257   0.0010862215  -0.0277654416  -0.0118036185  -0.0055844555