$hessian                                                                        
        0.6174334897  -0.0886679844   0.1417233109  -0.3537879444  -0.0088854299
       -0.1188234381  -0.0276009472   0.0221481352   0.0032401107  -0.0284074075
       -0.0010893282  -0.0073018225   0.0075628978  -0.0052077869  -0.0033486110
       -0.0033957501  -0.0085337603  -0.0020927061  -0.0064764067   0.0056610633
       -0.0006971684   0.0071093567  -0.0055424091  -0.0006778037  -0.0030021127
        0.0075501159   0.0025611673   0.0012722512  -0.0003289238   0.0008305758
       -0.0003134983  -0.0003527644  -0.0003047498   0.0002150169  -0.0001212169
        0.0000279321  -0.0002078861  -0.0000370244  -0.0001031456   0.0003432465
        0.0001191022   0.0001628588  -0.0004233624   0.0004817909  -0.0000482630
       -0.0040299057  -0.0021826160  -0.0029429898   0.0025737642  -0.0000753026
        0.0013147259   0.0027215922  -0.0003899539  -0.0004568895  -0.0033373540
       -0.0014140267   0.0005937925   0.0020102318   0.0017034631   0.0002125107
       -0.0020225438   0.0005178402   0.0005571259   0.0010183426  -0.0005901705
       -0.0005037464  -0.0003855208  -0.0000884992   0.0001289703   0.0001751325
       -0.0001137667  -0.0000789831  -0.0000897349  -0.0000844495   0.0000381696
        0.0001081314   0.0000381685  -0.0000403936  -0.0001144045   0.0000625646
        0.0000005886   0.0000701023   0.0002360515  -0.0000191665  -0.0007045031
       -0.0007190657  -0.0000881987   0.0012874645   0.0001691355   0.0008770779
        0.0024502461   0.0043007181   0.0011558986  -0.0034285292  -0.0015826817
        0.0007362041   0.0000788963   0.0025070497   0.0007438108   0.0005721293
       -0.0004902997  -0.0001989404   0.0004953062   0.0006849395  -0.0008251477
        0.0007946015   0.0006251431  -0.0005008803   0.0500319506  -0.0236129002
        0.0085294370  -0.1036007384   0.0060519765  -0.0227199516  -0.1311975965
        0.1155031773   0.0194295820  -0.0131390875  -0.0016553027  -0.0056974045
       -0.0000146365  -0.0000833142   0.0002897024  -0.0000331683  -0.0000108991
       -0.0000086869   0.0000039317  -0.0000056614   0.0000049792   0.0000171704
        0.0000029241  -0.0000106383  -0.0000052539   0.0000050349  -0.0000168133
       -0.0000168843  -0.0000179070  -0.0000183393   0.0000518309   0.0000939229
       -0.0001842057  -0.0001097816  -0.0002325550   0.0003022283   0.0000306316
       -0.0000562010  -0.0000719841  -0.0000599834  -0.0000792798  -0.0000772880
       -0.0000188809  -0.0000746797   0.0000348839  -0.0000116038   0.0000072964
        0.0000018073  -0.0000367651  -0.0000160355   0.0000113929  -0.0000147514
       -0.0000361371   0.0000064196   0.0000240637  -0.0000172340  -0.0000152022
        0.0001252773   0.0000494855  -0.0001059250  -0.0000361351  -0.0000518305
        0.0001361459   0.0000925113   0.0000535334  -0.0000354373   0.0001186607
        0.0000314702   0.0001206171   0.0001474013   0.0002001457   0.0000352862
        0.0004122058   0.0042458935  -0.0009730832  -0.0133247567  -0.0206027439
       -0.0148193087
       -0.0886679844   0.5097882856   0.1599298593   0.0403310641  -0.0756619436
        0.0006691394   0.0167194362   0.0010458149   0.0065919887  -0.0187222359
        0.0038050579  -0.0067711661   0.0033539277  -0.0036851530  -0.0008108716
       -0.0019501003  -0.0030992843  -0.0006834920  -0.0016555194   0.0019897129
       -0.0001009017   0.0020228783  -0.0012401336  -0.0001214967  -0.0004927525
        0.0019509600   0.0007824810   0.0002571434  -0.0000764446   0.0002269868
       -0.0000681687  -0.0000352199  -0.0000671269   0.0000841856   0.0000117149
        0.0000248754  -0.0000263820   0.0000048929  -0.0000495817   0.0001015598
        0.0000395815   0.0000416496  -0.0001124572   0.0000549606  -0.0000652183
       -0.0011288462  -0.0007094590  -0.0008541539   0.0006452928  -0.0000202011
        0.0003208705   0.0005452332  -0.0003006102  -0.0002830354  -0.0013182840
       -0.0005152745   0.0001676397   0.0010644511   0.0006545079   0.0000225040
       -0.0010945232   0.0002460381   0.0003793637   0.0002543952  -0.0006681685
       -0.0002746516  -0.0001411689  -0.0000175843   0.0000091585   0.0000619444
       -0.0000406129  -0.0000120286  -0.0000547351  -0.0000090599  -0.0000018181
        0.0000451095  -0.0000043527  -0.0000185318  -0.0000547253   0.0000016359
        0.0000153515   0.0000619158   0.0000735476  -0.0000394700   0.0000527245
        0.0000787387   0.0000154609   0.0004515699   0.0002970013   0.0004835613
        0.0023600160   0.0025361301   0.0002910778  -0.0021793126  -0.0018370600
        0.0001054166   0.0004002671   0.0026522949   0.0008609984   0.0018237425
       -0.0006264656  -0.0008986816  -0.0014637942  -0.0002292303  -0.0001240953
        0.0030345282  -0.0024976907  -0.0014641152   0.0227507741  -0.0525421951
       -0.0156933192  -0.0715850040  -0.1869118444  -0.0958323908   0.1173120547
       -0.1912517416  -0.0320578564  -0.0261534937  -0.0013364221  -0.0118048165
       -0.0000149672  -0.0000442644   0.0000831202   0.0000182987  -0.0000298694
        0.0000130515  -0.0000088821  -0.0000313505  -0.0000027518   0.0000122267
       -0.0000006961  -0.0000168194  -0.0000153247   0.0000041229  -0.0000063624
        0.0000166506   0.0000033157  -0.0000023795   0.0000182908   0.0000574110
       -0.0000245823  -0.0000220330  -0.0000074804   0.0000729597  -0.0000104191
        0.0000107654  -0.0000254003  -0.0000371648  -0.0000097064  -0.0000355161
        0.0000526071  -0.0000951790  -0.0000346325  -0.0000169742   0.0000052459
        0.0000033264  -0.0000026185   0.0000038617  -0.0000117867  -0.0000008970
        0.0000110637  -0.0000146484   0.0000040431   0.0000060126  -0.0000185484
        0.0001493412  -0.0000503046  -0.0000754594  -0.0000257426   0.0000508619
       -0.0000089802  -0.0000590829  -0.0000049936   0.0000964070  -0.0000066052
       -0.0001163631   0.0000324353   0.0002133777  -0.0000377568  -0.0000631339
        0.0030315659  -0.0022253399  -0.0023243207  -0.0001604166   0.0005859195
       -0.0005455416
        0.1417233109   0.1599298593   0.2343785232  -0.0920013608  -0.0190792585
       -0.0808868529  -0.0048020468   0.0050438375   0.0070469226  -0.0190746666
        0.0033643806  -0.0042527644   0.0079918353  -0.0047895051  -0.0029707640
       -0.0040176906  -0.0063118187  -0.0014970800  -0.0042247275   0.0038878403
       -0.0006232376   0.0048684790  -0.0041773627  -0.0005163681  -0.0021695695
        0.0056045282   0.0019673767   0.0007568283  -0.0002484844   0.0005561464
       -0.0001531399  -0.0002739005  -0.0002064288   0.0001515049  -0.0000883962
        0.0000287266  -0.0001112201  -0.0000080650  -0.0000814636   0.0002400855
        0.0001686768   0.0001170517  -0.0002491004   0.0003388205  -0.0000076485
       -0.0032328477  -0.0016522715  -0.0021888092   0.0023117611  -0.0004265179
        0.0008859392   0.0013493081  -0.0000966268  -0.0002361373  -0.0016280566
       -0.0007919113   0.0005492142   0.0011382700   0.0010632870   0.0001497693
       -0.0012404312   0.0003579496   0.0002764655   0.0007807918  -0.0001948959
       -0.0001813829  -0.0002882022  -0.0000470076   0.0001209259   0.0001253004
       -0.0001574222  -0.0000428309  -0.0000601325  -0.0000728950   0.0000468517
        0.0000757107   0.0000475788  -0.0000257711  -0.0000955648   0.0000590249
        0.0000132695   0.0000635708   0.0002645505  -0.0000207297  -0.0006265983
       -0.0009391715   0.0002855838   0.0007829404   0.0002435651   0.0003495370
        0.0016543964   0.0034198117   0.0000925087  -0.0018646709  -0.0010989271
        0.0004163287  -0.0000318788   0.0012012999   0.0003949062  -0.0000633292
       -0.0005197592   0.0008575045   0.0006622081   0.0012837128  -0.0003208340
        0.0011526563  -0.0020618734  -0.0025980307   0.0334648221  -0.0331584996
       -0.0048902440  -0.0564191837  -0.0616934340  -0.1041731462   0.0206027046
       -0.0318031686  -0.0441235497  -0.0181164823  -0.0028702948  -0.0030534995
       -0.0000235141  -0.0000861242   0.0001645453  -0.0000185084  -0.0000505246
       -0.0000009513   0.0000082184  -0.0000195755   0.0000059884   0.0000400965
       -0.0000055106  -0.0000112246   0.0000004072  -0.0000239983  -0.0000001856
        0.0000032704  -0.0000032564  -0.0000220695   0.0000645698   0.0000819029
       -0.0001271637  -0.0000576565  -0.0001353558   0.0002227924   0.0000622590
        0.0000068492  -0.0000068660  -0.0000620141  -0.0000996540  -0.0000311015
        0.0000335254  -0.0001297373  -0.0000117090  -0.0000552358   0.0000281527
        0.0000095456  -0.0000371161  -0.0000051933   0.0000191224  -0.0000195359
       -0.0000121361   0.0000204124   0.0000323990  -0.0000152145  -0.0000103370
        0.0000064602  -0.0002932691  -0.0001082288   0.0000241293  -0.0000483283
        0.0004700156  -0.0001357487   0.0001019191  -0.0002678372  -0.0001681613
       -0.0000309652  -0.0000636099   0.0001251278   0.0003049102  -0.0002249543
       -0.0013974747  -0.0025421637   0.0056851647  -0.0078510817  -0.0107399833
       -0.0013473266
       -0.3537879444   0.0403310641  -0.0920013608   0.5771184074  -0.0138527291
        0.1537835283  -0.0915309053   0.0560445993   0.0098026471   0.0259394728
        0.0019095572   0.0060832734  -0.0029793095  -0.0002957840   0.0012740261
        0.0003103111   0.0078878052   0.0009393398   0.0065592426  -0.0059151204
        0.0007440047  -0.0069745895   0.0047245580   0.0003886564   0.0028196099
       -0.0067043485  -0.0022089176  -0.0015678884   0.0002992408  -0.0008577761
        0.0004891547   0.0002502440   0.0003229099  -0.0002753271   0.0001063250
       -0.0000424079   0.0002524115   0.0000475729   0.0000827170  -0.0003785992
       -0.0000025249  -0.0001898808   0.0005783269  -0.0004804163   0.0001202518
        0.0032461233   0.0020041579   0.0025970274  -0.0017260192  -0.0003142641
       -0.0012223715  -0.0029692153   0.0008301547   0.0006950386   0.0038765571
        0.0011398832  -0.0004794690  -0.0021826387  -0.0016789260  -0.0003071609
        0.0022113641  -0.0005441833  -0.0006470379  -0.0010750222   0.0009671828
        0.0005085132   0.0003839027   0.0000518797  -0.0000786025  -0.0001472500
        0.0001183476   0.0000334372   0.0000943081   0.0000736550  -0.0000288416
       -0.0000831966   0.0000010107   0.0000175217   0.0000917493  -0.0000519362
       -0.0000084368  -0.0000930369  -0.0001422187   0.0000135991   0.0003212682
        0.0004996439  -0.0003098168  -0.0006750449   0.0003624433   0.0003727168
       -0.0059415991  -0.0071101704  -0.0008544251   0.0028513827   0.0032942743
        0.0000083162  -0.0005625436  -0.0038059414  -0.0014091142  -0.0023285075
        0.0021594699   0.0009894572   0.0032100185   0.0015478289   0.0004966962
       -0.0178410826   0.0157950487   0.0061097492  -0.0279027877   0.0212720863
        0.0011368734  -0.0237030483  -0.0618442425  -0.0355370738  -0.0250327671
        0.0042465413  -0.0074953882  -0.0615306282  -0.0634773887  -0.0391954001
        0.0000824763   0.0000396779  -0.0003061726   0.0000234399   0.0000031004
        0.0000174680   0.0000317278   0.0000201450   0.0000129401   0.0000366302
       -0.0000080120   0.0000164706   0.0000207899  -0.0000492206   0.0000186099
        0.0000043761   0.0000152772  -0.0000097618  -0.0000084261  -0.0000839763
        0.0001285843   0.0001079485   0.0002057148  -0.0002443128  -0.0000058422
        0.0000293274   0.0000261034   0.0000338936  -0.0000211266   0.0001061342
       -0.0000147298   0.0000266184  -0.0000396134  -0.0000018109   0.0000009570
       -0.0000114888  -0.0000001959  -0.0000100734  -0.0000004244   0.0000027891
        0.0000006292   0.0000034155   0.0000096256  -0.0000225070   0.0000064277
       -0.0000999247  -0.0000292266   0.0000930832  -0.0004302937   0.0000647968
        0.0002278347  -0.0000859796  -0.0000704707   0.0001472500  -0.0000214413
       -0.0000732160   0.0000442492  -0.0002773189   0.0002974191   0.0000432108
        0.0002902238   0.0005899960  -0.0004349622   0.0012373830  -0.0006702101
       -0.0034918647
       -0.0088854299  -0.0756619436  -0.0190792585  -0.0138527291   0.4602424681
        0.1717117239   0.0685167955  -0.1448808178  -0.0280147796   0.0042048420
       -0.0230838419  -0.0131479254  -0.0055218350   0.0003268385  -0.0010819187
        0.0025275846  -0.0019776726   0.0002349783  -0.0022475683   0.0022090807
       -0.0001932313   0.0023047451  -0.0009656536   0.0000162844  -0.0007544980
        0.0016460115   0.0005539589   0.0007012898  -0.0000751729   0.0003330992
       -0.0002873273  -0.0000215433  -0.0001342963   0.0001614481   0.0000007233
        0.0000367910  -0.0001044726  -0.0000045016  -0.0000314241   0.0001673050
       -0.0000664374   0.0000849756  -0.0003074854   0.0001342157  -0.0001200151
       -0.0004696791  -0.0005485013  -0.0006381887  -0.0001686530   0.0005023090
        0.0003506028   0.0012300877  -0.0007140607  -0.0004853287  -0.0020272094
       -0.0004632414   0.0000947621   0.0009784101   0.0005536010   0.0000147634
       -0.0009273674   0.0001789360   0.0003109838   0.0003660246  -0.0006319258
       -0.0002880704  -0.0002385441  -0.0000182814   0.0000282344   0.0001218275
        0.0000629381  -0.0000521900  -0.0000760655  -0.0000333090   0.0000138427
        0.0000312712  -0.0000260683   0.0000001274  -0.0000524610  -0.0000063818
        0.0000295727   0.0001098914  -0.0000199105  -0.0000332683   0.0002258524
        0.0002665131   0.0002433195   0.0003048580  -0.0016991651   0.0000405924
       -0.0003164096   0.0033863109  -0.0002448897  -0.0010078962  -0.0014877106
        0.0002984124   0.0006034050   0.0023543070   0.0008790612   0.0028439921
       -0.0016737529  -0.0009393250  -0.0032708805  -0.0019060724   0.0004507436
        0.0093048740   0.0024422464  -0.0019590881   0.0013823263  -0.0000873372
        0.0003819085  -0.0227546112  -0.0011172770  -0.0090107481   0.0245890050
       -0.0001813672   0.0056471138  -0.0538844505  -0.2144133885  -0.1034374465
       -0.0000117152  -0.0000243769   0.0001493169   0.0000388133  -0.0000062147
        0.0000071878  -0.0000327498  -0.0000300481  -0.0000137228  -0.0000380871
        0.0000131999  -0.0000189590  -0.0000253508   0.0000505360  -0.0000061188
        0.0000171751   0.0000053818   0.0000249829  -0.0000162301   0.0000418841
        0.0000029669  -0.0000401004  -0.0000351063   0.0000766246  -0.0000375762
       -0.0000145335   0.0000026527   0.0000134870   0.0000595933  -0.0000303565
        0.0000187429   0.0000350422   0.0000097491   0.0000383317  -0.0000126367
       -0.0000003862   0.0000162691   0.0000027128  -0.0000050914   0.0000109879
        0.0000171548  -0.0000105063  -0.0000218055   0.0000172624   0.0000066083
        0.0001473438  -0.0000417982  -0.0000863475   0.0000318726  -0.0000271143
        0.0000904622  -0.0001003891   0.0000773057  -0.0000940501  -0.0001197262
        0.0000638884  -0.0001513562  -0.0012608730  -0.0000048198   0.0000544966
       -0.0001032956  -0.0000190529   0.0008412557  -0.0020453863  -0.0027094240
       -0.0037138684
       -0.1188234381   0.0006691394  -0.0808868529   0.1537835283   0.1717117239
        0.2203565605   0.0242832205  -0.0318118294  -0.0492050044   0.0048646180
       -0.0117582079   0.0058141311  -0.0002852676   0.0005230949  -0.0020409048
        0.0001301891   0.0002240471  -0.0001417603   0.0004076077  -0.0001310553
        0.0009652311  -0.0001091986   0.0003339536  -0.0000364143   0.0003271371
       -0.0002614348  -0.0002245015  -0.0000562383  -0.0000148005   0.0000047447
       -0.0000070966   0.0000513086   0.0000190713   0.0000131281   0.0000337105
        0.0000065364   0.0000148981   0.0000097537   0.0000127595  -0.0000073235
       -0.0000303540  -0.0000018868  -0.0000024205  -0.0000524216  -0.0000055954
        0.0001372728   0.0000184407   0.0000891704  -0.0000498182   0.0001260606
       -0.0001871286  -0.0002024664  -0.0000932612   0.0000115251   0.0000167471
        0.0001105246   0.0001540822   0.0001177544   0.0001022639   0.0000285293
       -0.0002531976   0.0001708250   0.0000412268   0.0000271583  -0.0003219750
       -0.0000256059  -0.0000626428   0.0000030214   0.0000279116   0.0000500698
        0.0000201005  -0.0000093876  -0.0000292492  -0.0000068960   0.0000183405
       -0.0000028877   0.0000032909  -0.0000007208  -0.0000077392  -0.0000056023
        0.0000071153   0.0000291674   0.0000065953  -0.0000075549   0.0001684704
        0.0001813152   0.0000823645  -0.0003431460  -0.0008311378  -0.0004341740
        0.0003030141  -0.0014309782   0.0011063557  -0.0004751331   0.0000212123
       -0.0003449045   0.0004239551  -0.0001368484   0.0002993306  -0.0006489139
        0.0004190049  -0.0008257340   0.0008155029   0.0005358381  -0.0003596828
       -0.0013997722  -0.0020453797   0.0059263791  -0.0060016345   0.0065690186
        0.0016228007  -0.0187779216  -0.0193874925  -0.0183638705  -0.0008869018
       -0.0020576807   0.0066859236  -0.0348533830  -0.1081566051  -0.0912046500
       -0.0000153571  -0.0000140254   0.0000514932   0.0000208894  -0.0000060436
        0.0000039151  -0.0000071265  -0.0000140798  -0.0000054669  -0.0000058287
        0.0000045691  -0.0000022843  -0.0000076144   0.0000098987   0.0000073825
        0.0000134954   0.0000081794   0.0000108963  -0.0000293517  -0.0000195391
        0.0000791479   0.0000160999   0.0000706015  -0.0000494402   0.0000663025
        0.0000147866   0.0001115408  -0.0000007042   0.0000273899  -0.0000047136
       -0.0000017876   0.0000190471  -0.0000277206   0.0000081536   0.0000007590
       -0.0000092076   0.0000017448   0.0000021330  -0.0000023594   0.0000001636
        0.0000069147  -0.0000010138  -0.0000002724  -0.0000017966   0.0000033809
       -0.0001259201  -0.0000905610  -0.0001005039  -0.0002733453   0.0001688863
       -0.0005285904   0.0000771547  -0.0001324116   0.0002844530  -0.0000636474
       -0.0000236299  -0.0001119441  -0.0003871532  -0.0004235816   0.0006130898
        0.0004418037   0.0005074644  -0.0001243351  -0.0023553475  -0.0034252446
        0.0008285243
       -0.0276009472   0.0167194362  -0.0048020468  -0.0915309053   0.0685167955
        0.0242832205   0.4357449347  -0.0290717066   0.0105210196  -0.0770551916
       -0.0481697318  -0.0226463954   0.0055740265   0.0016420016   0.0035786615
       -0.0004025387  -0.0035655347   0.0009886527  -0.0021713681   0.0024753019
       -0.0009505192   0.0020671194  -0.0007389797   0.0003702998  -0.0004196684
        0.0016422675   0.0008680403   0.0005701662   0.0000312186   0.0001961314
       -0.0002344166   0.0001036905  -0.0000278394   0.0001309900   0.0000442820
        0.0000381561  -0.0000826192  -0.0000681822  -0.0000050841   0.0001011799
       -0.0001196067   0.0000804985  -0.0002731604  -0.0000190445  -0.0001534108
       -0.0010329137  -0.0009658988  -0.0009168487   0.0001147712   0.0003037788
        0.0006739781   0.0024990484  -0.0003900593  -0.0011261030  -0.0038996894
       -0.0005242194   0.0000900707   0.0026965688   0.0014832364   0.0003841569
       -0.0028618638   0.0008110877   0.0010550089   0.0007971950  -0.0021885690
       -0.0004873482  -0.0003675169   0.0000209082  -0.0000309012   0.0001666737
        0.0000403163  -0.0000334661  -0.0000754225  -0.0000261958   0.0000147729
        0.0000269011  -0.0000108324  -0.0000136957  -0.0000585352   0.0000049989
        0.0000245851   0.0001562790   0.0000052670  -0.0000323240   0.0002825639
        0.0007015458   0.0006631686  -0.0000199080   0.0007707141  -0.0020498695
       -0.0212893173   0.0221274307   0.0094861888   0.0031488702   0.0015742730
        0.0012263717  -0.0007564153   0.0036284670   0.0021624807   0.0084804414
       -0.0087015555  -0.0030024205  -0.0340783733  -0.0170763301   0.0003888474
       -0.1785695085   0.0031311284   0.0022530978  -0.0179487528  -0.0121880235
       -0.0162165194  -0.0000795126  -0.0015739334   0.0012768175  -0.0023630518
        0.0014994722  -0.0038760164   0.0039467974  -0.0047044522  -0.0022733721
       -0.0000475117   0.0000918022   0.0001358813   0.0000212531   0.0000279951
       -0.0000169908  -0.0000771669  -0.0000236190  -0.0000271767  -0.0000701897
        0.0000190246  -0.0000194359  -0.0000379283   0.0000743836  -0.0000060439
        0.0000364906   0.0000283911   0.0000328653   0.0000192644   0.0000945783
       -0.0000118021  -0.0000388658  -0.0000076635   0.0000277214  -0.0000069279
        0.0000685993   0.0000127747  -0.0000168608   0.0001324656  -0.0001893888
        0.0000007679   0.0000429074  -0.0000189112   0.0000327042  -0.0000193833
       -0.0000058229   0.0000171982   0.0000017816  -0.0000118387   0.0000118042
        0.0000110459  -0.0000220831  -0.0000217602   0.0000214218   0.0000017743
       -0.0000900044   0.0000005595  -0.0001914135   0.0001161230  -0.0001247084
        0.0005519695  -0.0000434204   0.0002836524  -0.0006712195  -0.0005602094
        0.0002925086  -0.0000833729   0.0000044186   0.0014039913  -0.0005225101
       -0.0024773717   0.0011692582  -0.0025284947  -0.0001047375  -0.0007637550
        0.0015834735
        0.0221481352   0.0010458149   0.0050438375   0.0560445993  -0.1448808178
       -0.0318118294  -0.0290717066   0.3720124532   0.1015949505  -0.0490787508
       -0.1284556899  -0.0464142396   0.0033144026  -0.0315724207  -0.0083237672
       -0.0049604192   0.0011530809  -0.0003873672   0.0027540243  -0.0022030693
        0.0003214662  -0.0029820209   0.0018814993   0.0002035980   0.0014870884
       -0.0025389397  -0.0006802024  -0.0009720126   0.0001738586  -0.0004762124
        0.0003390160   0.0001317218   0.0002168480  -0.0001944829   0.0000801816
       -0.0000325341   0.0001677669   0.0000074533   0.0000539875  -0.0002322876
        0.0000103207  -0.0001111885   0.0003571811  -0.0002726962   0.0000820835
        0.0008611549   0.0006499648   0.0008766469  -0.0002689115  -0.0004031244
       -0.0004788937  -0.0016433973   0.0005957303   0.0004106909   0.0013422757
       -0.0007423695  -0.0001520150  -0.0003066888  -0.0006403247  -0.0002462602
        0.0003866635  -0.0000302952  -0.0000898014  -0.0004210168   0.0000882871
        0.0002561081   0.0002527162   0.0000059297  -0.0000431503  -0.0000800940
        0.0000338734   0.0000386077   0.0000760402   0.0000529034  -0.0000295834
       -0.0000492691   0.0000231984   0.0000011479   0.0000705231  -0.0000268088
       -0.0000183473  -0.0000899966  -0.0000387802   0.0000262394   0.0001368727
        0.0003543211  -0.0002141255   0.0024124006  -0.0003646345  -0.0005215983
        0.0161109128  -0.0006574585  -0.0035737052   0.0016649556  -0.0019035445
       -0.0030092398  -0.0002444333  -0.0010300774  -0.0004033030  -0.0035521518
       -0.0015619273  -0.0011798284  -0.0175987708  -0.0004277037   0.0021243712
        0.0006791106  -0.0468114140  -0.0028875723  -0.0114435480   0.0002626163
       -0.0038422226   0.0000105652  -0.0033247619   0.0011115390   0.0002182559
        0.0020606601  -0.0019649901   0.0110575206  -0.0142391599  -0.0048707558
        0.0000439652   0.0000439032  -0.0001733939  -0.0000073816  -0.0000054940
       -0.0000045395   0.0000223872   0.0000062898   0.0000112903   0.0000253977
       -0.0000110774   0.0000129562   0.0000178134  -0.0000372901   0.0000116842
        0.0000033237   0.0000027825  -0.0000157298   0.0000292507  -0.0000346549
        0.0000418021   0.0000493633   0.0000980804  -0.0001247419  -0.0000443706
       -0.0000376447  -0.0000560754  -0.0000170773  -0.0000170348   0.0000117501
       -0.0000546218  -0.0000207955  -0.0000177362  -0.0000289575   0.0000151581
       -0.0000054597  -0.0000125113  -0.0000051490   0.0000013229  -0.0000093845
       -0.0000090692   0.0000048735   0.0000152326  -0.0000207849  -0.0000045819
       -0.0002527271   0.0000047109   0.0000076797   0.0008679769   0.0000252084
       -0.0004884908   0.0000335512  -0.0001044904   0.0003091912  -0.0008799583
       -0.0004495864   0.0006512044  -0.0007023104   0.0003504312   0.0004164749
        0.0022057080   0.0018558120  -0.0011821006  -0.0000068923  -0.0001471558
       -0.0000067688
        0.0032401107   0.0065919887   0.0070469226   0.0098026471  -0.0280147796
       -0.0492050044   0.0105210196   0.1015949505   0.1335673323  -0.0188829844
       -0.0486693137  -0.0640529156  -0.0051481763  -0.0047115660   0.0020590213
        0.0014027870   0.0041206416  -0.0009043680   0.0014413172  -0.0009969920
       -0.0000612684  -0.0014581226   0.0014619971   0.0001956477   0.0008189474
       -0.0017778694  -0.0005649193  -0.0002709697   0.0000798577  -0.0001732136
        0.0000652624   0.0001075984   0.0000528620  -0.0000427061   0.0000396391
       -0.0000236680   0.0000397087   0.0000045474   0.0000127575  -0.0000744196
       -0.0000531215  -0.0000444508   0.0000826953  -0.0001300731  -0.0000235307
        0.0010538420   0.0004399695   0.0006241997  -0.0008929823   0.0002830667
       -0.0001546990  -0.0001151767  -0.0000487244  -0.0001074916  -0.0003219484
       -0.0000460687  -0.0002408248  -0.0000170245  -0.0001114757  -0.0001642972
        0.0000984041   0.0000144541   0.0000019362  -0.0002844750  -0.0001213476
       -0.0001342790   0.0001102389  -0.0000115529  -0.0000192363  -0.0000268470
        0.0000468921   0.0000130605   0.0000263569   0.0000156982  -0.0000121220
       -0.0000151618  -0.0000098116   0.0000065683   0.0000366829  -0.0000219730
        0.0000039718  -0.0000223613  -0.0000682013  -0.0000031494   0.0002277934
        0.0005710581  -0.0001807829   0.0001609426  -0.0000430547   0.0024013956
        0.0092692887  -0.0055841669  -0.0007724781   0.0022381833  -0.0027602376
        0.0031705872   0.0002952333   0.0000592056  -0.0002154478   0.0008372602
       -0.0012450617   0.0041749982  -0.0013017361   0.0005431112   0.0014013500
        0.0045251765  -0.0015199294  -0.0353049138  -0.0160342603  -0.0050695827
       -0.0028079459   0.0005672869  -0.0028512116  -0.0055858979  -0.0038443858
       -0.0022856787   0.0056580928   0.0056219034  -0.0090736199  -0.0003617070
       -0.0000388217   0.0000317094  -0.0000552066  -0.0000008361   0.0000125141
        0.0000104560  -0.0000053474  -0.0000013707  -0.0000106668  -0.0000079772
        0.0000044779  -0.0000062911  -0.0000041493   0.0000102396  -0.0000024918
        0.0000052648   0.0000057534   0.0000123853  -0.0000098161  -0.0000233272
        0.0000378886   0.0000042775   0.0000265495  -0.0000506881  -0.0000521408
       -0.0000441143  -0.0000009312   0.0000148420  -0.0000033451   0.0000358226
       -0.0000006566   0.0000222302   0.0000130200  -0.0000004835  -0.0000023685
        0.0000118013   0.0000049700   0.0000038041   0.0000103529   0.0000024042
        0.0000065236   0.0000080772  -0.0000069026   0.0000123024   0.0000147245
        0.0001006047  -0.0001387269   0.0001029192   0.0002528254  -0.0000011589
       -0.0005863769  -0.0003362892   0.0003945024  -0.0007997069   0.0000603596
       -0.0000509604   0.0001429311  -0.0008868557   0.0004281923  -0.0011525988
       -0.0031124620  -0.0016469741   0.0036621326   0.0002878393   0.0002042852
       -0.0006696455
       -0.0284074075  -0.0187222359  -0.0190746666   0.0259394728   0.0042048420
        0.0048646180  -0.0770551916  -0.0490787508  -0.0188829844   0.5379159097
       -0.0707452911   0.1376785903  -0.0844973964   0.0675956340  -0.0045832387
       -0.0545176619   0.0201192420  -0.0036975600  -0.0042751211  -0.0020608443
        0.0009686567   0.0010466170  -0.0027350846  -0.0007682751  -0.0013537938
        0.0053160250   0.0019217128  -0.0004061885  -0.0001044888   0.0002290957
        0.0003039145  -0.0003020288  -0.0000298412  -0.0000796544  -0.0000569646
       -0.0000215865   0.0000600727   0.0000038013  -0.0000820054   0.0000381603
        0.0003560354  -0.0000104074   0.0001802063   0.0001796511   0.0001481572
       -0.0045412192  -0.0014955436  -0.0023211119   0.0043195587  -0.0018643385
        0.0002144266  -0.0013797665   0.0019503923   0.0009119025   0.0007617118
       -0.0047014304   0.0003098391   0.0014810270   0.0009756002  -0.0009414657
       -0.0013067494   0.0003101748   0.0003561913  -0.0002261793   0.0004244567
       -0.0008491603   0.0003099170  -0.0001158222  -0.0000342660  -0.0001547838
       -0.0003833503   0.0001174415   0.0000686463  -0.0000013122   0.0000013606
        0.0000147252   0.0001181590  -0.0000460884  -0.0000019845   0.0000439044
       -0.0000370619  -0.0001821253   0.0003432874   0.0000649848  -0.0031619743
       -0.0016236558  -0.0008221721   0.0120718305   0.0035697490   0.0066517515
        0.0053000207   0.0058916773  -0.0016001327  -0.0033413435  -0.0000229175
        0.0002405976  -0.0008125661   0.0003258520  -0.0002312584  -0.0027790638
        0.0000061567   0.0008195218  -0.0008603872   0.0029788652  -0.0005696204
       -0.0164645165  -0.0179679834  -0.0054203545  -0.2417124031  -0.0186817266
       -0.1055954022  -0.0424930939   0.0787589903   0.0154439682   0.0000086243
       -0.0010852037   0.0000638950  -0.0013667951   0.0021444380   0.0009543130
        0.0001772161  -0.0000123779   0.0000024229  -0.0000227391  -0.0000682120
        0.0000262624   0.0000639717   0.0000016998   0.0000402133   0.0001298208
       -0.0000342849   0.0000109931   0.0000385281  -0.0001272092   0.0000021153
       -0.0000201244  -0.0000302847  -0.0000807368   0.0001188237   0.0000448864
       -0.0001593945  -0.0000266613  -0.0001281460   0.0001875030   0.0000128883
       -0.0002128295  -0.0000568054  -0.0000915620  -0.0003119879   0.0001710669
        0.0000255246  -0.0001949853  -0.0001351646  -0.0001590425   0.0000680683
        0.0000061767  -0.0000661974  -0.0000089613   0.0000171544  -0.0000415331
       -0.0000308487   0.0000191114   0.0000974311  -0.0000305987  -0.0000641289
       -0.0005189656  -0.0025455318   0.0011163847  -0.0000299815   0.0000239386