$hessian                                                                        
        0.5627616852  -0.0044996854  -0.0001118163  -0.2410960873   0.0576865536
        0.0001045333  -0.0174856475   0.0496729388   0.0000408719   0.0147727919
       -0.0041753344  -0.0000113892  -0.0071807549  -0.0106228629   0.0000055162
        0.0133656194   0.0136677339  -0.0000139101  -0.0161303327  -0.0240633915
        0.0000229112   0.0353350112   0.0022094201  -0.0000194191  -0.0179976224
        0.0246971814  -0.0000036774   0.0118037645  -0.0151674938   0.0000101041
       -0.0077711084   0.0063479851  -0.0000004005   0.0014478769   0.0024126279
       -0.0000020731   0.0034709313   0.0024364325   0.0000024356  -0.0080999353
       -0.0013825946  -0.0000017479   0.0179229655   0.0049011974   0.0000071846
       -0.0077898869  -0.0585624174  -0.0000332979  -0.2257638166  -0.0518487703
       -0.0000098805  -0.0072367634   0.0024340106   0.0000004174  -0.0103668034
       -0.0007661160   0.0000006576  -0.0443213662   0.0066580711   0.0000044664
       -0.0257187040   0.0106178077   0.0000095423   0.0000638537  -0.0002603424
       -0.0000020449  -0.0000015234  -0.0000683550   0.0000012614  -0.0001255936
       -0.0000590359   0.0000007021   0.0001452043   0.0000155294  -0.0000024395
       -0.0001258097   0.0000784489  -0.0000024417  -0.0000001821  -0.0001533955
        0.0000004962   0.0000166996   0.0000187837  -0.0000003761  -0.0238944659
       -0.0122249270   0.0000038138
       -0.0044996854   0.6680083063   0.0003635833   0.1462971665  -0.1528331453
       -0.0001097583   0.0271359978  -0.0271395247  -0.0000243940  -0.0008684883
       -0.0051044774  -0.0000017690   0.0010393459  -0.0017672303  -0.0000014250
        0.0002324385   0.0012800837  -0.0000006064  -0.0005183376  -0.0007748581
        0.0000007199   0.0006792419  -0.0001320013  -0.0000004762  -0.0001417922
        0.0001929024   0.0000000209   0.0000461903   0.0006412181  -0.0000006763
       -0.0007157436  -0.0015390601  -0.0000004596  -0.0005834340   0.0000678630
       -0.0000004072   0.0005249323  -0.0006387508   0.0000003662   0.0003205676
        0.0005218246   0.0000010367   0.0021158087  -0.0047817372  -0.0000023123
       -0.0264803280  -0.0340341286  -0.0000147059  -0.1474104534  -0.1605944538
       -0.0000453161  -0.0007439861   0.0048245143  -0.0000004692  -0.0001088618
       -0.0007998267  -0.0000005538   0.0066432225  -0.2979170628  -0.0001714560
       -0.0135081372   0.0063992590   0.0000074791  -0.0002368819  -0.0000558257
        0.0000004934   0.0000237588  -0.0003799525  -0.0000002400  -0.0000228622
        0.0000284558   0.0000001006   0.0000000916   0.0000473301  -0.0000001304
        0.0000309275   0.0000248077   0.0000000814  -0.0001600466  -0.0000352284
       -0.0000000822   0.0000113523   0.0000313872  -0.0000000837   0.0108979962
        0.0064593117   0.0000014402
       -0.0001118163   0.0003635833   0.1032263052   0.0001515985  -0.0000849053
       -0.0393199062   0.0000222175  -0.0000322279   0.0018479627  -0.0000045865
       -0.0000036124   0.0020605102   0.0000029777   0.0000023861  -0.0002410093
       -0.0000037193  -0.0000043031   0.0000405448   0.0000036920   0.0000071602
        0.0002025720  -0.0000081531  -0.0000006110  -0.0000569935   0.0000041439
       -0.0000039509   0.0001586505  -0.0000013992   0.0000025025   0.0002141296
        0.0000005158  -0.0000011793  -0.0005187731  -0.0000014386  -0.0000000182
        0.0002758033  -0.0000000106  -0.0000012613  -0.0001129202   0.0000023836
        0.0000004514  -0.0004599799  -0.0000012922  -0.0000061219   0.0030533403
       -0.0000139565  -0.0000077032   0.0017907260  -0.0000609741  -0.0000653103
       -0.0399153945   0.0000009823   0.0000040282  -0.0017252134   0.0000020799
       -0.0000017737  -0.0004275667   0.0000061202  -0.0001698568  -0.0352413838
        0.0000008768  -0.0000009774   0.0025932167  -0.0000005618  -0.0000000048
       -0.0003436253   0.0000004815  -0.0000003328   0.0004595714  -0.0000000979
       -0.0000000250  -0.0001547922  -0.0000000105   0.0000001253   0.0000057506
       -0.0000000355  -0.0000000534  -0.0001464632  -0.0000001656  -0.0000000337
        0.0000667221  -0.0000000175  -0.0000000092   0.0000655376   0.0000101654
        0.0000040345   0.0026026785
       -0.2410960873   0.1462971665   0.0001515985   0.6592080700  -0.0051361728
       -0.0001781057  -0.0648374099  -0.0165410689  -0.0000091009  -0.0130985157
        0.0332680058   0.0000232079  -0.0006464445   0.0076345680   0.0000055733
       -0.0071993631  -0.0071988052   0.0000066546   0.0075939433   0.0126967449
       -0.0000121320  -0.0173064746  -0.0008385103   0.0000097236   0.0085155971
       -0.0114301889   0.0000014595  -0.0045343619   0.0052858194  -0.0000031370
        0.0030299473  -0.0028303441  -0.0000001342  -0.0001140143  -0.0009153542
        0.0000009650  -0.0014433808  -0.0010245672  -0.0000011006   0.0039786787
        0.0006311201   0.0000007338  -0.0081737860  -0.0017073165  -0.0000030365
        0.0047446397   0.0202762579   0.0000116626  -0.0944072206  -0.0395694524
        0.0000010648   0.0025141621  -0.0232709510  -0.0000077338   0.0003693758
       -0.0041349297   0.0000029450  -0.0023125657   0.0033521381   0.0000040827
       -0.2312388724  -0.1154518085  -0.0000041941   0.0006155524   0.0018479651
       -0.0000001762  -0.0002763588   0.0015387381  -0.0000006573   0.0000681700
        0.0000145265  -0.0000002592  -0.0000580286   0.0000138307   0.0000012919
        0.0000590557  -0.0001292223   0.0000008596   0.0000581982   0.0000437734
       -0.0000001335   0.0000243703   0.0000137010   0.0000001054  -0.0040368765
       -0.0027356634  -0.0000020271
        0.0576865536  -0.1528331453  -0.0000849053  -0.0051361728   0.5549524973
        0.0002552179  -0.0112995142  -0.2328387140  -0.0000805826   0.0375017575
       -0.0306987801  -0.0000387637  -0.0070600969  -0.0147218481   0.0000018673
        0.0141285310   0.0234406553  -0.0000157928  -0.0092996538  -0.0273715563
        0.0000171468   0.0210382330   0.0009641478  -0.0000140624  -0.0104693426
        0.0004838589   0.0000055143   0.0027319948   0.0079640580  -0.0000056325
        0.0017532857  -0.0025425947  -0.0000002909   0.0005669261  -0.0011742711
        0.0000014228  -0.0002709355   0.0012820231  -0.0000004781   0.0001539899
       -0.0001734136   0.0000008074  -0.0004337020   0.0028070245   0.0000001154
        0.0055563145  -0.0067282223  -0.0000011956   0.0286611343   0.0374097694
        0.0000138660  -0.0223789463  -0.0282301726  -0.0000135620  -0.0115711247
        0.0007101564   0.0000040773   0.0270050458  -0.0187173556  -0.0000193735
       -0.1138141368  -0.1138163923  -0.0000253138  -0.0017896342   0.0012506747
        0.0000014332  -0.0001444022  -0.0006189768   0.0000012210  -0.0000829072
       -0.0000123506   0.0000012506   0.0000721099   0.0000523793  -0.0000016234
       -0.0000725022  -0.0000313512   0.0000020057   0.0000417744   0.0000514994
       -0.0000003601   0.0000294665   0.0000787265  -0.0000001791  -0.0031040455
       -0.0009383258  -0.0000038298
        0.0001045333  -0.0001097583  -0.0393199062  -0.0001781057   0.0002552179
        0.0988456601  -0.0000001939  -0.0000995530  -0.0481585584   0.0000233611
       -0.0000313929   0.0026982239   0.0000028519  -0.0000099981   0.0068806922
        0.0000073029   0.0000145505  -0.0007164540  -0.0000077933  -0.0000180435
       -0.0014614625   0.0000156557   0.0000005291   0.0002008807  -0.0000077752
        0.0000037364  -0.0001169993   0.0000031883   0.0000021677   0.0004187966
       -0.0000002517  -0.0000002009  -0.0001255474   0.0000005954  -0.0000004711
        0.0001508830   0.0000001443   0.0000015863  -0.0000138371  -0.0000016201
       -0.0000006525   0.0000721445   0.0000029568   0.0000021697  -0.0003763318
       -0.0000010240  -0.0000080160  -0.0041661547   0.0000380948   0.0000294451
        0.0018687257  -0.0000066319   0.0000015292   0.0010756833  -0.0000022458
        0.0000014376   0.0056162392   0.0000172181  -0.0000126676   0.0010030127
       -0.0000060627  -0.0000171193  -0.0281968230  -0.0000036108   0.0000001738
       -0.0023847121  -0.0000002360  -0.0000011718  -0.0003477983  -0.0000000137
        0.0000000562   0.0001082899   0.0000001717   0.0000002302   0.0001887362
       -0.0000001779  -0.0000001365  -0.0002548869  -0.0000000304  -0.0000000540
        0.0000021330   0.0000000140  -0.0000000028  -0.0000167246  -0.0000003153
       -0.0000035914   0.0065260956
       -0.0174856475   0.0271359978   0.0000222175  -0.0648374099  -0.0112995142
       -0.0000001939   0.6335285192  -0.0230885651  -0.0002842613  -0.2699082366
        0.0646873688   0.0001944378   0.0037175995   0.0607843349   0.0000111941
       -0.0250746534   0.0131969251   0.0000057108  -0.0060474908  -0.0186001514
        0.0000112996   0.0131904174   0.0011185814  -0.0000092606  -0.0057751391
       -0.0017998925   0.0000045580  -0.0013850253   0.0083016456   0.0000008997
        0.0067809268  -0.0119343919   0.0000001190  -0.0011981622  -0.0037131006
        0.0000023913   0.0003388899   0.0040521615  -0.0000008896  -0.0049384904
       -0.0007952501  -0.0000014800   0.0046371564   0.0187666680   0.0000017721
       -0.0633286682   0.0052063401   0.0000230713   0.0089922782  -0.0037265309
       -0.0000023887  -0.1916630921  -0.0761827778   0.0000280109   0.0121524271
       -0.0384852222  -0.0000108624  -0.0043157226   0.0030725196   0.0000061054
       -0.0018507100  -0.0249195562  -0.0000155861  -0.0272307536   0.0087892349
        0.0000125856   0.0009867380  -0.0003085259   0.0000021688   0.0000461086
       -0.0000446229   0.0000008647   0.0000063525   0.0000294039  -0.0000010417
        0.0000101130   0.0001660803   0.0000015572   0.0001701260   0.0001292712
       -0.0000011916  -0.0001056672  -0.0000212632  -0.0000002724   0.0005872162
       -0.0005171681  -0.0000015354
        0.0496729388  -0.0271395247  -0.0000322279  -0.0165410689  -0.2328387140
       -0.0000995530  -0.0230885651   0.5978466136   0.0002168285   0.1032242933
       -0.1340472855  -0.0000969060   0.0352546914  -0.0194401991  -0.0000341855
       -0.0101567482  -0.0172848984   0.0000105304   0.0037624216   0.0213253507
       -0.0000095717  -0.0101405448   0.0003521904   0.0000078192   0.0034970453
        0.0093897742  -0.0000074036   0.0030633912  -0.0235563859   0.0000128572
       -0.0062663141   0.0048728040  -0.0000002842   0.0017145651   0.0020446142
       -0.0000024739   0.0017090220   0.0006424149   0.0000017823  -0.0031465921
       -0.0002119812  -0.0000012631   0.0110867360  -0.0023396108   0.0000011521
       -0.0078823940   0.0084397121   0.0000005928  -0.0157185258  -0.0056576134
        0.0000003410  -0.0883619603  -0.1363507880   0.0000286817  -0.0172420305
       -0.0293085587  -0.0000044153   0.0019854850   0.0001125972  -0.0000037823
       -0.0030085329  -0.0173432512  -0.0000015836  -0.0135226862   0.0062779389
        0.0000166944   0.0005623647  -0.0057431492  -0.0000018659  -0.0001074504
        0.0003938580  -0.0000012830  -0.0000038757   0.0000600489   0.0000007096
        0.0000334913  -0.0003253416  -0.0000026949   0.0000534879  -0.0001544679
        0.0000008369   0.0000722825   0.0000401010   0.0000001846  -0.0005049271
       -0.0000562482   0.0000004833
        0.0000408719  -0.0000243940   0.0018479627  -0.0000091009  -0.0000805826
       -0.0481585584  -0.0002842613   0.0002168285   0.1220793485   0.0001864516
       -0.0000746182  -0.0429085000   0.0000098953  -0.0000371333   0.0024087928
        0.0000065197  -0.0000148492  -0.0039921431   0.0000052037   0.0000213061
       -0.0006778233  -0.0000133905  -0.0000005786   0.0000202182   0.0000051257
        0.0000052258   0.0005095932  -0.0000004507  -0.0000138369   0.0057480488
       -0.0000043474   0.0000054938  -0.0004394166   0.0000018390   0.0000023851
       -0.0004244896   0.0000011734  -0.0000012247  -0.0005925498  -0.0000004457
        0.0000003365   0.0011798128   0.0000033434  -0.0000094049   0.0055665730
        0.0000092190   0.0000001499   0.0019103158  -0.0000174143  -0.0000008989
       -0.0045564675   0.0000395323  -0.0000012494  -0.0544601946  -0.0000050526
        0.0000247362   0.0006894674   0.0000050693  -0.0000068352   0.0081845615
        0.0000003503  -0.0000034507   0.0019814188   0.0000169580  -0.0000058640
        0.0005576084   0.0000035768  -0.0000017935   0.0049884596   0.0000001987
        0.0000003619   0.0003245443  -0.0000000029   0.0000000188  -0.0000105262
       -0.0000001723  -0.0000006734  -0.0003789161  -0.0000002188  -0.0000001857
       -0.0000496608   0.0000002077   0.0000000256  -0.0002138876  -0.0000006783
        0.0000007049  -0.0011335921
        0.0147727919  -0.0008684883  -0.0000045865  -0.0130985157   0.0375017575
        0.0000233611  -0.2699082366   0.1032242933   0.0001864516   0.6455812450
        0.0070635473  -0.0004107460  -0.0802753748  -0.0205534075   0.0000213756
        0.0117191985  -0.0343738680   0.0000004443  -0.0010495342   0.0087618009
        0.0000026599  -0.0068063646  -0.0017460030   0.0000058690   0.0035100491
        0.0044908503  -0.0000045325   0.0026004465  -0.0079209534   0.0000020788
       -0.0058779004   0.0084733256   0.0000005364   0.0011915480   0.0026422965
       -0.0000019680   0.0001084952  -0.0017535439   0.0000007015   0.0006949272
       -0.0006137347  -0.0000008947  -0.0032287612  -0.0082687858   0.0000011099
        0.0050836541  -0.0093641537  -0.0000019674  -0.0066061749  -0.0003810535
       -0.0000002534  -0.0618557987  -0.0102868648   0.0000395470  -0.0046035396
        0.0137893556   0.0000002068   0.0000979004  -0.0002029810  -0.0000000364
        0.0010659650  -0.0020046844  -0.0000001235  -0.2296794597  -0.1138592177
        0.0001363680  -0.0030684003   0.0266521889   0.0000046549  -0.0002091279
        0.0000563123  -0.0000008188  -0.0002674159  -0.0002118978   0.0000005109
        0.0001229623   0.0000697529  -0.0000015001  -0.0001104674  -0.0001015188
        0.0000007478   0.0000557967  -0.0000791915   0.0000003425   0.0000400919
       -0.0001351333   0.0000004612
       -0.0041753344  -0.0051044774  -0.0000036124   0.0332680058  -0.0306987801
       -0.0000313929   0.0646873688  -0.1340472855  -0.0000746182   0.0070635473
        0.5981197224   0.0000819171   0.0347833876  -0.2728837543  -0.0000457621
       -0.0603426018  -0.0224569496   0.0000283076  -0.0045989383  -0.0163382555
        0.0000084177   0.0063087600  -0.0007247097  -0.0000055660  -0.0024264825
       -0.0112506489   0.0000081271  -0.0223432066   0.0142235223  -0.0000049863
        0.0211476136  -0.0308918670   0.0000004538  -0.0036513182  -0.0087907817
        0.0000076985   0.0003888109   0.0068270737  -0.0000018635  -0.0048516330
        0.0005562893  -0.0000006584   0.0108992090   0.0311471204  -0.0000027161
       -0.0243562620  -0.0060666963  -0.0000002017   0.0016205528   0.0055711201
        0.0000023690   0.0254022000   0.0266278571  -0.0000059533   0.0299340734
       -0.0146166312  -0.0000123771   0.0013255458  -0.0009875977  -0.0000009158
        0.0016248402   0.0008541221  -0.0000001415  -0.1145717676  -0.1140385948
        0.0000587438   0.0028769180  -0.0159245370  -0.0000070285   0.0000014717
        0.0001904614   0.0000010456  -0.0001745666   0.0000176419  -0.0000003083
        0.0000798068   0.0001031370   0.0000034586   0.0002436450   0.0003340833
       -0.0000024147  -0.0001873002   0.0001568119  -0.0000006202   0.0000236546
        0.0000926039   0.0000005983
       -0.0000113892  -0.0000017690   0.0020605102   0.0000232079  -0.0000387637
        0.0026982239   0.0001944378  -0.0000969060  -0.0429085000  -0.0004107460
        0.0000819171   0.0982658394   0.0000275781  -0.0000235857  -0.0408538862
       -0.0000049273   0.0000287873   0.0025102435   0.0000063379  -0.0000046423
        0.0067487324   0.0000036870   0.0000014664  -0.0002477399  -0.0000018038
       -0.0000037091  -0.0001508471  -0.0000034746   0.0000061164  -0.0007717660
        0.0000048206  -0.0000072175   0.0005674613  -0.0000012238  -0.0000017417
       -0.0000846284   0.0000004354   0.0000009000   0.0000027654  -0.0000004915
        0.0000008957  -0.0006935654   0.0000027654   0.0000068940   0.0005678408
       -0.0000048479   0.0000042800   0.0045900435   0.0000053753   0.0000012416
       -0.0004369871   0.0000339258   0.0000073531   0.0012873677   0.0000018873
       -0.0000107107  -0.0038193581   0.0000003784  -0.0000000759   0.0000541058
       -0.0000002338   0.0000026904  -0.0009439524   0.0001301996   0.0000679213
       -0.0297995523   0.0000039690  -0.0000213941   0.0019483825   0.0000000728
       -0.0000002585  -0.0003071679   0.0000000096  -0.0000003372  -0.0005223144
        0.0000001716   0.0000002448   0.0002687723   0.0000000182   0.0000000525
       -0.0000187276  -0.0000001465   0.0000000692   0.0000948919   0.0000000069
        0.0000002816  -0.0001061876
       -0.0071807549   0.0010393459   0.0000029777  -0.0006464445  -0.0070600969
        0.0000028519   0.0037175995   0.0352546914   0.0000098953  -0.0802753748
        0.0347833876   0.0000275781   0.6456464972  -0.0028790316  -0.0004605067
       -0.2555185375  -0.1129294982   0.0001796265  -0.0081659413  -0.0355640813
        0.0000152715   0.0151058723   0.0021644443  -0.0000082022  -0.0070463928
        0.0005483747   0.0000033235   0.0047052503   0.0090322450  -0.0000029416
       -0.0054728238   0.0062174212   0.0000000948   0.0006802924   0.0023469507
       -0.0000024358   0.0001668036  -0.0015945792   0.0000005126   0.0006710816
       -0.0001938744   0.0000004684  -0.0014075673  -0.0059123675   0.0000009971
       -0.0005065969   0.0046008174   0.0000010075   0.0039095865  -0.0014773186
       -0.0000007678  -0.0005549078  -0.0116128746  -0.0000018617  -0.0615798046
        0.0025801451   0.0000447205  -0.0003026335   0.0002032993  -0.0000003831
       -0.0001561614  -0.0000849890  -0.0000008318  -0.0009532596  -0.0255772857
       -0.0000024877  -0.2460562640   0.1037699625   0.0001924222   0.0009658856
        0.0020146953  -0.0000011451   0.0001662998   0.0003121074  -0.0000013585
        0.0000961810   0.0001587200   0.0000007463  -0.0000640690  -0.0000802942
        0.0000004741   0.0000414413   0.0000012813   0.0000000767   0.0000147428
       -0.0000615977  -0.0000001227
       -0.0106228629  -0.0017672303   0.0000023861   0.0076345680  -0.0147218481
       -0.0000099981   0.0607843349  -0.0194401991  -0.0000371333  -0.0205534075
       -0.2728837543  -0.0000235857  -0.0028790316   0.5982000345   0.0000231887
       -0.0720779365  -0.1509177246   0.0000786739  -0.0335925494  -0.0350366151
        0.0000293612   0.0095545466  -0.0049134521   0.0000001366  -0.0048297553
        0.0117106249  -0.0000047036   0.0311286195  -0.0095133204   0.0000001472
       -0.0215855849   0.0325473647  -0.0000007622   0.0036797533   0.0089744891
       -0.0000075123  -0.0000059666  -0.0072239550   0.0000021478   0.0043231697
       -0.0007013056   0.0000008765  -0.0104693784  -0.0302465694   0.0000021312
        0.0156538530   0.0089859424   0.0000016580   0.0052558594  -0.0041602043
       -0.0000017119  -0.0246795930  -0.0170358583   0.0000048368  -0.0364792476
        0.0245802125   0.0000174916   0.0001330189   0.0000520115  -0.0000000483
       -0.0000197656   0.0001316712  -0.0000005455  -0.0017802792  -0.0181948582
        0.0000058729   0.1044516443  -0.0975813750  -0.0000841137  -0.0016133438
        0.0008412543  -0.0000001042  -0.0012297612  -0.0010760308   0.0000016984
       -0.0000501420   0.0000012226  -0.0000025365  -0.0002643512  -0.0003983300
        0.0000023959   0.0001762219  -0.0002092310   0.0000004878  -0.0000426329
       -0.0000029661  -0.0000007354
        0.0000055162  -0.0000014250  -0.0002410093   0.0000055733   0.0000018673
        0.0068806922   0.0000111941  -0.0000341855   0.0024087928   0.0000213756
       -0.0000457621  -0.0408538862  -0.0004605067   0.0000231887   0.0990291987
        0.0001895419   0.0000920008  -0.0429330630   0.0000152114   0.0000414865
        0.0026352711  -0.0000118265  -0.0000004240   0.0020727390   0.0000063187
        0.0000013343  -0.0003789093   0.0000009720  -0.0000076879   0.0045982304
        0.0000009974   0.0000001879   0.0008419007   0.0000012204  -0.0000013862
       -0.0005840569  -0.0000003131   0.0000011185  -0.0000527352  -0.0000002227
       -0.0000000579   0.0000159041  -0.0000006690   0.0000001504   0.0004623325
        0.0000028772  -0.0000031811  -0.0008131387  -0.0000029266   0.0000004982
       -0.0001096191  -0.0000074000   0.0000075462  -0.0039250338   0.0000344338
        0.0000016452   0.0009149953   0.0000002553   0.0000001765  -0.0005865374
        0.0000003075   0.0000005704  -0.0002855646   0.0000018971   0.0000147148
        0.0017421825   0.0001873359  -0.0000892103  -0.0300243742  -0.0000009948
       -0.0000023561  -0.0009217468   0.0000000697  -0.0000002394   0.0000346928
       -0.0000001191  -0.0000004412  -0.0001839632  -0.0000001658   0.0000000371
       -0.0000464255  -0.0000000302  -0.0000000434   0.0000122004   0.0000000771
       -0.0000001226   0.0002909309
        0.0133656194   0.0002324385  -0.0000037193  -0.0071993631   0.0141285310
        0.0000073029  -0.0250746534  -0.0101567482   0.0000065197   0.0117191985
       -0.0603426018  -0.0000049273  -0.2555185375  -0.0720779365   0.0001895419
        0.6297245261   0.0248596177  -0.0003293685  -0.0663505470   0.0238645267
        0.0000061545  -0.0138487228  -0.0257683750   0.0000219486   0.0087881918
        0.0019144775  -0.0000073836  -0.0667251660  -0.0080148860   0.0000313209
        0.0108517831  -0.0196110398   0.0000054640  -0.0041317014  -0.0041122704
        0.0000028117  -0.0012748469   0.0020809405  -0.0000019591   0.0008275008
        0.0007513768  -0.0000006976  -0.0004407819   0.0113550036  -0.0000024541
        0.0018385563  -0.0017739457   0.0000052400  -0.0057220243  -0.0034514218
       -0.0000011786   0.0061179319   0.0401212225   0.0000012535  -0.2033941603
        0.0729696766   0.0000568874   0.0000274951  -0.0000437562   0.0000002125
        0.0000228938   0.0000482413   0.0000007747   0.0010312668   0.0008817010
        0.0000012161  -0.0274035507  -0.0113226545   0.0000151569  -0.0040142044
        0.0258357195  -0.0000079606  -0.0038834500  -0.0034252351   0.0000117890
        0.0005344824   0.0006125870  -0.0000025593   0.0001739625   0.0003970853
       -0.0000010215  -0.0000957290   0.0001584304  -0.0000001375   0.0000540299
       -0.0001107048  -0.0000002272
        0.0136677339   0.0012800837  -0.0000043031  -0.0071988052   0.0234406553
        0.0000145505   0.0131969251  -0.0172848984  -0.0000148492  -0.0343738680
       -0.0224569496   0.0000287873  -0.1129294982  -0.1509177246   0.0000920008
        0.0248596177   0.6001733898  -0.0001467527   0.0297977825  -0.2283668374
        0.0000473903  -0.0496813590  -0.0326164312   0.0000439558   0.0176813443
       -0.0052221224  -0.0000083932   0.0000138004   0.0083500365   0.0000011197
       -0.0065891241  -0.0029513003   0.0000023584  -0.0004028720  -0.0004299378
       -0.0000001543   0.0002603186   0.0022285423  -0.0000004219  -0.0029983540
       -0.0004479018  -0.0000011293   0.0051227694   0.0041953878   0.0000024905
        0.0002426615  -0.0223310235  -0.0000096036  -0.0059407599   0.0067455889
        0.0000026476   0.0173887326  -0.0266160481  -0.0000029849   0.0849676528
       -0.1225697717  -0.0000388224   0.0000104833   0.0000494934  -0.0000000243
        0.0000319320   0.0003717908   0.0000022181  -0.0000892860  -0.0056937094
       -0.0000003806   0.0108770753   0.0064368744  -0.0000144344   0.0039637585
       -0.0148478086   0.0000004710  -0.0022966663  -0.0003017122   0.0000059500
        0.0005965431   0.0000099235  -0.0000018541  -0.0000592132   0.0000124018
       -0.0000004210  -0.0000634422   0.0000763091  -0.0000001270  -0.0000558829
       -0.0003163002   0.0000007160
       -0.0000139101  -0.0000006064   0.0000405448   0.0000066546  -0.0000157928
       -0.0007164540   0.0000057108   0.0000105304  -0.0039921431   0.0000004443
        0.0000283076   0.0025102435   0.0001796265   0.0000786739  -0.0429330630
       -0.0003293685  -0.0001467527   0.1209188996  -0.0000066155   0.0000303906
       -0.0470546516   0.0000462165   0.0000333434   0.0017243791  -0.0000217254
        0.0000034879  -0.0042592035   0.0000211367   0.0000001538   0.0017453440
       -0.0000021193   0.0000089640   0.0048927524   0.0000012411   0.0000015414
        0.0013534708   0.0000011033  -0.0000009543  -0.0003885423   0.0000000665
       -0.0000004929  -0.0006405677   0.0000011681  -0.0000019446  -0.0004121952
       -0.0000054635   0.0000061688   0.0059917917   0.0000057553   0.0000016806
        0.0004318550  -0.0000008480  -0.0000238158   0.0010084566   0.0000753679
       -0.0000205756  -0.0541889971  -0.0000000179   0.0000000090   0.0000145847
        0.0000001221  -0.0000003825   0.0003018040   0.0000026422  -0.0000018571
        0.0049660592   0.0000221302   0.0000098586   0.0006209945   0.0000023733
       -0.0000092104   0.0018789427   0.0000096114   0.0000102021   0.0079008319
       -0.0000013536  -0.0000011783  -0.0010802944  -0.0000000728  -0.0000001700
        0.0000235294   0.0000001700  -0.0000001203  -0.0002181083  -0.0000000464
        0.0000005414  -0.0004402637
       -0.0161303327  -0.0005183376   0.0000036920   0.0075939433  -0.0092996538
       -0.0000077933  -0.0060474908   0.0037624216   0.0000052037  -0.0010495342
       -0.0045989383   0.0000063379  -0.0081659413  -0.0335925494   0.0000152114
       -0.0663505470   0.0297977825  -0.0000066155   0.6540272624   0.0097126981
       -0.0003980403  -0.2187277963  -0.1497564169   0.0002276620  -0.0967434070
        0.0267718132   0.0000444600   0.0086273114  -0.0158336571   0.0000100501
       -0.0064336766   0.0019724845  -0.0000008876   0.0016139589   0.0003001750
       -0.0000008980   0.0007200619   0.0012574056   0.0000003028  -0.0022571215
       -0.0003617179  -0.0000003252   0.0045474271   0.0027653466   0.0000019291
       -0.0033436982  -0.0083241175  -0.0000040439   0.0069305572   0.0137305499
        0.0000045667  -0.0016370515   0.0058123493   0.0000042860  -0.0040181978
        0.0233253071  -0.0000050733  -0.0000565144  -0.0000225853   0.0000000763
        0.0000689816  -0.0000143093  -0.0000004002  -0.0002160264  -0.0015217321
       -0.0000010279   0.0005917061  -0.0018971578  -0.0000009302  -0.2489631731
        0.1058080951   0.0001046318   0.0000201290  -0.0018581227  -0.0000075352
       -0.0048488721   0.0024493525   0.0000042668   0.0002077869  -0.0000761256
        0.0000004631   0.0000103409   0.0000408814  -0.0000001183   0.0000299142
        0.0001687587   0.0000005491
       -0.0240633915  -0.0007748581   0.0000071602   0.0126967449  -0.0273715563
       -0.0000180435  -0.0186001514   0.0213253507   0.0000213061   0.0087618009
       -0.0163382555  -0.0000046423  -0.0355640813  -0.0350366151   0.0000414865
        0.0238645267  -0.2283668374   0.0000303906   0.0097126981   0.5537494001
       -0.0002018679  -0.0590474142  -0.1673185353   0.0001324213  -0.0408966494
        0.0369564381   0.0000020477  -0.0021672005  -0.0069309352   0.0000004891
       -0.0015728569   0.0024670793  -0.0000004977   0.0006296960   0.0006979101
       -0.0000013036  -0.0000991813  -0.0000439506   0.0000001029  -0.0004305436
       -0.0000942793   0.0000001589  -0.0001980078  -0.0014646862   0.0000005572
       -0.0039505834   0.0043722449   0.0000023834   0.0117126185   0.0051046268
        0.0000011928   0.0126000379   0.0046802855  -0.0000031998   0.0228601790
       -0.0276230111  -0.0000017923  -0.0001000863   0.0000339896   0.0000000441
        0.0000944720   0.0000117366  -0.0000022183   0.0002250947  -0.0006839584
       -0.0000020167   0.0018298760   0.0012170612  -0.0000005303   0.1040598767
       -0.0973182222  -0.0000327226  -0.0255941022  -0.0209271261   0.0000242120
        0.0031797037  -0.0003782330   0.0000053457  -0.0000330284   0.0000598965
        0.0000000024  -0.0000065815   0.0000272551  -0.0000000288   0.0000965345
       -0.0000322147  -0.0000004373
        0.0000229112   0.0000007199   0.0002025720  -0.0000121320   0.0000171468
       -0.0014614625   0.0000112996  -0.0000095717  -0.0006778233   0.0000026599
        0.0000084177   0.0067487324   0.0000152715   0.0000293612   0.0026352711
        0.0000061545   0.0000473903  -0.0470546516  -0.0003980403  -0.0002018679
        0.0960628027   0.0001569375   0.0001799456  -0.0387163900   0.0000903384
       -0.0000429935   0.0018491484  -0.0000107586   0.0000164108  -0.0042058109
        0.0000071148  -0.0000024064  -0.0004201829  -0.0000017846  -0.0000003609
        0.0000700883  -0.0000006419  -0.0000015394  -0.0000165211   0.0000026935
        0.0000003072   0.0001362197  -0.0000050321  -0.0000028735  -0.0000161869
        0.0000049833   0.0000084898   0.0004372990  -0.0000102854  -0.0000157618
       -0.0001636263  -0.0000016036  -0.0000071149   0.0056290268  -0.0000038288
       -0.0000063234   0.0010375940   0.0000001323  -0.0000001390   0.0002116287
       -0.0000000793  -0.0000001130   0.0000838626  -0.0000001447   0.0000016514
       -0.0002878997  -0.0000033688   0.0000010685  -0.0023703492   0.0001033662
       -0.0000394427  -0.0271789134   0.0000180728   0.0000153580   0.0010532323
        0.0000061108   0.0000040513   0.0066971589  -0.0000002297   0.0000001986
       -0.0000060589  -0.0000000209  -0.0000000164  -0.0000162697  -0.0000000959
        0.0000000076  -0.0002624906
        0.0353350112   0.0006792419  -0.0000081531  -0.0173064746   0.0210382330
        0.0000156557   0.0131904174  -0.0101405448  -0.0000133905  -0.0068063646
        0.0063087600   0.0000036870   0.0151058723   0.0095545466  -0.0000118265