$hessian                                                                        
        0.6193765807   0.0076321019   0.1162747450  -0.2654320618  -0.0575688892
       -0.0467743421   0.0220982326  -0.0847168799   0.0096031435  -0.0612927882
        0.0012629311  -0.0120180229  -0.0003436000   0.0003974841  -0.0001751562
       -0.0000381144   0.0004480797   0.0002715676   0.0001115329   0.0001623668
       -0.0000625539  -0.0000102654   0.0001168096  -0.0000566905  -0.0000275695
       -0.0000115556   0.0000091729   0.0000109349   0.0000299076  -0.0000219859
        0.0000023290  -0.0000470828   0.0000151546  -0.0000529169  -0.0000243096
       -0.0000060362   0.0000064456   0.0000064637   0.0000100049  -0.0000039202
       -0.0000239818  -0.0000168476  -0.0000187482   0.0000092611   0.0000100287
        0.0000069886   0.0000036049   0.0000025589  -0.0000003316  -0.0000048200
       -0.0000037331  -0.0000127690  -0.0000101499  -0.0000040809  -0.0000443103
        0.0000316162   0.0000307542   0.0000076479   0.0000108434   0.0000114855
       -0.0000049429   0.0000001208   0.0000010840   0.0000073337  -0.0000336305
       -0.0000198875  -0.0000034641   0.0000183554   0.0000178612   0.0000293585
       -0.0000006028  -0.0000129709   0.0000023384   0.0000243023   0.0000148065
        0.0000208171  -0.0000116480  -0.0000167848  -0.0000131592  -0.0000162726
       -0.0000034998   0.0000117593  -0.0000239501  -0.0000253349  -0.0000426459
        0.0000050362   0.0000130809   0.0000029338   0.0000056051   0.0000043736
        0.0000346121   0.0000278915   0.0000080950  -0.0000062617   0.0000048655
        0.0000047616   0.0000090691   0.0000024678   0.0000052693  -0.0000009274
       -0.0000017269  -0.0000005333   0.0000099058   0.0000040969  -0.0000023211
        0.0000036424  -0.0000070541  -0.0000072464   0.0000754743  -0.0000088692
       -0.0000375868  -0.0000342138   0.0000352813  -0.0000006930   0.0000294647
       -0.0000639059   0.0000104178   0.0000646287   0.0000838700   0.0000479241
       -0.0000598152  -0.0000131293  -0.0000543924  -0.0000134689  -0.0000007715
       -0.0000015808  -0.0000140450   0.0000191728  -0.0000093667  -0.0000177911
       -0.0000169793   0.0000045526  -0.0000501740  -0.0000298114  -0.0000034817
        0.0000559475   0.0000211144   0.0000365934   0.0001295493   0.0000098132
       -0.0000900085   0.0000297286   0.0000040286  -0.0000117774   0.0001668826
       -0.0000387739   0.0000028779  -0.0000894679  -0.0001248175  -0.0000639573
        0.0000021119   0.0000386638  -0.0000016453  -0.0000007259   0.0000284593
       -0.0000147468   0.0000053752   0.0000383654  -0.0000029984   0.0000224565
        0.0000308044   0.0000051248   0.0000391217  -0.0000542488   0.0000112664
       -0.0000885715  -0.0000774489  -0.0001396549  -0.0000388576  -0.0001217249
       -0.0000236512   0.0000278694   0.0001022097   0.0000130437  -0.0000802509
        0.0000102310  -0.0000849708  -0.0000943579  -0.0001833990  -0.0000298032
        0.0000338733   0.0000569651   0.0000809770   0.0000000944   0.0000657745
       -0.0000382280  -0.0000516054  -0.0000427564   0.0000132546   0.0000159270
        0.0000023642   0.0000004909  -0.0000244385  -0.0000331792  -0.0000021432
        0.0000656977   0.0000694046  -0.0000254675  -0.0001536043  -0.0001674731
        0.0000933243   0.0000284934   0.0003963041  -0.0002629503  -0.0002817034
       -0.0009027772   0.0003321411   0.0289759037   0.0813526793   0.0015006143
       -0.2530251763   0.0595189438  -0.0515591711  -0.0436574332  -0.0084682226
       -0.0017280692  -0.0248648845  -0.0104653710  -0.0053321225   0.0016473292
        0.0000169103  -0.0016484776  -0.0000007340   0.0000019336  -0.0000012409
       -0.0000001935   0.0000030824   0.0000017932   0.0000010421  -0.0000006378
       -0.0000007610   0.0000008130   0.0000017706   0.0000020773  -0.0000009002
        0.0000011225   0.0000024659   0.0000003240   0.0000015245   0.0000016486
       -0.0000023949   0.0000021864   0.0000017930  -0.0000028427   0.0000021142
       -0.0000004119   0.0000010089  -0.0000039630  -0.0000009806  -0.0000058704
        0.0000111326   0.0000174995  -0.0000086647   0.0000045664   0.0000055604
       -0.0000025089   0.0000016689   0.0000013434  -0.0000008359  -0.0000018520
       -0.0000008217  -0.0000011435  -0.0000028650   0.0000006231  -0.0000024725
       -0.0000024109  -0.0000010676  -0.0000015295  -0.0000007374  -0.0000023614
       -0.0000010657  -0.0000000600  -0.0000003102   0.0000039250   0.0000094462
       -0.0000016474   0.0000077495  -0.0000025157   0.0000001567   0.0000179290
        0.0000068040   0.0000063298   0.0000153570  -0.0000095182   0.0000070135
        0.0000374888   0.0000068065  -0.0000129827  -0.0000054716   0.0000032439
        0.0000020385   0.0000027069   0.0000011511   0.0000082065   0.0000053128
       -0.0000016541   0.0000075665   0.0000229340  -0.0000044409   0.0000187539
        0.0000358512  -0.0000055055   0.0000268602   0.0000182177   0.0000017761
        0.0000199524  -0.0000014616  -0.0000003085  -0.0000015351   0.0000080891
       -0.0000031783  -0.0000008841   0.0000153385  -0.0000075561   0.0000033775
        0.0000449740  -0.0000323584  -0.0000076169   0.0016444690  -0.0006504101
       -0.0015521563  -0.0250244501   0.0118802836  -0.0066158606
        0.0076321019   0.6712539039  -0.0318036798  -0.1353764784  -0.1485321336
       -0.0252858900  -0.0261328039  -0.0347171770  -0.0040312376   0.0013887287
        0.0067401636  -0.0003200192  -0.0007265333  -0.0033223281   0.0002442577
       -0.0006173235   0.0016124012  -0.0001713849  -0.0005174376  -0.0015174780
        0.0001946900  -0.0002388171   0.0000387168   0.0000762548   0.0000906847
       -0.0001288751  -0.0000063022  -0.0001309495  -0.0000452648   0.0000552987
        0.0000723023   0.0000537311  -0.0000470509   0.0000492529   0.0000685814
        0.0000066778   0.0000142558  -0.0000249100  -0.0000120940  -0.0000218906
        0.0000185778   0.0000164767   0.0000205089  -0.0000214297  -0.0000193774
       -0.0000328240  -0.0000206115  -0.0000082630   0.0000287953   0.0000258027
        0.0000132835  -0.0000125027  -0.0000343713  -0.0000180756   0.0000883510
       -0.0000042335  -0.0000207614  -0.0000254006  -0.0000539013  -0.0000338405
        0.0000177610   0.0000324609   0.0000193641  -0.0000014351   0.0000168599
        0.0000118614  -0.0000081934   0.0000251166   0.0000215574  -0.0000141320
       -0.0000200877  -0.0000109901  -0.0000210085  -0.0000164224   0.0000000359
       -0.0000195234  -0.0000111815   0.0000058190   0.0000220913   0.0000079844
       -0.0000115637  -0.0000006442   0.0000312604   0.0000216763   0.0000512616
        0.0000039642  -0.0000188132  -0.0000293383  -0.0000032275   0.0000065877
        0.0000067509   0.0000071484   0.0000047606  -0.0000017821  -0.0000022677
       -0.0000114164   0.0000025594   0.0000022521  -0.0000034312   0.0000010940
       -0.0000007662  -0.0000006363   0.0000006587  -0.0000025159   0.0000026569
       -0.0000066372   0.0000006379   0.0000101201  -0.0001245327  -0.0000175557
        0.0000156532   0.0000091866   0.0000312218   0.0000189696   0.0000581181
        0.0000851207  -0.0000432241  -0.0000103335  -0.0000048980  -0.0000946297
        0.0000910850  -0.0000492413   0.0001408504  -0.0000630457  -0.0000046867
       -0.0000495197   0.0000472163  -0.0000174357   0.0000359711  -0.0000099482
        0.0000441025   0.0000056971  -0.0000797824  -0.0000695469   0.0000324517
        0.0000181721  -0.0000078980   0.0000234841  -0.0000660713  -0.0000944305
        0.0000439454   0.0002485388  -0.0000583764   0.0000383880  -0.0002352037
        0.0001441060  -0.0000836541   0.0000772533   0.0003199184  -0.0000244653
        0.0000253675  -0.0000138960  -0.0000524707  -0.0000272568  -0.0000792052
       -0.0000317898   0.0000163904  -0.0000624581   0.0000158904   0.0000117836
        0.0000505407   0.0000134367  -0.0001135197   0.0000941269  -0.0000790377
        0.0000005866  -0.0000591223   0.0000695267   0.0000105225  -0.0000378355
        0.0000528917  -0.0000387630  -0.0000372035  -0.0000239351   0.0000591362
       -0.0001041614   0.0001120689   0.0009993581   0.0001493819  -0.0002352319
        0.0001036030  -0.0000199255  -0.0000130505  -0.0001718925  -0.0000430649
        0.0000210316   0.0001227249   0.0000246703  -0.0000331561  -0.0001057960
        0.0000414667   0.0000237354   0.0000088932  -0.0000513034  -0.0000041320
       -0.0000765159   0.0000239178   0.0000195588   0.0001727186   0.0001326537
       -0.0000074957  -0.0003702744  -0.0001856947   0.0001194382   0.0013614424
        0.0012000949  -0.0001586852   0.0227887385  -0.0391020876   0.0077122371
        0.1374451291  -0.1565728233   0.0386806784  -0.0085455000  -0.2990238848
        0.0139856534   0.0128978655   0.0065676264   0.0026240459  -0.0004991866
       -0.0056886078   0.0007143339   0.0000038328   0.0000087827  -0.0000097363
        0.0000027325   0.0000022590   0.0000058488   0.0000029355   0.0000017944
        0.0000016282   0.0000021525   0.0000026041   0.0000030230  -0.0000019786
        0.0000026419   0.0000037884  -0.0000048391  -0.0000009952   0.0000003595
       -0.0000058277   0.0000033366   0.0000038396   0.0000014315  -0.0000023988
        0.0000010655  -0.0000019995   0.0000109519   0.0000037704  -0.0000049936
       -0.0000083319  -0.0000180896   0.0000119795  -0.0000050834   0.0000031402
        0.0000027121  -0.0000035445  -0.0000013649   0.0000012230   0.0000024479
        0.0000006278  -0.0000019742  -0.0000013220   0.0000016485  -0.0000019868
       -0.0000020104  -0.0000013059  -0.0000005782  -0.0000014664  -0.0000028056
        0.0000023827  -0.0000011193   0.0000001985   0.0000059205  -0.0000017064
       -0.0000019881   0.0000050068   0.0000307629  -0.0000015436   0.0000063760
        0.0000202524  -0.0000018543   0.0000064393   0.0000074243  -0.0000053192
       -0.0000112889   0.0000753761  -0.0000792980   0.0000271070  -0.0000172346
        0.0000642586  -0.0000072665  -0.0000295906   0.0000030390  -0.0000058408
       -0.0000113334  -0.0000020134   0.0000134393   0.0000026687   0.0000018003
       -0.0000010960   0.0000098478  -0.0000177643  -0.0000236863   0.0000150164
       -0.0000317417  -0.0000029999   0.0000015730   0.0000020488  -0.0000023977
       -0.0000001344   0.0000013804  -0.0000057031  -0.0000046673   0.0000011656
        0.0000230027   0.0000007823  -0.0000131419  -0.0001008622  -0.0057228889
        0.0007558821  -0.0115210657   0.0066513187  -0.0031325579
        0.1162747450  -0.0318036798   0.1458512457  -0.0421218986  -0.0072144579
       -0.0573442358   0.0064483077  -0.0173932163   0.0037580237  -0.0127757959
       -0.0005597413  -0.0092465674  -0.0000376464   0.0002883707  -0.0003489875
        0.0000884135   0.0000475303   0.0000794274   0.0000313207   0.0001059338
        0.0000095303   0.0000134690   0.0000183291  -0.0000082383  -0.0000097949
        0.0000054385   0.0000017919   0.0000121845   0.0000105794  -0.0000083875
       -0.0000061626  -0.0000156693   0.0000087062  -0.0000065718  -0.0000052919
       -0.0000006510   0.0000010857   0.0000013124  -0.0000001288   0.0000027384
       -0.0000060349  -0.0000034456  -0.0000020431   0.0000031014   0.0000017771
        0.0000007052   0.0000005274   0.0000025791  -0.0000026590  -0.0000017307
       -0.0000005675  -0.0000019138  -0.0000020904   0.0000009576  -0.0000094406
        0.0000063942   0.0000053778   0.0000006285   0.0000046677   0.0000025758
       -0.0000047379  -0.0000018513   0.0000013578   0.0000008621  -0.0000054332
       -0.0000030986   0.0000003516   0.0000040143   0.0000021798   0.0000080014
       -0.0000002613  -0.0000022262   0.0000047971   0.0000078212   0.0000067987
        0.0000058300  -0.0000002606  -0.0000041920  -0.0000017236  -0.0000050083
       -0.0000038384   0.0000005617  -0.0000069602  -0.0000054615  -0.0000047914
        0.0000016729   0.0000013086   0.0000000944   0.0000011153   0.0000040091
        0.0000002347   0.0000047369   0.0000010096  -0.0000001121   0.0000012517
        0.0000018724   0.0000013569   0.0000010538   0.0000018246   0.0000004364
       -0.0000022949   0.0000004072   0.0000021627   0.0000002097  -0.0000012706
        0.0000018964  -0.0000013517  -0.0000020689   0.0000162409  -0.0000035163
       -0.0000057503  -0.0000100011   0.0000081962  -0.0000038145   0.0000087210
       -0.0000202283   0.0000019365  -0.0000497289  -0.0000583719   0.0000029260
        0.0000098003   0.0000052883  -0.0000167421  -0.0000218356  -0.0000107116
       -0.0000084973   0.0000057682  -0.0000118697   0.0000085198   0.0000104838
        0.0000110032   0.0000114752   0.0000034498   0.0000248230   0.0000076048
        0.0000092641   0.0000292318   0.0000098203   0.0000712580   0.0000249981
       -0.0000212017  -0.0001976619   0.0001775594  -0.0001421084   0.0002989659
       -0.0001295668   0.0001476477  -0.0001613093  -0.0001209139   0.0000239984
       -0.0000010893  -0.0000121793  -0.0000348339  -0.0000258460  -0.0000364454
       -0.0000183363  -0.0000005281   0.0000075319   0.0000014206   0.0000033813
        0.0000110534   0.0000004251  -0.0000345943  -0.0000441499  -0.0000202728
        0.0000510944   0.0000215426   0.0000129126  -0.0000282435   0.0000328737
       -0.0000329270   0.0000158783  -0.0000014780   0.0000147683  -0.0000725678
        0.0001189329  -0.0000178668  -0.0000640290  -0.0000405859  -0.0000097447
       -0.0000047703  -0.0000007635   0.0000160194   0.0000099976   0.0000207793
       -0.0000081997  -0.0000217302  -0.0000092048   0.0000056686   0.0000111529
       -0.0000007493  -0.0000019411  -0.0000030248  -0.0000056284   0.0000009854
        0.0000216521   0.0000121236  -0.0000047768  -0.0000519014  -0.0000513498
        0.0000205940   0.0000369803   0.0001401673  -0.0000353995  -0.0001522267
       -0.0003638025   0.0001128418   0.0051518828   0.0212565201   0.0011770092
       -0.0561437962   0.0204489775  -0.0626776590  -0.0015939917   0.0139483284
       -0.0356589352  -0.0067335951  -0.0027881562  -0.0006515166  -0.0014212677
        0.0009212619   0.0077451893  -0.0000005884   0.0000019962   0.0000000152
       -0.0000010955   0.0000011008  -0.0000007814   0.0000004217  -0.0000003043
       -0.0000000080  -0.0000004400  -0.0000000073   0.0000001242   0.0000003360
        0.0000013557  -0.0000005051   0.0000010668   0.0000013186   0.0000000620
       -0.0000004604   0.0000002124  -0.0000000894   0.0000001954   0.0000006975
       -0.0000005508  -0.0000008269  -0.0000014390  -0.0000006868  -0.0000026083
        0.0000036289   0.0000027170  -0.0000030047  -0.0000015654   0.0000014526
        0.0000012831   0.0000015275  -0.0000007597  -0.0000011343   0.0000002067
       -0.0000001974  -0.0000003102  -0.0000001232  -0.0000000191  -0.0000004334
       -0.0000002113   0.0000001966   0.0000000341   0.0000004095   0.0000006277
       -0.0000009175  -0.0000005661   0.0000006603  -0.0000007938   0.0000013260
       -0.0000004028   0.0000013028  -0.0000068280  -0.0000000276   0.0000031575
       -0.0000053462   0.0000007574   0.0000002950  -0.0000004451   0.0000001476
        0.0000072850  -0.0000062966   0.0000153087   0.0000108278  -0.0000158847
        0.0000479896   0.0000075870   0.0000039605   0.0000057892   0.0000170869
        0.0000045077   0.0000114990   0.0000201774  -0.0000015486   0.0000136857
        0.0000138887  -0.0000089094   0.0000117144   0.0000060642  -0.0000075405
        0.0000138800   0.0000004209  -0.0000003817  -0.0000001418   0.0000014517
       -0.0000018025  -0.0000003949   0.0000021198  -0.0000018553  -0.0000000555
        0.0000114315  -0.0000038993  -0.0000027537  -0.0014763170   0.0005579586
        0.0077440447  -0.0054746278   0.0024845003  -0.0005739323
       -0.2654320618  -0.1353764784  -0.0421218986   0.6373190618  -0.0047647826
        0.1208036562  -0.0926041956   0.0300685027  -0.0119877190   0.0283136769
        0.0211115725   0.0042440636  -0.0033456727   0.0049826550  -0.0028893036
        0.0000110812  -0.0004241740  -0.0000362253   0.0001751259   0.0009970088
        0.0003429395   0.0000988994  -0.0000305151  -0.0000035849  -0.0000390721
        0.0000587297  -0.0000091955   0.0000368859   0.0000260395  -0.0000096323
       -0.0000376223   0.0000036078   0.0000145769  -0.0000767482  -0.0001381534
       -0.0000413727  -0.0000105935   0.0000682504   0.0000437375   0.0000166153
       -0.0000594367  -0.0000455491  -0.0000513334   0.0000499749   0.0000451305
        0.0000622376   0.0000397853   0.0000173183  -0.0000501632  -0.0000468111
       -0.0000236183   0.0000204721   0.0000461121   0.0000233720  -0.0001616748
        0.0000260175   0.0000499873   0.0000446600   0.0000935561   0.0000631087
       -0.0000255005  -0.0000507658  -0.0000309068  -0.0000034911  -0.0000598618
       -0.0000352962   0.0000260656  -0.0000111828  -0.0000161586   0.0000313023
        0.0000370109   0.0000174796   0.0000095725   0.0000187580   0.0000110307
        0.0000193395   0.0000221781   0.0000009784  -0.0000530236  -0.0000383052
       -0.0000177650   0.0000242435  -0.0000450825  -0.0000539212  -0.0001066877
        0.0000038802   0.0000527202   0.0000711694   0.0000268182  -0.0000122119
       -0.0000019004  -0.0000058501  -0.0000043130  -0.0000048132   0.0000135283
        0.0000233332   0.0000006904  -0.0000040284   0.0000073795  -0.0000030903
       -0.0000018680   0.0000004946   0.0000017680   0.0000040959  -0.0000068880
        0.0000117180  -0.0000002837  -0.0000228331   0.0002162487  -0.0000102408
       -0.0000570058  -0.0000220566  -0.0000451559   0.0000078487  -0.0000282713
        0.0000043034  -0.0000002077  -0.0000389395  -0.0000660164   0.0000708499
       -0.0000218864   0.0000746726  -0.0000459456  -0.0000053280   0.0000200705
       -0.0000026972   0.0000134628  -0.0000092409   0.0000035854   0.0000391746
        0.0000244830   0.0000238594  -0.0000235024   0.0000112236  -0.0000064446
        0.0000161893  -0.0000086159  -0.0000020570  -0.0000759274  -0.0000433133
        0.0000298065  -0.0002017116   0.0001227571   0.0000280974   0.0002187658
        0.0000595119  -0.0000850829  -0.0001754241  -0.0001532249  -0.0000286811
        0.0000610304   0.0000185187   0.0000077984  -0.0000067364  -0.0000219739
       -0.0000104572  -0.0000108900   0.0000081430  -0.0000133538  -0.0000265811
       -0.0000089111  -0.0000150390   0.0000277291   0.0001095625  -0.0000002158
        0.0000096995   0.0000066008   0.0000009791   0.0000443864   0.0000468453
        0.0000085928  -0.0000568413  -0.0001143487  -0.0000282693   0.0000232202
        0.0000337300  -0.0000063564  -0.0003026547  -0.0000584282   0.0001202278
       -0.0000549542  -0.0001343972  -0.0000622837   0.0000816340  -0.0000031900
       -0.0000083464  -0.0000459700  -0.0000139407   0.0000126772   0.0000350755
       -0.0000335413  -0.0000067018   0.0000298417   0.0000188730  -0.0000006039
       -0.0000270270   0.0000355268   0.0000206550  -0.0000042193  -0.0000346249
       -0.0000184219  -0.0000236731   0.0003670720   0.0001598860   0.0000665016
       -0.0010569816   0.0001221838  -0.0142533630  -0.0304191508  -0.0004616029
       -0.0637530408   0.0316751138  -0.0168523175  -0.0019105975  -0.0024239662
       -0.0004311153  -0.2189749245   0.1089023635  -0.0491320505  -0.0025071721
       -0.0256800216   0.0007541832  -0.0000017176  -0.0000047931   0.0000038638
        0.0000043683  -0.0000027477  -0.0000043760  -0.0000018474  -0.0000004170
        0.0000014218  -0.0000035834  -0.0000039264  -0.0000029077   0.0000042648
       -0.0000063096  -0.0000049796   0.0000082500  -0.0000001605  -0.0000010054
        0.0000088683  -0.0000042615  -0.0000037366   0.0000005041   0.0000046858
       -0.0000034202  -0.0000008360  -0.0000002563  -0.0000023793  -0.0000092942
       -0.0000046189   0.0000086581   0.0000011806   0.0000120636   0.0000183433
        0.0000088201   0.0000070454   0.0000029891   0.0000007448  -0.0000062726
       -0.0000011986   0.0000039033   0.0000014925  -0.0000039790   0.0000033496
        0.0000020858  -0.0000001833   0.0000028076   0.0000030896   0.0000034172
       -0.0000037378   0.0000024488  -0.0000010449   0.0000064633  -0.0000037195
       -0.0000017759  -0.0000019566  -0.0000113609  -0.0000001745  -0.0000017909
       -0.0000074469   0.0000023102  -0.0000039945  -0.0000206339  -0.0000028563
        0.0000504864  -0.0000258880   0.0000493504   0.0000216990  -0.0000175018
        0.0000143245   0.0000107207   0.0000135601   0.0000061162   0.0000087310
        0.0000047775   0.0000072235   0.0000275723   0.0000094960   0.0000164637
        0.0000340196   0.0000095842   0.0000327804   0.0000157116  -0.0000031104
        0.0000178633   0.0000030651  -0.0000075527   0.0000000517  -0.0000021147
       -0.0000118796   0.0000024997   0.0000014825  -0.0000004201   0.0000011334
        0.0000431093   0.0000250537  -0.0000305444   0.0004851642  -0.0005377738
        0.0001854325  -0.0033426212   0.0027450789  -0.0027985684
       -0.0575688892  -0.1485321336  -0.0072144579  -0.0047647826   0.6555156866
       -0.0339236339  -0.0462227971  -0.3354724697   0.0078875731   0.0766672346
       -0.0407201602   0.0194705328   0.0033680370   0.0043859210   0.0008646277
        0.0011694013  -0.0033080056  -0.0000523234   0.0008568070   0.0020498319
       -0.0001989509   0.0002674784  -0.0001327699  -0.0000942200  -0.0000977096
        0.0001381068  -0.0000082778   0.0001250215   0.0000047442  -0.0000378010
       -0.0000706826  -0.0000412295   0.0000436674   0.0000021981  -0.0000326291
       -0.0000068948   0.0000086994   0.0000204614   0.0000140992  -0.0000166922
       -0.0000242841  -0.0000109673  -0.0000231122   0.0000100111   0.0000142392
        0.0000132149   0.0000005202   0.0000027176   0.0000063134  -0.0000128836
       -0.0000071356  -0.0000155024  -0.0000049227  -0.0000001842  -0.0000322834
        0.0000155526   0.0000222735   0.0000210022   0.0000062451   0.0000051228
        0.0000103451   0.0000013035  -0.0000009034  -0.0000090470  -0.0000436404
       -0.0000253149   0.0000154600   0.0000164443   0.0000099727   0.0000069566
        0.0000130247   0.0000073048  -0.0000168204  -0.0000057869   0.0000011464
       -0.0000155256  -0.0000029588   0.0000056789  -0.0000188516  -0.0000179804
       -0.0000118507   0.0000215422  -0.0000017172  -0.0000157203  -0.0000568277
        0.0000062363   0.0000244386   0.0000308310   0.0000182508  -0.0000014465
        0.0000263101   0.0000197246   0.0000058644  -0.0000065056   0.0000059029
        0.0000009918   0.0000063463   0.0000022554   0.0000003426  -0.0000000261
        0.0000005042  -0.0000007591   0.0000051162   0.0000037544  -0.0000005563
        0.0000009447  -0.0000037758  -0.0000028454   0.0000328700  -0.0000147730
       -0.0000210986  -0.0000051828  -0.0000179425   0.0000016107  -0.0001305052
        0.0000201130   0.0000318403  -0.0000206966   0.0000499352  -0.0000505124
        0.0001277590  -0.0000333790   0.0000664807  -0.0000049354   0.0000065064
        0.0000129703   0.0000079093  -0.0000353434   0.0000087872  -0.0000574950
       -0.0000090767  -0.0000106820  -0.0000177509  -0.0000311074  -0.0000206280
        0.0000443112  -0.0000415453   0.0000465432   0.0000001037   0.0000339118
        0.0000263401  -0.0000293298  -0.0001054189   0.0001059562  -0.0000777183
        0.0001193442  -0.0000688970   0.0000286255   0.0000140188  -0.0000121412
        0.0000074104  -0.0000143418   0.0000019394   0.0000323519   0.0000112346
        0.0000173411  -0.0000142565   0.0000099270  -0.0000132078  -0.0000216380
       -0.0000156173  -0.0000146571  -0.0000015388   0.0000358888  -0.0000108319
        0.0000285372   0.0000243681   0.0000624709   0.0000245132   0.0000377588
        0.0000060152  -0.0000605169  -0.0000703895  -0.0000399512  -0.0000323463
       -0.0001581395   0.0000557969  -0.0014738715  -0.0005230412   0.0003954134
       -0.0001187602   0.0001649274  -0.0000253954   0.0002533201   0.0000648066
       -0.0000194080  -0.0002004289  -0.0000634270   0.0000537052   0.0001422685
       -0.0000666753  -0.0000285991  -0.0000122690   0.0000645892   0.0000113260
        0.0000726520   0.0000421006  -0.0000027784  -0.0001915464  -0.0001191611
        0.0000058308   0.0004648277   0.0002578043  -0.0001345259  -0.0014070564
       -0.0006141853  -0.0000770560  -0.0288867143  -0.0464241986  -0.0043028777
       -0.0252694997   0.0596951524  -0.0093894974  -0.0257723341  -0.0177134477
       -0.0047707724   0.1088437425  -0.1113594244   0.0297613172  -0.0027790025
       -0.0165570527   0.0005686043   0.0000148877  -0.0000023328   0.0000018231
        0.0000070798  -0.0000035003  -0.0000015436   0.0000079290  -0.0000003981
        0.0000017741   0.0000038254  -0.0000000087   0.0000043555   0.0000015514
       -0.0000005611   0.0000052864  -0.0000004251  -0.0000019006   0.0000025262
       -0.0000017846   0.0000030869   0.0000050194  -0.0000020237   0.0000000092
       -0.0000009427   0.0000011626   0.0000193467   0.0000063247   0.0000003589
       -0.0000024337  -0.0000114608   0.0000062731   0.0000097968   0.0000082344
        0.0000054539   0.0000035790   0.0000005481   0.0000023076  -0.0000004877
        0.0000004353   0.0000004861  -0.0000010132  -0.0000004383  -0.0000008117
       -0.0000000572  -0.0000020903   0.0000002293   0.0000025051  -0.0000024628
        0.0000006920   0.0000040796  -0.0000014831   0.0000059469  -0.0000037634
       -0.0000027935   0.0000081473   0.0000348791  -0.0000056625   0.0000036381
        0.0000246181  -0.0000057953  -0.0000035923   0.0000235217   0.0000030417
       -0.0000256648   0.0000700261  -0.0000338732  -0.0000072568  -0.0000076900
       -0.0000167467  -0.0000002124   0.0000030077  -0.0000064668  -0.0000038963
       -0.0000021656  -0.0000071909   0.0000014111   0.0000013407  -0.0000037556
        0.0000103353   0.0000267446   0.0000070809  -0.0000079981   0.0000124346
       -0.0000045995  -0.0000028788   0.0000063621   0.0000052367  -0.0000010529
        0.0000001933   0.0000005361   0.0000075179   0.0000008909  -0.0000033161
       -0.0000212161  -0.0000127262  -0.0000156678  -0.0005665867  -0.0001706489
       -0.0001388502   0.0033371540  -0.0005785690   0.0012197955
       -0.0467743421  -0.0252858900  -0.0573442358   0.1208036562  -0.0339236339
        0.1471341291  -0.0081191099   0.0246970401  -0.0512772577   0.0028820298
        0.0073309347   0.0013103724  -0.0021319993   0.0011820044   0.0066793410
       -0.0003663376   0.0010845816   0.0003766998  -0.0001162908   0.0002361563
       -0.0005344223  -0.0000931375   0.0001097141  -0.0000995096   0.0000004337
       -0.0000237828   0.0000353201  -0.0000168680   0.0000229959   0.0000136997
        0.0000245251  -0.0000047987  -0.0000047938  -0.0000599199  -0.0000398389
       -0.0000104836  -0.0000046991   0.0000119984   0.0000208367   0.0000107325
       -0.0000205106  -0.0000107406  -0.0000132890   0.0000158807   0.0000179465
        0.0000142683   0.0000110242   0.0000126396  -0.0000203232  -0.0000106046
        0.0000000502   0.0000082051   0.0000087602   0.0000076586  -0.0000543204
        0.0000162429   0.0000223012   0.0000084510   0.0000297094   0.0000233690
       -0.0000191562  -0.0000167254  -0.0000050326   0.0000169302  -0.0000048839
       -0.0000044271  -0.0000035159  -0.0000100180  -0.0000069501   0.0000096087
        0.0000121871   0.0000070956   0.0000082525   0.0000106042   0.0000063041
        0.0000116133   0.0000128188  -0.0000002946  -0.0000174421  -0.0000129664
       -0.0000093302   0.0000053988  -0.0000162812  -0.0000186475  -0.0000226177
        0.0000028025   0.0000123472   0.0000210386   0.0000026326  -0.0000064386
       -0.0000151799  -0.0000077608  -0.0000045585   0.0000009411   0.0000044677
        0.0000075395  -0.0000017332  -0.0000010276   0.0000014530  -0.0000006381
       -0.0000016591  -0.0000017141  -0.0000005678   0.0000021072  -0.0000056199
        0.0000052318   0.0000027609  -0.0000095907   0.0000860553   0.0000080498
       -0.0000213940   0.0000029255   0.0000045480   0.0000159788   0.0000240846
        0.0000021414  -0.0000183797   0.0000300989  -0.0000641793  -0.0000094978
       -0.0000249868   0.0000431457  -0.0000221272   0.0000075812   0.0000119654
        0.0000042697  -0.0000073984   0.0000210903  -0.0000073242   0.0000119481
        0.0000123655   0.0000129783   0.0000263343  -0.0000265896  -0.0000603032
       -0.0000187333   0.0000172492   0.0000027192  -0.0000322408  -0.0000464418
        0.0000228798  -0.0000663288   0.0000755033  -0.0000010678   0.0000916600
        0.0000247493  -0.0000029630  -0.0000885404  -0.0000667786  -0.0000198553
        0.0000103839   0.0000256354  -0.0000091364  -0.0000099477  -0.0000183493
       -0.0000107449  -0.0000046519   0.0000000625  -0.0000075948  -0.0000103583
        0.0000026761  -0.0000061690   0.0000072032   0.0000502283  -0.0000054355
       -0.0000416541  -0.0000224206   0.0000009790   0.0000037630  -0.0000078874
        0.0000085282  -0.0000203644  -0.0000233068  -0.0000094375   0.0000269478
        0.0000701608  -0.0000149714  -0.0000986760  -0.0000982674   0.0000285800
        0.0000168773   0.0000050700   0.0000974333  -0.0000105646   0.0000133071
       -0.0000217876  -0.0000052877  -0.0000077776   0.0000054611  -0.0000006444
        0.0000072907   0.0000087122  -0.0000124455  -0.0000226054  -0.0000046071
        0.0000488069   0.0000037582  -0.0000137656  -0.0000625478  -0.0000688485
        0.0000942317  -0.0000912274   0.0002772868  -0.0004143833  -0.0004790943
       -0.0013837467   0.0000646352  -0.0003121026  -0.0046370869  -0.0054681059
       -0.0134620956   0.0039749587  -0.0019955924   0.0009232310   0.0005406948
        0.0010833183  -0.0491541626   0.0297787928  -0.0478630080  -0.0006883117
       -0.0048221222   0.0011434524   0.0000005503  -0.0000028515   0.0000001720