 Entering Gaussian System
 *********************************************
 Gaussian 98:
 frequency output generated by the xtb code
 *********************************************
                         Standard orientation:
 --------------------------------------------------------------------
  Center     Atomic     Atomic              Coordinates (Angstroms)
  Number     Number      Type              X           Y           Z
 --------------------------------------------------------------------
    1          6             0       -3.731068    4.921282    0.703825
    2          6             0       -4.922071    4.252201    0.468712
    3          6             0       -4.969866    2.872889    0.544798
    4          6             0       -3.818953    2.148647    0.842028
    5          6             0       -3.862331    0.685270    0.901806
    6          7             0       -2.745682    0.029862    0.701233
    7          6             0       -2.679654   -1.332144    0.702139
    8          6             0       -1.447514   -1.926957    0.295517
    9          6             0       -1.036174   -3.213956    0.698218
   10          6             0        0.221753   -3.684925    0.419476
   11          6             0        1.138097   -2.886468   -0.277199
   12          7             0        2.433935   -3.350790   -0.555247
   13          6             0        2.695433   -4.428624   -1.385621
   14          6             0        1.818411   -5.360910   -1.915912
   15          6             0        2.345154   -6.347442   -2.732237
   16          6             0        3.705869   -6.398734   -3.021766
   17          6             0        4.580066   -5.455718   -2.512198
   18          6             0        4.074383   -4.458873   -1.688457
   19          6             0        4.663008   -3.334436   -1.016314
   20          6             0        5.968834   -2.852982   -0.987246
   21          6             0        6.258249   -1.715801   -0.263602
   22          6             0        5.236519   -1.108314    0.468276
   23          6             0        3.908631   -1.600581    0.517777
   24          6             0        3.220640   -0.807721    1.500517
   25          6             0        1.957103   -0.846093    2.086617
   26          6             0        1.629654    0.098389    3.039299
   27          6             0        2.535761    1.086427    3.423385
   28          6             0        3.808821    1.125627    2.893221
   29          6             0        4.154113    0.160170    1.955232
   30          7             0        5.355051   -0.029384    1.316815
   31          6             0        6.522433    0.729352    1.516718
   32          6             0        7.169252    1.308462    0.429133
   33          6             0        8.318062    2.052638    0.628048
   34          6             0        8.822660    2.229633    1.906259
   35          6             0        8.177034    1.655136    2.989263
   36          6             0        7.031906    0.902649    2.799790
   37          6             0        3.611412   -2.691517   -0.308503
   38          6             0        0.735457   -1.640458   -0.757747
   39          6             0       -0.536619   -1.171345   -0.505135
   40          7             0       -0.967137    0.023753   -1.098307
   41          6             0       -2.083228    0.130103   -1.907228
   42          6             0       -2.949637   -0.858896   -2.349852
   43          6             0       -4.012349   -0.473369   -3.147190
   44          6             0       -4.202411    0.857189   -3.512148
   45          6             0       -3.320149    1.842079   -3.104955
   46          6             0       -2.250886    1.475924   -2.302275
   47          6             0       -1.160853    2.199076   -1.713892
   48          6             0       -0.758256    3.522477   -1.677429
   49          8             0       -1.358989    4.588992   -2.265587
   50          6             0       -0.612451    5.680106   -1.922443
   51          6             0       -0.857858    6.990790   -2.286476
   52          6             0        0.024623    7.952815   -1.823880
   53          6             0        1.114551    7.615141   -1.024649
   54          6             0        1.358640    6.305132   -0.661674
   55          6             0        0.485750    5.321482   -1.113416
   56          6             0        0.390753    3.897140   -0.949853
   57          6             0        1.140805    2.948473   -0.249749
   58          6             0        0.753298    1.626907   -0.262988
   59          6             0       -0.383863    1.261855   -0.988057
   60          6             0       -3.870476   -2.010447    1.033819
   61         16             0       -4.181477   -3.724088    1.146930
   62          6             0       -5.879639   -3.433130    1.473968
   63          6             0       -6.847646   -4.392305    1.696439
   64          6             0       -8.142831   -3.971682    1.949216
   65          6             0       -8.458332   -2.612615    1.975304
   66          6             0       -7.494427   -1.655448    1.752975
   67          6             0       -6.177592   -2.055593    1.499372
   68          6             0       -5.032121   -1.252911    1.237967
   69          7             0       -5.023653    0.097520    1.168070
   70          6             0       -2.625403    2.825965    1.077644
   71          6             0       -2.585419    4.205700    1.013496
   72          1             0       -3.695576    5.999529    0.647325
   73          1             0       -5.816209    4.808748    0.228155
   74          1             0       -5.890018    2.336235    0.367156
   75          1             0       -1.709591   -3.821591    1.281190
   76          1             0        0.528847   -4.657531    0.773064
   77          1             0        0.760668   -5.318058   -1.705036
   78          1             0        1.685313   -7.090980   -3.154354
   79          1             0        4.080006   -7.184728   -3.660934
   80          1             0        5.632562   -5.491701   -2.749140
   81          1             0        6.744489   -3.366851   -1.532951
   82          1             0        7.260471   -1.318474   -0.231531
   83          1             0        1.240400   -1.602403    1.815684
   84          1             0        0.648054    0.074447    3.489698
   85          1             0        2.239073    1.822612    4.155431
   86          1             0        4.517198    1.880589    3.198142
   87          1             0        6.761651    1.180597   -0.562758
   88          1             0        8.816877    2.501230   -0.218202
   89          1             0        9.717937    2.813442    2.058290
   90          1             0        8.570379    1.786519    3.986342
   91          1             0        6.535517    0.436111    3.637691
   92          1             0        1.413288   -1.054893   -1.361622
   93          1             0       -2.805253   -1.894182   -2.078657
   94          1             0       -4.709052   -1.222292   -3.494550
   95          1             0       -5.048273    1.118197   -4.130464
   96          1             0       -3.454694    2.872723   -3.395528
   97          1             0       -1.704708    7.244440   -2.904120
   98          1             0       -0.137597    8.986722   -2.088442
   99          1             0        1.778551    8.395656   -0.684366
  100          1             0        2.202627    6.045004   -0.041731
  101          1             0        2.012050    3.256492    0.305788
  102          1             0        1.302223    0.885310    0.294635
  103          1             0       -6.595306   -5.441594    1.672157
  104          1             0       -8.915078   -4.704675    2.126262
  105          1             0       -9.475881   -2.310312    2.175243
  106          1             0       -7.724511   -0.601170    1.771839
  107          1             0       -1.738903    2.257535    1.315817
  108          1             0       -1.657850    4.725647    1.205135
 --------------------------------------------------------------------
     1 basis functions        1 primitive gaussians
     1 alpha electrons        1 beta electrons
 
 Harmonic frequencies (cm**-1), IR intensities (km*mol⁻¹),
 Raman scattering activities (A**4/amu), Raman depolarization ratios,
 reduced masses (AMU), force constants (mDyne/A) and normal coordinates:
                      1                      2                      3
                        a                      a                      a 
 Frequencies --     2.8625                 7.6300                14.5248
 Red. masses --    11.3533                11.2932                11.7593
 Frc consts  --     0.0000                 0.0000                 0.0000
 IR Inten    --     0.0986                 0.1149                 0.1785
 Raman Activ --     0.0000                 0.0000                 0.0000
 Depolar     --     0.0000                 0.0000                 0.0000
 Atom AN      X      Y      Z        X      Y      Z        X      Y      Z
   1   6     0.10  -0.01   0.05     0.07  -0.01   0.03     0.19   0.04   0.17
   2   6     0.09   0.01   0.04     0.06   0.00   0.07     0.18   0.08   0.15
   3   6     0.07   0.01   0.02     0.05   0.01   0.08     0.14   0.07   0.11
   4   6     0.05  -0.01   0.02     0.05  -0.01   0.03     0.13   0.04   0.07
   5   6     0.03  -0.01   0.01     0.04  -0.01   0.03     0.09   0.04   0.03
   6   7     0.03  -0.02   0.01     0.03  -0.02  -0.01     0.08   0.01   0.00
   7   6     0.00  -0.02  -0.00     0.01  -0.02  -0.02     0.04   0.01  -0.03
   8   6    -0.00  -0.03  -0.00    -0.00  -0.02  -0.05     0.03  -0.01  -0.04
   9   6    -0.02  -0.04  -0.01    -0.00  -0.03  -0.08     0.01  -0.01  -0.05
  10   6    -0.02  -0.05  -0.01    -0.00  -0.03  -0.09     0.01  -0.02  -0.04
  11   6    -0.01  -0.06   0.01    -0.01  -0.02  -0.08     0.02  -0.02  -0.04
  12   7    -0.01  -0.06   0.03     0.00   0.00  -0.08     0.02  -0.03  -0.02
  13   6     0.01  -0.06   0.04     0.03   0.03  -0.10     0.04  -0.04   0.01
  14   6     0.03  -0.08   0.05     0.05   0.03  -0.13     0.05  -0.05   0.00
  15   6     0.04  -0.08   0.06     0.08   0.06  -0.15     0.06  -0.07   0.04
  16   6     0.05  -0.06   0.06     0.09   0.09  -0.13     0.07  -0.08   0.08
  17   6     0.03  -0.04   0.05     0.06   0.08  -0.09     0.06  -0.08   0.08
  18   6     0.01  -0.04   0.04     0.04   0.06  -0.07     0.05  -0.06   0.05
  19   6    -0.01  -0.02   0.02     0.01   0.05  -0.03     0.03  -0.05   0.04
  20   6    -0.02   0.01   0.00     0.00   0.06   0.01     0.04  -0.06   0.07
  21   6    -0.04   0.03  -0.02    -0.03   0.05   0.04     0.03  -0.05   0.06
  22   6    -0.05   0.02  -0.02    -0.05   0.02   0.04     0.01  -0.03   0.02
  23   6    -0.04  -0.02   0.00    -0.04  -0.00  -0.00     0.01  -0.02  -0.01
  24   6    -0.05  -0.03  -0.00    -0.08  -0.03   0.00    -0.01   0.00  -0.04
  25   6    -0.04  -0.07   0.02    -0.09  -0.06  -0.03    -0.03   0.02  -0.06
  26   6    -0.06  -0.07   0.01    -0.12  -0.08  -0.02    -0.04   0.04  -0.09
  27   6    -0.10  -0.02  -0.03    -0.14  -0.08   0.02    -0.05   0.05  -0.09
  28   6    -0.10   0.02  -0.05    -0.13  -0.05   0.05    -0.04   0.03  -0.06
  29   6    -0.08   0.01  -0.03    -0.10  -0.03   0.04    -0.02   0.01  -0.04
  30   7    -0.09   0.04  -0.05    -0.09  -0.00   0.07    -0.01  -0.01  -0.00
  31   6    -0.11   0.11  -0.10    -0.10   0.01   0.10    -0.00  -0.02   0.02
  32   6    -0.16   0.09  -0.13    -0.08   0.05   0.13     0.03  -0.05   0.02
  33   6    -0.21   0.17  -0.18    -0.10   0.06   0.17     0.04  -0.06   0.04
  34   6    -0.20   0.26  -0.20    -0.13   0.04   0.19     0.00  -0.03   0.06
  35   6    -0.15   0.27  -0.16    -0.14   0.00   0.16    -0.04  -0.01   0.05
  36   6    -0.10   0.19  -0.11    -0.13  -0.01   0.12    -0.04   0.00   0.03
  37   6    -0.02  -0.04   0.01    -0.01   0.01  -0.03     0.02  -0.03   0.00
  38   6     0.01  -0.05   0.02    -0.01  -0.01  -0.07     0.03  -0.03  -0.05
  39   6     0.01  -0.04   0.01    -0.01  -0.02  -0.06     0.03  -0.02  -0.05
  40   7     0.03  -0.03   0.02    -0.01  -0.01  -0.05     0.02  -0.03  -0.07
  41   6     0.03  -0.01   0.01    -0.03   0.00  -0.02    -0.00  -0.04  -0.03
  42   6     0.02   0.01   0.00    -0.05   0.01  -0.01     0.01  -0.06  -0.02
  43   6     0.03   0.02   0.01    -0.05   0.02   0.01    -0.02  -0.08   0.01
  44   6     0.04   0.03   0.02    -0.04   0.02   0.01    -0.06  -0.08   0.02
  45   6     0.05   0.02   0.03    -0.02   0.01  -0.01    -0.07  -0.06   0.01
  46   6     0.05  -0.00   0.03    -0.01   0.00  -0.03    -0.05  -0.05  -0.02
  47   6     0.05  -0.02   0.03     0.01  -0.01  -0.05    -0.05  -0.02  -0.03
  48   6     0.07  -0.02   0.05     0.03  -0.02  -0.06    -0.09  -0.01  -0.02
  49   8     0.09  -0.01   0.07     0.04  -0.01  -0.07    -0.16  -0.02   0.02
  50   6     0.09  -0.02   0.07     0.06  -0.02  -0.08    -0.17  -0.00   0.02
  51   6     0.10  -0.02   0.08     0.07  -0.02  -0.09    -0.22  -0.00   0.06
  52   6     0.11  -0.03   0.09     0.09  -0.03  -0.12    -0.24   0.02   0.05
  53   6     0.10  -0.05   0.09     0.10  -0.04  -0.13    -0.21   0.04   0.02
  54   6     0.09  -0.06   0.08     0.09  -0.04  -0.12    -0.16   0.04  -0.02
  55   6     0.08  -0.04   0.07     0.06  -0.03  -0.10    -0.13   0.02  -0.02
  56   6     0.07  -0.04   0.05     0.04  -0.03  -0.09    -0.08   0.01  -0.04
  57   6     0.06  -0.06   0.04     0.04  -0.04  -0.09    -0.04   0.02  -0.08
  58   6     0.05  -0.05   0.03     0.02  -0.03  -0.08     0.00   0.01  -0.09
  59   6     0.04  -0.03   0.03     0.01  -0.02  -0.06    -0.01  -0.01  -0.06
  60   6    -0.01  -0.01  -0.02     0.02  -0.01   0.02     0.03   0.03  -0.04
  61  16    -0.05  -0.01  -0.06     0.01  -0.01   0.04    -0.02   0.06  -0.13
  62   6    -0.03   0.02  -0.04     0.02   0.01   0.10    -0.00   0.07  -0.06
  63   6    -0.05   0.03  -0.06     0.02   0.02   0.13    -0.03   0.09  -0.08
  64   6    -0.04   0.05  -0.06     0.04   0.03   0.19    -0.01   0.11  -0.06
  65   6    -0.02   0.05  -0.05     0.05   0.03   0.21     0.02   0.12  -0.03
  66   6    -0.01   0.04  -0.04     0.05   0.03   0.17     0.04   0.10  -0.01
  67   6    -0.01   0.02  -0.03     0.04   0.01   0.11     0.03   0.08  -0.02
  68   6     0.00   0.01  -0.02     0.03   0.00   0.07     0.05   0.06  -0.01
  69   7     0.02   0.01  -0.00     0.05   0.00   0.08     0.09   0.06   0.03
  70   6     0.06  -0.03   0.04     0.07  -0.02  -0.01     0.15   0.00   0.09
  71   6     0.08  -0.03   0.05     0.08  -0.02  -0.01     0.18   0.00   0.14
  72   1     0.03  -0.00   0.02     0.02  -0.00   0.01     0.06   0.01   0.06
  73   1     0.03   0.01   0.01     0.02   0.00   0.03     0.05   0.03   0.05
  74   1     0.02   0.01   0.00     0.01   0.00   0.03     0.04   0.03   0.03
  75   1    -0.01  -0.01  -0.01     0.00  -0.01  -0.02     0.00  -0.00  -0.01
  76   1    -0.01  -0.02  -0.00    -0.00  -0.01  -0.03     0.00  -0.01  -0.01
  77   1     0.01  -0.03   0.01     0.01   0.00  -0.04     0.01  -0.01  -0.01
  78   1     0.02  -0.03   0.02     0.03   0.02  -0.05     0.02  -0.02   0.01
  79   1     0.02  -0.02   0.02     0.03   0.03  -0.04     0.02  -0.03   0.03
  80   1     0.01  -0.01   0.01     0.02   0.03  -0.02     0.02  -0.03   0.03
  81   1    -0.00   0.01   0.00     0.01   0.03   0.00     0.01  -0.02   0.03
  82   1    -0.02   0.02  -0.01    -0.01   0.02   0.02     0.01  -0.02   0.02
  83   1    -0.00  -0.03   0.01    -0.02  -0.02  -0.02    -0.01   0.00  -0.02
  84   1    -0.02  -0.03   0.01    -0.04  -0.03  -0.01    -0.02   0.01  -0.03
  85   1    -0.03  -0.00  -0.01    -0.05  -0.03   0.01    -0.02   0.02  -0.03
  86   1    -0.04   0.02  -0.02    -0.04  -0.02   0.02    -0.01   0.01  -0.02
  87   1    -0.05   0.01  -0.03    -0.02   0.02   0.03     0.02  -0.02   0.00
  88   1    -0.07   0.05  -0.06    -0.03   0.03   0.06     0.02  -0.02   0.01
  89   1    -0.07   0.10  -0.07    -0.04   0.01   0.06     0.00  -0.01   0.02
  90   1    -0.04   0.10  -0.05    -0.05  -0.00   0.05    -0.02   0.00   0.02
  91   1    -0.02   0.06  -0.02    -0.04  -0.01   0.03    -0.02   0.01   0.01
  92   1     0.01  -0.01   0.01    -0.00  -0.00  -0.02     0.01  -0.01  -0.02
  93   1     0.00   0.00  -0.00    -0.02   0.00  -0.00     0.01  -0.02  -0.01
  94   1     0.01   0.01  -0.00    -0.02   0.01   0.01    -0.00  -0.03   0.00
  95   1     0.01   0.01   0.01    -0.01   0.01   0.01    -0.02  -0.03   0.01
  96   1     0.02   0.01   0.01    -0.00   0.00  -0.00    -0.03  -0.02   0.01
  97   1     0.03  -0.00   0.02     0.02  -0.00  -0.02    -0.07  -0.01   0.02
  98   1     0.03  -0.01   0.03     0.03  -0.01  -0.04    -0.08   0.00   0.02
  99   1     0.03  -0.02   0.03     0.04  -0.01  -0.04    -0.07   0.02   0.01
 100   1     0.03  -0.02   0.02     0.03  -0.01  -0.04    -0.04   0.02  -0.01
 101   1     0.02  -0.02   0.01     0.02  -0.01  -0.03    -0.01   0.01  -0.03
 102   1     0.01  -0.02   0.01     0.01  -0.01  -0.02     0.01   0.00  -0.03
 103   1    -0.02   0.01  -0.02     0.00   0.01   0.03    -0.01   0.02  -0.03
 104   1    -0.02   0.02  -0.02     0.01   0.01   0.06    -0.01   0.04  -0.02
 105   1    -0.01   0.02  -0.02     0.02   0.01   0.08     0.01   0.04  -0.00
 106   1     0.00   0.01  -0.01     0.02   0.01   0.05     0.02   0.03   0.01
 107   1     0.02  -0.01   0.01     0.02  -0.01  -0.01     0.04  -0.01   0.02
 108   1     0.03  -0.01   0.02     0.03  -0.01  -0.01     0.05  -0.01   0.05
                      4                      5                      6
                        a                      a                      a 
 Frequencies --    17.9608                22.1184                28.4354
 Red. masses --    11.6268                11.6105                11.1737
 Frc consts  --     0.0000                 0.0000                 0.0000
 IR Inten    --     0.2317                 0.8860                 0.1171
 Raman Activ --     0.0000                 0.0000                 0.0000
 Depolar     --     0.0000                 0.0000                 0.0000
 Atom AN      X      Y      Z        X      Y      Z        X      Y      Z
   1   6    -0.01   0.01  -0.23     0.14   0.01  -0.10    -0.05   0.02   0.17
   2   6     0.02  -0.01  -0.32     0.15   0.03  -0.19    -0.07   0.03   0.25
   3   6     0.03  -0.01  -0.28     0.12   0.03  -0.16    -0.06   0.02   0.19
   4   6     0.01   0.01  -0.16     0.08   0.02  -0.03    -0.03   0.02   0.05
   5   6     0.01   0.01  -0.11     0.05   0.02  -0.00    -0.02   0.01  -0.00
   6   7     0.01   0.01  -0.10     0.05  -0.00   0.07    -0.03   0.02  -0.06
   7   6     0.01   0.01  -0.05     0.02  -0.00   0.08    -0.02   0.02  -0.05
   8   6     0.01  -0.00  -0.05     0.02  -0.02   0.09    -0.01   0.02  -0.02
   9   6     0.00  -0.00  -0.04     0.02  -0.02   0.08    -0.02   0.01  -0.02
  10   6    -0.00  -0.01  -0.04     0.01  -0.02   0.06    -0.02   0.01  -0.00
  11   6     0.00  -0.02  -0.04     0.01  -0.02   0.06    -0.00   0.01   0.02
  12   7     0.01  -0.03  -0.03     0.01  -0.02   0.03    -0.01  -0.01   0.03
  13   6     0.01  -0.03  -0.02    -0.01   0.03  -0.04    -0.03   0.01  -0.01
  14   6     0.02  -0.03  -0.03    -0.01   0.04  -0.04    -0.05   0.06  -0.05
  15   6     0.03  -0.04  -0.01    -0.03   0.10  -0.12    -0.07   0.08  -0.08
  16   6     0.03  -0.04   0.00    -0.04   0.14  -0.19    -0.07   0.05  -0.07
  17   6     0.03  -0.04   0.01    -0.04   0.13  -0.18    -0.05   0.01  -0.03
  18   6     0.02  -0.03  -0.00    -0.02   0.07  -0.10    -0.03  -0.01   0.00
  19   6     0.01  -0.03  -0.00    -0.01   0.05  -0.07    -0.00  -0.04   0.04
  20   6     0.01  -0.03   0.01    -0.02   0.08  -0.10     0.01  -0.07   0.06
  21   6     0.00  -0.03   0.01    -0.02   0.05  -0.06     0.02  -0.09   0.08
  22   6    -0.00  -0.03  -0.00     0.00   0.00   0.00     0.03  -0.08   0.08
  23   6    -0.00  -0.03  -0.01     0.01  -0.02   0.03     0.02  -0.06   0.07
  24   6    -0.01  -0.03  -0.02     0.03  -0.06   0.07     0.03  -0.05   0.07
  25   6    -0.02  -0.03  -0.03     0.04  -0.09   0.09     0.02  -0.03   0.06
  26   6    -0.03  -0.03  -0.03     0.05  -0.12   0.14     0.03  -0.04   0.06
  27   6    -0.04  -0.02  -0.03     0.06  -0.14   0.16     0.04  -0.05   0.07
  28   6    -0.03  -0.02  -0.02     0.04  -0.11   0.13     0.04  -0.07   0.08
  29   6    -0.02  -0.02  -0.02     0.03  -0.07   0.08     0.04  -0.07   0.08
  30   7    -0.02  -0.02  -0.01     0.01  -0.03   0.05     0.04  -0.09   0.09
  31   6    -0.02  -0.02  -0.00    -0.00  -0.00   0.02     0.02  -0.04   0.02
  32   6    -0.01  -0.02   0.00    -0.07   0.06   0.01    -0.03  -0.06  -0.03
  33   6    -0.02  -0.01   0.01    -0.09   0.10  -0.01    -0.07   0.00  -0.10
  34   6    -0.03   0.00   0.01    -0.04   0.06  -0.03    -0.04   0.10  -0.12
  35   6    -0.04   0.01   0.01     0.03  -0.00  -0.02     0.02   0.12  -0.07
  36   6    -0.03  -0.00   0.00     0.05  -0.04   0.00     0.05   0.05  -0.00
  37   6     0.00  -0.03  -0.01     0.00   0.00   0.00     0.00  -0.04   0.05
  38   6     0.01  -0.02  -0.05     0.01  -0.02   0.07     0.01   0.02   0.03
  39   6     0.01  -0.01  -0.05     0.01  -0.02   0.08     0.01   0.02   0.00
  40   7     0.03  -0.01  -0.06     0.00  -0.03   0.08     0.02   0.02  -0.01
  41   6     0.03  -0.00  -0.07     0.02  -0.06   0.05     0.07  -0.01  -0.09
  42   6     0.04   0.00  -0.09     0.04  -0.08   0.06     0.11  -0.03  -0.11
  43   6     0.05   0.01  -0.09     0.04  -0.11   0.03     0.16  -0.06  -0.20
  44   6     0.05   0.01  -0.07     0.03  -0.12   0.01     0.19  -0.07  -0.26
  45   6     0.04   0.01  -0.05     0.00  -0.10   0.01     0.15  -0.06  -0.23
  46   6     0.03   0.00  -0.04    -0.00  -0.07   0.03     0.09  -0.03  -0.13
  47   6     0.02   0.00  -0.02    -0.02  -0.04   0.03     0.04  -0.00  -0.07
  48   6    -0.00   0.01   0.03    -0.04  -0.04   0.01     0.02   0.00  -0.06
  49   8    -0.02   0.02   0.07    -0.05  -0.07  -0.02     0.05  -0.01  -0.14
  50   6    -0.05   0.02   0.12    -0.06  -0.04  -0.03     0.00   0.01  -0.07
  51   6    -0.07   0.03   0.17    -0.07  -0.05  -0.07    -0.00  -0.00  -0.10
  52   6    -0.11   0.03   0.23    -0.09  -0.03  -0.08    -0.06   0.02  -0.04
  53   6    -0.11   0.02   0.24    -0.09  -0.00  -0.06    -0.11   0.05   0.04
  54   6    -0.09   0.01   0.18    -0.08   0.01  -0.03    -0.10   0.05   0.07
  55   6    -0.05   0.01   0.12    -0.07  -0.01  -0.01    -0.05   0.03   0.01
  56   6    -0.02   0.00   0.06    -0.05  -0.01   0.02    -0.04   0.03   0.01
  57   6    -0.02  -0.01   0.05    -0.05   0.01   0.05    -0.07   0.05   0.08
  58   6     0.00  -0.01   0.00    -0.03   0.01   0.07    -0.05   0.05   0.07
  59   6     0.01  -0.01  -0.02    -0.02  -0.02   0.06     0.00   0.02  -0.00
  60   6     0.02   0.02  -0.00     0.01   0.02   0.06    -0.02   0.01  -0.04
  61  16     0.03   0.04   0.14    -0.03   0.05   0.16    -0.03   0.02  -0.08
  62   6     0.03   0.04   0.13    -0.03   0.06   0.01    -0.00   0.01   0.01
  63   6     0.04   0.05   0.22    -0.05   0.08  -0.02     0.01   0.01   0.05
  64   6     0.05   0.06   0.25    -0.06   0.10  -0.10     0.02   0.00   0.11
  65   6     0.05   0.06   0.20    -0.05   0.11  -0.15     0.02   0.00   0.14
  66   6     0.04   0.05   0.11    -0.02   0.09  -0.13     0.01   0.01   0.10
  67   6     0.03   0.04   0.07    -0.01   0.06  -0.04    -0.00   0.01   0.03
  68   6     0.02   0.03  -0.01     0.01   0.04  -0.01    -0.01   0.01   0.00
  69   7     0.02   0.03  -0.08     0.03   0.04  -0.05    -0.01   0.01   0.03
  70   6    -0.02   0.03  -0.08     0.07   0.00   0.06    -0.01   0.01  -0.03
  71   6    -0.03   0.03  -0.11     0.10  -0.00   0.03    -0.02   0.01   0.03
  72   1    -0.01   0.00  -0.07     0.05   0.00  -0.03    -0.02   0.01   0.06
  73   1     0.01  -0.01  -0.12     0.05   0.01  -0.09    -0.03   0.01   0.11
  74   1     0.01  -0.01  -0.10     0.04   0.01  -0.07    -0.02   0.01   0.07
  75   1    -0.00   0.00  -0.01     0.01  -0.01   0.02    -0.01   0.00  -0.01
  76   1    -0.00  -0.00  -0.01     0.00  -0.01   0.01    -0.01   0.00  -0.00
  77   1     0.00  -0.01  -0.01    -0.00   0.00   0.00    -0.01   0.02  -0.02
  78   1     0.01  -0.01  -0.01    -0.01   0.03  -0.04    -0.02   0.03  -0.03
  79   1     0.01  -0.01   0.00    -0.02   0.05  -0.07    -0.02   0.02  -0.03
  80   1     0.01  -0.01   0.01    -0.01   0.05  -0.07    -0.01  -0.00  -0.01
  81   1     0.01  -0.01   0.01    -0.01   0.03  -0.05    -0.00  -0.02   0.02
  82   1     0.00  -0.01   0.01    -0.01   0.02  -0.02     0.01  -0.03   0.03
  83   1    -0.00  -0.01  -0.01     0.01  -0.02   0.02     0.00  -0.01   0.01
  84   1    -0.01  -0.01  -0.01     0.02  -0.04   0.04     0.01  -0.01   0.01
  85   1    -0.01  -0.01  -0.01     0.02  -0.05   0.06     0.01  -0.02   0.02
  86   1    -0.01  -0.00  -0.01     0.01  -0.03   0.04     0.01  -0.02   0.03
  87   1    -0.00  -0.01  -0.00    -0.03   0.03   0.01    -0.02  -0.04  -0.00
  88   1    -0.00  -0.01   0.00    -0.04   0.04  -0.00    -0.03  -0.00  -0.04
  89   1    -0.01   0.00   0.00    -0.02   0.03  -0.01    -0.02   0.04  -0.05
  90   1    -0.02   0.01   0.00     0.02  -0.01  -0.01     0.01   0.05  -0.03
  91   1    -0.01   0.00   0.00     0.03  -0.03   0.00     0.03   0.02   0.01
  92   1     0.01  -0.01  -0.01     0.00  -0.01   0.02     0.01   0.01   0.01
  93   1     0.01  -0.00  -0.03     0.01  -0.02   0.02     0.03  -0.01  -0.02
  94   1     0.02   0.00  -0.03     0.02  -0.04   0.01     0.06  -0.02  -0.07
  95   1     0.01   0.00  -0.02     0.01  -0.04  -0.00     0.07  -0.03  -0.10
  96   1     0.01   0.00  -0.01    -0.00  -0.03  -0.00     0.05  -0.02  -0.08
  97   1    -0.02   0.01   0.05    -0.02  -0.02  -0.02     0.01  -0.01  -0.05
  98   1    -0.04   0.01   0.08    -0.03  -0.01  -0.03    -0.02   0.00  -0.02
  99   1    -0.04   0.01   0.08    -0.03   0.00  -0.02    -0.04   0.02   0.02
 100   1    -0.03   0.00   0.05    -0.02   0.01  -0.00    -0.04   0.02   0.04
 101   1    -0.01  -0.00   0.02    -0.02   0.01   0.01    -0.03   0.02   0.04
 102   1     0.00  -0.01  -0.00    -0.01   0.01   0.03    -0.02   0.02   0.03
 103   1     0.01   0.01   0.08    -0.02   0.02   0.01     0.00   0.00   0.01
 104   1     0.02   0.02   0.09    -0.02   0.03  -0.04     0.01   0.00   0.04
 105   1     0.02   0.02   0.06    -0.02   0.04  -0.06     0.01   0.00   0.05
 106   1     0.01   0.02   0.02    -0.00   0.03  -0.05     0.00   0.00   0.03
 107   1    -0.01   0.01   0.00     0.01  -0.00   0.04     0.00   0.00  -0.04
 108   1    -0.02   0.01  -0.01     0.03  -0.00   0.03    -0.00   0.00  -0.01
                      7                      8                      9
                        a                      a                      a 
 Frequencies --    30.2508                38.6938                39.7066
 Red. masses --    11.0293                11.5051                14.2724
 Frc consts  --     0.0000                 0.0000                 0.0000
 IR Inten    --     0.1657                 0.9695                 1.8117
 Raman Activ --     0.0000                 0.0000                 0.0000
 Depolar     --     0.0000                 0.0000                 0.0000
 Atom AN      X      Y      Z        X      Y      Z        X      Y      Z
   1   6     0.05  -0.00   0.09     0.19  -0.07   0.02     0.09  -0.03  -0.05
   2   6     0.03   0.02   0.10     0.18  -0.01  -0.09     0.08  -0.00  -0.08
   3   6     0.01   0.02   0.07     0.10  -0.00  -0.09     0.04  -0.00  -0.07
   4   6     0.01  -0.00   0.02     0.03  -0.06   0.01     0.01  -0.03  -0.03
   5   6    -0.01  -0.01  -0.01    -0.02  -0.06  -0.01    -0.02  -0.03  -0.03
   6   7    -0.02  -0.02  -0.03    -0.04  -0.09  -0.00    -0.04  -0.04  -0.08
   7   6    -0.03  -0.02  -0.02    -0.05  -0.08  -0.02    -0.06  -0.04  -0.11
   8   6    -0.03  -0.02  -0.01    -0.05  -0.07  -0.01    -0.05  -0.03  -0.10
   9   6    -0.02  -0.02   0.00    -0.03  -0.06  -0.03    -0.04  -0.02  -0.09
  10   6    -0.02  -0.01   0.02    -0.00  -0.02  -0.00    -0.01   0.01  -0.03
  11   6    -0.01  -0.01   0.02    -0.01   0.02   0.03     0.00   0.03   0.01
  12   7    -0.01   0.00   0.03     0.00   0.05   0.03     0.02   0.05   0.04
  13   6     0.01  -0.02   0.06    -0.00   0.07  -0.01     0.02   0.04   0.05
  14   6     0.04  -0.11   0.16    -0.02   0.12  -0.06     0.02   0.03   0.06
  15   6     0.06  -0.12   0.19    -0.03   0.15  -0.11     0.03   0.01   0.08
  16   6     0.04  -0.06   0.12    -0.03   0.14  -0.10     0.03   0.01   0.09
  17   6     0.01   0.03   0.02    -0.01   0.09  -0.04     0.02   0.03   0.07
  18   6    -0.01   0.05  -0.01    -0.00   0.06   0.01     0.02   0.04   0.05
  19   6    -0.03   0.11  -0.10     0.01   0.03   0.05     0.01   0.05   0.04
  20   6    -0.06   0.19  -0.19     0.02  -0.00   0.07     0.02   0.04   0.03
  21   6    -0.08   0.21  -0.22     0.03  -0.01   0.07     0.03   0.03   0.04
  22   6    -0.06   0.15  -0.15     0.02   0.03   0.03     0.04   0.02   0.06
  23   6    -0.04   0.10  -0.09     0.02   0.04   0.03     0.03   0.04   0.05
  24   6    -0.02   0.06  -0.04     0.01   0.09  -0.01     0.05   0.02   0.08
  25   6     0.01   0.00   0.01     0.00   0.12  -0.02     0.04   0.04   0.06
  26   6     0.03  -0.04   0.06    -0.01   0.18  -0.08     0.08  -0.01   0.12
  27   6     0.02  -0.03   0.05    -0.02   0.21  -0.14     0.12  -0.08   0.20
  28   6    -0.01   0.03  -0.01    -0.01   0.18  -0.12     0.12  -0.08   0.20
  29   6    -0.03   0.07  -0.06     0.01   0.11  -0.05     0.08  -0.03   0.13
  30   7    -0.06   0.14  -0.14     0.02   0.08  -0.02     0.08  -0.02   0.11
  31   6    -0.03   0.07  -0.05     0.04   0.04  -0.01     0.07   0.00   0.04
  32   6    -0.02   0.18   0.02     0.13  -0.08  -0.02    -0.05   0.06  -0.00
  33   6     0.04   0.08   0.10     0.16  -0.13  -0.02    -0.06   0.09  -0.08
  34   6     0.08  -0.14   0.11     0.10  -0.05  -0.00     0.06   0.06  -0.12
  35   6     0.06  -0.25   0.05     0.00   0.08   0.01     0.18  -0.00  -0.08
  36   6     0.00  -0.14  -0.04    -0.03   0.12   0.00     0.18  -0.03  -0.00
  37   6    -0.03   0.07  -0.06     0.01   0.03   0.05     0.02   0.05   0.04
  38   6    -0.01  -0.02   0.02    -0.03   0.01   0.04    -0.01   0.01  -0.02
  39   6    -0.02  -0.02   0.00    -0.05  -0.03   0.02    -0.04  -0.02  -0.08
  40   7    -0.01  -0.02  -0.01    -0.07  -0.03   0.03    -0.04  -0.02  -0.08
  41   6     0.02  -0.03  -0.05    -0.03  -0.02  -0.01    -0.06   0.01  -0.04
  42   6     0.04  -0.03  -0.07    -0.02  -0.02  -0.04    -0.08   0.02  -0.04
  43   6     0.08  -0.04  -0.13     0.01  -0.02  -0.08    -0.11   0.05   0.01
  44   6     0.10  -0.04  -0.16     0.03  -0.02  -0.09    -0.13   0.06   0.07
  45   6     0.09  -0.04  -0.14     0.02  -0.02  -0.06    -0.10   0.05   0.06
  46   6     0.05  -0.03  -0.08    -0.02  -0.02  -0.01    -0.07   0.02   0.00
  47   6     0.02  -0.03  -0.04    -0.03  -0.03   0.02    -0.05  -0.00  -0.02
  48   6     0.02  -0.03  -0.02    -0.02  -0.03   0.03    -0.03  -0.01  -0.01
  49   8     0.06  -0.03  -0.06     0.03  -0.03  -0.00    -0.05   0.01   0.04
  50   6     0.03  -0.03  -0.01     0.04  -0.04   0.00    -0.02  -0.00   0.02
  51   6     0.04  -0.03  -0.02     0.09  -0.04  -0.03    -0.02   0.01   0.06
  52   6     0.02  -0.03   0.03     0.11  -0.05  -0.02     0.01  -0.01   0.04
  53   6    -0.02  -0.03   0.08     0.07  -0.07   0.03     0.03  -0.04  -0.01
  54   6    -0.03  -0.03   0.08     0.02  -0.06   0.06     0.03  -0.05  -0.04
  55   6    -0.01  -0.03   0.04     0.00  -0.05   0.05     0.00  -0.03  -0.03
  56   6    -0.01  -0.03   0.03    -0.03  -0.04   0.07    -0.00  -0.03  -0.05
  57   6    -0.04  -0.02   0.07    -0.07  -0.05   0.10     0.01  -0.05  -0.08
  58   6    -0.04  -0.02   0.06    -0.09  -0.04   0.09    -0.01  -0.04  -0.09
  59   6    -0.01  -0.02   0.01    -0.06  -0.03   0.05    -0.03  -0.02  -0.07
  60   6    -0.03  -0.01  -0.02    -0.07  -0.06  -0.02    -0.06  -0.03  -0.12
  61  16    -0.08  -0.01  -0.02    -0.14  -0.09   0.00    -0.16  -0.05  -0.36
  62   6    -0.04   0.01   0.01    -0.08  -0.03   0.02    -0.07  -0.01  -0.08
  63   6    -0.04   0.02   0.03    -0.09  -0.01   0.05    -0.07   0.00  -0.04
  64   6    -0.04   0.04   0.06    -0.08   0.01   0.08    -0.04   0.02   0.11
  65   6    -0.02   0.04   0.06    -0.06   0.02   0.06    -0.00   0.03   0.21
  66   6    -0.02   0.03   0.04    -0.05  -0.00   0.03    -0.00   0.02   0.16
  67   6    -0.03   0.02   0.01    -0.06  -0.02   0.01    -0.03  -0.00   0.01
  68   6    -0.02   0.01  -0.00    -0.05  -0.04  -0.01    -0.04  -0.02  -0.03
  69   7    -0.01   0.01   0.00    -0.04  -0.04  -0.02    -0.02  -0.01   0.01
  70   6     0.03  -0.03   0.01     0.05  -0.12   0.12     0.02  -0.06   0.00
  71   6     0.04  -0.03   0.04     0.13  -0.13   0.12     0.06  -0.06  -0.01
  72   1     0.02  -0.00   0.03     0.07  -0.02   0.01     0.03  -0.01  -0.02
  73   1     0.01   0.01   0.04     0.07   0.01  -0.05     0.03   0.01  -0.03
  74   1     0.00   0.01   0.02     0.03   0.01  -0.05     0.01   0.01  -0.03
  75   1    -0.01  -0.01  -0.00    -0.01  -0.03  -0.02    -0.01  -0.01  -0.03
  76   1    -0.00  -0.00   0.01     0.01  -0.00  -0.00     0.00   0.01  -0.00
  77   1     0.01  -0.05   0.06    -0.01   0.04  -0.02     0.01   0.01   0.02
  78   1     0.02  -0.05   0.08    -0.01   0.06  -0.05     0.01   0.00   0.03
  79   1     0.02  -0.02   0.04    -0.01   0.05  -0.04     0.01   0.00   0.03
  80   1     0.00   0.02  -0.01    -0.00   0.03  -0.01     0.01   0.01   0.02
  81   1    -0.02   0.06  -0.07     0.00  -0.01   0.03     0.00   0.01   0.01
  82   1    -0.03   0.07  -0.08     0.01  -0.01   0.03     0.01   0.01   0.01
  83   1     0.00  -0.00   0.01     0.00   0.03   0.00     0.00   0.03  -0.00
  84   1     0.01  -0.02   0.03    -0.00   0.06  -0.03     0.02   0.00   0.03
  85   1     0.01  -0.02   0.03    -0.01   0.08  -0.06     0.05  -0.04   0.08
  86   1    -0.00   0.01  -0.00    -0.01   0.06  -0.05     0.04  -0.04   0.07
  87   1    -0.01   0.10   0.00     0.05  -0.04  -0.01    -0.04   0.02   0.01
  88   1     0.01   0.05   0.04     0.07  -0.07  -0.01    -0.04   0.04  -0.03
  89   1     0.04  -0.07   0.05     0.04  -0.03  -0.00     0.01   0.02  -0.05
  90   1     0.03  -0.12   0.02    -0.01   0.04   0.01     0.08  -0.01  -0.03
  91   1    -0.00  -0.06  -0.03    -0.03   0.06   0.00     0.08  -0.02   0.01
  92   1    -0.00  -0.00   0.01    -0.01   0.01   0.02    -0.00   0.01  -0.00
  93   1     0.01  -0.01  -0.01    -0.01  -0.01  -0.01    -0.02   0.00  -0.02
  94   1     0.03  -0.01  -0.04     0.01  -0.00  -0.03    -0.04   0.02   0.01
  95   1     0.04  -0.01  -0.06     0.02  -0.00  -0.04    -0.04   0.03   0.03
  96   1     0.03  -0.01  -0.05     0.01  -0.01  -0.02    -0.03   0.02   0.03
  97   1     0.02  -0.01  -0.02     0.04  -0.01  -0.02    -0.01   0.01   0.03
  98   1     0.01  -0.01   0.01     0.04  -0.02  -0.01     0.00  -0.00   0.02
  99   1    -0.01  -0.01   0.03     0.02  -0.02   0.01     0.02  -0.02  -0.01
 100   1    -0.02  -0.01   0.04    -0.00  -0.02   0.03     0.02  -0.02  -0.02
 101   1    -0.02  -0.01   0.03    -0.03  -0.02   0.04     0.01  -0.02  -0.03
 102   1    -0.02  -0.01   0.02    -0.03  -0.01   0.03     0.00  -0.02  -0.03
 103   1    -0.02   0.01   0.01    -0.03  -0.00   0.02    -0.03  -0.00  -0.03
 104   1    -0.01   0.01   0.02    -0.02   0.01   0.03    -0.01   0.01   0.04
 105   1    -0.00   0.01   0.02    -0.01   0.01   0.02     0.01   0.01   0.09
 106   1    -0.00   0.01   0.01    -0.01   0.00   0.01     0.01   0.01   0.07
 107   1     0.01  -0.01  -0.01    -0.00  -0.05   0.05    -0.00  -0.02   0.01
 108   1     0.02  -0.01   0.01     0.04  -0.05   0.06     0.02  -0.02   0.01
                     10                     11                     12
                        a                      a                      a 
 Frequencies --    42.8072                49.2717                54.5854
 Red. masses --    11.6420                15.3061                10.8700
 Frc consts  --     0.0000                 0.0000                 0.0000
 IR Inten    --     0.0381                 0.3739                 0.0811
 Raman Activ --     0.0000                 0.0000                 0.0000
 Depolar     --     0.0000                 0.0000                 0.0000
 Atom AN      X      Y      Z        X      Y      Z        X      Y      Z
   1   6    -0.06   0.03   0.04     0.09  -0.01   0.22    -0.04   0.00  -0.02
   2   6    -0.09   0.02   0.18     0.08   0.05   0.10    -0.04  -0.02   0.01
   3   6    -0.06   0.02   0.14     0.02   0.05  -0.02    -0.01  -0.02   0.02
   4   6    -0.01   0.02  -0.03    -0.01  -0.02  -0.04     0.00   0.00   0.00
   5   6     0.00   0.02  -0.04    -0.05  -0.02  -0.12     0.02   0.00   0.01
   6   7    -0.00   0.02  -0.04    -0.04  -0.02  -0.07     0.02   0.00   0.02
   7   6    -0.00   0.01   0.01    -0.02  -0.01  -0.04     0.02   0.00   0.01
   8   6    -0.00  -0.01   0.02    -0.02   0.00  -0.05     0.01  -0.00  -0.00
   9   6     0.02   0.03   0.11     0.00   0.01  -0.06    -0.01  -0.02  -0.04
  10   6     0.03   0.02   0.13     0.01   0.03  -0.07    -0.02  -0.03  -0.05
  11   6     0.00  -0.01   0.06    -0.01   0.04  -0.08    -0.00  -0.02  -0.02
  12   7     0.01   0.00   0.07    -0.00   0.05  -0.08     0.00  -0.01   0.00
  13   6     0.00   0.03   0.02     0.01   0.02  -0.03     0.06   0.01  -0.01
  14   6    -0.01   0.05   0.01     0.02   0.01  -0.02     0.10   0.00  -0.07
  15   6    -0.02   0.09  -0.06     0.04  -0.04   0.05     0.16   0.04  -0.08
  16   6    -0.03   0.13  -0.11     0.05  -0.08   0.11     0.17   0.08  -0.03
  17   6    -0.02   0.10  -0.09     0.05  -0.06   0.10     0.13   0.08   0.04
  18   6    -0.01   0.06  -0.02     0.02  -0.01   0.02     0.07   0.05   0.04
  19   6    -0.00   0.04   0.01     0.02   0.00   0.01     0.02   0.05   0.08
  20   6     0.00   0.04  -0.00     0.02  -0.02   0.04     0.01   0.07   0.12
  21   6     0.01   0.02   0.02     0.02  -0.02   0.04    -0.05   0.08   0.12
  22   6     0.02   0.01   0.03     0.01  -0.01   0.02    -0.09   0.06   0.08
  23   6     0.02   0.02   0.04     0.00   0.02  -0.02    -0.08   0.02   0.06
  24   6     0.02   0.04   0.03     0.00   0.01  -0.01    -0.11   0.01   0.05
  25   6     0.01   0.07   0.01    -0.01   0.02  -0.04    -0.11  -0.03   0.05
  26   6     0.01   0.09  -0.01     0.01  -0.02   0.01    -0.14  -0.04   0.05
  27   6     0.03   0.08  -0.01     0.03  -0.07   0.08    -0.17  -0.02   0.07
  28   6     0.03   0.05   0.01     0.04  -0.07   0.09    -0.16   0.02   0.07
  29   6     0.03   0.03   0.03     0.02  -0.03   0.04    -0.14   0.04   0.06
  30   7     0.03   0.02   0.03     0.03  -0.04   0.06    -0.14   0.09   0.06
  31   6     0.03   0.02   0.02     0.02  -0.02   0.02    -0.10   0.04  -0.01
  32   6     0.02   0.01   0.01    -0.05   0.02   0.01    -0.13  -0.05  -0.08
  33   6     0.02   0.02   0.01    -0.06   0.05  -0.03     0.01  -0.24  -0.21
  34   6     0.03   0.02   0.00    -0.01   0.04  -0.05     0.18  -0.33  -0.27
  35   6     0.04   0.03   0.01     0.06  -0.01  -0.04     0.19  -0.19  -0.19
  36   6     0.04   0.02   0.02     0.07  -0.03   0.00     0.04   0.00  -0.06
  37   6     0.01   0.02   0.04     0.00   0.03  -0.04    -0.02   0.02   0.05
  38   6    -0.02  -0.06  -0.03    -0.03   0.03  -0.08     0.01  -0.01   0.01
  39   6    -0.03  -0.06  -0.05    -0.04   0.01  -0.07     0.02   0.00   0.01
  40   7    -0.02  -0.09  -0.11    -0.06   0.02  -0.06     0.03   0.01   0.02
  41   6    -0.04  -0.06  -0.06    -0.05   0.04  -0.06     0.02   0.00   0.02
  42   6    -0.10  -0.04  -0.01    -0.05   0.05  -0.08     0.02  -0.00   0.02
  43   6    -0.11  -0.02   0.02    -0.05   0.06  -0.08     0.02  -0.00   0.02
  44   6    -0.07  -0.02  -0.00    -0.04   0.07  -0.06     0.02  -0.01   0.02
  45   6    -0.02  -0.04  -0.05    -0.05   0.06  -0.03     0.02  -0.00   0.01
  46   6    -0.01  -0.06  -0.08    -0.05   0.04  -0.03     0.02   0.00   0.01
  47   6     0.03  -0.09  -0.13    -0.05   0.03  -0.01     0.02   0.00   0.01
  48   6     0.05  -0.09  -0.10    -0.04   0.03   0.00     0.02   0.00  -0.00
  49   8     0.04  -0.07  -0.03    -0.03   0.05   0.01     0.01  -0.00  -0.00
  50   6     0.02  -0.07   0.05    -0.00   0.03  -0.00    -0.00   0.00  -0.00
  51   6    -0.02  -0.04   0.18     0.03   0.03  -0.01    -0.02   0.00   0.00
  52   6    -0.03  -0.07   0.26     0.06   0.01  -0.03    -0.03   0.01   0.00
  53   6    -0.01  -0.11   0.20     0.06  -0.01  -0.04    -0.02   0.02  -0.00
  54   6     0.04  -0.14   0.07     0.02  -0.01  -0.02    -0.01   0.02  -0.01
  55   6     0.05  -0.12  -0.01    -0.01   0.01  -0.01     0.00   0.01  -0.01
  56   6     0.07  -0.13  -0.11    -0.04   0.01  -0.00     0.02   0.01  -0.01
  57   6     0.08  -0.15  -0.16    -0.04  -0.00  -0.01     0.02   0.02  -0.01
  58   6     0.06  -0.15  -0.17    -0.05   0.00  -0.02     0.03   0.01   0.00
  59   6     0.03  -0.11  -0.14    -0.06   0.02  -0.03     0.03   0.01   0.01
  60   6     0.00   0.02   0.04    -0.00  -0.01   0.02     0.02   0.00   0.02
  61  16     0.01   0.05   0.17     0.09  -0.01   0.45     0.02   0.01   0.05
  62   6    -0.01   0.04   0.04     0.03  -0.02   0.14     0.01   0.01   0.01
  63   6    -0.02   0.04   0.03     0.05  -0.02   0.23     0.00   0.01  -0.00
  64   6    -0.03   0.05  -0.05     0.02  -0.04   0.07    -0.00   0.02  -0.02
  65   6    -0.03   0.05  -0.12    -0.04  -0.04  -0.18     0.00   0.02  -0.03
  66   6    -0.02   0.05  -0.10    -0.06  -0.04  -0.25     0.01   0.01  -0.02
  67   6    -0.01   0.04  -0.02    -0.03  -0.03  -0.08     0.01   0.01   0.00
  68   6    -0.00   0.03  -0.01    -0.04  -0.02  -0.12     0.02   0.00   0.01
  69   7     0.00   0.03  -0.04    -0.07  -0.03  -0.22     0.02   0.00   0.01
  70   6     0.01   0.03  -0.17     0.00  -0.08   0.07    -0.00   0.02  -0.03
  71   6    -0.01   0.03  -0.14     0.05  -0.07   0.20    -0.02   0.02  -0.04
  72   1    -0.02   0.01   0.02     0.04  -0.00   0.09    -0.02   0.00  -0.01
  73   1    -0.04   0.00   0.09     0.03   0.03   0.03    -0.01  -0.01   0.01
  74   1    -0.02   0.00   0.07     0.00   0.03  -0.03    -0.00  -0.01   0.01
  75   1     0.01   0.02   0.05     0.01  -0.00  -0.02    -0.01  -0.01  -0.02
  76   1     0.01   0.02   0.06     0.01   0.01  -0.02    -0.01  -0.01  -0.02
  77   1     0.00   0.01   0.02     0.00   0.01  -0.02     0.03  -0.01  -0.03
  78   1    -0.01   0.03  -0.02     0.01  -0.02   0.02     0.05   0.01  -0.04
  79   1    -0.01   0.05  -0.05     0.02  -0.03   0.05     0.06   0.03  -0.01
  80   1    -0.01   0.04  -0.04     0.02  -0.03   0.04     0.04   0.03   0.02
  81   1    -0.00   0.01  -0.01     0.01  -0.01   0.02     0.01   0.02   0.04
  82   1     0.00   0.01   0.00     0.01  -0.01   0.02    -0.02   0.03   0.04
  83   1    -0.00   0.02  -0.00    -0.01   0.02  -0.03    -0.02  -0.01   0.01
  84   1     0.00   0.03  -0.01    -0.00  -0.00  -0.00    -0.04  -0.02   0.01
  85   1     0.01   0.03  -0.01     0.01  -0.03   0.03    -0.05  -0.01   0.02
  86   1     0.01   0.01   0.00     0.02  -0.03   0.04    -0.05   0.01   0.02
  87   1     0.01   0.00   0.01    -0.03   0.01   0.01    -0.07  -0.00  -0.01
  88   1     0.00   0.00   0.00    -0.03   0.02  -0.01    -0.00  -0.10  -0.08
  89   1     0.01   0.01  -0.00    -0.00   0.02  -0.02     0.09  -0.14  -0.11
  90   1     0.01   0.01   0.00     0.03  -0.00  -0.01     0.09  -0.07  -0.07
  91   1     0.01   0.01   0.01     0.04  -0.02   0.01     0.01   0.03  -0.00
  92   1    -0.01  -0.03  -0.03    -0.01   0.01  -0.03     0.01  -0.00   0.01
  93   1    -0.04  -0.01   0.00    -0.02   0.01  -0.03     0.01   0.00   0.01
  94   1    -0.04   0.00   0.02    -0.01   0.02  -0.03     0.01  -0.00   0.01
  95   1    -0.02  -0.00   0.01    -0.01   0.02  -0.02     0.01  -0.00   0.00
  96   1     0.00  -0.01  -0.02    -0.01   0.02  -0.00     0.01  -0.00   0.00
  97   1    -0.01  -0.00   0.06     0.01   0.01  -0.00    -0.01  -0.00   0.00
  98   1    -0.02  -0.01   0.11     0.03   0.00  -0.01    -0.01   0.00   0.00
  99   1    -0.01  -0.04   0.08     0.02  -0.01  -0.02    -0.01   0.01  -0.00
 100   1     0.02  -0.05   0.01     0.01  -0.01  -0.01    -0.00   0.01  -0.00
 101   1     0.03  -0.05  -0.05    -0.01  -0.00  -0.00     0.01   0.01  -0.00
 102   1     0.02  -0.05  -0.06    -0.02  -0.00  -0.01     0.01   0.01   0.00
 103   1    -0.00   0.01   0.02     0.03  -0.01   0.12    -0.00   0.00   0.00
 104   1    -0.01   0.02  -0.02     0.01  -0.01   0.04    -0.00   0.01  -0.01
 105   1    -0.01   0.02  -0.05    -0.02  -0.02  -0.09    -0.00   0.01  -0.02
 106   1    -0.01   0.01  -0.04    -0.03  -0.01  -0.13     0.00   0.00  -0.01
 107   1     0.01   0.01  -0.09    -0.01  -0.04   0.02     0.00   0.01  -0.01
 108   1     0.00   0.01  -0.07     0.02  -0.04   0.08    -0.01   0.01  -0.02
                     13                     14                     15
                        a                      a                      a 
 Frequencies --    59.7401                62.0607                63.6159
 Red. masses --    11.5312                11.1303                10.3554
 Frc consts  --     0.0000                 0.0000                 0.0000
 IR Inten    --     1.1061                 0.3976                 2.2717
 Raman Activ --     0.0000                 0.0000                 0.0000
 Depolar     --     0.0000                 0.0000                 0.0000
 Atom AN      X      Y      Z        X      Y      Z        X      Y      Z
   1   6     0.12  -0.02  -0.20     0.25  -0.02  -0.03    -0.12   0.01   0.03
   2   6     0.10  -0.01  -0.09     0.19   0.08  -0.03    -0.08  -0.04  -0.01
   3   6     0.05  -0.00   0.05     0.06   0.08  -0.02    -0.02  -0.04  -0.02
   4   6     0.04  -0.00   0.09    -0.01  -0.01  -0.01     0.00   0.01   0.01
   5   6     0.03  -0.00   0.16    -0.07  -0.01  -0.02     0.03   0.01   0.01
   6   7     0.02   0.00   0.11    -0.06   0.01  -0.01     0.03   0.00   0.01
   7   6     0.02   0.00   0.10    -0.02   0.02  -0.01     0.02  -0.00   0.01
   8   6    -0.01   0.01   0.03    -0.00   0.04   0.03     0.01  -0.02   0.00
   9   6     0.03   0.01   0.01    -0.02   0.05   0.07     0.01  -0.02  -0.00
  10   6     0.02   0.03  -0.05    -0.03   0.02   0.09     0.01  -0.02  -0.01
  11   6    -0.02   0.05  -0.08    -0.03  -0.00   0.08     0.01  -0.03  -0.01
  12   7    -0.02   0.08  -0.11    -0.05  -0.03   0.08     0.01  -0.03  -0.01
  13   6    -0.01   0.04  -0.06    -0.07  -0.01   0.05     0.01  -0.01  -0.02
  14   6    -0.01   0.04  -0.06    -0.10   0.02   0.04     0.01   0.03  -0.09
  15   6     0.01  -0.02   0.02    -0.13   0.05  -0.01     0.01   0.05  -0.11
  16   6     0.03  -0.07   0.10    -0.14   0.04  -0.05     0.02   0.02  -0.05
  17   6     0.02  -0.07   0.10    -0.11   0.01  -0.03     0.03  -0.03   0.02
  18   6     0.01  -0.01   0.01    -0.08  -0.02   0.02     0.03  -0.05   0.04
  19   6     0.00  -0.00   0.01    -0.05  -0.03   0.04     0.03  -0.07   0.07
  20   6     0.01  -0.04   0.05    -0.06  -0.02   0.02     0.03  -0.09   0.09
  21   6     0.01  -0.04   0.05    -0.06  -0.02   0.01     0.03  -0.08   0.08
  22   6     0.00  -0.01   0.01    -0.05  -0.02   0.03     0.02  -0.06   0.05
  23   6    -0.01   0.03  -0.03    -0.05  -0.03   0.05     0.00  -0.04   0.03
  24   6    -0.01   0.03  -0.03    -0.05   0.00   0.03    -0.01   0.03  -0.03
  25   6    -0.03   0.05  -0.06    -0.05   0.03   0.03    -0.04   0.11  -0.08
  26   6    -0.02   0.03  -0.03    -0.05   0.08  -0.02    -0.04   0.19  -0.15
  27   6     0.01  -0.02   0.02    -0.05   0.09  -0.05    -0.01   0.17  -0.16
  28   6     0.02  -0.04   0.05    -0.04   0.06  -0.04     0.02   0.08  -0.10
  29   6     0.00  -0.01   0.01    -0.05   0.02  -0.01     0.00   0.02  -0.04
  30   7     0.01  -0.03   0.04    -0.06  -0.00  -0.00     0.01  -0.04   0.01
  31   6     0.01  -0.02   0.02    -0.05  -0.00  -0.00     0.01  -0.02   0.00
  32   6    -0.05   0.02   0.01    -0.12   0.10   0.01    -0.19   0.24   0.03
  33   6    -0.06   0.05  -0.02    -0.12   0.09   0.01    -0.22   0.30   0.03
  34   6    -0.02   0.03  -0.03    -0.03  -0.04  -0.01    -0.05   0.05  -0.00
  35   6     0.04  -0.02  -0.02     0.04  -0.14  -0.02     0.16  -0.24  -0.03
  36   6     0.06  -0.05   0.00     0.02  -0.12  -0.02     0.17  -0.27  -0.03
  37   6    -0.01   0.04  -0.05    -0.04  -0.04   0.06     0.01  -0.05   0.04
  38   6    -0.06   0.04  -0.08     0.01   0.01   0.07     0.01  -0.03  -0.01
  39   6    -0.06   0.02  -0.02     0.02   0.04   0.05     0.01  -0.02  -0.00
  40   7    -0.11   0.02   0.00     0.05   0.04   0.03     0.01  -0.02   0.00
  41   6    -0.09   0.03  -0.01     0.05   0.04   0.03     0.01  -0.03  -0.00
  42   6    -0.15   0.06   0.05     0.03   0.04   0.05     0.05  -0.05  -0.04
  43   6    -0.12   0.07   0.02     0.04   0.04   0.03     0.05  -0.06  -0.05
  44   6    -0.03   0.05  -0.08     0.06   0.03   0.00     0.02  -0.06  -0.02
  45   6     0.02   0.03  -0.14     0.08   0.03  -0.02    -0.01  -0.04   0.02
  46   6    -0.01   0.02  -0.09     0.07   0.03  -0.01    -0.02  -0.02   0.03
  47   6    -0.01   0.00  -0.10     0.09   0.02  -0.04    -0.04  -0.01   0.05
  48   6     0.03  -0.01  -0.11     0.08   0.02  -0.06    -0.04  -0.01   0.07
  49   8     0.11  -0.00  -0.20     0.03   0.02  -0.03    -0.04  -0.01   0.09
  50   6     0.06  -0.00  -0.09    -0.00   0.03  -0.02    -0.01  -0.01   0.05
  51   6     0.09   0.00  -0.09    -0.09   0.04   0.06     0.03  -0.02   0.01
  52   6     0.02   0.00   0.05    -0.13   0.07   0.08     0.08  -0.03  -0.04
  53   6    -0.08  -0.00   0.18    -0.08   0.08   0.02     0.08  -0.05  -0.05
  54   6    -0.10  -0.01   0.17     0.01   0.08  -0.06     0.03  -0.04  -0.00
  55   6    -0.03  -0.01   0.03     0.04   0.05  -0.07    -0.01  -0.02   0.04
  56   6    -0.04  -0.01   0.00     0.10   0.04  -0.10    -0.04  -0.02   0.07
  57   6    -0.11  -0.01   0.08     0.13   0.04  -0.13    -0.03  -0.02   0.06
  58   6    -0.11  -0.01   0.05     0.12   0.04  -0.09    -0.02  -0.02   0.04
  59   6    -0.07   0.00  -0.02     0.09   0.03  -0.03    -0.02  -0.01   0.04
  60   6     0.03  -0.00   0.14    -0.01  -0.01  -0.03     0.02   0.01   0.01
  61  16     0.06  -0.01   0.09     0.09  -0.03  -0.04    -0.02   0.01  -0.01
  62   6     0.03  -0.02   0.01     0.06  -0.08  -0.01    -0.01   0.03  -0.01
  63   6     0.01  -0.04  -0.15     0.11  -0.12   0.03    -0.03   0.04  -0.02
  64   6    -0.01  -0.06  -0.20     0.10  -0.19   0.05    -0.02   0.06  -0.02
  65   6    -0.00  -0.06  -0.09     0.03  -0.20   0.03     0.00   0.07   0.00
  66   6     0.02  -0.05   0.07    -0.02  -0.16  -0.01     0.02   0.05   0.02
  67   6     0.03  -0.02   0.11    -0.00  -0.09  -0.03     0.01   0.03   0.01
  68   6     0.04  -0.01   0.19    -0.03  -0.04  -0.04     0.02   0.02   0.02
  69   7     0.05  -0.00   0.25    -0.07  -0.04  -0.04     0.04   0.01   0.02
  70   6     0.07  -0.01  -0.00     0.05  -0.12  -0.00    -0.03   0.06   0.04
  71   6     0.11  -0.02  -0.14     0.18  -0.12  -0.01    -0.10   0.06   0.06
  72   1     0.04  -0.01  -0.09     0.10  -0.01  -0.01    -0.05   0.00   0.01
  73   1     0.03  -0.00  -0.04     0.07   0.05  -0.01    -0.03  -0.02  -0.01
  74   1     0.01   0.00   0.04     0.00   0.05  -0.01     0.00  -0.02  -0.01
  75   1     0.02   0.00   0.01    -0.01   0.02   0.02     0.00  -0.01  -0.00
  76   1     0.02   0.01  -0.02    -0.01   0.01   0.03     0.00  -0.01  -0.01
  77   1    -0.01   0.02  -0.04    -0.03   0.01   0.02     0.00   0.02  -0.04
  78   1     0.00  -0.01   0.01    -0.04   0.02  -0.01     0.00   0.03  -0.05
  79   1     0.01  -0.04   0.05    -0.05   0.02  -0.03     0.01   0.01  -0.02
  80   1     0.01  -0.03   0.05    -0.03   0.00  -0.02     0.01  -0.02   0.02
  81   1     0.01  -0.02   0.03    -0.02  -0.00   0.00     0.01  -0.03   0.03
  82   1     0.01  -0.02   0.02    -0.02   0.00  -0.00     0.01  -0.02   0.02
  83   1    -0.01   0.02  -0.03    -0.02   0.01   0.02    -0.02   0.04  -0.02
  84   1    -0.01   0.01  -0.02    -0.02   0.03  -0.01    -0.02   0.08  -0.06
  85   1     0.01  -0.01   0.01    -0.01   0.04  -0.03    -0.00   0.06  -0.06
  86   1     0.01  -0.02   0.03    -0.01   0.02  -0.02     0.02   0.01  -0.03
  87   1    -0.02   0.01   0.01    -0.05   0.05   0.01    -0.09   0.12   0.02
  88   1    -0.03   0.03  -0.01    -0.05   0.05   0.01    -0.11   0.15   0.02
  89   1    -0.01   0.02  -0.01    -0.01  -0.01  -0.00    -0.02   0.02  -0.00
  90   1     0.02  -0.01  -0.01     0.03  -0.07  -0.01     0.09  -0.13  -0.02
  91   1     0.03  -0.02   0.00     0.02  -0.06  -0.01     0.09  -0.13  -0.02
  92   1    -0.03   0.02  -0.03     0.01  -0.01   0.02     0.00  -0.01  -0.00
  93   1    -0.06   0.02   0.03     0.00   0.01   0.02     0.02  -0.01  -0.02
  94   1    -0.05   0.03   0.02     0.01   0.01   0.01     0.02  -0.02  -0.02
  95   1    -0.00   0.02  -0.03     0.02   0.01  -0.00     0.01  -0.02  -0.01
  96   1     0.03   0.00  -0.06     0.03   0.01  -0.01    -0.01  -0.01   0.01
  97   1     0.05   0.00  -0.05    -0.04   0.01   0.03     0.01  -0.00   0.00
  98   1     0.01   0.00   0.02    -0.06   0.02   0.04     0.03  -0.01  -0.02
  99   1    -0.04   0.00   0.09    -0.03   0.03   0.01     0.03  -0.02  -0.03
 100   1    -0.05  -0.00   0.08     0.01   0.03  -0.03     0.01  -0.01  -0.00
 101   1    -0.04  -0.00   0.04     0.04   0.01  -0.05    -0.01  -0.01   0.02
 102   1    -0.05  -0.00   0.03     0.04   0.02  -0.03    -0.01  -0.01   0.01
 103   1     0.00  -0.01  -0.07     0.05  -0.03   0.01    -0.01   0.01  -0.01
 104   1    -0.01  -0.02  -0.10     0.04  -0.06   0.02    -0.01   0.02  -0.01
 105   1    -0.00  -0.02  -0.04     0.01  -0.07   0.01     0.00   0.02   0.00
 106   1     0.00  -0.01   0.04    -0.02  -0.05  -0.01     0.01   0.02   0.01
 107   1     0.02  -0.00   0.01    -0.00  -0.06   0.00    -0.00   0.03   0.02
 108   1     0.04  -0.01  -0.06     0.07  -0.06  -0.00    -0.04   0.03   0.02
                     16                     17                     18
                        a                      a                      a 
 Frequencies --    68.4775                74.4632                85.2683
 Red. masses --    12.3715                11.9020                10.6358
 Frc consts  --     0.0000                 0.0000                 0.0000
 IR Inten    --     0.4829                 0.8888                 0.3555
 Raman Activ --     0.0000                 0.0000                 0.0000
 Depolar     --     0.0000                 0.0000                 0.0000
 Atom AN      X      Y      Z        X      Y      Z        X      Y      Z
   1   6    -0.01  -0.08  -0.04    -0.01   0.06   0.11     0.17   0.00  -0.21
   2   6    -0.04  -0.07   0.10     0.00   0.06   0.03     0.06   0.06   0.16
   3   6    -0.03  -0.07   0.10     0.01   0.06  -0.06    -0.01   0.07   0.24
   4   6    -0.00  -0.07  -0.03     0.00   0.04  -0.07     0.03   0.01  -0.03
   5   6    -0.01  -0.07  -0.03     0.00   0.04  -0.11    -0.01   0.01  -0.03
   6   7    -0.02  -0.10   0.01     0.02   0.05  -0.06    -0.01   0.01  -0.05
   7   6    -0.04  -0.10  -0.02     0.02   0.05  -0.05    -0.00   0.01  -0.04
   8   6    -0.03  -0.07  -0.04     0.03   0.03   0.00     0.00   0.00  -0.02
   9   6    -0.05  -0.12  -0.17     0.03   0.05   0.08    -0.00   0.01   0.00
  10   6    -0.03  -0.09  -0.16     0.02   0.03   0.09     0.00   0.01   0.01
  11   6     0.01  -0.02  -0.02     0.02  -0.02   0.03     0.00   0.00   0.01
  12   7     0.02  -0.01  -0.02     0.01  -0.04   0.05     0.00  -0.01   0.02
  13   6     0.03  -0.01  -0.02     0.01  -0.03   0.03    -0.00  -0.00   0.01
  14   6     0.04   0.01  -0.06     0.00  -0.02   0.02    -0.01   0.01   0.00
  15   6     0.05   0.00  -0.05    -0.01   0.01  -0.02    -0.01   0.01  -0.01
  16   6     0.06  -0.02   0.00    -0.02   0.03  -0.05    -0.01   0.01  -0.01
  17   6     0.05  -0.03   0.03    -0.01   0.02  -0.04    -0.01  -0.00   0.00
  18   6     0.04  -0.02   0.01     0.00  -0.01   0.00    -0.00  -0.01   0.01
  19   6     0.03  -0.02   0.02     0.01  -0.02   0.02     0.00  -0.01   0.01
  20   6     0.03  -0.03   0.01     0.00  -0.00   0.01     0.00  -0.01   0.01
  21   6     0.04  -0.02  -0.01    -0.01   0.00   0.00    -0.00   0.00  -0.00
  22   6     0.04  -0.01  -0.02    -0.01  -0.01   0.01    -0.00   0.00  -0.00
  23   6     0.03  -0.01  -0.01     0.00  -0.03   0.02     0.00  -0.01   0.01
  24   6     0.04  -0.00  -0.01    -0.01  -0.02   0.01     0.00  -0.01   0.01
  25   6     0.05  -0.00  -0.00    -0.01  -0.03   0.02     0.01  -0.02   0.02
  26   6     0.05   0.01  -0.02    -0.02  -0.01  -0.00     0.00  -0.02   0.01
  27   6     0.04   0.03  -0.04    -0.03   0.01  -0.03    -0.00  -0.00  -0.00
  28   6     0.04   0.02  -0.05    -0.03   0.02  -0.03    -0.01   0.01  -0.01
  29   6     0.04   0.01  -0.03    -0.02   0.00  -0.01    -0.01   0.01  -0.01
  30   7     0.04  -0.00  -0.03    -0.02   0.01  -0.01    -0.01   0.01  -0.01
  31   6     0.03   0.00  -0.02    -0.02   0.01  -0.01    -0.01   0.01  -0.01
  32   6     0.02   0.06   0.01    -0.03   0.02  -0.00    -0.00   0.01  -0.00
  33   6    -0.00   0.09   0.04    -0.02   0.00  -0.00     0.00   0.01   0.00
  34   6    -0.01   0.05   0.04    -0.00  -0.03  -0.01     0.00  -0.01   0.00
  35   6     0.02  -0.02   0.02     0.00  -0.04  -0.01    -0.00  -0.01  -0.00
  36   6     0.04  -0.04  -0.01    -0.01  -0.02  -0.01    -0.01  -0.00  -0.01
  37   6     0.02  -0.01  -0.00     0.01  -0.03   0.03     0.00  -0.01   0.01
  38   6     0.03   0.03   0.09     0.03  -0.03  -0.02     0.01  -0.00  -0.01
  39   6     0.02   0.01   0.06     0.03  -0.02  -0.03     0.01  -0.00  -0.02
  40   7     0.05   0.03   0.10     0.03  -0.04  -0.07     0.00  -0.01  -0.02
  41   6     0.04   0.04   0.09     0.00  -0.03  -0.02     0.01  -0.01  -0.02
  42   6    -0.01   0.06   0.15    -0.06  -0.01   0.06     0.06  -0.03  -0.09
  43   6    -0.03   0.08   0.18    -0.16   0.02   0.20     0.04  -0.04  -0.06
  44   6     0.00   0.07   0.15    -0.18   0.02   0.24    -0.04  -0.02   0.04
  45   6     0.06   0.05   0.07    -0.09  -0.00   0.11    -0.09  -0.00   0.10
  46   6     0.08   0.02   0.04    -0.01  -0.03  -0.02    -0.06   0.00   0.06
  47   6     0.11   0.01  -0.01     0.02  -0.03  -0.05    -0.08   0.02   0.09
  48   6     0.11   0.01  -0.06     0.03  -0.03  -0.05    -0.11   0.03   0.14
  49   8     0.12  -0.03  -0.13     0.14  -0.06  -0.21    -0.12   0.04   0.17
  50   6     0.03   0.00  -0.08     0.08  -0.04  -0.11    -0.06   0.02   0.10
  51   6    -0.04  -0.01  -0.08     0.16  -0.06  -0.22     0.01   0.01   0.01
  52   6    -0.14   0.05  -0.01     0.08  -0.04  -0.10     0.09  -0.02  -0.09
  53   6    -0.17   0.11   0.06    -0.09  -0.01   0.14     0.09  -0.03  -0.09
  54   6    -0.09   0.12   0.04    -0.15  -0.00   0.23     0.00  -0.01   0.02
  55   6     0.01   0.06  -0.03    -0.06  -0.02   0.09    -0.07   0.01   0.10
  56   6     0.08   0.05  -0.03    -0.07  -0.02   0.09    -0.11   0.02   0.14
  57   6     0.06   0.07   0.01    -0.12  -0.00   0.17    -0.11   0.02   0.15
  58   6     0.08   0.06   0.04    -0.07  -0.02   0.08    -0.09   0.01   0.10
  59   6     0.09   0.02   0.04     0.00  -0.03  -0.03    -0.05   0.01   0.05
  60   6    -0.06  -0.08  -0.02     0.02   0.04  -0.10    -0.00   0.01  -0.03
  61  16    -0.20  -0.11   0.10     0.09   0.07  -0.17     0.04   0.01   0.00
  62   6    -0.12  -0.00   0.05     0.06   0.02  -0.06     0.02  -0.00   0.00
  63   6    -0.16   0.05   0.11     0.11  -0.00   0.05     0.04  -0.01   0.04
  64   6    -0.15   0.12   0.07     0.11  -0.03   0.12     0.04  -0.03   0.03
  65   6    -0.10   0.13  -0.02     0.08  -0.04   0.07     0.01  -0.04  -0.02
  66   6    -0.06   0.08  -0.07     0.03  -0.02  -0.05    -0.01  -0.02  -0.06
  67   6    -0.07   0.01  -0.03     0.03   0.01  -0.10     0.00  -0.01  -0.04
  68   6    -0.04  -0.04  -0.06     0.01   0.03  -0.14    -0.01   0.01  -0.04
  69   7    -0.03  -0.05  -0.08    -0.00   0.03  -0.17    -0.01   0.01  -0.04
  70   6     0.02  -0.08  -0.15    -0.01   0.04   0.00     0.12  -0.04  -0.34
  71   6     0.02  -0.08  -0.16    -0.01   0.04   0.09     0.19  -0.05  -0.44
  72   1    -0.00  -0.02  -0.01    -0.00   0.02   0.05     0.06  -0.00  -0.09
  73   1    -0.02  -0.02   0.06     0.00   0.02   0.01     0.01   0.03   0.11
  74   1    -0.01  -0.02   0.06     0.00   0.02  -0.03    -0.03   0.03   0.15
  75   1    -0.03  -0.05  -0.08     0.01   0.03   0.04    -0.00   0.00   0.00
  76   1    -0.02  -0.04  -0.07     0.01   0.01   0.04     0.00   0.00   0.01
  77   1     0.01   0.01  -0.03     0.00  -0.01   0.02    -0.00   0.00   0.00
  78   1     0.02   0.01  -0.02    -0.00   0.00  -0.01    -0.00   0.01  -0.00
  79   1     0.02  -0.01   0.00    -0.01   0.02  -0.03    -0.01   0.00  -0.01
  80   1     0.02  -0.01   0.02    -0.00   0.01  -0.02    -0.00  -0.00  -0.00
  81   1     0.01  -0.01   0.01     0.00   0.00  -0.00     0.00  -0.00   0.00
  82   1     0.01  -0.00  -0.00    -0.00   0.00  -0.00    -0.00   0.00  -0.00
  83   1     0.01  -0.00   0.01     0.00  -0.01   0.01     0.00  -0.01   0.01
  84   1     0.02   0.00  -0.00    -0.00  -0.00   0.00     0.00  -0.01   0.01
  85   1     0.01   0.01  -0.02    -0.01   0.01  -0.01    -0.00   0.00  -0.00
  86   1     0.01   0.01  -0.02    -0.01   0.01  -0.02    -0.00   0.01  -0.01
  87   1     0.01   0.02   0.00    -0.01   0.01  -0.00    -0.00   0.01  -0.00
  88   1    -0.01   0.04   0.02    -0.01   0.00   0.00     0.00   0.00   0.00
  89   1    -0.01   0.02   0.02     0.00  -0.01  -0.00     0.00  -0.00   0.00
  90   1     0.00  -0.02   0.01     0.01  -0.02  -0.00    -0.00  -0.01   0.00
  91   1     0.01  -0.02  -0.01    -0.00  -0.01  -0.00    -0.00  -0.00  -0.00
  92   1     0.02   0.02   0.05     0.01  -0.02  -0.01     0.00  -0.00  -0.00
  93   1    -0.01   0.02   0.05    -0.02  -0.00   0.01     0.04  -0.01  -0.04
  94   1    -0.02   0.03   0.07    -0.07   0.01   0.09     0.02  -0.02  -0.03
  95   1    -0.01   0.03   0.05    -0.08   0.01   0.10    -0.02  -0.01   0.02
  96   1     0.03   0.01   0.01    -0.03   0.00   0.04    -0.04   0.00   0.05
  97   1    -0.01  -0.02  -0.04     0.08  -0.02  -0.11     0.01   0.01   0.00
  98   1    -0.06   0.01   0.00     0.04  -0.02  -0.05     0.05  -0.01  -0.05
  99   1    -0.07   0.04   0.04    -0.05   0.00   0.07     0.04  -0.01  -0.05
 100   1    -0.03   0.05   0.03    -0.08   0.01   0.12    -0.00  -0.01   0.00
 101   1     0.01   0.03   0.01    -0.06   0.00   0.08    -0.04   0.01   0.05
 102   1     0.02   0.03   0.02    -0.03  -0.01   0.03    -0.02   0.00   0.03
 103   1    -0.06   0.01   0.05     0.04   0.00   0.02     0.02  -0.00   0.02
 104   1    -0.05   0.05   0.03     0.04  -0.01   0.06     0.01  -0.01   0.02
 105   1    -0.03   0.05  -0.02     0.02  -0.02   0.04     0.00  -0.01  -0.01
 106   1    -0.00   0.03  -0.04    -0.00  -0.01  -0.02    -0.01  -0.01  -0.03
 107   1     0.01  -0.02  -0.06    -0.00   0.01  -0.00     0.04  -0.02  -0.14
 108   1     0.01  -0.02  -0.07    -0.01   0.01   0.04     0.08  -0.03  -0.20
                     19                     20                     21
                        a                      a                      a 
 Frequencies --    90.2209                99.9649               111.3732
 Red. masses --    10.6430                12.3347                11.1583
 Frc consts  --     0.0000                 0.0000                 0.0000
 IR Inten    --     0.0188                 0.3554                 2.3058
 Raman Activ --     0.0000                 0.0000                 0.0000
 Depolar     --     0.0000                 0.0000                 0.0000
 Atom AN      X      Y      Z        X      Y      Z        X      Y      Z
   1   6    -0.01   0.01   0.01     0.03   0.03  -0.04     0.01   0.01   0.01
   2   6    -0.00   0.01  -0.01     0.01   0.05   0.01     0.01   0.02  -0.02
   3   6     0.00   0.01  -0.02    -0.02   0.05   0.04    -0.01   0.02  -0.02
   4   6    -0.00   0.01  -0.00    -0.03   0.03   0.02    -0.02   0.01   0.00
   5   6     0.00   0.01  -0.00    -0.04   0.03   0.02    -0.02   0.01  -0.00
   6   7     0.00   0.01  -0.00    -0.00   0.04   0.19    -0.03   0.02  -0.09
   7   6     0.00   0.01  -0.00    -0.00   0.04   0.12    -0.02   0.02  -0.08
   8   6     0.00   0.01  -0.00     0.02   0.05   0.15    -0.04   0.01  -0.13
   9   6     0.01   0.01  -0.02     0.05   0.04   0.11    -0.13  -0.07  -0.29
  10   6     0.01   0.02  -0.02     0.03   0.04  -0.00    -0.12  -0.07  -0.23
  11   6     0.01   0.04   0.00    -0.01   0.04  -0.06    -0.02   0.00  -0.01
  12   7     0.01   0.03   0.00    -0.02   0.08  -0.16    -0.02  -0.01   0.05
  13   6    -0.01   0.03  -0.00     0.00   0.06  -0.12    -0.03  -0.01   0.04
  14   6    -0.07   0.20  -0.19     0.02   0.05  -0.14    -0.03  -0.01   0.05
  15   6    -0.10   0.18  -0.19     0.07  -0.02  -0.03    -0.05   0.00   0.03
  16   6    -0.06  -0.01   0.03     0.09  -0.08   0.09    -0.05   0.02   0.00
  17   6    -0.00  -0.16   0.20     0.07  -0.05   0.07    -0.05   0.02  -0.01
  18   6     0.02  -0.11   0.16     0.02   0.02  -0.04    -0.04   0.01   0.01
  19   6     0.05  -0.13   0.17     0.00   0.03  -0.05    -0.03   0.01   0.00
  20   6     0.04  -0.12   0.16     0.01  -0.00  -0.00    -0.04   0.02  -0.03
  21   6     0.01   0.01  -0.01     0.01  -0.01   0.02    -0.03   0.02  -0.02
  22   6    -0.01   0.07  -0.08    -0.00  -0.00  -0.02    -0.02   0.01   0.01
  23   6     0.02   0.01  -0.00    -0.02   0.04  -0.07    -0.02   0.01   0.02
  24   6     0.02  -0.01   0.00    -0.02   0.03  -0.06    -0.00   0.02   0.03
  25   6     0.10  -0.16   0.15    -0.03   0.05  -0.09    -0.01   0.04   0.02
  26   6     0.12  -0.23   0.23    -0.02   0.02  -0.06     0.01   0.05   0.02
  27   6     0.05  -0.12   0.11    -0.00  -0.03   0.01     0.02   0.04   0.02
  28   6    -0.03   0.05  -0.07     0.01  -0.05   0.03     0.03   0.01   0.03
  29   6    -0.02   0.09  -0.11    -0.00  -0.02  -0.00     0.01   0.01   0.02
  30   7    -0.06   0.18  -0.21     0.01  -0.04   0.03     0.00  -0.00   0.02
  31   6    -0.04   0.13  -0.12     0.01  -0.03   0.02     0.01  -0.00   0.01
  32   6     0.04   0.17  -0.06    -0.00  -0.04   0.01     0.01  -0.01   0.01
  33   6     0.08   0.08   0.05    -0.02  -0.02  -0.01     0.00  -0.01   0.00
  34   6     0.04  -0.04   0.08    -0.02   0.02  -0.01    -0.00   0.01   0.00
  35   6    -0.04  -0.08   0.01    -0.00   0.02  -0.00    -0.00   0.02   0.01
  36   6    -0.08   0.01  -0.09     0.01  -0.01   0.01     0.00   0.01   0.01
  37   6     0.03  -0.05   0.07    -0.02   0.06  -0.10    -0.02   0.01   0.02
  38   6     0.01   0.04   0.01    -0.04   0.07   0.02     0.06   0.06   0.08
  39   6    -0.00   0.02  -0.00    -0.01   0.06   0.14     0.04   0.06  -0.01
  40   7    -0.03  -0.00  -0.02    -0.06   0.05   0.17     0.07   0.05  -0.03
  41   6    -0.03  -0.01  -0.01    -0.04  -0.02   0.13     0.07  -0.03  -0.02
  42   6    -0.03  -0.02   0.00     0.00  -0.09   0.20     0.20  -0.15  -0.01
  43   6    -0.03  -0.03  -0.00     0.04  -0.20   0.11     0.10  -0.27   0.07
  44   6    -0.03  -0.03  -0.02     0.05  -0.24  -0.03    -0.09  -0.28   0.15
  45   6    -0.03  -0.03  -0.03     0.00  -0.17  -0.08    -0.17  -0.18   0.09
  46   6    -0.02  -0.01  -0.03    -0.03  -0.05   0.02    -0.05  -0.04  -0.00
  47   6    -0.02  -0.01  -0.03    -0.04   0.00  -0.01    -0.06   0.04  -0.05
  48   6    -0.01  -0.01  -0.03    -0.01  -0.00  -0.05    -0.03   0.05  -0.08
  49   8    -0.02   0.01  -0.01     0.01   0.03  -0.03     0.03   0.11  -0.11
  50   6    -0.00  -0.00  -0.00     0.03   0.01  -0.01     0.06   0.07  -0.05
  51   6    -0.01   0.01   0.04     0.03   0.04   0.10     0.13   0.11  -0.00
  52   6     0.01  -0.01   0.05     0.04   0.01   0.14     0.14   0.05   0.11
  53   6     0.03  -0.03   0.01     0.07  -0.04   0.08     0.08  -0.01   0.15
  54   6     0.03  -0.04  -0.03     0.08  -0.07  -0.02     0.03  -0.04   0.08
  55   6     0.01  -0.02  -0.03     0.05  -0.03  -0.05     0.02   0.02  -0.03
  56   6    -0.00  -0.02  -0.04     0.02  -0.02  -0.07    -0.03   0.03  -0.07
  57   6    -0.01  -0.02  -0.04     0.01   0.01  -0.04    -0.01   0.06  -0.06
  58   6    -0.02  -0.02  -0.02    -0.04   0.03   0.04     0.00   0.07  -0.06
  59   6    -0.02  -0.00  -0.03    -0.05   0.04   0.06    -0.00   0.07  -0.05
  60   6     0.00   0.01  -0.00    -0.05   0.03  -0.06     0.00   0.01   0.01
  61  16     0.02   0.02  -0.01    -0.06   0.04  -0.22     0.04   0.03   0.13
  62   6     0.01   0.01  -0.00    -0.03   0.01  -0.09     0.02  -0.00   0.06
  63   6     0.01   0.00  -0.00     0.02   0.00   0.09     0.02  -0.02  -0.03
  64   6     0.01  -0.00  -0.00     0.03  -0.02   0.20     0.00  -0.04  -0.10
  65   6     0.01  -0.00  -0.00    -0.01  -0.02   0.09    -0.00  -0.04  -0.05
  66   6     0.01   0.00  -0.00    -0.06  -0.01  -0.10     0.00  -0.03   0.05
  67   6     0.01   0.01  -0.00    -0.06   0.01  -0.16     0.02  -0.00   0.09
  68   6     0.00   0.01  -0.00    -0.07   0.02  -0.15     0.01   0.01   0.07
  69   7     0.00   0.01  -0.00    -0.08   0.02  -0.18     0.00   0.01   0.09
  70   6    -0.01   0.01   0.01    -0.01   0.02  -0.01    -0.01  -0.00   0.02
  71   6    -0.01   0.01   0.02     0.02   0.02  -0.04    -0.00  -0.00   0.03
  72   1    -0.00   0.00   0.01     0.01   0.01  -0.02     0.00   0.00   0.00
  73   1    -0.00   0.00  -0.00     0.00   0.02   0.01     0.00   0.01  -0.01
  74   1     0.00   0.00  -0.01    -0.01   0.02   0.02    -0.00   0.01  -0.01
  75   1     0.00  -0.00  -0.01     0.03   0.01   0.04    -0.06  -0.04  -0.13
  76   1     0.00   0.00  -0.02     0.01   0.01  -0.02    -0.06  -0.04  -0.10
  77   1    -0.03   0.10  -0.10     0.00   0.02  -0.06    -0.01  -0.00   0.02
  78   1    -0.04   0.09  -0.10     0.03  -0.01  -0.01    -0.01   0.00   0.01
  79   1    -0.02  -0.01   0.01     0.04  -0.04   0.06    -0.02   0.01  -0.00
  80   1     0.01  -0.09   0.10     0.03  -0.03   0.05    -0.02   0.01  -0.01
  81   1     0.02  -0.05   0.07     0.01  -0.01   0.01    -0.01   0.01  -0.01
  82   1    -0.00   0.01  -0.02     0.01  -0.01   0.02    -0.01   0.01  -0.01
  83   1     0.05  -0.07   0.06    -0.01   0.02  -0.03    -0.01   0.02   0.01
  84   1     0.06  -0.11   0.11    -0.01   0.01  -0.02     0.00   0.02   0.00
  85   1     0.02  -0.05   0.05     0.00  -0.01   0.01     0.01   0.01   0.01
  86   1    -0.02   0.04  -0.05     0.01  -0.03   0.02     0.01   0.00   0.01
  87   1     0.02   0.07  -0.02    -0.00  -0.02   0.00     0.00  -0.01   0.00
  88   1     0.04   0.03   0.03    -0.01  -0.01  -0.01     0.00  -0.00  -0.00
  89   1     0.02  -0.03   0.05    -0.01   0.01  -0.01    -0.00   0.00  -0.00
  90   1    -0.02  -0.05   0.01    -0.00   0.01  -0.00    -0.00   0.01   0.00
  91   1    -0.04  -0.00  -0.04     0.01  -0.00   0.01     0.00   0.00   0.00
  92   1     0.00   0.01   0.01    -0.02   0.02  -0.00     0.04   0.03   0.05
  93   1    -0.01  -0.00   0.00     0.01  -0.02   0.09     0.11  -0.04  -0.01
  94   1    -0.01  -0.01   0.00     0.02  -0.07   0.05     0.05  -0.10   0.02
  95   1    -0.01  -0.01  -0.01     0.02  -0.09  -0.03    -0.05  -0.10   0.07
  96   1    -0.01  -0.01  -0.01    -0.00  -0.06  -0.06    -0.10  -0.06   0.03
  97   1    -0.01   0.01   0.02     0.00   0.03   0.04     0.05   0.05  -0.01
  98   1     0.00  -0.00   0.02     0.01   0.01   0.07     0.05   0.02   0.04
  99   1     0.01  -0.01   0.00     0.02  -0.02   0.03     0.02  -0.01   0.07
 100   1     0.01  -0.02  -0.02     0.03  -0.04  -0.02    -0.01  -0.03   0.03
 101   1    -0.00  -0.01  -0.01     0.01   0.01  -0.02    -0.00   0.02  -0.02
 102   1    -0.01  -0.01  -0.00    -0.02   0.01   0.02     0.00   0.02  -0.02
 103   1     0.01   0.00  -0.00     0.01   0.00   0.05     0.01  -0.00  -0.02
 104   1     0.00  -0.00  -0.00     0.02  -0.01   0.11    -0.00  -0.02  -0.05
 105   1     0.00  -0.00   0.00     0.00  -0.01   0.05    -0.01  -0.02  -0.03
 106   1     0.00  -0.00   0.00    -0.03  -0.01  -0.05    -0.00  -0.01   0.02
 107   1    -0.00   0.00   0.01    -0.01   0.00  -0.00    -0.01  -0.00   0.01
 108   1    -0.00   0.00   0.01     0.01   0.00  -0.02    -0.00  -0.00   0.01
                     22                     23                     24
                        a                      a                      a 
 Frequencies --   117.1099               121.4800               127.1722
 Red. masses --    11.6145                11.3456                10.6003
 Frc consts  --     0.0000                 0.0000                 0.0000
 IR Inten    --     1.6352                 1.8654                 0.0602
 Raman Activ --     0.0000                 0.0000                 0.0000
 Depolar     --     0.0000                 0.0000                 0.0000
 Atom AN      X      Y      Z        X      Y      Z        X      Y      Z
   1   6    -0.08  -0.08  -0.06     0.03  -0.06   0.11     0.01   0.02  -0.07
   2   6    -0.03  -0.17  -0.01     0.01   0.01   0.05     0.01   0.02  -0.04
   3   6     0.08  -0.17   0.07    -0.04  -0.00  -0.08    -0.02   0.03   0.05
   4   6     0.13  -0.06   0.09    -0.06  -0.06  -0.14    -0.03   0.03   0.09
   5   6     0.16  -0.06   0.07    -0.07  -0.05  -0.12    -0.03   0.02   0.08
   6   7     0.17  -0.08   0.13    -0.08  -0.05  -0.14    -0.03   0.03   0.06
   7   6     0.09  -0.07   0.01    -0.02  -0.04  -0.02    -0.03   0.03  -0.00
   8   6     0.06  -0.06  -0.06     0.06   0.04   0.07    -0.03   0.03  -0.03
   9   6     0.04  -0.07  -0.09     0.15   0.12   0.22    -0.03   0.01  -0.08
  10   6     0.06  -0.01  -0.05     0.16   0.14   0.21    -0.03   0.01  -0.06
  11   6     0.04   0.07   0.02     0.08   0.08   0.03     0.03   0.02   0.01
  12   7     0.03   0.08   0.03     0.07   0.08  -0.06     0.04  -0.03   0.05
  13   6    -0.05   0.07   0.04     0.03   0.07  -0.05     0.05  -0.03   0.04
  14   6    -0.15   0.12   0.12    -0.02   0.08   0.01     0.10  -0.14   0.15
  15   6    -0.27   0.06   0.14    -0.06   0.01   0.07     0.11  -0.10   0.11
  16   6    -0.28  -0.02   0.08    -0.07  -0.05   0.06     0.08   0.05  -0.08
  17   6    -0.19  -0.05  -0.01    -0.02  -0.05  -0.01     0.04   0.12  -0.15
  18   6    -0.06   0.02  -0.01     0.03   0.02  -0.06     0.03   0.03  -0.05
  19   6    -0.00   0.02  -0.03     0.07   0.01  -0.06     0.05  -0.01  -0.01
  20   6    -0.01   0.05  -0.03     0.07   0.02  -0.02     0.06  -0.03   0.00
  21   6    -0.01   0.04  -0.00     0.07  -0.00   0.02     0.09  -0.06   0.05
  22   6     0.01   0.03   0.04     0.07  -0.01   0.03     0.09  -0.08   0.08
  23   6     0.02   0.02   0.02     0.08  -0.03  -0.01     0.11  -0.13   0.11
  24   6    -0.01  -0.01   0.02     0.03  -0.08  -0.02     0.10  -0.15   0.10
  25   6    -0.03  -0.04  -0.02     0.02  -0.16  -0.05     0.14  -0.28   0.17
  26   6    -0.09  -0.03  -0.05    -0.08  -0.15  -0.10     0.04  -0.17   0.03
  27   6    -0.12  -0.01  -0.03    -0.16  -0.07  -0.12    -0.10   0.04  -0.20
  28   6    -0.10  -0.00   0.03    -0.13  -0.03  -0.05    -0.09   0.10  -0.20
  29   6    -0.04   0.00   0.04    -0.02  -0.03  -0.00     0.03  -0.03  -0.02
  30   7    -0.02   0.02   0.07     0.01  -0.01   0.05     0.05  -0.02   0.01
  31   6    -0.03   0.04   0.06    -0.01   0.03   0.04     0.03   0.01   0.00
  32   6    -0.06   0.03   0.03    -0.05   0.04   0.02    -0.00   0.05   0.01
  33   6    -0.02  -0.01  -0.01    -0.02   0.01  -0.01    -0.00   0.06   0.01
  34   6     0.04  -0.04  -0.03     0.04  -0.03  -0.03     0.04  -0.00  -0.00
  35   6     0.05  -0.00  -0.01     0.06  -0.02  -0.01     0.06  -0.04  -0.00
  36   6     0.01   0.04   0.04     0.03   0.02   0.02     0.05  -0.02  -0.00
  37   6     0.03   0.04  -0.00     0.08   0.01  -0.05     0.06  -0.07   0.06
  38   6     0.04   0.07   0.00     0.02   0.04  -0.03     0.02   0.05   0.04
  39   6     0.02   0.01  -0.03     0.02   0.04   0.02    -0.01   0.04  -0.00
  40   7    -0.03   0.01  -0.00     0.02   0.04  -0.01    -0.05   0.03  -0.01
  41   6    -0.03   0.01   0.00     0.03   0.01  -0.01    -0.06   0.02  -0.01
  42   6    -0.03   0.01   0.01     0.08  -0.03  -0.03    -0.12   0.04   0.07
  43   6    -0.02   0.01  -0.01     0.05  -0.07   0.00    -0.11   0.03   0.05
  44   6    -0.00   0.00  -0.04    -0.03  -0.07   0.06    -0.03   0.00  -0.09
  45   6    -0.01   0.00  -0.04    -0.07  -0.03   0.05     0.01  -0.01  -0.15
  46   6    -0.02   0.01  -0.01    -0.02   0.01   0.01    -0.03   0.01  -0.08
  47   6    -0.02   0.01  -0.02    -0.02   0.04  -0.01    -0.04   0.03  -0.07
  48   6    -0.02   0.01  -0.02    -0.01   0.05  -0.03    -0.05   0.04  -0.06
  49   8    -0.01   0.03  -0.02     0.01   0.07  -0.04    -0.05   0.08  -0.03
  50   6     0.00   0.02  -0.01     0.02   0.06  -0.02    -0.03   0.05  -0.00
  51   6     0.01   0.03   0.01     0.05   0.07  -0.01    -0.01   0.08   0.08
  52   6     0.02   0.01   0.02     0.05   0.05   0.03     0.04   0.04   0.07
  53   6     0.02  -0.00   0.02     0.03   0.03   0.05     0.08  -0.02  -0.01
  54   6     0.01  -0.01  -0.00     0.01   0.02   0.03     0.05  -0.04  -0.06
  55   6    -0.00   0.00  -0.01     0.01   0.04  -0.01    -0.01   0.01  -0.04
  56   6    -0.02   0.01  -0.02    -0.01   0.04  -0.03    -0.05   0.02  -0.05
  57   6    -0.02   0.01  -0.01     0.00   0.05  -0.03    -0.09   0.03   0.00
  58   6    -0.03   0.01  -0.01     0.01   0.05  -0.03    -0.10   0.04   0.03
  59   6    -0.03   0.01  -0.01    -0.00   0.05  -0.01    -0.07   0.04  -0.03
  60   6     0.08  -0.08  -0.05    -0.00  -0.06   0.03    -0.03   0.03  -0.01
  61  16     0.06  -0.12  -0.09    -0.08  -0.10   0.10    -0.04   0.04  -0.02
  62   6     0.05  -0.02  -0.02    -0.07  -0.03   0.02    -0.02   0.01   0.01
  63   6     0.03   0.04   0.12    -0.15   0.02  -0.12     0.01  -0.01   0.06
  64   6     0.05   0.11   0.12    -0.13   0.08  -0.11     0.00  -0.03   0.05
  65   6     0.07   0.11  -0.06    -0.04   0.10   0.07    -0.03  -0.04  -0.03
  66   6     0.09   0.06  -0.18     0.03   0.05   0.17    -0.06  -0.02  -0.06
  67   6     0.08  -0.01  -0.12    -0.01  -0.02   0.10    -0.04   0.00  -0.02
  68   6     0.10  -0.05  -0.09     0.00  -0.05   0.06    -0.04   0.02  -0.00
  69   7     0.14  -0.06  -0.05    -0.05  -0.06  -0.01    -0.04   0.02   0.05
  70   6     0.09   0.03   0.05    -0.03  -0.12  -0.11    -0.02   0.03   0.08
  71   6    -0.02   0.03  -0.03     0.02  -0.12   0.01    -0.00   0.02   0.00
  72   1    -0.04  -0.02  -0.04     0.02  -0.01   0.06     0.01   0.00  -0.04
  73   1    -0.02  -0.07  -0.01     0.01   0.02   0.03     0.00   0.01  -0.02
  74   1     0.03  -0.07   0.03    -0.02   0.01  -0.03    -0.01   0.01   0.02
  75   1     0.01  -0.03  -0.04     0.06   0.05   0.09    -0.01  -0.01  -0.04
  76   1     0.03   0.00  -0.02     0.07   0.06   0.09    -0.02  -0.00  -0.03
  77   1    -0.04   0.06   0.05    -0.00   0.04   0.01     0.03  -0.07   0.07
  78   1    -0.09   0.02   0.06    -0.03   0.00   0.03     0.04  -0.05   0.06
  79   1    -0.10  -0.02   0.03    -0.03  -0.03   0.03     0.02   0.03  -0.04
  80   1    -0.06  -0.04  -0.02    -0.01  -0.03  -0.00     0.00   0.07  -0.07
  81   1    -0.00   0.03  -0.01     0.02   0.01  -0.01     0.01  -0.00  -0.01
  82   1    -0.00   0.01  -0.01     0.02  -0.00   0.01     0.02  -0.02   0.01
  83   1    -0.00  -0.02  -0.01     0.03  -0.07  -0.01     0.07  -0.12   0.08
  84   1    -0.03  -0.01  -0.03    -0.03  -0.06  -0.04     0.02  -0.07   0.02
  85   1    -0.05  -0.00  -0.02    -0.07  -0.02  -0.05    -0.06   0.05  -0.10
  86   1    -0.03   0.00   0.02    -0.05   0.01  -0.01    -0.05   0.07  -0.10
  87   1    -0.03   0.01   0.01    -0.02   0.01   0.01    -0.01   0.02   0.00
  88   1    -0.01  -0.01  -0.01    -0.01   0.00  -0.01    -0.01   0.03   0.00
  89   1     0.02  -0.03  -0.02     0.02  -0.02  -0.02     0.01  -0.00  -0.00
  90   1     0.03  -0.00  -0.01     0.03  -0.01  -0.01     0.03  -0.02  -0.00
  91   1     0.01   0.02   0.02     0.01   0.01   0.01     0.01  -0.01  -0.00
  92   1     0.02   0.02   0.01    -0.01   0.01  -0.03     0.01   0.02   0.02
[...]
  86   1    -0.02  -0.02  -0.01     0.03   0.03   0.01     0.01   0.01   0.00
  87   1    -0.00  -0.00  -0.01     0.01   0.00   0.03    -0.11  -0.03  -0.27
  88   1     0.01   0.01  -0.01    -0.02  -0.02   0.03     0.19   0.17  -0.32
  89   1     0.02   0.02   0.00    -0.05  -0.03  -0.01     0.46   0.30   0.08
  90   1     0.01   0.00   0.02    -0.02  -0.01  -0.04     0.17   0.06   0.43
  91   1    -0.01  -0.01   0.01     0.02   0.02  -0.03    -0.16  -0.15   0.28
  92   1     0.00   0.00  -0.00     0.00   0.00  -0.00     0.00   0.00  -0.00
  93   1    -0.02   0.12  -0.03     0.01  -0.09   0.02     0.00  -0.02   0.00
  94   1     0.14   0.16   0.07    -0.10  -0.11  -0.05    -0.02  -0.02  -0.01
  95   1     0.32  -0.10   0.24    -0.21   0.07  -0.15    -0.04   0.01  -0.03
  96   1     0.08  -0.60   0.17    -0.05   0.38  -0.11    -0.01   0.06  -0.02
  97   1    -0.00   0.00  -0.00     0.01  -0.00   0.01     0.01  -0.00   0.01
  98   1     0.00  -0.00   0.00    -0.00   0.00  -0.00    -0.00   0.01  -0.00
  99   1    -0.00  -0.00  -0.00     0.01   0.01   0.00     0.01   0.01   0.00
 100   1    -0.01   0.00  -0.00     0.01  -0.00   0.01     0.02  -0.00   0.01
 101   1    -0.00  -0.00  -0.00    -0.00  -0.00  -0.00    -0.02  -0.01  -0.01
 102   1     0.00  -0.01   0.00    -0.00   0.00  -0.00     0.00  -0.00   0.00
 103   1     0.05  -0.20  -0.00     0.07  -0.29  -0.01     0.00  -0.02  -0.00
 104   1    -0.22  -0.21   0.05    -0.32  -0.30   0.07    -0.02  -0.02   0.01
 105   1    -0.20   0.06   0.04    -0.30   0.09   0.06    -0.02   0.01   0.00
 106   1    -0.07   0.31   0.01    -0.11   0.48   0.01    -0.01   0.03   0.00
 107   1    -0.01   0.00  -0.00     0.02  -0.01   0.01     0.00  -0.00   0.00
 108   1    -0.00  -0.00  -0.00     0.01   0.01   0.00     0.00   0.00   0.00
                    313                    314                    315
                        a                      a                      a 
 Frequencies --  3102.9060              3104.1572              3105.0971
 Red. masses --     1.7956                 1.8842                 1.8921
 Frc consts  --     0.0000                 0.0000                 0.0000
 IR Inten    --    30.5699                14.0064               129.7706
 Raman Activ --     0.0000                 0.0000                 0.0000
 Depolar     --     0.0000                 0.0000                 0.0000
 Atom AN      X      Y      Z        X      Y      Z        X      Y      Z
   1   6     0.00   0.00   0.00    -0.00  -0.00   0.00    -0.00   0.00  -0.00
   2   6    -0.00   0.00  -0.00     0.00  -0.00   0.00    -0.00   0.00  -0.00
   3   6     0.00   0.00   0.00     0.00   0.00   0.00    -0.00  -0.00  -0.00
   4   6    -0.00   0.00  -0.00    -0.00   0.00   0.00     0.00  -0.00   0.00
   5   6    -0.00  -0.00   0.00     0.00  -0.00  -0.00     0.00   0.00  -0.00
   6   7     0.00  -0.00  -0.00    -0.00  -0.00   0.00    -0.00   0.00   0.00
   7   6    -0.00  -0.00   0.00    -0.00   0.00  -0.00     0.00  -0.00  -0.00
   8   6     0.00  -0.00   0.00    -0.00  -0.00   0.00     0.00   0.00  -0.00
   9   6    -0.00  -0.00   0.00    -0.01  -0.01   0.01     0.00   0.00  -0.00
  10   6    -0.00   0.00  -0.00     0.00  -0.00   0.00    -0.00   0.00  -0.00
  11   6     0.00  -0.00  -0.00     0.00  -0.00  -0.00    -0.00   0.00   0.00
  12   7    -0.00  -0.00  -0.00    -0.00   0.00   0.00     0.00   0.00   0.00
  13   6     0.00   0.00  -0.00    -0.00  -0.00  -0.00     0.00   0.00   0.00
  14   6     0.00  -0.00  -0.00     0.01  -0.00  -0.00    -0.00   0.00   0.00
  15   6     0.00   0.00   0.00     0.00   0.00   0.00    -0.00  -0.00  -0.00
  16   6    -0.00   0.00   0.00    -0.00   0.01   0.00     0.00  -0.00  -0.00
  17   6    -0.00   0.00   0.00    -0.02   0.00   0.00     0.00  -0.00  -0.00
  18   6     0.00   0.00   0.00    -0.00  -0.00  -0.00     0.00   0.00   0.00
  19   6    -0.00  -0.00  -0.00     0.00   0.01   0.00    -0.00  -0.00  -0.00
  20   6     0.01  -0.01  -0.01    -0.14   0.09   0.10     0.02  -0.01  -0.01
  21   6     0.02   0.01   0.00    -0.19  -0.07  -0.01     0.02   0.01   0.00
  22   6     0.00   0.00   0.00    -0.00  -0.01  -0.00     0.00   0.00   0.00
  23   6    -0.00  -0.00  -0.00     0.00   0.00   0.00    -0.00  -0.00  -0.00
  24   6     0.00  -0.00  -0.00    -0.00  -0.00  -0.00    -0.00   0.00   0.00
  25   6    -0.00  -0.00  -0.00    -0.00  -0.00  -0.00     0.00   0.00   0.00
  26   6    -0.00   0.00   0.00     0.00   0.00  -0.00    -0.00  -0.00   0.00
  27   6    -0.00   0.01   0.01     0.00  -0.00  -0.00    -0.00   0.00   0.00
  28   6     0.01   0.01   0.00    -0.00  -0.00  -0.00     0.00   0.00   0.00
  29   6     0.00   0.00  -0.00    -0.00   0.00   0.00     0.00  -0.00  -0.00
  30   7     0.00  -0.00  -0.00    -0.00  -0.00   0.00     0.00  -0.00  -0.00
  31   6     0.00   0.00   0.00     0.00   0.00   0.00    -0.00  -0.00  -0.00
  32   6     0.00   0.00   0.00     0.00   0.00   0.01    -0.00  -0.00  -0.00
  33   6    -0.00  -0.00   0.00     0.00   0.00  -0.00     0.00   0.00  -0.00
  34   6    -0.00  -0.00  -0.00     0.00   0.00  -0.00     0.00   0.00   0.00
  35   6    -0.00  -0.00  -0.00    -0.00  -0.00  -0.00     0.00   0.00   0.00
  36   6     0.00   0.00  -0.00     0.00   0.00  -0.00    -0.00  -0.00   0.00
  37   6     0.00   0.00  -0.00     0.00  -0.00  -0.00    -0.00   0.00   0.00
  38   6     0.00   0.00  -0.00    -0.00  -0.00   0.00    -0.00  -0.00   0.00
  39   6    -0.00   0.00  -0.00    -0.00   0.00  -0.00     0.00  -0.00   0.00
  40   7    -0.00  -0.00  -0.00    -0.00  -0.00  -0.00     0.00   0.00  -0.00
  41   6     0.00  -0.00   0.00     0.00   0.00   0.00     0.00   0.00   0.00
  42   6    -0.00  -0.00   0.00    -0.00   0.00  -0.00    -0.00  -0.00   0.00
  43   6    -0.00  -0.00  -0.00     0.00   0.00   0.00    -0.00  -0.00  -0.00
  44   6    -0.00   0.00  -0.00     0.00  -0.00   0.00    -0.00   0.00  -0.00
  45   6    -0.00   0.00  -0.00     0.00  -0.01   0.00    -0.00  -0.00  -0.00
  46   6     0.00   0.00   0.00    -0.00  -0.00  -0.00     0.00   0.00   0.00
  47   6    -0.00   0.00  -0.00    -0.00   0.00  -0.00    -0.00  -0.00   0.00
  48   6     0.00   0.00   0.00     0.00  -0.00   0.00     0.00  -0.00   0.00
  49   8    -0.00   0.00  -0.00    -0.00   0.00  -0.00     0.00   0.00   0.00
  50   6    -0.00  -0.00  -0.00    -0.00  -0.00  -0.00    -0.01  -0.01  -0.00
  51   6    -0.03   0.01  -0.02    -0.03   0.01  -0.02    -0.18   0.06  -0.13
  52   6    -0.00   0.01  -0.00    -0.00   0.01  -0.00    -0.02   0.12  -0.03
  53   6    -0.00  -0.00  -0.00     0.00   0.00   0.00     0.04   0.05   0.02
  54   6    -0.02   0.01  -0.02     0.00  -0.00   0.00     0.04  -0.01   0.03
  55   6     0.00   0.00   0.00     0.00  -0.00   0.00     0.00  -0.00   0.00
  56   6    -0.00  -0.01  -0.00    -0.00  -0.00  -0.00     0.00   0.00   0.00
  57   6    -0.19  -0.07  -0.12    -0.01  -0.00  -0.01     0.02   0.01   0.01
  58   6     0.05  -0.07   0.06     0.01  -0.01   0.01    -0.01   0.01  -0.01
  59   6     0.00  -0.00   0.00    -0.00  -0.00   0.00    -0.00   0.00  -0.00
  60   6     0.00   0.00  -0.00     0.00   0.00  -0.00    -0.00  -0.00   0.00
  61  16     0.00  -0.00   0.00    -0.00  -0.00  -0.00    -0.00   0.00   0.00
  62   6    -0.00  -0.00   0.00    -0.00  -0.00   0.00     0.00   0.00  -0.00
  63   6    -0.00   0.00   0.00    -0.00   0.00   0.00     0.00  -0.00  -0.00
  64   6     0.00   0.00  -0.00     0.00   0.00  -0.00    -0.00  -0.00   0.00
  65   6     0.00  -0.00  -0.00     0.00  -0.00  -0.00    -0.00   0.00   0.00
  66   6     0.00  -0.00  -0.00     0.00  -0.00   0.00    -0.00   0.00  -0.00
  67   6    -0.00  -0.00  -0.00     0.00   0.00  -0.00    -0.00  -0.00   0.00
  68   6     0.00   0.00   0.00    -0.00  -0.00   0.00    -0.00   0.00  -0.00
  69   7    -0.00   0.00   0.00     0.00   0.00   0.00     0.00  -0.00  -0.00
  70   6    -0.00   0.00  -0.00     0.00  -0.00   0.00     0.00  -0.00   0.00
  71   6     0.00   0.00   0.00    -0.00  -0.00  -0.00     0.00   0.00   0.00
  72   1    -0.00  -0.00  -0.00     0.00   0.00  -0.00     0.00  -0.00  -0.00
  73   1     0.00  -0.00   0.00    -0.00   0.00  -0.00     0.00  -0.00   0.00
  74   1    -0.00  -0.00  -0.00    -0.00  -0.00  -0.00     0.00   0.00   0.00
  75   1     0.00   0.00  -0.00     0.03   0.03  -0.03    -0.00  -0.00   0.00
  76   1     0.00  -0.00   0.00    -0.00   0.01  -0.00     0.00  -0.00   0.00
  77   1    -0.01   0.00   0.00    -0.02   0.00   0.00     0.01  -0.00  -0.00
  78   1    -0.00  -0.00  -0.00    -0.01  -0.01  -0.01     0.01   0.01   0.00
  79   1     0.00  -0.00  -0.00     0.01  -0.02  -0.02    -0.00   0.01   0.01
  80   1     0.00  -0.00  -0.00     0.06  -0.00  -0.01    -0.01   0.00   0.00
  81   1    -0.03   0.02   0.02     0.46  -0.31  -0.32    -0.06   0.04   0.04
  82   1    -0.05  -0.02  -0.00     0.64   0.25   0.02    -0.07  -0.03  -0.00
  83   1     0.01   0.01   0.00     0.00   0.00   0.00    -0.00  -0.00  -0.00
  84   1     0.01   0.00  -0.01    -0.01  -0.00   0.00     0.00   0.00  -0.00
  85   1     0.01  -0.02  -0.02    -0.00   0.01   0.01     0.00  -0.00  -0.00
  86   1    -0.03  -0.03  -0.01     0.01   0.02   0.01    -0.00  -0.00  -0.00
  87   1    -0.00  -0.00  -0.00    -0.01  -0.00  -0.02     0.00   0.00   0.01
  88   1     0.00   0.00  -0.01    -0.00  -0.00   0.00    -0.00  -0.00   0.00
  89   1     0.01   0.01   0.00    -0.00  -0.00  -0.00    -0.00  -0.00  -0.00
  90   1     0.00   0.00   0.01     0.00   0.00   0.00    -0.00  -0.00  -0.00
  91   1    -0.00  -0.00   0.01    -0.00  -0.00   0.01     0.00   0.00  -0.00
  92   1    -0.02  -0.01   0.01     0.00   0.00  -0.00     0.00   0.00  -0.00
  93   1    -0.00   0.00  -0.00     0.00  -0.01   0.00    -0.00   0.00  -0.00
  94   1     0.00   0.00   0.00    -0.01  -0.01  -0.00     0.00   0.00   0.00
  95   1     0.00  -0.00   0.00    -0.01   0.00  -0.01     0.00  -0.00   0.00
  96   1     0.00  -0.00   0.00    -0.00   0.02  -0.01     0.00   0.00   0.00
  97   1     0.09  -0.03   0.07     0.09  -0.03   0.06     0.63  -0.19   0.46
  98   1     0.01  -0.03   0.01     0.01  -0.05   0.01     0.06  -0.40   0.10
  99   1     0.01   0.01   0.00    -0.01  -0.01  -0.01    -0.14  -0.16  -0.07
 100   1     0.07  -0.02   0.05    -0.00   0.00  -0.00    -0.13   0.04  -0.10
 101   1     0.69   0.24   0.44     0.04   0.01   0.02    -0.07  -0.02  -0.04
 102   1    -0.21   0.28  -0.21    -0.02   0.03  -0.02     0.03  -0.04   0.03
 103   1     0.00  -0.00  -0.00     0.00  -0.01  -0.00    -0.00   0.00   0.00
 104   1    -0.00  -0.00   0.00    -0.01  -0.01   0.00     0.00   0.00  -0.00
 105   1    -0.00   0.00   0.00    -0.01   0.00   0.00     0.00  -0.00  -0.00
 106   1    -0.00   0.00   0.00    -0.00   0.01   0.00     0.00  -0.00  -0.00
 107   1     0.01  -0.00   0.00    -0.00   0.00  -0.00    -0.00   0.00  -0.00
 108   1    -0.01  -0.00  -0.00     0.00   0.00   0.00    -0.00  -0.00  -0.00
                    316                    317                    318
                        a                      a                      a 
 Frequencies --  3109.6447              3115.2190              3136.7917
 Red. masses --     1.8502                 1.8713                 1.8287
 Frc consts  --     0.0000                 0.0000                 0.0000
 IR Inten    --   109.9366                70.7077                21.5438
 Raman Activ --     0.0000                 0.0000                 0.0000
 Depolar     --     0.0000                 0.0000                 0.0000
 Atom AN      X      Y      Z        X      Y      Z        X      Y      Z
   1   6     0.00   0.00  -0.00    -0.00   0.00  -0.00    -0.00  -0.00   0.00
   2   6    -0.00   0.00  -0.00     0.00  -0.00   0.00     0.00  -0.00   0.00
   3   6    -0.00  -0.00  -0.00     0.00   0.00   0.00    -0.00  -0.00  -0.00
   4   6     0.00  -0.00   0.00     0.00  -0.00   0.00     0.00  -0.00   0.00
   5   6    -0.00   0.00   0.00    -0.00  -0.00   0.00     0.00  -0.00  -0.00
   6   7     0.00  -0.00  -0.00     0.00   0.00  -0.00     0.00   0.00   0.00
   7   6    -0.00  -0.00   0.00    -0.00  -0.00  -0.00    -0.00  -0.00  -0.00
   8   6    -0.01   0.00   0.00    -0.00   0.00   0.00     0.00  -0.00   0.00
   9   6    -0.16  -0.14   0.14    -0.00  -0.00   0.00     0.00  -0.00   0.00
  10   6     0.03  -0.09   0.03     0.00  -0.00   0.00     0.00   0.00   0.00
  11   6     0.00   0.00  -0.00    -0.00   0.00  -0.00    -0.00   0.00   0.00
  12   7    -0.00  -0.00   0.00    -0.00   0.00  -0.00     0.00  -0.00  -0.00
  13   6    -0.00  -0.00  -0.00    -0.00  -0.00  -0.00     0.00  -0.00  -0.00
  14   6    -0.00   0.00  -0.00     0.00   0.00  -0.00    -0.00   0.00   0.00
  15   6    -0.00  -0.00  -0.00     0.00   0.00   0.00     0.00   0.00   0.00
  16   6     0.00  -0.00  -0.00    -0.00   0.00   0.00    -0.00   0.00   0.00
  17   6     0.00  -0.00  -0.00    -0.00   0.00   0.00    -0.00   0.00   0.00
  18   6    -0.00   0.00   0.00     0.00   0.00   0.00    -0.00   0.00   0.00
  19   6    -0.00  -0.00  -0.00     0.00  -0.00  -0.00     0.00   0.00   0.00
  20   6     0.01  -0.00  -0.01    -0.00   0.00   0.00    -0.00   0.00   0.00
  21   6     0.01   0.00   0.00    -0.00  -0.00  -0.00    -0.00  -0.00   0.00
  22   6    -0.00   0.00   0.00    -0.00  -0.00  -0.00     0.00   0.00  -0.00
  23   6    -0.00  -0.00  -0.00     0.00  -0.00  -0.00    -0.00   0.00   0.00
  24   6    -0.00   0.00   0.00    -0.00   0.00   0.00    -0.00   0.01   0.01
  25   6    -0.00  -0.00  -0.00     0.01   0.01   0.00     0.18   0.19   0.07
  26   6    -0.00  -0.00   0.00     0.01  -0.00  -0.00     0.03   0.00  -0.01
  27   6    -0.00   0.00   0.00     0.00  -0.00  -0.00     0.00  -0.01  -0.01
  28   6     0.00   0.00   0.00    -0.00  -0.00  -0.00    -0.00  -0.00  -0.00
  29   6     0.00  -0.00  -0.00    -0.00  -0.00   0.00    -0.00  -0.00  -0.00
  30   7    -0.00  -0.00  -0.00     0.00   0.00  -0.00     0.00   0.00   0.00
  31   6     0.00   0.00   0.00    -0.00  -0.00  -0.00    -0.00  -0.00  -0.00
  32   6    -0.00  -0.00  -0.00     0.00   0.00   0.00     0.00   0.00   0.00
  33   6     0.00   0.00  -0.00    -0.00  -0.00   0.00    -0.00  -0.00   0.00
  34   6     0.00   0.00   0.00    -0.00  -0.00  -0.00    -0.00  -0.00  -0.00
  35   6     0.00   0.00   0.00    -0.00  -0.00  -0.00    -0.00  -0.00  -0.00
  36   6    -0.00  -0.00   0.00     0.00   0.00  -0.00    -0.00  -0.00   0.00
  37   6     0.00   0.00   0.00    -0.00   0.00   0.00    -0.00  -0.00  -0.00
  38   6     0.00   0.00  -0.00    -0.00  -0.00   0.00    -0.00  -0.00   0.00
  39   6     0.00   0.00  -0.00     0.00  -0.00   0.00    -0.00  -0.00   0.00
  40   7    -0.00  -0.00   0.00    -0.00   0.00  -0.00    -0.00   0.00  -0.00
  41   6    -0.00   0.00  -0.00    -0.00  -0.00  -0.00     0.00   0.00   0.00
  42   6    -0.00   0.00  -0.00    -0.00   0.00  -0.00    -0.00   0.00  -0.00
  43   6    -0.00   0.00  -0.00     0.00   0.00   0.00     0.00   0.00   0.00
  44   6    -0.00  -0.00  -0.00     0.00  -0.00   0.00     0.00  -0.00   0.00
  45   6     0.00   0.00  -0.00     0.00  -0.00   0.00     0.00  -0.00   0.00
  46   6    -0.00  -0.00   0.00     0.00   0.00  -0.00     0.00  -0.00   0.00
  47   6     0.00   0.00   0.00     0.00  -0.00   0.00    -0.00   0.00  -0.00
  48   6    -0.00  -0.00  -0.00     0.00   0.00   0.00     0.00  -0.00   0.00
  49   8     0.00  -0.00   0.00    -0.00  -0.00   0.00    -0.00   0.00  -0.00
  50   6    -0.00   0.00  -0.00     0.00   0.00  -0.00     0.00  -0.00   0.00
  51   6     0.00  -0.00   0.00     0.00  -0.00   0.00     0.00  -0.00   0.00
  52   6     0.00  -0.00   0.00     0.00  -0.00   0.00     0.00  -0.00   0.00
  53   6     0.00  -0.00   0.00    -0.00  -0.00  -0.00    -0.00  -0.00  -0.00
  54   6    -0.00   0.00  -0.00    -0.00   0.00  -0.00    -0.00   0.00  -0.00
  55   6    -0.00  -0.00   0.00    -0.00   0.00  -0.00     0.00   0.00   0.00
  56   6     0.00   0.00   0.00     0.00  -0.00   0.00    -0.00  -0.00  -0.00
  57   6     0.00   0.00   0.00    -0.10  -0.04  -0.06     0.00   0.00   0.00
  58   6     0.00  -0.00   0.00    -0.13   0.17  -0.13     0.00  -0.01   0.00
  59   6    -0.00   0.00   0.00     0.00   0.01   0.00    -0.00  -0.00  -0.00
  60   6     0.00  -0.00  -0.00    -0.00   0.00   0.00    -0.00   0.00  -0.00
  61  16    -0.00   0.00   0.00    -0.00  -0.00   0.00    -0.00   0.00  -0.00
  62   6    -0.00   0.00  -0.00    -0.00   0.00   0.00     0.00  -0.00  -0.00
  63   6    -0.00   0.00   0.00    -0.00   0.00   0.00     0.00   0.00  -0.00
  64   6     0.00   0.00  -0.00     0.00   0.00  -0.00     0.00   0.00  -0.00
  65   6     0.00  -0.00  -0.00     0.00  -0.00  -0.00     0.00  -0.00  -0.00
  66   6     0.00  -0.00  -0.00     0.00  -0.00  -0.00     0.00  -0.00   0.00
  67   6    -0.00  -0.00   0.00    -0.00  -0.00  -0.00     0.00   0.00  -0.00
  68   6     0.00  -0.00  -0.00     0.00   0.00  -0.00     0.00  -0.00  -0.00
  69   7    -0.00   0.00  -0.00    -0.00  -0.00  -0.00    -0.00   0.00   0.00
  70   6     0.00  -0.00   0.00     0.01  -0.01   0.00     0.00  -0.00   0.00
  71   6     0.00   0.00   0.00     0.00   0.00   0.00    -0.00  -0.00  -0.00
  72   1    -0.00  -0.00   0.00     0.00  -0.00   0.00     0.00   0.00  -0.00
  73   1     0.00  -0.00   0.00    -0.00   0.00  -0.00    -0.00   0.00  -0.00
  74   1     0.00   0.00   0.00    -0.00  -0.00  -0.00     0.00   0.00   0.00
  75   1     0.57   0.51  -0.49     0.01   0.01  -0.01     0.00   0.00  -0.00
  76   1    -0.09   0.29  -0.10    -0.00   0.01  -0.00    -0.00   0.00  -0.00
  77   1     0.00   0.00   0.00    -0.00   0.00   0.00     0.00   0.00  -0.00
  78   1     0.01   0.01   0.00    -0.00  -0.00  -0.00    -0.00  -0.00  -0.00
  79   1    -0.00   0.01   0.01     0.00  -0.00  -0.00     0.00  -0.00  -0.00
  80   1    -0.01   0.00   0.00     0.00  -0.00  -0.00     0.00  -0.00  -0.00
  81   1    -0.02   0.02   0.02     0.01  -0.00  -0.00     0.00  -0.00  -0.00
  82   1    -0.03  -0.01  -0.00     0.01   0.00   0.00     0.00   0.00   0.00
  83   1     0.00   0.00   0.00    -0.02  -0.02  -0.01    -0.64  -0.67  -0.25
  84   1     0.01   0.00  -0.00    -0.02  -0.00   0.01    -0.08  -0.00   0.04
  85   1     0.00  -0.01  -0.01    -0.01   0.02   0.02    -0.01   0.02   0.02
  86   1    -0.01  -0.01  -0.00     0.01   0.01   0.00     0.01   0.01   0.00
  87   1     0.00   0.00   0.01    -0.00  -0.00  -0.00    -0.00   0.00   0.00
  88   1    -0.00  -0.00   0.00     0.00   0.00  -0.00     0.00   0.00  -0.00
  89   1    -0.00  -0.00  -0.00     0.00   0.00   0.00     0.00   0.00   0.00
  90   1    -0.00  -0.00  -0.00     0.00   0.00   0.00     0.00   0.00   0.00
  91   1     0.00   0.00  -0.00    -0.00  -0.00   0.00     0.00   0.00  -0.00
  92   1    -0.01  -0.01   0.01     0.01   0.01  -0.01     0.01   0.01  -0.01
  93   1     0.00  -0.01   0.00     0.00  -0.01   0.00     0.00  -0.00   0.00
  94   1     0.00   0.00   0.00    -0.00  -0.00  -0.00    -0.00  -0.00  -0.00
  95   1     0.00  -0.00   0.00    -0.00   0.00  -0.00    -0.00   0.00  -0.00
  96   1     0.00  -0.00   0.00    -0.00   0.00  -0.00    -0.00   0.00  -0.00
  97   1    -0.00   0.00  -0.00    -0.01   0.00  -0.01    -0.00   0.00  -0.00
  98   1    -0.00   0.00  -0.00    -0.00   0.01  -0.00    -0.00   0.00  -0.00
  99   1    -0.00  -0.00  -0.00     0.01   0.01   0.00     0.00   0.00   0.00
 100   1     0.00  -0.00   0.00     0.02  -0.01   0.01     0.00  -0.00   0.00
 101   1    -0.01  -0.00  -0.01     0.33   0.12   0.21    -0.00  -0.00  -0.00
 102   1    -0.00   0.01  -0.00     0.44  -0.59   0.45    -0.01   0.02  -0.02
 103   1     0.00  -0.01  -0.00     0.00  -0.00  -0.00     0.00  -0.00  -0.00
 104   1    -0.00  -0.00   0.00    -0.00  -0.00   0.00    -0.00  -0.00   0.00
 105   1    -0.00   0.00   0.00    -0.00   0.00   0.00    -0.00   0.00   0.00
 106   1    -0.00   0.00   0.00    -0.00   0.00   0.00    -0.00   0.00   0.00
 107   1    -0.00   0.00  -0.00    -0.03   0.02  -0.01    -0.00   0.00  -0.00
 108   1    -0.00  -0.00  -0.00    -0.01  -0.00  -0.00     0.00   0.00   0.00
