$hessian                                                                        
        0.2525016863   0.1751504156   0.1572181740  -0.0717962145  -0.0506928120
       -0.0059717784   0.0150374203   0.0110585034   0.0253404751  -0.0156713350
       -0.0227327725   0.0014197869  -0.0003183601  -0.0003520529  -0.0001376218
        0.0000470845  -0.0000146417   0.0000461656   0.0000205069  -0.0000197248
        0.0000424631  -0.0000109959  -0.0000027891   0.0000256230  -0.0000125593
        0.0000098213   0.0000025152   0.0000017315   0.0000011483  -0.0000227278
        0.0000036702   0.0000690194  -0.0000446972   0.0000571556   0.0000129460
        0.0000686557  -0.0000040302   0.0000415142  -0.0000183727   0.0000210905
        0.0000180055  -0.0000020995  -0.0000276489  -0.0000063229  -0.0000053319
       -0.0000090465  -0.0000134596  -0.0000102040   0.0000956866   0.0000162395
        0.0000030377  -0.0000432040  -0.0000092083   0.0000823922  -0.0000044952
        0.0000138749  -0.0000414361  -0.0000237826   0.0000102164  -0.0000104896
        0.0000067983  -0.0000100013  -0.0000044897   0.0001028238  -0.0000285770
       -0.0000065314   0.0000504271   0.0000325720  -0.0001263450  -0.0000126951
       -0.0000082499   0.0000189310  -0.0000131227   0.0000141727   0.0000030659
       -0.0000036888   0.0000012610   0.0000016624   0.0000014876   0.0000108124
        0.0000067857   0.0000149894  -0.0000003320   0.0000002014   0.0000125128
       -0.0000192663  -0.0000092360  -0.0000380431  -0.0000761615   0.0000091126
        0.0000378407   0.0000434529  -0.0000952330  -0.0001950728   0.0000110938
        0.0000362266  -0.0001977257   0.0001660543   0.0000621126  -0.0000293103
        0.0001531504   0.0001000762   0.0000178969  -0.0000164227   0.0000003457
       -0.0000170921  -0.0000084675   0.0000300709  -0.0000021338  -0.0000045608
       -0.0000006179  -0.0000060085  -0.0000141221   0.0000069171   0.0000058562
       -0.0000079416  -0.0000112839   0.0000014359   0.0000079721  -0.0000015246
       -0.0000015784   0.0000160569   0.0000093206  -0.0000397944   0.0000510716
        0.0001242643  -0.0092673687   0.0128953097  -0.0431334881  -0.1196554094
       -0.1103530209  -0.0616929507  -0.0551514402   0.0099537327  -0.0669176146
       -0.0038074505  -0.0147416223   0.0050347652   0.0061090903  -0.0015204812
       -0.0040185884   0.0000006230  -0.0000105112   0.0000067725   0.0000114168
       -0.0000045571  -0.0000054610   0.0000057066  -0.0000096692   0.0000025825
       -0.0000003870  -0.0000062012   0.0000048768   0.0000054750   0.0000064399
       -0.0000087865  -0.0000693502   0.0000327838  -0.0000033501  -0.0000115179
        0.0000033755  -0.0000051286   0.0000001167   0.0000046079   0.0000008186
        0.0000041760  -0.0000049528  -0.0000030172   0.0000118626  -0.0000203246
       -0.0000112305   0.0000069142  -0.0000189134   0.0000179551   0.0000034518
        0.0000024386   0.0000032290  -0.0000030621   0.0000055104   0.0000086380
       -0.0000051176   0.0000021916   0.0000021287   0.0000000554  -0.0000040048
       -0.0000026710  -0.0000051115  -0.0000049497  -0.0000014159  -0.0000092654
       -0.0000000219   0.0000011920  -0.0000001328   0.0000027870   0.0000009376
       -0.0000172529  -0.0000093030   0.0000338942  -0.0000238066  -0.0000150925
       -0.0000608140  -0.0000659582   0.0000441397   0.0001638073  -0.0000182114
       -0.0000293950  -0.0000211146  -0.0000097893  -0.0000177885   0.0000021834
        0.0000031425  -0.0000069863  -0.0000051957   0.0000007942   0.0000069181
        0.0000004237  -0.0000027131   0.0000044954   0.0000072695  -0.0000039630
       -0.0000016692   0.0000071470  -0.0000010579  -0.0000041606   0.0000018441
        0.0000712629   0.0000623228  -0.0000935065   0.0060322252  -0.0020626879
       -0.0036563625  -0.0036981107  -0.0070522275  -0.0037981300
        0.1751504156   0.5765618119  -0.0701602067  -0.0760663761  -0.2729922648
        0.0569757437   0.0302857434   0.0015256962   0.0817613543  -0.0224840320
       -0.0537236938  -0.0060773657  -0.0003358363  -0.0010178149   0.0000885482
        0.0000455198   0.0000809261   0.0000904882   0.0000246524  -0.0000410153
        0.0000555887  -0.0000094442   0.0000072408  -0.0000053992  -0.0000060747
       -0.0000089936   0.0000125182  -0.0000053740  -0.0000205956  -0.0000177537
        0.0000085944   0.0001075132  -0.0000642024   0.0000462348   0.0000362236
        0.0000942866  -0.0000450407   0.0000987631   0.0000010373  -0.0000058711
        0.0000149763  -0.0000034079  -0.0000189774   0.0000170701   0.0000015363
        0.0000146963  -0.0000113520  -0.0000052258   0.0001886819  -0.0000140664
       -0.0000116869   0.0000039681  -0.0000220982  -0.0002034672  -0.0000734873
       -0.0000053579   0.0000025565   0.0001421812   0.0000619585  -0.0000507035
       -0.0001246622  -0.0000129448  -0.0000083272   0.0003661199  -0.0000867461
       -0.0000954645  -0.0000583848  -0.0000468908  -0.0000364398   0.0000006617
        0.0000283403  -0.0000076166  -0.0000041128  -0.0000033624  -0.0000288926
       -0.0000002245  -0.0000144321  -0.0000037063  -0.0000079292   0.0000042291
        0.0000057777   0.0000024967   0.0000001286   0.0000033806  -0.0000087000
       -0.0000093360  -0.0000000805  -0.0000994376  -0.0001131253   0.0000422257
        0.0001299748   0.0001012444  -0.0000649954  -0.0001574628   0.0000934856
        0.0001043474   0.0002851072  -0.0000499532  -0.0000637494   0.0000960057
        0.0000214091  -0.0001414395  -0.0000304125  -0.0000977831   0.0000649953
        0.0000294037   0.0000135817   0.0000345603   0.0000056070  -0.0000103790
       -0.0000215639  -0.0000063090   0.0000069749   0.0000046149   0.0000021383
        0.0000042129  -0.0000028565  -0.0000138109   0.0000115109   0.0000141853
        0.0000016048  -0.0000105898  -0.0000125589  -0.0003471019   0.0001785999
        0.0004276971  -0.0065925203   0.0407545971  -0.0643893144  -0.0849553268
       -0.1993311707  -0.0451975573   0.0097581652  -0.0523796142   0.0480832557
       -0.0072237335  -0.0215113583   0.0073768932  -0.0019269266   0.0019008111
        0.0020363972   0.0000097532  -0.0000381715   0.0000586282   0.0000132150
       -0.0000078805   0.0000078364   0.0000027812   0.0000017184   0.0000036568
        0.0000008010  -0.0000017855  -0.0000032877   0.0000267666   0.0000196984
       -0.0000375546  -0.0000665774   0.0000520491   0.0000021130  -0.0000085196
       -0.0000084580  -0.0000114197  -0.0000074549  -0.0000044245  -0.0000081917
       -0.0000121105  -0.0000068827  -0.0000084394   0.0000187698  -0.0000204160
       -0.0000146776  -0.0000015292  -0.0000508973   0.0000139162  -0.0000062398
        0.0000314868  -0.0000137438   0.0000167520   0.0000140220   0.0000042300
        0.0000063199  -0.0000072263   0.0000190448  -0.0000017330   0.0000028417
        0.0000046011   0.0000025179   0.0000028747   0.0000048402   0.0000028490
        0.0000012320   0.0000021580  -0.0000018998   0.0000012699  -0.0000014506
       -0.0000262253  -0.0000055354   0.0000182948  -0.0000448812  -0.0000568330
       -0.0000395084   0.0001711683  -0.0002502582   0.0000262663  -0.0000092787
       -0.0000125427  -0.0000211849  -0.0000090336  -0.0000046884   0.0000012634
       -0.0000015553  -0.0000000051   0.0000058915   0.0000007147  -0.0000053726
       -0.0000008444   0.0000039448  -0.0000019103  -0.0000047298   0.0000048918
        0.0000041387  -0.0000048862   0.0000001488   0.0000043240   0.0000070596
        0.0002640104   0.0000384121  -0.0001149177  -0.0016952161   0.0020800665
        0.0023372372  -0.0146335538  -0.0218672130  -0.0128402076
        0.1572181740  -0.0701602067   0.6166545027   0.0239733055   0.1267444675
       -0.1311642370   0.0026583843   0.0288993793  -0.0249200582   0.0011095345
       -0.0056788532   0.0040453635  -0.0001325758   0.0001319526  -0.0005248254
        0.0001403675  -0.0001480290   0.0001784115   0.0000394844   0.0000707288
       -0.0000828622  -0.0000079772  -0.0000445347   0.0000683055  -0.0000253225
        0.0000365776  -0.0000091274  -0.0000038233   0.0000126838  -0.0000315405
        0.0000078374  -0.0000398593   0.0000083300   0.0000700303   0.0000204348
        0.0001227274   0.0000198860   0.0000116211  -0.0000091040   0.0000508246
        0.0000125829   0.0000031136  -0.0000455867  -0.0000328106  -0.0000155450
       -0.0000311570  -0.0000024640  -0.0000158050   0.0000547063   0.0000344120
        0.0000090358  -0.0000325912  -0.0001276538   0.0003372618  -0.0000130259
        0.0000224589  -0.0000906351  -0.0000160931   0.0000780301  -0.0000126651
        0.0000297833   0.0000418310  -0.0000711095   0.0000153794  -0.0000518838
        0.0000852239   0.0000741385  -0.0000354641  -0.0001215229  -0.0000148887
        0.0000023441   0.0000194722   0.0000102976   0.0000033652   0.0000243086
       -0.0000120691   0.0000068675   0.0000048849   0.0000110242   0.0000195821
        0.0000072684   0.0000221699  -0.0000061628  -0.0000021561   0.0000056198
       -0.0000269825  -0.0000177284  -0.0001021700  -0.0000218747  -0.0000798600
        0.0000411955   0.0000906895  -0.0002023264  -0.0000007281   0.0000876430
       -0.0001118777  -0.0000179882  -0.0002376626   0.0001179634   0.0002788530
        0.0000847850   0.0002335000  -0.0000298643   0.0000355562   0.0000028614
       -0.0000093452  -0.0000153609   0.0000118737  -0.0000131275   0.0000138159
        0.0000197868  -0.0000137915  -0.0000301465   0.0000171791   0.0000135398
       -0.0000264250  -0.0000265273   0.0000149000   0.0000176493  -0.0000190164
       -0.0000079304   0.0000076187   0.0000167589   0.0000146013   0.0000033968
       -0.0000983743  -0.0201269547  -0.0118865651  -0.0394630540  -0.0920153262
       -0.1146059819  -0.1574165844  -0.0669068357   0.0479556418  -0.2702384330
       -0.0039909578  -0.0138562253   0.0058175786  -0.0037135260   0.0025194947
       -0.0045294468  -0.0000525634   0.0000130460  -0.0000546933  -0.0000075783
        0.0000148896  -0.0000159791   0.0000090524  -0.0000241047   0.0000038901
       -0.0000037474  -0.0000143632   0.0000216182  -0.0000202724  -0.0000108422
        0.0000333412  -0.0000714801   0.0000281101  -0.0000083308  -0.0000178355
        0.0000152197  -0.0000003840   0.0000086178   0.0000148103   0.0000082294
        0.0000174723  -0.0000087862  -0.0000020639   0.0000158813  -0.0000264905
       -0.0000222493   0.0000227594  -0.0000313047   0.0000275583   0.0000126497
       -0.0000076660   0.0000111327  -0.0000192204  -0.0000069062   0.0000154011
       -0.0000242252   0.0000105789  -0.0000133344   0.0000026592  -0.0000040432
       -0.0000077228  -0.0000126774  -0.0000102874  -0.0000070113  -0.0000198212
       -0.0000009716   0.0000012650  -0.0000022402   0.0000050541   0.0000038016
       -0.0000286207  -0.0000025213   0.0000116535  -0.0001111452  -0.0000647684
       -0.0001208597   0.0001623535   0.0000979483   0.0001840960  -0.0001890440
       -0.0000621788  -0.0000382093   0.0000066441  -0.0000029500   0.0000011789
        0.0000105238  -0.0000035854  -0.0000152828   0.0000026086   0.0000148986
        0.0000014816  -0.0000072820   0.0000089473   0.0000168589  -0.0000074507
       -0.0000081293   0.0000119871   0.0000026189  -0.0000067833  -0.0000042781
       -0.0000856117   0.0000902812   0.0000165533  -0.0037950023   0.0018488589
       -0.0045782444   0.0056115961   0.0082035763   0.0059873067
       -0.0717962145  -0.0760663761   0.0239733055   0.2524645602   0.1815558279
        0.1569752176  -0.0776280021   0.0104648205  -0.0899489775  -0.0050500058
       -0.0086074461  -0.0215697311   0.0023114737  -0.0024882676  -0.0018624061
        0.0001112931  -0.0003017802   0.0004128207  -0.0000330312   0.0000649543
        0.0000775638  -0.0000366836  -0.0000006684   0.0000737746  -0.0000050718
        0.0000078357  -0.0000001475   0.0000012970  -0.0000113025  -0.0000008377
        0.0000623963   0.0000685130  -0.0001628090  -0.0001670337   0.0001354501
       -0.0001113185   0.0000456543  -0.0000165760   0.0000231523   0.0000295987
        0.0000235541   0.0000176992  -0.0000316813  -0.0000033120  -0.0000082635
       -0.0000481180  -0.0000169799  -0.0000045537   0.0000040289  -0.0000498093
       -0.0000384674   0.0000133103   0.0001534038  -0.0005679056   0.0000412340
        0.0000994023   0.0001036559  -0.0000118892  -0.0000119476  -0.0000451304
        0.0000125208  -0.0000182428   0.0000676649   0.0001100019  -0.0000087593
       -0.0000540767   0.0000989472   0.0000044138  -0.0001418665  -0.0000132127
       -0.0000038602   0.0000183954   0.0000022265   0.0000001957   0.0000024780
       -0.0000091435   0.0000287792   0.0000059885  -0.0000005793   0.0000006402
       -0.0000012112  -0.0000026595  -0.0000052044  -0.0000009423   0.0000035487
       -0.0000159372  -0.0000124317   0.0000162865   0.0000015024   0.0000246436
       -0.0000230070  -0.0000209860  -0.0000746603  -0.0000500097  -0.0000477642
       -0.0000852166  -0.0000609248   0.0000365215   0.0000683368  -0.0000031344
        0.0000685607   0.0001123036   0.0000450695   0.0000802518  -0.0000337614
       -0.0000116545  -0.0000206757   0.0000054177  -0.0000053628   0.0000200851
        0.0000147760   0.0000024772  -0.0000089897  -0.0000015497  -0.0000003441
       -0.0000087835  -0.0000000837   0.0000089406  -0.0000010280  -0.0000109211
       -0.0000149593   0.0000127524   0.0000277461  -0.0002387695   0.0000599939
        0.0002070480  -0.0044125965   0.0044955455   0.0018184653  -0.0071338592
       -0.0197036155   0.0019834204   0.0025077951   0.0063081912  -0.0038150362
       -0.0986538461  -0.0894291495  -0.0692155428   0.0025902323  -0.0019929494
        0.0052592776  -0.0000598758  -0.0000052671   0.0000356541   0.0000234746
       -0.0000158659  -0.0000139109   0.0000097748  -0.0000270087   0.0000079755
        0.0000103298  -0.0000282426   0.0000142634   0.0000081030  -0.0000194913
        0.0000079534  -0.0000511747   0.0000444650   0.0000005175  -0.0000092784
        0.0000157547   0.0000017893   0.0000026622   0.0000130323   0.0000032071
        0.0000030131  -0.0000066318  -0.0000000792  -0.0000336278  -0.0000068125
       -0.0000112134   0.0000393500  -0.0000130217   0.0000605144   0.0000084169
        0.0000065333  -0.0000033994  -0.0000161561   0.0000004228   0.0000190847
        0.0000190991   0.0000240284   0.0000006265  -0.0000030715  -0.0000172492
       -0.0000035631  -0.0000107011  -0.0000057405  -0.0000036820  -0.0000082323
       -0.0000040445  -0.0000005344   0.0000008230  -0.0000015217  -0.0000009385
       -0.0000052540  -0.0000003586   0.0000358369  -0.0000091845   0.0000071625
        0.0000186654  -0.0000373687  -0.0000660219  -0.0000050051   0.0000309279
        0.0000095629  -0.0000083365  -0.0000158200  -0.0000282866   0.0000117279
        0.0000024696  -0.0000056855  -0.0000086092   0.0000001317   0.0000071991
        0.0000009488  -0.0000033122   0.0000045754   0.0000072116  -0.0000046800
       -0.0000032905   0.0000076485   0.0000015989  -0.0000051532  -0.0000032860
        0.0002516696   0.0000016328  -0.0002520170   0.0001531594   0.0003505501
        0.0003215737   0.0046616348  -0.0050560097  -0.0037459275
       -0.0506928120  -0.2729922648   0.1267444675   0.1815558279   0.5879791476
       -0.0589978292  -0.0150388431  -0.0975117462   0.0143063939   0.0098751667
        0.0388411044  -0.0111213733  -0.0025217701  -0.0001359028  -0.0023541331
        0.0000958026  -0.0000227018  -0.0000710384  -0.0000421637   0.0000727203
       -0.0000242402  -0.0000544684  -0.0000030553   0.0000405320  -0.0000283048
        0.0000403578   0.0000007353   0.0000140867   0.0000290749  -0.0000466825
        0.0000032491   0.0000252701  -0.0000294936  -0.0001256901   0.0001138024
       -0.0005329289  -0.0000168075  -0.0000621413   0.0000390631   0.0000051257
       -0.0000365164   0.0000316473   0.0000171656  -0.0000395745  -0.0000155204
       -0.0000287028   0.0000202499   0.0000541926  -0.0001308258  -0.0000449909
       -0.0000052699  -0.0001407302  -0.0000198090   0.0006308896  -0.0000195593
       -0.0000817536  -0.0001887867  -0.0000857965   0.0000208731   0.0000698046
        0.0000859513   0.0000796041  -0.0001250370  -0.0001288626  -0.0000182280
        0.0002621912   0.0001163383   0.0000723661   0.0000952503  -0.0000044949
        0.0000440911   0.0000035137  -0.0000200912   0.0000119473  -0.0000048725
       -0.0000225399   0.0000332724   0.0000069199  -0.0000059087   0.0000058674
       -0.0000008820   0.0000013082  -0.0000059057   0.0000050257  -0.0000004879
       -0.0000383416  -0.0000303844  -0.0000124004   0.0000253084   0.0000348582
       -0.0000290529   0.0000038900   0.0000222753  -0.0000633282  -0.0001014922
       -0.0001667431  -0.0000127579   0.0000608332  -0.0000894795   0.0001058009
        0.0000457897   0.0001759656   0.0000898274   0.0000872600  -0.0000620058
       -0.0000228068  -0.0000505339  -0.0001084076  -0.0000142229   0.0000552800
        0.0000443961   0.0000170170  -0.0000294264  -0.0000170422  -0.0000031934
       -0.0000147847   0.0000026638   0.0000290658  -0.0000071719  -0.0000328671
       -0.0000271378   0.0000103847   0.0000512211   0.0001304638  -0.0000225178
       -0.0004926044   0.0046714921  -0.0240582270   0.0329674663  -0.0384464727
       -0.0530760434  -0.0407056846  -0.0012576944  -0.0065071566   0.0048935345
       -0.0892284011  -0.1635083877  -0.0917331459   0.0059389696  -0.0081051008
        0.0268529708  -0.0000111242   0.0000019483  -0.0000044812   0.0000127388
       -0.0000066112  -0.0000174728   0.0000174736  -0.0000229646   0.0000040405
        0.0000023455  -0.0000165827   0.0000147770  -0.0000118943  -0.0000250051
        0.0000276398   0.0000417024  -0.0000273215  -0.0000202581  -0.0000001809
        0.0000184844   0.0000093635   0.0000165548   0.0000196259  -0.0000005222
        0.0000195088   0.0000037688  -0.0000007080   0.0000152336   0.0000019202
       -0.0000220541   0.0000102720   0.0000112799   0.0000466147   0.0000078058
       -0.0000303277   0.0000452011  -0.0000189441  -0.0000080903   0.0000231810
        0.0000488645   0.0000105004   0.0000186346  -0.0000003133  -0.0000395428
       -0.0000081145  -0.0000156167  -0.0000117160  -0.0000095949  -0.0000151052
       -0.0000103367  -0.0000019423   0.0000076540  -0.0000045879  -0.0000028255
       -0.0000219372  -0.0000234300  -0.0000183207  -0.0000454415   0.0000185445
        0.0000668143  -0.0001081220  -0.0000981756   0.0000533533  -0.0000016219
        0.0000644664  -0.0000203123  -0.0000628414  -0.0000424464   0.0000356141
        0.0000044362  -0.0000050871  -0.0000123320  -0.0000006104   0.0000154089
        0.0000023306  -0.0000089626   0.0000090513   0.0000139633  -0.0000093135
       -0.0000074767   0.0000134550   0.0000030627  -0.0000091236  -0.0000068836
        0.0000610738  -0.0000728813   0.0003069814   0.0002714975   0.0001854073
        0.0007007503  -0.0047345252  -0.0010834195  -0.0016164178
       -0.0059717784   0.0569757437  -0.1311642370   0.1569752176  -0.0589978292
        0.6002850142  -0.0606078433   0.0842401327  -0.3012236238  -0.0435961457
       -0.0618183513  -0.0396060633  -0.0015467428  -0.0019795519   0.0018893469
        0.0002126315   0.0001942754   0.0000434491   0.0001496961   0.0001525384
        0.0000101287  -0.0000340487  -0.0000141287   0.0000301940   0.0000016542
       -0.0000364140   0.0000058207  -0.0000096699  -0.0000475247  -0.0000069412
       -0.0000095169   0.0001179505  -0.0000415484   0.0000320821   0.0000650651
       -0.0001476315  -0.0000707269   0.0001082892  -0.0000253287  -0.0000009956
        0.0000063362   0.0000069050  -0.0000189501  -0.0000132508  -0.0000090166
       -0.0000194983  -0.0000170280   0.0000008403   0.0001922545  -0.0000094032
       -0.0000252175  -0.0001633814   0.0001626113   0.0000938487  -0.0000752255
       -0.0000422403  -0.0000904083   0.0000727085   0.0000050882  -0.0000069647
       -0.0000755635  -0.0000396818  -0.0000289106   0.0002765601  -0.0000552506
        0.0000721935   0.0000888226   0.0000904066  -0.0000913336   0.0000156566
        0.0000299900   0.0000328721  -0.0000422389  -0.0000136668  -0.0000114403
        0.0000051639   0.0000290561   0.0000050205  -0.0000117326  -0.0000149176
       -0.0000102653  -0.0000236428  -0.0000030396   0.0000010476  -0.0000139168
       -0.0000215716  -0.0000211178  -0.0000626107  -0.0000167234   0.0000115539
        0.0000143312   0.0000538806  -0.0001286441  -0.0000708634   0.0000032318
        0.0001230683   0.0000411455  -0.0000401767  -0.0000674841   0.0000881670
       -0.0000014206   0.0000865557   0.0000500224   0.0000606273   0.0000533631
        0.0000022156  -0.0000368985  -0.0000248782   0.0000023607   0.0000312075
        0.0000053497   0.0000156663  -0.0000003382  -0.0000187259  -0.0000118202
        0.0000003799   0.0000205500   0.0000068134  -0.0000132233  -0.0000098202
       -0.0000204931   0.0000091360   0.0000296052  -0.0001306770  -0.0000085753
        0.0003759166   0.0012805905   0.0319266854  -0.0404934836   0.0240022911
        0.0102934882   0.0539504942   0.0052151374   0.0260348132  -0.0149251561
       -0.0693812033  -0.0911921976  -0.1140970521  -0.0032455527   0.0054194934
       -0.0143879135  -0.0001360301  -0.0000873253   0.0000236462  -0.0000019138
        0.0000086969   0.0000050040   0.0000059826  -0.0000122803   0.0000145239
       -0.0000061431  -0.0000055983   0.0000075282  -0.0000165062   0.0000067792
        0.0000161702  -0.0000996301   0.0000588204  -0.0000020480  -0.0000179311
       -0.0000141631  -0.0000084390  -0.0000024284   0.0000007885  -0.0000037804
       -0.0000016571  -0.0000186403  -0.0000062349   0.0000536868  -0.0000606820
       -0.0000377823   0.0000129652  -0.0000097727   0.0000452940  -0.0000050096
        0.0000028999   0.0000137022  -0.0000087878   0.0000052244   0.0000260312
        0.0000197935   0.0000332438   0.0000296470  -0.0000139021  -0.0000352453
       -0.0000054495  -0.0000036244  -0.0000047299  -0.0000041768  -0.0000006449
       -0.0000108875  -0.0000033581   0.0000128230  -0.0000099538  -0.0000053697
       -0.0000338875  -0.0000015949   0.0000239302  -0.0000152040  -0.0000178332
       -0.0000557358   0.0000099308  -0.0000378916   0.0000019429  -0.0000183338
        0.0000188348  -0.0000740987  -0.0000438200  -0.0000183004   0.0000131704
       -0.0000002335  -0.0000090946  -0.0000042765   0.0000000593   0.0000028462
       -0.0000002550  -0.0000023485   0.0000026097   0.0000032315  -0.0000027680
       -0.0000010366   0.0000043360   0.0000027976  -0.0000009735  -0.0000022800
        0.0003912030   0.0001881450  -0.0004115885   0.0004404290   0.0005906235
       -0.0001196625  -0.0040452167  -0.0021405316   0.0000464462
        0.0150374203   0.0302857434   0.0026583843  -0.0776280021  -0.0150388431
       -0.0606078433   0.2387298214   0.1609098032   0.1485325193  -0.1100785322
       -0.0783672569  -0.0832274017  -0.0030880124  -0.0009358549  -0.0071141138
        0.0001803944  -0.0001960597   0.0003003379  -0.0001510591  -0.0000069642
        0.0000458998   0.0000235735  -0.0000993299   0.0000009997   0.0000153133
       -0.0000364357   0.0000140747  -0.0000173566  -0.0000347785   0.0000319651
        0.0000829593  -0.0000022944  -0.0002109083   0.0000825415  -0.0002835459
       -0.0000714656   0.0000529641  -0.0002833766  -0.0000883804  -0.0000208082
       -0.0000396454  -0.0000416102   0.0000634074  -0.0000254607  -0.0000235745
        0.0000155680   0.0000444080  -0.0000036103  -0.0003026623  -0.0000013489
       -0.0000490269  -0.0006724075  -0.0004483183   0.0006766320  -0.0001703504
       -0.0001086038  -0.0004032810   0.0000965892   0.0001081562  -0.0000388647
       -0.0001299056   0.0000376687  -0.0001887759   0.0002198161  -0.0001012148
        0.0002442505   0.0000639979  -0.0000429081   0.0000516651   0.0000189422
        0.0000700886  -0.0000090115  -0.0000315212   0.0000159342  -0.0000157215
        0.0000049093   0.0000163506   0.0000203603   0.0000039796  -0.0000019932
       -0.0000003225  -0.0000022113   0.0000075120   0.0000147529   0.0000205591
       -0.0000472733  -0.0000387925   0.0000065729   0.0000446423   0.0000178960
       -0.0000183881   0.0000096955   0.0000128820  -0.0000675112  -0.0001026989
       -0.0000263708   0.0000866709   0.0000504342   0.0000658591  -0.0000324249
       -0.0000657973   0.0000507859   0.0000537975   0.0000126250  -0.0000308245
        0.0000297250  -0.0000627845  -0.0001594613  -0.0000171945   0.0000797390
        0.0000525151   0.0000449764  -0.0000174449  -0.0000661134  -0.0000261105
        0.0000078730   0.0000469514   0.0000150956  -0.0000292832  -0.0000195370
       -0.0000419748   0.0000104339   0.0000734892   0.0001404182   0.0001197997
        0.0002004159  -0.0059292543  -0.0354757406   0.0225144182  -0.0174667748
       -0.0051986451  -0.0226614774   0.0062064876  -0.0038645232  -0.0010994217
       -0.0040946435   0.0012165141  -0.0155280387  -0.0467303437  -0.0486211616
        0.0172618222  -0.0003049639   0.0002711158  -0.0000758870   0.0000171157
       -0.0000060579  -0.0000130821   0.0000127046   0.0000012272   0.0000069522
        0.0000172958  -0.0000160828   0.0000232853  -0.0000388677  -0.0000434078
        0.0000274884  -0.0000403012  -0.0000466019  -0.0000755699  -0.0000161827
        0.0000205099   0.0000129267   0.0000117026   0.0000114205   0.0000121332
        0.0000336238   0.0000021533   0.0000029142   0.0000492857  -0.0000236696
       -0.0000339197   0.0000660593  -0.0000313808   0.0002200657   0.0000211062
        0.0000157453   0.0000520923  -0.0000009108   0.0000225338   0.0000487628
        0.0000192024   0.0000204616  -0.0000031955  -0.0000026106  -0.0000138841
       -0.0000076901  -0.0000118141  -0.0000044077  -0.0000051822  -0.0000160060
       -0.0000063377   0.0000021243   0.0000030700   0.0000055873  -0.0000015469
       -0.0000043165  -0.0000110201  -0.0000571632  -0.0000211458   0.0000273997
        0.0000420842  -0.0000150935   0.0000176162  -0.0000350333  -0.0000139926
       -0.0000054908  -0.0000237186   0.0000110987  -0.0000062070  -0.0000029466
        0.0000077583  -0.0000058770  -0.0000093925  -0.0000002638   0.0000146731
        0.0000012224  -0.0000037444   0.0000074727   0.0000075241  -0.0000054324
        0.0000004787   0.0000104148   0.0000006257  -0.0000030585  -0.0000004410
       -0.0001434175   0.0001920591   0.0004113557   0.0060213665  -0.0040747893
       -0.0014529145  -0.0002320035   0.0001599828  -0.0002485903
        0.0110585034   0.0015256962   0.0288993793   0.0104648205  -0.0975117462
        0.0842401327   0.1609098032   0.5820274325  -0.0763290788  -0.0972129632
       -0.1886912515  -0.1041633634   0.0010418021   0.0044490024  -0.0033989550
        0.0002951885  -0.0006918660   0.0009353742  -0.0000860740   0.0001090592
        0.0001819958  -0.0000493819  -0.0000033567   0.0000820116  -0.0000270700
       -0.0000870139   0.0000779788   0.0000475952  -0.0001787916   0.0000068367
        0.0001721792  -0.0000533666  -0.0002971068   0.0001021102  -0.0004124309
        0.0017075847   0.0002224022  -0.0005501642  -0.0002127204   0.0000904162
        0.0000504388  -0.0001609062   0.0000087909   0.0000024515  -0.0000141907
        0.0000140454   0.0000828687  -0.0001597820  -0.0004688693   0.0001635464
       -0.0000345586  -0.0005667986  -0.0008567926   0.0014685381  -0.0003850744
       -0.0001566416  -0.0007239574   0.0000155624   0.0001762524   0.0001173161
        0.0001310421   0.0001808087  -0.0003591974  -0.0003994265  -0.0001746369
       -0.0000260863   0.0000234457   0.0001524273   0.0001967747   0.0000789932
        0.0000923756   0.0000006075  -0.0002926619   0.0000480109  -0.0000267349
        0.0000566692   0.0000026461   0.0000156241   0.0000135187   0.0000004118
        0.0000024570   0.0000047189   0.0000066298   0.0000184399   0.0000446090
       -0.0000861890  -0.0000688131   0.0000214150   0.0000294020   0.0000251410
        0.0000152579   0.0000791551  -0.0000130053  -0.0000571719  -0.0000782605
       -0.0000117948   0.0000623013  -0.0000251006   0.0001070123  -0.0000370775
       -0.0000136281   0.0000239517   0.0000592941   0.0000734176  -0.0001025360
        0.0000025065  -0.0000722502  -0.0000935061   0.0000001078  -0.0000073668
        0.0000096744   0.0000249746  -0.0000247238  -0.0000408667  -0.0000160237
        0.0000002994   0.0000280053   0.0000104369  -0.0000120292  -0.0000148863
        0.0000039741   0.0000348859  -0.0000044324   0.0013231779  -0.0002457632
        0.0006307745  -0.0190266957  -0.0497922300   0.0071755119  -0.0047606608
       -0.0029670094  -0.0172919206  -0.0035737201  -0.0034896155   0.0039073254
       -0.0065948116   0.0028450064  -0.0195452743  -0.0480631995  -0.2432960809
        0.0903907309  -0.0001672136   0.0001338677   0.0001500528   0.0000360410
        0.0000066604  -0.0000110742   0.0000219054  -0.0000178868   0.0000249740
        0.0000299843  -0.0000455161   0.0000468083  -0.0000323433  -0.0000537019
        0.0001065543  -0.0000089832  -0.0001226871  -0.0000089353  -0.0000171219
        0.0000646048   0.0000260280   0.0000184696   0.0000168530   0.0000577393
        0.0000657357   0.0000092380   0.0000228712  -0.0000005670  -0.0000396490
       -0.0000202188   0.0000080886  -0.0000231129   0.0000624423   0.0000350919
       -0.0000249707   0.0000532379  -0.0000105132   0.0000029370  -0.0000248633
       -0.0000028048   0.0000111941   0.0000601700  -0.0000255119  -0.0000511339
       -0.0000280028   0.0000119180  -0.0000029129  -0.0000103217  -0.0000048873
       -0.0000166773  -0.0000033269   0.0000368208  -0.0000092888  -0.0000101288
       -0.0000113170  -0.0000038960  -0.0000678396  -0.0000901876   0.0000037859
        0.0000752995  -0.0000585382   0.0000374141  -0.0000132668  -0.0000236766