 Entering Gaussian System
 *********************************************
 Gaussian 98:
 frequency output generated by the xtb code
 *********************************************
                         Standard orientation:
 --------------------------------------------------------------------
  Center     Atomic     Atomic              Coordinates (Angstroms)
  Number     Number      Type              X           Y           Z
 --------------------------------------------------------------------
    1          8             0        7.537358    3.588613    0.695523
    2          6             0        7.671715    2.418945    0.363015
    3          6             0        9.000618    1.868748    0.002013
    4          6             0        9.362280    0.559754    0.318533
    5          6             0       10.626564    0.095831    0.003657
    6          6             0       11.536105    0.925111   -0.634019
    7          6             0       11.186553    2.230668   -0.942859
    8          6             0        9.929956    2.704150   -0.616441
    9          6             0        6.516117    1.496713    0.309408
   10          6             0        5.436998    1.718882    1.166537
   11          6             0        4.334251    0.893050    1.141797
   12          6             0        4.273184   -0.163400    0.231509
   13          7             0        3.154047   -0.996488    0.192646
   14          6             0        3.171007   -2.380877    0.167756
   15          6             0        4.246532   -3.255079    0.233698
   16          6             0        3.978578   -4.611499    0.228019
   17          6             0        2.673781   -5.095522    0.169243
   18          6             0        1.597889   -4.230341    0.130891
   19          6             0        1.842950   -2.863553    0.135590
   20          6             0        0.986868   -1.708429    0.129364
   21          6             0       -0.389270   -1.549737    0.079227
   22          6             0       -0.926196   -0.267843    0.066597
   23          6             0       -2.381680   -0.069861    0.026366
   24          6             0       -2.991698    0.929659    0.783668
   25          6             0       -4.358449    1.111395    0.756487
   26          6             0       -5.164423    0.302706   -0.045397
   27          7             0       -6.551116    0.486722   -0.080203
   28          6             0       -7.087665    1.778445   -0.023797
   29          6             0       -8.265830    2.026422    0.681175
   30          6             0       -8.794344    3.302077    0.728495
   31          6             0       -8.157013    4.351000    0.085264
   32          6             0       -6.983555    4.111624   -0.611766
   33          6             0       -6.452247    2.837747   -0.672535
   34          6             0       -7.400813   -0.622718   -0.167031
   35          6             0       -8.565147   -0.565061   -0.933402
   36          6             0       -9.402257   -1.661363   -1.012440
   37          6             0       -9.091244   -2.832648   -0.340500
   38          6             0       -7.933903   -2.896961    0.418798
   39          6             0       -7.094872   -1.803193    0.510778
   40          6             0       -4.559723   -0.694077   -0.811939
   41          6             0       -3.193801   -0.878261   -0.768333
   42          6             0       -0.065906    0.839229    0.079972
   43          6             0        1.306851    0.703494    0.123695
   44          6             0        1.834765   -0.579022    0.171720
   45          6             0        5.336937   -0.371895   -0.647786
   46          6             0        6.448205    0.443921   -0.604334
   47          1             0        8.662317   -0.081381    0.833656
   48          1             0       10.904555   -0.916370    0.257871
   49          1             0       12.519941    0.556292   -0.883914
   50          1             0       11.896040    2.880874   -1.432886
   51          1             0        9.642498    3.721064   -0.842288
   52          1             0        5.493769    2.540418    1.865769
   53          1             0        3.521373    1.049049    1.834446
   54          1             0        5.261521   -2.894374    0.299939
   55          1             0        4.800020   -5.311471    0.274715
   56          1             0        2.505337   -6.162401    0.164271
   57          1             0        0.585368   -4.604258    0.104594
   58          1             0       -1.035575   -2.414237    0.067226
   59          1             0       -2.389078    1.554275    1.426950
   60          1             0       -4.814752    1.880465    1.363011
   61          1             0       -8.760438    1.212849    1.191961
   62          1             0       -9.706495    3.479654    1.279722
   63          1             0       -8.571296    5.347183    0.127517
   64          1             0       -6.481742    4.921916   -1.120860
   65          1             0       -5.542658    2.652757   -1.225454
   66          1             0       -8.805648    0.343489   -1.466317
   67          1             0      -10.299756   -1.603203   -1.611233
   68          1             0       -9.746267   -3.688363   -0.407261
   69          1             0       -7.685968   -3.803706    0.951505
   70          1             0       -6.197771   -1.853411    1.110771
   71          1             0       -5.170738   -1.319848   -1.446436
   72          1             0       -2.744110   -1.643094   -1.384677
   73          1             0       -0.492026    1.830336    0.029001
   74          1             0        1.944314    1.574388    0.103989
   75          1             0        5.274591   -1.164147   -1.378244
   76          1             0        7.253715    0.288178   -1.306009
 --------------------------------------------------------------------
     1 basis functions        1 primitive gaussians
     1 alpha electrons        1 beta electrons
 
 Harmonic frequencies (cm**-1), IR intensities (km*mol⁻¹),
 Raman scattering activities (A**4/amu), Raman depolarization ratios,
 reduced masses (AMU), force constants (mDyne/A) and normal coordinates:
                      1                      2                      3
                        a                      a                      a 
 Frequencies --    10.0335                12.7506                18.8584
 Red. masses --    11.1595                11.2573                11.2101
 Frc consts  --     0.0000                 0.0000                 0.0000
 IR Inten    --     0.1900                 0.1935                 0.3435
 Raman Activ --     0.0000                 0.0000                 0.0000
 Depolar     --     0.0000                 0.0000                 0.0000
 Atom AN      X      Y      Z        X      Y      Z        X      Y      Z
   1   8     0.02   0.02  -0.15     0.16  -0.03  -0.04    -0.11   0.07  -0.17
   2   6     0.01   0.01  -0.10     0.09  -0.04  -0.02    -0.05   0.04  -0.07
   3   6     0.00  -0.01  -0.11     0.08  -0.11   0.03    -0.02   0.05   0.04
   4   6     0.00  -0.00  -0.09     0.00  -0.12   0.06    -0.02   0.07   0.11
   5   6    -0.00  -0.01  -0.10    -0.01  -0.19   0.11     0.01   0.08   0.21
   6   6    -0.01  -0.03  -0.13     0.05  -0.25   0.12     0.04   0.07   0.24
   7   6    -0.01  -0.03  -0.15     0.12  -0.24   0.09     0.04   0.05   0.17
   8   6    -0.00  -0.02  -0.14     0.14  -0.17   0.05     0.01   0.04   0.07
   9   6     0.01   0.01  -0.05     0.05   0.02  -0.04    -0.04   0.02  -0.08
  10   6     0.02   0.04  -0.04     0.04   0.07  -0.07    -0.08   0.05  -0.14
  11   6     0.02   0.04   0.01     0.01   0.11  -0.07    -0.06   0.03  -0.15
  12   6     0.00   0.01   0.05     0.00   0.09  -0.05    -0.01  -0.02  -0.10
  13   7     0.00   0.01   0.10    -0.01   0.11  -0.04     0.01  -0.04  -0.11
  14   6     0.00   0.01   0.12    -0.02   0.10  -0.01     0.02  -0.04  -0.00
  15   6     0.01   0.01   0.14    -0.02   0.10   0.02     0.02  -0.02   0.08
  16   6     0.01   0.01   0.17    -0.03   0.10   0.05     0.03  -0.03   0.17
  17   6     0.01   0.01   0.18    -0.03   0.10   0.04     0.03  -0.04   0.18
  18   6     0.01   0.00   0.16    -0.02   0.11   0.01     0.03  -0.05   0.10
  19   6     0.00   0.00   0.13    -0.02   0.11  -0.01     0.02  -0.05   0.01
  20   6     0.00   0.00   0.11    -0.01   0.11  -0.04     0.01  -0.05  -0.08
  21   6     0.00  -0.00   0.10    -0.01   0.11  -0.05     0.01  -0.06  -0.09
  22   6     0.00  -0.00   0.08    -0.01   0.11  -0.08     0.00  -0.07  -0.16
  23   6     0.00  -0.01   0.06    -0.01   0.10  -0.08     0.00  -0.07  -0.12
  24   6    -0.02  -0.03   0.08    -0.02   0.09  -0.07     0.04  -0.06  -0.10
  25   6    -0.02  -0.03   0.05    -0.03   0.05  -0.05     0.04  -0.04  -0.06
  26   6     0.00  -0.00   0.01    -0.02   0.03  -0.03     0.01  -0.03  -0.03
  27   7     0.00  -0.00  -0.02    -0.03  -0.02  -0.00     0.01  -0.00   0.01
  28   6    -0.01  -0.01   0.05    -0.08  -0.04   0.04     0.04   0.01   0.07
  29   6    -0.03  -0.07   0.04    -0.08  -0.11   0.06     0.08   0.01   0.13
  30   6    -0.04  -0.07   0.11    -0.14  -0.13   0.10     0.11   0.02   0.20
  31   6    -0.03  -0.03   0.20    -0.20  -0.09   0.10     0.10   0.03   0.20
  32   6    -0.01   0.03   0.21    -0.20  -0.03   0.08     0.06   0.02   0.13
  33   6     0.00   0.04   0.14    -0.14  -0.00   0.04     0.03   0.01   0.07
  34   6     0.00   0.01  -0.13     0.02  -0.05   0.01    -0.02   0.02   0.01
  35   6     0.05   0.06  -0.20    -0.00  -0.10   0.03    -0.05   0.08   0.05
  36   6     0.05   0.07  -0.32     0.04  -0.13   0.04    -0.09   0.11   0.06
  37   6     0.00   0.03  -0.36     0.10  -0.12   0.03    -0.11   0.09   0.01
  38   6    -0.05  -0.02  -0.29     0.12  -0.08   0.00    -0.08   0.02  -0.04
  39   6    -0.05  -0.03  -0.17     0.08  -0.05  -0.01    -0.04  -0.01  -0.04
  40   6     0.02   0.01   0.00    -0.01   0.06  -0.06    -0.03  -0.04  -0.05
  41   6     0.02   0.01   0.03    -0.00   0.09  -0.08    -0.03  -0.06  -0.09
  42   6    -0.00  -0.00   0.07    -0.01   0.11  -0.09    -0.00  -0.06  -0.24
  43   6    -0.00   0.00   0.07    -0.01   0.11  -0.08    -0.00  -0.05  -0.24
  44   6     0.00   0.01   0.09    -0.01   0.11  -0.06     0.00  -0.05  -0.15
  45   6    -0.01  -0.02   0.03     0.01   0.04  -0.03     0.04  -0.05  -0.04
  46   6    -0.01  -0.02  -0.02     0.03   0.01  -0.02     0.02  -0.03  -0.03
  47   1     0.00   0.00  -0.02    -0.01  -0.02   0.02    -0.01   0.02   0.03
  48   1    -0.00  -0.00  -0.03    -0.02  -0.06   0.04     0.00   0.03   0.08
  49   1    -0.00  -0.01  -0.04     0.01  -0.09   0.04     0.02   0.02   0.09
  50   1    -0.00  -0.01  -0.05     0.05  -0.08   0.03     0.02   0.01   0.06
  51   1    -0.00  -0.01  -0.04     0.06  -0.04   0.01     0.00   0.01   0.00
  52   1     0.01   0.02  -0.02     0.02   0.02  -0.02    -0.04   0.02  -0.05
  53   1     0.01   0.02   0.00     0.00   0.04  -0.03    -0.03   0.02  -0.06
  54   1     0.00   0.00   0.04    -0.01   0.03   0.01     0.00  -0.00   0.02
  55   1     0.00   0.00   0.05    -0.01   0.03   0.02     0.01  -0.01   0.07
  56   1     0.00   0.00   0.06    -0.01   0.03   0.02     0.01  -0.01   0.07
  57   1     0.00   0.00   0.05    -0.01   0.03   0.00     0.01  -0.02   0.03
  58   1     0.00  -0.00   0.03    -0.00   0.03  -0.01     0.00  -0.02  -0.01
  59   1    -0.01  -0.01   0.03    -0.01   0.03  -0.02     0.02  -0.02  -0.04
  60   1    -0.01  -0.01   0.02    -0.01   0.01  -0.01     0.02  -0.01  -0.01
  61   1    -0.01  -0.03  -0.01    -0.01  -0.04   0.02     0.03   0.00   0.04
  62   1    -0.02  -0.03   0.03    -0.04  -0.05   0.03     0.04   0.01   0.07
  63   1    -0.01  -0.01   0.07    -0.07  -0.03   0.04     0.04   0.01   0.07
  64   1    -0.00   0.02   0.08    -0.07   0.00   0.02     0.02   0.01   0.04
  65   1     0.00   0.02   0.04    -0.04   0.01   0.01     0.00   0.00   0.01
  66   1     0.03   0.03  -0.05    -0.01  -0.03   0.01    -0.01   0.03   0.03
  67   1     0.03   0.03  -0.11     0.01  -0.05   0.02    -0.03   0.05   0.03
  68   1     0.00   0.01  -0.13     0.04  -0.04   0.01    -0.04   0.03   0.01
  69   1    -0.03  -0.02  -0.09     0.05  -0.02  -0.00    -0.03   0.00  -0.02
  70   1    -0.02  -0.02  -0.03     0.03  -0.00  -0.01    -0.00  -0.02  -0.02
  71   1     0.01   0.01  -0.01     0.00   0.01  -0.02    -0.02  -0.01  -0.01
  72   1     0.01   0.01   0.01     0.00   0.03  -0.03    -0.02  -0.02  -0.03
  73   1    -0.00  -0.00   0.02    -0.00   0.03  -0.03    -0.00  -0.02  -0.08
  74   1    -0.00   0.00   0.02    -0.00   0.03  -0.03    -0.00  -0.01  -0.09
  75   1    -0.01  -0.01   0.02    -0.00   0.01  -0.01     0.02  -0.02  -0.00
  76   1    -0.01  -0.01  -0.01     0.01  -0.01  -0.00     0.02  -0.01   0.00
                      4                      5                      6
                        a                      a                      a 
 Frequencies --    22.4714                30.8321                36.3379
 Red. masses --    11.1497                11.5457                11.5369
 Frc consts  --     0.0000                 0.0000                 0.0000
 IR Inten    --     0.0947                 1.2184                 2.9671
 Raman Activ --     0.0000                 0.0000                 0.0000
 Depolar     --     0.0000                 0.0000                 0.0000
 Atom AN      X      Y      Z        X      Y      Z        X      Y      Z
   1   8     0.07   0.08  -0.14     0.16  -0.05   0.33    -0.09   0.14  -0.39
   2   6     0.03   0.05  -0.08     0.07  -0.01   0.15    -0.05   0.07  -0.16
   3   6     0.02  -0.02   0.01     0.02  -0.04   0.03    -0.05   0.03  -0.06
   4   6    -0.07  -0.04   0.04     0.01  -0.06  -0.04    -0.08   0.05   0.07
   5   6    -0.08  -0.11   0.12    -0.03  -0.09  -0.17    -0.08  -0.00   0.15
   6   6     0.01  -0.17   0.16    -0.07  -0.10  -0.23    -0.04  -0.07   0.11
   7   6     0.10  -0.15   0.13    -0.05  -0.08  -0.16    -0.01  -0.10  -0.01
   8   6     0.10  -0.08   0.05    -0.01  -0.05  -0.03    -0.01  -0.05  -0.10
   9   6    -0.00   0.09  -0.10     0.02   0.04   0.10    -0.04   0.04  -0.04
  10   6     0.00   0.09  -0.09     0.01   0.06   0.09     0.01   0.05   0.02
  11   6    -0.00   0.10  -0.09    -0.01   0.09   0.05     0.03   0.02   0.11
  12   6    -0.01   0.10  -0.09    -0.01   0.10   0.05    -0.00  -0.01   0.14
  13   7     0.00   0.08  -0.06    -0.00   0.09   0.04    -0.01  -0.01   0.20
  14   6     0.04   0.08  -0.07     0.03   0.09   0.05    -0.01  -0.01   0.08
  15   6     0.07   0.11  -0.13     0.05   0.12   0.10    -0.02  -0.02   0.05
  16   6     0.11   0.10  -0.14     0.09   0.11   0.11    -0.02  -0.02  -0.08
  17   6     0.13   0.06  -0.09     0.11   0.07   0.07    -0.02  -0.01  -0.18
  18   6     0.10   0.03  -0.03     0.08   0.04   0.02    -0.02   0.00  -0.15
  19   6     0.06   0.04  -0.02     0.05   0.05   0.01    -0.01  -0.00  -0.02
  20   6     0.02   0.01   0.03     0.02   0.03  -0.03    -0.00   0.00   0.03
  21   6     0.01  -0.03   0.09     0.01  -0.01  -0.07    -0.00   0.01  -0.04
  22   6    -0.03  -0.05   0.13    -0.02  -0.02  -0.08     0.00   0.01   0.03
  23   6    -0.03  -0.09   0.16    -0.02  -0.05  -0.08     0.01   0.02  -0.03
  24   6    -0.04  -0.09   0.15    -0.03  -0.08  -0.06    -0.02  -0.05   0.04
  25   6    -0.04  -0.09   0.13    -0.03  -0.09  -0.05    -0.02  -0.06   0.01
  26   6    -0.03  -0.09   0.12    -0.03  -0.09  -0.07     0.01  -0.00  -0.08
  27   7    -0.03  -0.05   0.07    -0.03  -0.08  -0.07     0.01  -0.02  -0.09
  28   6     0.01  -0.03   0.01     0.02  -0.05  -0.03     0.03  -0.01  -0.04
  29   6    -0.01   0.03  -0.05     0.09   0.01   0.06     0.07   0.02   0.02
  30   6     0.04   0.05  -0.11     0.15   0.03   0.10     0.12   0.04   0.06
  31   6     0.10   0.01  -0.11     0.15  -0.00   0.04     0.11   0.02   0.04
  32   6     0.12  -0.05  -0.06     0.08  -0.06  -0.05     0.07  -0.01  -0.02
  33   6     0.08  -0.07   0.00     0.02  -0.08  -0.09     0.03  -0.02  -0.06
  34   6    -0.06  -0.02   0.02    -0.07  -0.04  -0.04     0.02  -0.02  -0.04
  35   6    -0.02   0.02  -0.05    -0.15   0.05   0.09    -0.10   0.01   0.13
  36   6    -0.05   0.06  -0.10    -0.21   0.09   0.14    -0.10   0.00   0.19
  37   6    -0.14   0.05  -0.08    -0.19   0.05   0.06     0.01  -0.04   0.07
  38   6    -0.19   0.01  -0.00    -0.10  -0.04  -0.08     0.13  -0.07  -0.12
  39   6    -0.15  -0.03   0.04    -0.04  -0.08  -0.13     0.13  -0.06  -0.16
  40   6    -0.03  -0.11   0.15    -0.02  -0.07  -0.09     0.04   0.08  -0.16
  41   6    -0.03  -0.11   0.17    -0.02  -0.05  -0.09     0.04   0.09  -0.13
  42   6    -0.06  -0.02   0.10    -0.05   0.00  -0.06     0.01   0.01   0.16
  43   6    -0.06   0.02   0.05    -0.04   0.04  -0.02     0.00   0.00   0.23
  44   6    -0.01   0.04   0.01    -0.01   0.05  -0.01    -0.00  -0.00   0.16
  45   6    -0.03   0.11  -0.11    -0.01   0.09   0.05    -0.04  -0.02   0.10
  46   6    -0.02   0.10  -0.11     0.01   0.07   0.07    -0.05  -0.00   0.02
  47   1    -0.04   0.00   0.00     0.01  -0.01   0.00    -0.03   0.03   0.03
  48   1    -0.04  -0.04   0.04    -0.01  -0.03  -0.06    -0.03   0.00   0.07
  49   1    -0.00  -0.07   0.07    -0.03  -0.04  -0.10    -0.01  -0.03   0.05
  50   1     0.05  -0.06   0.05    -0.02  -0.03  -0.06     0.01  -0.04  -0.01
  51   1     0.05  -0.02   0.01     0.00  -0.01   0.01     0.00  -0.02  -0.06
  52   1     0.00   0.03  -0.03     0.01   0.01   0.03     0.01   0.02  -0.01
  53   1     0.00   0.03  -0.02    -0.01   0.03   0.01     0.02   0.01   0.04
  54   1     0.02   0.04  -0.05     0.01   0.04   0.04    -0.01  -0.01   0.04
  55   1     0.04   0.04  -0.05     0.03   0.04   0.04    -0.01  -0.01  -0.03
  56   1     0.05   0.02  -0.03     0.04   0.02   0.02    -0.01  -0.00  -0.08
  57   1     0.03  -0.00   0.00     0.03   0.00  -0.00    -0.01   0.00  -0.07
  58   1     0.01  -0.02   0.03     0.01  -0.01  -0.02    -0.00   0.00  -0.04
  59   1    -0.02  -0.02   0.04    -0.01  -0.02  -0.01    -0.01  -0.03   0.03
  60   1    -0.01  -0.02   0.03    -0.01  -0.03  -0.01    -0.01  -0.03   0.02
  61   1    -0.02   0.02  -0.02     0.03   0.01   0.03     0.02   0.01   0.01
  62   1     0.01   0.03  -0.04     0.06   0.02   0.05     0.04   0.02   0.03
  63   1     0.04   0.01  -0.04     0.06   0.01   0.02     0.04   0.01   0.02
  64   1     0.05  -0.02  -0.02     0.02  -0.02  -0.03     0.02  -0.00  -0.01
  65   1     0.03  -0.03   0.01    -0.01  -0.04  -0.04    -0.00  -0.01  -0.03
  66   1     0.01   0.01  -0.02    -0.05   0.02   0.05    -0.05   0.01   0.06
  67   1    -0.00   0.03  -0.04    -0.08   0.05   0.07    -0.05   0.01   0.09
  68   1    -0.05   0.02  -0.03    -0.07   0.02   0.03     0.00  -0.01   0.03
  69   1    -0.07  -0.00   0.00    -0.02  -0.02  -0.04     0.07  -0.03  -0.06
  70   1    -0.05  -0.02   0.03     0.01  -0.04  -0.07     0.06  -0.03  -0.09
  71   1    -0.01  -0.03   0.04    -0.00  -0.02  -0.03     0.02   0.04  -0.07
  72   1    -0.01  -0.03   0.05    -0.00  -0.01  -0.03     0.02   0.04  -0.05
  73   1    -0.03  -0.01   0.04    -0.02  -0.00  -0.02     0.00   0.00   0.06
  74   1    -0.02   0.01   0.01    -0.02   0.02   0.00     0.00   0.00   0.09
  75   1    -0.01   0.03  -0.03    -0.01   0.03   0.01    -0.02  -0.01   0.04
  76   1    -0.01   0.03  -0.03     0.00   0.02   0.02    -0.02  -0.00  -0.00
                      7                      8                      9
                        a                      a                      a 
 Frequencies --    45.7803                49.5228                54.1654
 Red. masses --    10.6478                10.4739                10.5462
 Frc consts  --     0.0000                 0.0000                 0.0000
 IR Inten    --     1.1754                 3.1170                 0.3206
 Raman Activ --     0.0000                 0.0000                 0.0000
 Depolar     --     0.0000                 0.0000                 0.0000
 Atom AN      X      Y      Z        X      Y      Z        X      Y      Z
   1   8    -0.05   0.10   0.08    -0.03  -0.04   0.11    -0.04   0.06   0.01
   2   6    -0.08   0.09   0.07    -0.04  -0.02   0.02    -0.06   0.06  -0.02
   3   6    -0.11   0.02   0.05    -0.04  -0.01   0.01    -0.07   0.02  -0.00
   4   6    -0.15   0.04   0.16    -0.08  -0.06  -0.14    -0.19  -0.06  -0.18
   5   6    -0.20  -0.06   0.10    -0.08  -0.05  -0.15    -0.21  -0.11  -0.18
   6   6    -0.22  -0.18  -0.08    -0.03   0.01  -0.00    -0.11  -0.09   0.01
   7   6    -0.18  -0.20  -0.19     0.01   0.05   0.14     0.02  -0.01   0.20
   8   6    -0.12  -0.09  -0.12     0.01   0.04   0.15     0.04   0.04   0.19
   9   6    -0.08   0.10   0.05    -0.05   0.00  -0.06    -0.07   0.07  -0.06
  10   6    -0.10   0.08   0.03    -0.04  -0.03  -0.04    -0.00  -0.04   0.05
  11   6    -0.07   0.04   0.02    -0.04  -0.03  -0.06     0.03  -0.08   0.07
  12   6    -0.02   0.03   0.03    -0.05   0.01  -0.10    -0.00  -0.00  -0.01
  13   7     0.00  -0.00   0.01    -0.05   0.00  -0.11     0.02  -0.04   0.02
  14   6     0.03  -0.00   0.01    -0.05   0.00  -0.03     0.04  -0.03   0.02
  15   6     0.05   0.02   0.05    -0.05   0.01  -0.03     0.07  -0.01  -0.07
  16   6     0.08   0.02   0.03    -0.05   0.01   0.09     0.10  -0.01  -0.05
  17   6     0.09  -0.01  -0.02    -0.06   0.01   0.18     0.10  -0.04   0.05
  18   6     0.08  -0.03  -0.06    -0.06   0.01   0.16     0.08  -0.06   0.12
  19   6     0.04  -0.03  -0.05    -0.05   0.01   0.05     0.05  -0.05   0.10
  20   6     0.02  -0.04  -0.07    -0.05   0.01   0.02     0.03  -0.07   0.12
  21   6     0.02  -0.06  -0.10    -0.04   0.02   0.05     0.03  -0.06   0.12
  22   6     0.01  -0.06  -0.09    -0.03   0.02   0.03     0.03  -0.06   0.07
  23   6     0.01  -0.05  -0.06    -0.03   0.03   0.04     0.03  -0.04   0.00
  24   6     0.05  -0.06  -0.02    -0.04  -0.08   0.17     0.03   0.05  -0.12
  25   6     0.06  -0.03   0.01    -0.04  -0.09   0.18     0.04   0.10  -0.19
  26   6     0.03   0.02  -0.01    -0.01   0.01   0.05     0.04   0.05  -0.15
  27   7     0.03   0.05   0.01    -0.02  -0.00   0.05     0.05   0.05  -0.19
  28   6     0.03   0.04   0.01     0.02   0.01   0.00     0.01   0.03  -0.08
  29   6    -0.04   0.02  -0.11    -0.01   0.09  -0.08     0.06  -0.04   0.03
  30   6    -0.03   0.02  -0.08     0.07   0.12  -0.11     0.02  -0.07   0.13
  31   6     0.05   0.06   0.06     0.19   0.09  -0.05    -0.08  -0.02   0.12
  32   6     0.12   0.08   0.17     0.22   0.02   0.03    -0.13   0.06   0.01
  33   6     0.11   0.08   0.14     0.13  -0.02   0.05    -0.08   0.08  -0.09
  34   6     0.05   0.03   0.02     0.02  -0.02   0.03     0.05   0.04  -0.09
  35   6     0.12  -0.06  -0.09    -0.03  -0.05   0.12     0.03   0.01  -0.06
  36   6     0.17  -0.10  -0.09     0.05  -0.11   0.08     0.01   0.01   0.04
  37   6     0.15  -0.04   0.03     0.19  -0.15  -0.06     0.01   0.06   0.11
  38   6     0.08   0.06   0.15     0.25  -0.12  -0.14     0.04   0.09   0.08
  39   6     0.03   0.10   0.15     0.16  -0.06  -0.09     0.06   0.08  -0.02
  40   6    -0.01   0.02  -0.04     0.00   0.12  -0.09     0.05  -0.02  -0.05
  41   6    -0.02  -0.01  -0.07     0.00   0.12  -0.08     0.04  -0.07   0.03
  42   6    -0.01  -0.05  -0.09    -0.03   0.02  -0.01     0.02  -0.06   0.06
  43   6    -0.01  -0.03  -0.06    -0.03   0.01  -0.07     0.02  -0.06   0.07
  44   6    -0.00  -0.03  -0.04    -0.04   0.01  -0.06     0.02  -0.06   0.07
  45   6    -0.01   0.06   0.04    -0.06   0.05  -0.13    -0.08   0.12  -0.13
  46   6    -0.04   0.09   0.06    -0.06   0.05  -0.11    -0.11   0.16  -0.16
  47   1    -0.04   0.04   0.08    -0.03  -0.03  -0.07    -0.08  -0.02  -0.09
  48   1    -0.07  -0.01   0.06    -0.03  -0.03  -0.08    -0.09  -0.05  -0.10
  49   1    -0.08  -0.08  -0.04    -0.01   0.00  -0.00    -0.03  -0.04   0.00
  50   1    -0.06  -0.08  -0.10     0.01   0.03   0.07     0.03   0.00   0.10
  51   1    -0.03  -0.03  -0.06     0.01   0.02   0.08     0.04   0.03   0.10
  52   1    -0.04   0.02   0.01    -0.01  -0.02   0.00     0.01  -0.03   0.04
  53   1    -0.03   0.00   0.00    -0.01  -0.02  -0.01     0.02  -0.05   0.04
  54   1     0.01   0.01   0.02    -0.01   0.00  -0.03     0.02   0.01  -0.04
  55   1     0.03   0.01   0.02    -0.02   0.00   0.03     0.03   0.00  -0.03
  56   1     0.03  -0.00  -0.01    -0.02   0.00   0.08     0.03  -0.01   0.02
  57   1     0.02  -0.02  -0.03    -0.02   0.00   0.07     0.02  -0.02   0.05
  58   1     0.01  -0.02  -0.03    -0.02   0.01   0.02     0.01  -0.02   0.04
  59   1     0.02  -0.03  -0.00    -0.01  -0.05   0.07     0.01   0.03  -0.04
  60   1     0.02  -0.01   0.01    -0.02  -0.05   0.08     0.01   0.05  -0.08
  61   1    -0.03  -0.00  -0.06    -0.03   0.03  -0.03     0.04  -0.02   0.01
  62   1    -0.03  -0.00  -0.05     0.01   0.05  -0.05     0.02  -0.04   0.06
  63   1     0.02   0.02   0.02     0.07   0.03  -0.02    -0.03  -0.01   0.06
  64   1     0.06   0.03   0.08     0.09  -0.00   0.02    -0.06   0.03   0.00
  65   1     0.05   0.03   0.06     0.05  -0.02   0.03    -0.03   0.04  -0.05
  66   1     0.04  -0.03  -0.05    -0.04  -0.01   0.06     0.01  -0.01  -0.03
  67   1     0.07  -0.05  -0.05     0.00  -0.04   0.04    -0.00  -0.00   0.02
  68   1     0.06  -0.02   0.01     0.08  -0.06  -0.03    -0.00   0.02   0.06
  69   1     0.02   0.03   0.07     0.10  -0.04  -0.07     0.01   0.03   0.04
  70   1    -0.01   0.05   0.07     0.06  -0.01  -0.04     0.02   0.03  -0.01
  71   1    -0.01   0.02  -0.01     0.00   0.06  -0.05     0.02  -0.02  -0.01
  72   1    -0.01  -0.00  -0.03     0.01   0.06  -0.05     0.01  -0.04   0.03
  73   1    -0.01  -0.02  -0.03    -0.01   0.01  -0.00     0.01  -0.02   0.01
  74   1    -0.00  -0.01  -0.02    -0.01   0.00  -0.03     0.01  -0.02   0.02
  75   1     0.01   0.01   0.01    -0.02   0.02  -0.05    -0.03   0.05  -0.05
  76   1    -0.01   0.03   0.02    -0.02   0.03  -0.04    -0.05   0.07  -0.07
                     10                     11                     12
                        a                      a                      a 
 Frequencies --    56.1167                67.1139                71.0117
 Red. masses --    10.4574                10.8210                10.4998
 Frc consts  --     0.0000                 0.0000                 0.0000
 IR Inten    --     1.2875                 0.7916                 0.6328
 Raman Activ --     0.0000                 0.0000                 0.0000
 Depolar     --     0.0000                 0.0000                 0.0000
 Atom AN      X      Y      Z        X      Y      Z        X      Y      Z
   1   8     0.06  -0.05  -0.11     0.04  -0.06   0.13     0.02  -0.01   0.04
   2   6     0.06  -0.06  -0.07     0.03  -0.04   0.05     0.01  -0.00   0.01
   3   6     0.07  -0.03  -0.06     0.03  -0.01   0.02     0.01   0.00   0.00
   4   6     0.07  -0.06  -0.18     0.12   0.05   0.17     0.02   0.01   0.03
   5   6     0.11  -0.00  -0.14     0.13   0.09   0.19     0.03   0.01   0.03
   6   6     0.14   0.09   0.03     0.05   0.05   0.03     0.01   0.00  -0.00
   7   6     0.14   0.12   0.15    -0.04  -0.02  -0.15    -0.00  -0.01  -0.04
   8   6     0.11   0.05   0.11    -0.05  -0.04  -0.15    -0.00  -0.01  -0.03
   9   6     0.05  -0.04  -0.02     0.03  -0.03  -0.00     0.01   0.00  -0.01
  10   6     0.07   0.01  -0.01    -0.02  -0.01  -0.07    -0.00   0.00  -0.02
  11   6     0.04   0.05   0.04    -0.03   0.01  -0.12     0.00  -0.00  -0.04
  12   6    -0.02   0.03   0.08    -0.00   0.01  -0.12     0.01  -0.00  -0.03
  13   7    -0.03   0.04   0.13    -0.01   0.02  -0.15     0.03  -0.03  -0.04
  14   6    -0.01   0.04   0.08    -0.01   0.01  -0.10     0.07  -0.02  -0.02
  15   6     0.00   0.06   0.15    -0.00   0.01  -0.22     0.10   0.02   0.02
  16   6     0.03   0.05   0.09    -0.01   0.01  -0.14     0.15   0.01   0.05
  17   6     0.05   0.03  -0.04    -0.02   0.01   0.05     0.17  -0.03   0.05
  18   6     0.03   0.01  -0.10    -0.02   0.01   0.17     0.14  -0.08   0.01
  19   6     0.01   0.01  -0.04    -0.01   0.01   0.09     0.08  -0.06  -0.02
  20   6    -0.01  -0.00  -0.05    -0.01   0.01   0.14     0.04  -0.09  -0.03
  21   6    -0.02  -0.03  -0.12    -0.02  -0.00   0.22     0.03  -0.11  -0.02
  22   6    -0.05  -0.05  -0.07    -0.03  -0.01   0.17     0.01  -0.12   0.03
  23   6    -0.05  -0.06  -0.08    -0.03  -0.02   0.11     0.01  -0.09   0.04
  24   6    -0.05  -0.12   0.00    -0.08  -0.02   0.07     0.03  -0.15   0.15
  25   6    -0.05  -0.10   0.00    -0.08  -0.01  -0.05     0.04  -0.08   0.14
  26   6    -0.05  -0.02  -0.08    -0.02   0.01  -0.14     0.02   0.06   0.02
  27   7    -0.05   0.01  -0.12    -0.02   0.01  -0.28     0.01   0.09   0.05
  28   6    -0.03   0.01  -0.06    -0.02  -0.00  -0.14    -0.03   0.06   0.05
  29   6    -0.12  -0.03  -0.19    -0.03  -0.06  -0.14    -0.11  -0.01  -0.05
  30   6    -0.09  -0.02  -0.12     0.01  -0.04   0.01    -0.26  -0.07  -0.18
  31   6     0.04   0.04   0.10     0.06   0.02   0.18    -0.33  -0.04  -0.19
  32   6     0.12   0.07   0.23     0.06   0.08   0.16    -0.21   0.05  -0.02
  33   6     0.09   0.06   0.15     0.02   0.07  -0.00    -0.06   0.11   0.10
  34   6    -0.05  -0.00  -0.04    -0.01  -0.01  -0.15     0.02   0.08   0.01
  35   6    -0.01  -0.08  -0.10    -0.06  -0.06  -0.07    -0.07   0.15   0.14
  36   6    -0.02  -0.08   0.00    -0.08  -0.06   0.09    -0.10   0.18   0.17
  37   6    -0.07   0.00   0.17    -0.04  -0.01   0.17    -0.04   0.12   0.04
  38   6    -0.10   0.08   0.22     0.02   0.04   0.07     0.06   0.04  -0.12
  39   6    -0.08   0.08   0.11     0.04   0.04  -0.09     0.08   0.02  -0.13
  40   6    -0.05   0.02  -0.14     0.04   0.01  -0.10    -0.00   0.14  -0.10
  41   6    -0.05  -0.00  -0.14     0.04  -0.00   0.03    -0.01   0.06  -0.09
  42   6    -0.07  -0.03   0.04    -0.03  -0.00   0.10    -0.01  -0.10   0.04
  43   6    -0.07   0.00   0.09    -0.03   0.01   0.01    -0.01  -0.08   0.01
  44   6    -0.04   0.01   0.05    -0.01   0.01   0.01     0.02  -0.07  -0.02
  45   6    -0.04  -0.03   0.06     0.04  -0.01  -0.07     0.02   0.00  -0.03
  46   6    -0.01  -0.06   0.00     0.06  -0.03  -0.00     0.02   0.01  -0.01
  47   1     0.02  -0.04  -0.09     0.05   0.02   0.08     0.01   0.01   0.02
  48   1     0.03  -0.01  -0.07     0.06   0.04   0.09     0.01   0.01   0.02
  49   1     0.05   0.04   0.02     0.02   0.02   0.01     0.00   0.00  -0.00
  50   1     0.05   0.06   0.08    -0.03  -0.01  -0.08    -0.00  -0.01  -0.02
  51   1     0.03   0.02   0.06    -0.03  -0.03  -0.08    -0.00  -0.01  -0.02
  52   1     0.03   0.01  -0.01    -0.01  -0.00  -0.02    -0.00   0.00  -0.01
  53   1     0.02   0.03   0.01    -0.02   0.01  -0.04    -0.00  -0.00  -0.01
  54   1    -0.00   0.02   0.07     0.00  -0.00  -0.10     0.02   0.02   0.01
  55   1     0.01   0.02   0.04    -0.00   0.00  -0.07     0.05   0.01   0.02
  56   1     0.02   0.01  -0.03    -0.01   0.00   0.03     0.06  -0.01   0.02
  57   1     0.01  -0.00  -0.06    -0.01   0.00   0.09     0.04  -0.03   0.00
  58   1     0.00  -0.01  -0.06    -0.00  -0.00   0.08     0.01  -0.03  -0.01
  59   1    -0.02  -0.05   0.02    -0.04  -0.01   0.04     0.01  -0.08   0.07
  60   1    -0.01  -0.04   0.02    -0.04  -0.01  -0.02     0.02  -0.04   0.06
  61   1    -0.06  -0.02  -0.10    -0.02  -0.03  -0.07    -0.02  -0.01  -0.01
  62   1    -0.05  -0.02  -0.07     0.00  -0.03   0.01    -0.10  -0.04  -0.08
  63   1     0.02   0.01   0.05     0.03   0.01   0.09    -0.13  -0.03  -0.09
  64   1     0.07   0.03   0.11     0.03   0.04   0.08    -0.07   0.02  -0.00
  65   1     0.04   0.03   0.07     0.01   0.03  -0.00     0.01   0.05   0.06
  66   1     0.01  -0.04  -0.06    -0.03  -0.03  -0.03    -0.03   0.05   0.07
  67   1     0.00  -0.04  -0.01    -0.04  -0.03   0.05    -0.05   0.07   0.08
  68   1    -0.02   0.00   0.07    -0.02  -0.00   0.09    -0.02   0.04   0.02
  69   1    -0.04   0.04   0.10     0.02   0.02   0.03     0.03  -0.00  -0.07
  70   1    -0.03   0.04   0.04     0.03   0.02  -0.04     0.04  -0.01  -0.07
  71   1    -0.02   0.02  -0.05     0.03   0.01  -0.05    -0.01   0.07  -0.06
  72   1    -0.02   0.01  -0.05     0.03  -0.00   0.02    -0.01   0.03  -0.05
  73   1    -0.03  -0.01   0.02    -0.01  -0.00   0.03    -0.01  -0.03   0.02
  74   1    -0.03   0.01   0.05    -0.01   0.00  -0.02    -0.01  -0.02   0.00
  75   1    -0.02  -0.01   0.02     0.02   0.00  -0.02     0.01   0.00  -0.01
  76   1    -0.01  -0.03  -0.01     0.03  -0.02   0.02     0.01   0.00  -0.00
                     13                     14                     15
                        a                      a                      a 
 Frequencies --    79.6529                90.8386                98.4345
 Red. masses --    10.6446                10.2630                 9.9760
 Frc consts  --     0.0000                 0.0000                 0.0000
 IR Inten    --     3.1017                 7.5475                 0.2180
 Raman Activ --     0.0000                 0.0000                 0.0000
 Depolar     --     0.0000                 0.0000                 0.0000
 Atom AN      X      Y      Z        X      Y      Z        X      Y      Z
   1   8     0.06  -0.09   0.07    -0.02  -0.04  -0.12    -0.01   0.03  -0.11
   2   6     0.02  -0.06   0.00     0.02  -0.05  -0.03     0.01   0.01  -0.01
   3   6     0.02  -0.05  -0.02     0.02  -0.02  -0.06     0.01   0.00   0.00
   4   6     0.07  -0.04  -0.02     0.07   0.02   0.06     0.01  -0.00  -0.01
   5   6     0.10   0.02  -0.01     0.11   0.06   0.16     0.00  -0.01  -0.02
   6   6     0.08   0.06   0.01     0.08   0.05   0.10     0.01  -0.01  -0.02
   7   6     0.03   0.05   0.01     0.01  -0.01  -0.08     0.01  -0.00  -0.00
   8   6     0.00  -0.01  -0.00    -0.02  -0.04  -0.15     0.02   0.00   0.00
   9   6    -0.01  -0.02  -0.03     0.04  -0.09   0.08     0.02  -0.02   0.06
  10   6    -0.07   0.12  -0.14     0.18  -0.27   0.30     0.05  -0.04   0.10
  11   6    -0.10   0.16  -0.12     0.15  -0.24   0.25     0.04  -0.03   0.09
  12   6    -0.07   0.05   0.01    -0.01   0.01  -0.02     0.01  -0.00   0.06
  13   7    -0.06   0.02   0.07    -0.04   0.04  -0.08     0.00   0.01   0.05
  14   6     0.01   0.02   0.04    -0.01   0.04  -0.06     0.01   0.01   0.04
  15   6     0.05   0.07   0.05     0.04   0.10  -0.02     0.01   0.01  -0.04
  16   6     0.12   0.06  -0.03     0.09   0.09   0.09     0.02   0.01  -0.10
  17   6     0.15  -0.00  -0.11     0.11   0.04   0.15     0.02   0.01  -0.07
  18   6     0.10  -0.05  -0.08     0.07  -0.01   0.06     0.02   0.00   0.02
  19   6     0.03  -0.04   0.00     0.01   0.01  -0.05     0.01   0.00   0.07
  20   6    -0.03  -0.08   0.03    -0.02  -0.01  -0.08     0.00   0.00   0.07
  21   6    -0.04  -0.13   0.04    -0.03  -0.03  -0.09     0.00  -0.00   0.06
  22   6    -0.09  -0.15   0.05    -0.05  -0.03  -0.05    -0.00  -0.00  -0.05
  23   6    -0.09  -0.13   0.04    -0.05  -0.03  -0.04    -0.00  -0.00  -0.04
  24   6    -0.04  -0.02  -0.05    -0.03  -0.03  -0.03     0.03   0.17  -0.24
  25   6    -0.02   0.07  -0.09    -0.03  -0.00  -0.02     0.02   0.15  -0.19
  26   6    -0.06   0.06  -0.03    -0.06   0.01  -0.01    -0.03  -0.00   0.02
  27   7    -0.06   0.10  -0.01    -0.06   0.03   0.03    -0.04   0.00   0.05
  28   6    -0.05   0.10  -0.01    -0.04   0.03   0.01    -0.03   0.01   0.02
  29   6     0.03   0.14   0.11    -0.01   0.07   0.06    -0.15   0.01  -0.18
  30   6     0.07   0.15   0.15     0.03   0.08   0.07    -0.14   0.01  -0.20
  31   6     0.02   0.12   0.04     0.02   0.06   0.02     0.02   0.05   0.01
  32   6    -0.08   0.08  -0.10    -0.02   0.02  -0.04     0.14   0.06   0.21
  33   6    -0.11   0.07  -0.12    -0.05   0.00  -0.04     0.10   0.04   0.19
  34   6    -0.03   0.07   0.03    -0.05   0.02   0.03    -0.04  -0.00   0.03
  35   6    -0.04  -0.02   0.04    -0.03  -0.02  -0.00    -0.12   0.04   0.17
  36   6     0.10  -0.12  -0.03     0.03  -0.07  -0.06    -0.11   0.03   0.14
  37   6     0.24  -0.12  -0.11     0.07  -0.06  -0.06     0.01  -0.05  -0.04
  38   6     0.21  -0.02  -0.06     0.02  -0.01   0.01     0.10  -0.10  -0.19
  39   6     0.07   0.08   0.01    -0.03   0.03   0.05     0.06  -0.07  -0.13
  40   6    -0.11  -0.03   0.05    -0.08   0.00  -0.01    -0.06  -0.16   0.20
  41   6    -0.13  -0.13   0.09    -0.08  -0.01  -0.04    -0.06  -0.17   0.18
  42   6    -0.13  -0.12   0.03    -0.06  -0.02   0.03     0.01  -0.00  -0.15
  43   6    -0.12  -0.06   0.04    -0.06   0.00   0.04     0.01  -0.00  -0.09
  44   6    -0.07  -0.04   0.05    -0.04   0.01  -0.05     0.00   0.00   0.02
  45   6    -0.03  -0.06   0.09    -0.13   0.16  -0.19    -0.01   0.02   0.03
  46   6     0.00  -0.10   0.07    -0.09   0.11  -0.14    -0.00   0.01   0.03
  47   1     0.03  -0.02  -0.01     0.02   0.01   0.02     0.00  -0.00  -0.00
  48   1     0.04   0.01  -0.00     0.05   0.03   0.08    -0.00  -0.00  -0.01
  49   1     0.03   0.03   0.01     0.03   0.02   0.05     0.00  -0.00  -0.01
  50   1     0.00   0.02   0.01    -0.01  -0.01  -0.04     0.00  -0.00  -0.00
  51   1    -0.01  -0.01   0.00    -0.02  -0.02  -0.08     0.01   0.00   0.00
  52   1    -0.03   0.06  -0.07     0.09  -0.13   0.14     0.02  -0.02   0.03
  53   1    -0.04   0.08  -0.05     0.07  -0.11   0.11     0.01  -0.01   0.03
  54   1     0.01   0.03   0.03     0.01   0.05  -0.02     0.00   0.00  -0.02
  55   1     0.04   0.03  -0.01     0.03   0.04   0.04     0.01   0.00  -0.05
  56   1     0.06  -0.00  -0.05     0.04   0.01   0.07     0.01   0.00  -0.04
  57   1     0.04  -0.03  -0.04     0.03  -0.02   0.02     0.00  -0.00   0.01
  58   1    -0.00  -0.05   0.01    -0.00  -0.01  -0.04     0.00  -0.00   0.04
  59   1    -0.00  -0.01  -0.02    -0.01  -0.01  -0.01     0.02   0.09  -0.12
  60   1     0.01   0.04  -0.04    -0.00   0.00  -0.00     0.02   0.08  -0.09
  61   1     0.02   0.05   0.05    -0.00   0.02   0.03    -0.08  -0.00  -0.09
  62   1     0.04   0.05   0.07     0.02   0.03   0.03    -0.07  -0.00  -0.11
  63   1     0.01   0.04   0.02     0.01   0.02   0.01     0.01   0.02   0.00
  64   1    -0.04   0.02  -0.05    -0.01  -0.00  -0.02     0.08   0.02   0.11
  65   1    -0.05   0.01  -0.06    -0.02  -0.01  -0.02     0.05   0.02   0.09
  66   1    -0.04  -0.00   0.02    -0.01  -0.01  -0.00    -0.06   0.02   0.08
  67   1     0.03  -0.06  -0.01     0.02  -0.03  -0.03    -0.05   0.02   0.08
  68   1     0.10  -0.06  -0.06     0.03  -0.03  -0.03     0.01  -0.02  -0.02
  69   1     0.09  -0.00  -0.03     0.01   0.00   0.00     0.06  -0.05  -0.10
  70   1     0.02   0.05   0.01    -0.02   0.02   0.03     0.03  -0.03  -0.06
  71   1    -0.04  -0.01   0.02    -0.03   0.00  -0.00    -0.02  -0.08   0.10
  72   1    -0.05  -0.06   0.04    -0.03  -0.01  -0.01    -0.03  -0.09   0.10
  73   1    -0.05  -0.04   0.00    -0.02  -0.01   0.03     0.00  -0.00  -0.08
  74   1    -0.05  -0.01   0.00    -0.02   0.00   0.04     0.00  -0.00  -0.04
  75   1    -0.00  -0.04   0.04    -0.07   0.09  -0.10    -0.01   0.01   0.00
  76   1     0.01  -0.06   0.04    -0.05   0.07  -0.07    -0.01   0.01   0.00
                     16                     17                     18
                        a                      a                      a 
 Frequencies --   111.7424               114.7338               137.5249
 Red. masses --    10.6083                12.2180                10.6848
 Frc consts  --     0.0000                 0.0000                 0.0000
 IR Inten    --     0.2129                 6.1615                 2.7172
 Raman Activ --     0.0000                 0.0000                 0.0000
 Depolar     --     0.0000                 0.0000                 0.0000
 Atom AN      X      Y      Z        X      Y      Z        X      Y      Z
   1   8    -0.05   0.01   0.04    -0.17   0.16  -0.47    -0.07  -0.12  -0.05
   2   6    -0.02   0.02   0.01     0.02   0.03   0.05    -0.06  -0.11  -0.02
   3   6    -0.01   0.03   0.03     0.06   0.04   0.21    -0.08  -0.10  -0.06
   4   6    -0.03   0.02   0.02     0.04  -0.00   0.08    -0.02  -0.08  -0.06
   5   6    -0.05  -0.01  -0.01    -0.05  -0.07  -0.16     0.03   0.00   0.01
   6   6    -0.05  -0.02  -0.02    -0.08  -0.08  -0.23     0.02   0.06   0.08
   7   6    -0.02  -0.01   0.00    -0.01  -0.00   0.01    -0.06   0.03   0.02
   8   6    -0.00   0.02   0.03     0.06   0.05   0.21    -0.11  -0.05  -0.05
   9   6     0.00   0.00  -0.04     0.10  -0.09   0.23    -0.06  -0.10   0.04
  10   6    -0.01  -0.03  -0.05     0.04  -0.07   0.15    -0.02  -0.07   0.09
  11   6     0.01  -0.05  -0.07     0.01  -0.04   0.04    -0.06  -0.02   0.07
  12   6     0.03  -0.03  -0.08     0.04  -0.01   0.01    -0.09   0.03   0.03
  13   7     0.03  -0.01  -0.15     0.01   0.04  -0.15    -0.09   0.04   0.02
  14   6     0.01  -0.01  -0.11     0.02   0.03  -0.10    -0.04   0.05   0.11
  15   6    -0.01  -0.02   0.20     0.03   0.05  -0.11     0.00   0.12   0.21
  16   6    -0.03  -0.01   0.35     0.04   0.04  -0.04     0.07   0.11   0.04
  17   6    -0.02  -0.00   0.10     0.04   0.03   0.05     0.10   0.06  -0.21
  18   6    -0.01   0.01  -0.24     0.03   0.02   0.06     0.05   0.01  -0.18
  19   6     0.01   0.00  -0.28     0.02   0.02  -0.02    -0.03   0.02   0.02
  20   6     0.02   0.01  -0.27     0.01   0.01  -0.03    -0.04   0.01   0.02
  21   6     0.02   0.02  -0.16     0.00  -0.01   0.05    -0.04   0.04   0.16
  22   6     0.01   0.02   0.13    -0.03  -0.02   0.04     0.01   0.05   0.06
  23   6     0.01   0.01   0.18    -0.04  -0.04   0.08     0.02   0.04   0.17
  24   6    -0.03   0.08   0.05    -0.05  -0.07   0.11     0.01   0.01   0.18
  25   6    -0.03   0.09  -0.04    -0.05  -0.05   0.06     0.00  -0.01   0.12
  26   6    -0.00   0.01   0.01    -0.03   0.01  -0.01     0.07   0.00   0.04
  27   7    -0.00   0.01  -0.13    -0.04   0.02  -0.07     0.09  -0.01  -0.10
  28   6    -0.01   0.01  -0.09    -0.03   0.02  -0.04     0.06  -0.02  -0.06
  29   6    -0.02  -0.02  -0.08    -0.00   0.03   0.01     0.08  -0.07  -0.03
  30   6    -0.00  -0.02  -0.01     0.01   0.03   0.05     0.04  -0.09   0.01
  31   6     0.02   0.01   0.07    -0.01   0.03   0.03    -0.00  -0.06   0.02
  32   6     0.01   0.04   0.05    -0.05   0.03  -0.03    -0.01  -0.01  -0.01
  33   6    -0.01   0.04  -0.04    -0.05   0.02  -0.06     0.03   0.01  -0.05
  34   6     0.01  -0.00  -0.08    -0.03   0.02  -0.03     0.10  -0.01  -0.09
  35   6    -0.04  -0.01  -0.01    -0.03  -0.02  -0.03     0.08   0.01  -0.07
  36   6    -0.05  -0.01   0.06    -0.00  -0.04  -0.01     0.02   0.05   0.03
  37   6     0.00  -0.01   0.04     0.02  -0.03   0.01    -0.01   0.07   0.09
  38   6     0.06  -0.01  -0.05     0.02   0.02   0.02     0.04   0.04   0.01
  39   6     0.05  -0.00  -0.09    -0.01   0.04  -0.00     0.10  -0.00  -0.08
  40   6     0.03  -0.09   0.17    -0.02   0.02  -0.02     0.09  -0.00   0.07
  41   6     0.03  -0.09   0.26    -0.02  -0.00   0.03     0.08   0.01   0.14
  42   6     0.02   0.02   0.27    -0.04  -0.01  -0.06    -0.00   0.06  -0.27
  43   6     0.02   0.01   0.12    -0.03   0.01  -0.14    -0.01   0.04  -0.33
  44   6     0.03   0.00  -0.14    -0.00   0.03  -0.11    -0.06   0.03  -0.10
  45   6     0.06  -0.03  -0.06     0.13  -0.07   0.14    -0.13  -0.00  -0.01
  46   6     0.04  -0.00  -0.04     0.16  -0.12   0.25    -0.10  -0.05  -0.01
  47   1    -0.01   0.01   0.01     0.02  -0.00   0.04    -0.00  -0.04  -0.03
  48   1    -0.02  -0.00  -0.01    -0.03  -0.03  -0.09     0.02   0.01   0.01
  49   1    -0.02  -0.01  -0.02    -0.05  -0.04  -0.13     0.02   0.04   0.05
  50   1    -0.00  -0.01  -0.00    -0.01   0.00  -0.00    -0.02   0.02   0.01
  51   1     0.00   0.01   0.01     0.03   0.02   0.10    -0.05  -0.02  -0.02
  52   1    -0.01  -0.01  -0.01    -0.00  -0.02   0.04     0.01  -0.03   0.03
  53   1     0.00  -0.02  -0.02    -0.01  -0.00  -0.01    -0.02  -0.00   0.02
  54   1    -0.01  -0.00   0.11     0.01   0.01  -0.05    -0.01   0.05   0.10
  55   1    -0.02  -0.01   0.19     0.01   0.02  -0.02     0.03   0.04   0.02
  56   1    -0.01  -0.00   0.06     0.01   0.01   0.03     0.04   0.02  -0.12
  57   1    -0.00   0.00  -0.12     0.01   0.00   0.04     0.02  -0.02  -0.10
  58   1     0.01   0.00  -0.07     0.00  -0.01   0.03    -0.02   0.02   0.10
  59   1    -0.02   0.05   0.01    -0.02  -0.03   0.04    -0.00   0.00   0.06
  60   1    -0.02   0.05  -0.04    -0.02  -0.02   0.02    -0.01  -0.01   0.03
  61   1    -0.01  -0.01  -0.04     0.00   0.01   0.01     0.03  -0.03  -0.01
  62   1    -0.00  -0.01   0.00     0.01   0.01   0.03     0.01  -0.04   0.01
  63   1     0.01   0.01   0.04     0.00   0.01   0.02    -0.01  -0.02   0.01
  64   1     0.01   0.02   0.03    -0.02   0.01  -0.02    -0.01   0.01  -0.00
  65   1    -0.00   0.02  -0.01    -0.02   0.01  -0.03     0.01   0.01  -0.02
  66   1    -0.02  -0.01   0.00    -0.02  -0.01  -0.01     0.03  -0.00  -0.03
  67   1    -0.03  -0.00   0.04    -0.00  -0.02  -0.00    -0.00   0.02   0.02
  68   1     0.00  -0.00   0.03     0.01  -0.01   0.01    -0.02   0.03   0.05
  69   1     0.03  -0.00  -0.02     0.01   0.01   0.01     0.01   0.01   0.01
  70   1     0.02   0.00  -0.04    -0.00   0.02  -0.00     0.04  -0.01  -0.04
  71   1     0.02  -0.05   0.06    -0.00   0.02  -0.02     0.03   0.00   0.01
  72   1     0.01  -0.04   0.10    -0.00   0.00   0.00     0.04   0.01   0.05
  73   1     0.01   0.01   0.14    -0.02  -0.01  -0.02    -0.01   0.01  -0.12
  74   1     0.00   0.01   0.07    -0.01   0.01  -0.06     0.01   0.00  -0.15
  75   1     0.03  -0.01  -0.01     0.05  -0.01   0.03    -0.06   0.01  -0.01
  76   1     0.02   0.00  -0.00     0.06  -0.04   0.09    -0.03  -0.01  -0.01
                     19                     20                     21
                        a                      a                      a 
 Frequencies --   147.4124               159.0741               173.5332
 Red. masses --    11.2179                11.0214                10.8016
 Frc consts  --     0.0000                 0.0000                 0.0000
 IR Inten    --     1.0243                 2.2368                 5.1087
 Raman Activ --     0.0000                 0.0000                 0.0000
 Depolar     --     0.0000                 0.0000                 0.0000
 Atom AN      X      Y      Z        X      Y      Z        X      Y      Z
   1   8    -0.19  -0.15  -0.12    -0.07  -0.00   0.11     0.13   0.01   0.08
   2   6    -0.09  -0.15   0.01    -0.00   0.03  -0.01    -0.04   0.03  -0.06
   3   6    -0.07  -0.12   0.08     0.01   0.07   0.02    -0.13  -0.02  -0.33
   4   6     0.01  -0.11   0.04    -0.03   0.06   0.04    -0.18  -0.03  -0.30
   5   6     0.03  -0.02  -0.02    -0.06   0.01   0.02    -0.11  -0.02  -0.03
   6   6    -0.05   0.06  -0.03    -0.04  -0.04  -0.02     0.05   0.03   0.25
   7   6    -0.13   0.05   0.03     0.01  -0.02  -0.01     0.05  -0.01   0.08
   8   6    -0.14  -0.04   0.08     0.03   0.04   0.02    -0.06  -0.04  -0.25
   9   6    -0.06  -0.15   0.01     0.03  -0.01  -0.09    -0.04   0.03   0.15
  10   6    -0.10  -0.02  -0.07     0.05  -0.05  -0.07    -0.07   0.03   0.11
  11   6    -0.12   0.03  -0.09     0.08  -0.09  -0.04    -0.05   0.00   0.09
  12   6    -0.09   0.01  -0.06     0.09  -0.09  -0.04     0.02  -0.03   0.13
  13   7    -0.08   0.04  -0.06     0.08  -0.08   0.01     0.03  -0.01  -0.06
  14   6    -0.01   0.05  -0.09     0.06  -0.07   0.09     0.04  -0.01  -0.14
  15   6     0.07   0.16  -0.10     0.10  -0.02   0.16     0.06   0.01  -0.20
  16   6     0.19   0.15  -0.01     0.17  -0.03   0.04     0.08   0.01  -0.07
  17   6     0.22   0.07   0.09     0.19  -0.05  -0.14     0.07  -0.01   0.15
  18   6     0.14  -0.03   0.07     0.15  -0.09  -0.09     0.06  -0.02   0.11
  19   6     0.01   0.00  -0.03     0.05  -0.07   0.06     0.04  -0.01  -0.09
  20   6    -0.04  -0.01  -0.00     0.04  -0.05   0.08     0.02  -0.01  -0.12
  21   6    -0.03   0.04  -0.05     0.02   0.05   0.14     0.02   0.02  -0.10
  22   6     0.01   0.07   0.01     0.04   0.07   0.06     0.02   0.03  -0.01
  23   6     0.04   0.13  -0.09     0.01   0.16   0.03     0.01   0.05   0.05
  24   6     0.05   0.18  -0.15    -0.06   0.15   0.01    -0.01   0.03   0.05
  25   6     0.05   0.14  -0.11    -0.08   0.10   0.01    -0.02   0.03   0.04
  26   6     0.05   0.04  -0.01    -0.10   0.09   0.02    -0.02   0.03   0.03
  27   7     0.05  -0.05   0.12    -0.15  -0.02   0.06    -0.03   0.00  -0.01
  28   6     0.03  -0.06   0.06    -0.19  -0.02  -0.03    -0.05  -0.00  -0.04
  29   6     0.01  -0.05   0.01    -0.18   0.07  -0.05    -0.05   0.01  -0.04
  30   6     0.01  -0.04  -0.05    -0.03   0.13   0.02    -0.01   0.03   0.01
  31   6     0.05  -0.06  -0.03     0.09   0.10   0.09     0.02   0.03   0.05
  32   6     0.08  -0.07   0.03     0.01  -0.01   0.00    -0.01   0.01  -0.00
  33   6     0.07  -0.07   0.06    -0.14  -0.07  -0.07    -0.05  -0.01  -0.05
  34   6     0.06  -0.05   0.05    -0.11  -0.05   0.02    -0.01  -0.01  -0.02
  35   6     0.09   0.01   0.01    -0.10  -0.09  -0.01    -0.02  -0.03  -0.02
  36   6     0.03   0.06  -0.01    -0.08  -0.11  -0.04    -0.02  -0.03  -0.00
  37   6    -0.05   0.04   0.00    -0.09  -0.10  -0.03    -0.03  -0.02   0.01
  38   6    -0.05  -0.03   0.00    -0.12  -0.07   0.01    -0.01  -0.01  -0.00
  39   6     0.01  -0.08   0.02    -0.13  -0.06   0.03    -0.01  -0.01  -0.02
  40   6     0.05   0.06  -0.04    -0.01   0.20  -0.05     0.01   0.03   0.04
  41   6     0.06   0.11  -0.08     0.01   0.24  -0.04     0.01   0.05   0.05
  42   6     0.00   0.07   0.20     0.11   0.02  -0.06     0.04   0.02  -0.00
  43   6    -0.01   0.03   0.22     0.11  -0.05  -0.10     0.04  -0.00  -0.05
  44   6    -0.06   0.01   0.06     0.07  -0.07  -0.01     0.03  -0.01  -0.08
  45   6    -0.08  -0.09  -0.02     0.09  -0.08  -0.05     0.11  -0.11   0.26
  46   6    -0.03  -0.18   0.04     0.06  -0.03  -0.08     0.06  -0.07   0.25
  47   1     0.02  -0.05   0.01    -0.01   0.03   0.02    -0.07  -0.01  -0.11
  48   1     0.03  -0.00  -0.02    -0.03  -0.00   0.01    -0.04  -0.00   0.01
  49   1    -0.01   0.03  -0.02    -0.02  -0.02  -0.02     0.04   0.03   0.17
  50   1    -0.05   0.03   0.01     0.01  -0.02  -0.01     0.04   0.00   0.07
  51   1    -0.06  -0.02   0.03     0.02   0.01   0.00    -0.01  -0.02  -0.10
  52   1    -0.02   0.01  -0.04     0.01  -0.02  -0.02    -0.04   0.02   0.02
  53   1    -0.04   0.02  -0.03     0.02  -0.03  -0.01    -0.03   0.01   0.01
  54   1     0.01   0.08  -0.04     0.02   0.01   0.07     0.02   0.00  -0.08
  55   1     0.07   0.06   0.00     0.06  -0.00   0.02     0.03   0.01  -0.03
  56   1     0.08   0.02   0.05     0.06  -0.02  -0.08     0.02  -0.00   0.10
  57   1     0.05  -0.04   0.04     0.05  -0.05  -0.05     0.02  -0.01   0.07
  58   1    -0.02   0.02  -0.04    -0.01   0.02   0.06     0.00   0.01  -0.04
  59   1     0.02   0.06  -0.05    -0.03   0.05   0.01    -0.01   0.01   0.02
  60   1     0.01   0.04  -0.04    -0.02   0.03   0.01    -0.01   0.01   0.01
  61   1    -0.00  -0.01   0.00    -0.08   0.03  -0.02    -0.02   0.00  -0.02
  62   1    -0.00  -0.01  -0.03    -0.00   0.06   0.01     0.00   0.01   0.01
  63   1     0.01  -0.02  -0.02     0.07   0.04   0.05     0.02   0.01   0.03
  64   1     0.03  -0.02   0.01     0.02  -0.02   0.00     0.00   0.00   0.00
  65   1     0.02  -0.03   0.03    -0.05  -0.04  -0.03    -0.02  -0.01  -0.02
  66   1     0.04   0.01   0.00    -0.03  -0.03  -0.00    -0.01  -0.01  -0.01
  67   1     0.01   0.03  -0.01    -0.02  -0.03  -0.02    -0.01  -0.01   0.00
  68   1    -0.03   0.02   0.00    -0.02  -0.03  -0.01    -0.01  -0.00   0.01
  69   1    -0.03  -0.01  -0.00    -0.03  -0.02   0.01    -0.00  -0.00   0.00
  70   1     0.00  -0.04   0.01    -0.04  -0.02   0.01    -0.00  -0.00  -0.01
  71   1     0.01   0.01  -0.00     0.01   0.06  -0.03     0.01   0.01   0.01
  72   1     0.02   0.03  -0.02     0.00   0.08  -0.03     0.00   0.02   0.01
  73   1     0.01   0.02   0.09     0.05   0.01  -0.04     0.02   0.01   0.02
  74   1     0.01   0.00   0.09     0.04  -0.02  -0.05     0.01  -0.00  -0.01
  75   1    -0.03  -0.03  -0.00     0.03  -0.03  -0.01     0.05  -0.04   0.08
  76   1     0.01  -0.07   0.03     0.02  -0.00  -0.03     0.02  -0.02   0.08
                     22                     23                     24
                        a                      a                      a 
 Frequencies --   188.5042               204.7636               209.0799
 Red. masses --    11.8393                11.0074                10.7238
 Frc consts  --     0.0000                 0.0000                 0.0000
 IR Inten    --     1.1520                 0.4660                 1.8816
 Raman Activ --     0.0000                 0.0000                 0.0000
 Depolar     --     0.0000                 0.0000                 0.0000
 Atom AN      X      Y      Z        X      Y      Z        X      Y      Z
   1   8    -0.32  -0.13   0.23    -0.02   0.07   0.09    -0.15  -0.05   0.12
   2   6    -0.07  -0.02  -0.05     0.04   0.09  -0.00     0.01   0.01  -0.03
   3   6    -0.04   0.13  -0.09     0.05   0.17  -0.13     0.06   0.11   0.02
   4   6    -0.15   0.12  -0.03    -0.05   0.15  -0.08     0.01   0.11   0.06
   5   6    -0.18   0.01   0.03    -0.08   0.01  -0.01    -0.03   0.02   0.03
   6   6    -0.10  -0.05   0.06     0.03  -0.08   0.04    -0.02  -0.06  -0.06
   7   6     0.01  -0.03   0.03     0.15  -0.06  -0.01     0.06  -0.03  -0.02
   8   6     0.02   0.08  -0.05     0.16   0.07  -0.11     0.11   0.07   0.03
   9   6     0.08  -0.18  -0.13     0.09  -0.02   0.09     0.05  -0.06  -0.12
  10   6     0.14  -0.14  -0.08     0.06  -0.08   0.08     0.10  -0.02  -0.07
  11   6     0.13  -0.09  -0.02     0.01  -0.02  -0.02     0.07   0.02   0.03
  12   6     0.09  -0.07  -0.02    -0.03   0.01  -0.07    -0.02  -0.00   0.07
  13   7     0.01   0.07   0.00    -0.08   0.04  -0.18    -0.04   0.02   0.15
  14   6     0.00   0.08   0.03    -0.06   0.03  -0.07    -0.03   0.02   0.05
  15   6     0.02   0.11   0.03    -0.07   0.04   0.07    -0.01   0.03  -0.08
  16   6     0.03   0.11  -0.04    -0.06   0.04   0.12     0.00   0.03  -0.12
  17   6     0.03   0.11  -0.05    -0.04   0.01  -0.07     0.00   0.01   0.06
  18   6     0.01   0.10   0.03    -0.05  -0.00  -0.13    -0.01  -0.00   0.12
  19   6     0.01   0.10   0.07    -0.05  -0.00  -0.03    -0.02   0.00   0.02
  20   6     0.03   0.11   0.06    -0.08  -0.04   0.08    -0.03  -0.01  -0.08
  21   6     0.04   0.07   0.01    -0.09  -0.12   0.25    -0.02  -0.03  -0.23
  22   6     0.01   0.05  -0.05    -0.11  -0.14   0.16    -0.04  -0.04  -0.15
  23   6    -0.01  -0.05  -0.06    -0.07  -0.07   0.02    -0.03  -0.03  -0.00
  24   6    -0.02  -0.10  -0.01     0.01   0.07  -0.10     0.06  -0.03   0.07
  25   6    -0.02  -0.14   0.00     0.03   0.15  -0.16     0.06   0.06   0.15
  26   6    -0.01  -0.11  -0.04     0.04   0.09  -0.09     0.01   0.09   0.16
  27   7     0.01   0.02  -0.09     0.04  -0.03   0.13     0.02   0.02   0.11
  28   6     0.09   0.04   0.02     0.01  -0.05   0.10    -0.12  -0.03  -0.07
  29   6     0.10   0.01   0.05     0.00  -0.02   0.07    -0.14  -0.01  -0.10
  30   6     0.01  -0.03   0.00     0.01  -0.01  -0.02    -0.01   0.04   0.02
  31   6    -0.08  -0.02  -0.06     0.04  -0.05  -0.06     0.09   0.05   0.12
  32   6    -0.03   0.04   0.00     0.07  -0.08   0.01    -0.02  -0.02  -0.03
  33   6     0.07   0.08   0.06     0.05  -0.09   0.08    -0.13  -0.06  -0.13
  34   6    -0.07   0.07   0.01     0.11  -0.06   0.03     0.16  -0.07  -0.11
  35   6    -0.09   0.04   0.05     0.16   0.00  -0.02     0.21  -0.05  -0.17
  36   6    -0.01  -0.02   0.01     0.07   0.07  -0.01     0.06   0.06   0.02
  37   6     0.08  -0.03  -0.06    -0.04   0.08   0.05    -0.08   0.12   0.18
  38   6     0.04   0.04   0.01    -0.02  -0.02   0.01     0.05  -0.01  -0.03
  39   6    -0.04   0.09   0.05     0.08  -0.09  -0.01     0.19  -0.11  -0.18
  40   6    -0.01  -0.14   0.00    -0.02   0.12  -0.17    -0.07   0.04   0.16
  41   6    -0.00  -0.11  -0.01    -0.04   0.02  -0.09    -0.10  -0.04   0.08
  42   6    -0.02   0.07  -0.01    -0.16  -0.11   0.06    -0.06  -0.03  -0.07
  43   6    -0.01   0.10   0.05    -0.15  -0.03  -0.02    -0.06  -0.00   0.02
  44   6     0.02   0.11   0.05    -0.10  -0.01  -0.04    -0.05   0.00   0.04
  45   6     0.10  -0.23   0.01     0.06  -0.01   0.04    -0.06  -0.05   0.02
  46   6     0.12  -0.25  -0.05     0.08  -0.03   0.10    -0.02  -0.09  -0.07
  47   1    -0.06   0.06  -0.01    -0.03   0.06  -0.02    -0.00   0.05   0.03
  48   1    -0.08  -0.00   0.02    -0.06  -0.00   0.01    -0.03   0.00   0.01
  49   1    -0.03  -0.04   0.03     0.00  -0.05   0.03    -0.02  -0.04  -0.04
  50   1     0.03  -0.03   0.02     0.07  -0.04   0.01     0.03  -0.02  -0.02
  51   1     0.03   0.03  -0.03     0.08   0.03  -0.05     0.05   0.03   0.01
  52   1     0.06  -0.03  -0.03     0.01  -0.03   0.04     0.05   0.00  -0.03
  53   1     0.04  -0.02  -0.01    -0.00   0.00  -0.02     0.03   0.02   0.02
  54   1     0.00   0.03   0.02    -0.02   0.01   0.04    -0.00   0.01  -0.04
  55   1     0.01   0.03  -0.02    -0.02   0.01   0.08     0.01   0.01  -0.07
  56   1     0.01   0.03  -0.03    -0.01   0.00  -0.03     0.00   0.00   0.03
  57   1     0.01   0.03   0.01    -0.01  -0.00  -0.06    -0.00  -0.00   0.06
  58   1     0.02   0.02   0.00    -0.02  -0.04   0.10    -0.00  -0.01  -0.09
  59   1    -0.01  -0.03   0.00     0.01   0.01  -0.03     0.04  -0.02   0.01
  60   1    -0.01  -0.05   0.01     0.01   0.05  -0.06     0.04   0.03   0.04
  61   1     0.04  -0.00   0.02    -0.01  -0.00   0.03    -0.06  -0.00  -0.05
  62   1    -0.00  -0.02  -0.00    -0.00   0.01  -0.02     0.01   0.02   0.02
  63   1    -0.05  -0.01  -0.04     0.01  -0.02  -0.04     0.06   0.03   0.08
  64   1    -0.02   0.02   0.00     0.03  -0.03  -0.00     0.00  -0.01  -0.01
  65   1     0.03   0.04   0.03     0.02  -0.04   0.03    -0.05  -0.03  -0.06
  66   1    -0.04   0.01   0.02     0.07   0.00  -0.01     0.09  -0.02  -0.07
  67   1    -0.00  -0.02   0.00     0.03   0.04  -0.01     0.01   0.03   0.02
  68   1     0.05  -0.03  -0.04    -0.04   0.04   0.03    -0.07   0.07   0.12
  69   1     0.02   0.01   0.00    -0.03  -0.01   0.00     0.00  -0.01  -0.01
  70   1    -0.02   0.04   0.02     0.03  -0.05  -0.01     0.07  -0.05  -0.08
  71   1    -0.00  -0.05   0.01    -0.02   0.05  -0.06    -0.04   0.03   0.05
  72   1     0.00  -0.03   0.00    -0.01   0.00  -0.02    -0.05  -0.02   0.02
  73   1    -0.01   0.02  -0.00    -0.06  -0.04   0.00    -0.02  -0.01  -0.02
  74   1    -0.01   0.04   0.03    -0.06  -0.00  -0.03    -0.02   0.00   0.03
  75   1     0.02  -0.08   0.02     0.03  -0.00   0.01    -0.04  -0.02   0.01
  76   1     0.03  -0.09  -0.01     0.03  -0.02   0.03    -0.02  -0.04  -0.03
                     25                     26                     27
                        a                      a                      a 
 Frequencies --   232.3439               236.0472               264.9953
 Red. masses --    10.4066                10.8596                10.8058
 Frc consts  --     0.0000                 0.0000                 0.0000
 IR Inten    --     3.7678                 3.5630                 1.7025
 Raman Activ --     0.0000                 0.0000                 0.0000
 Depolar     --     0.0000                 0.0000                 0.0000
 Atom AN      X      Y      Z        X      Y      Z        X      Y      Z
   1   8    -0.03  -0.02  -0.02    -0.05   0.02   0.08     0.08   0.10  -0.05
   2   6    -0.02  -0.03   0.01     0.04   0.06  -0.02     0.03   0.05   0.08
   3   6    -0.03  -0.04  -0.01     0.12   0.17  -0.03     0.01   0.03  -0.05
   4   6    -0.03  -0.04  -0.02     0.08   0.17   0.04    -0.01   0.02  -0.07
   5   6    -0.02  -0.01  -0.00     0.02   0.03   0.02    -0.01  -0.01  -0.04
   6   6    -0.02   0.03   0.03     0.07  -0.11  -0.09     0.05  -0.01   0.05
   7   6    -0.05   0.01   0.01     0.18  -0.06  -0.04     0.05  -0.02   0.00
   8   6    -0.06  -0.02  -0.01     0.23   0.08   0.00     0.03  -0.01  -0.08
   9   6     0.01  -0.03   0.02     0.02   0.00  -0.01     0.02   0.02   0.20
  10   6     0.01  -0.02   0.02    -0.00   0.01  -0.02    -0.10  -0.08   0.07
  11   6     0.01   0.01  -0.02    -0.05   0.05   0.04    -0.10  -0.08  -0.19
  12   6     0.03   0.03  -0.04    -0.14   0.00   0.09    -0.02  -0.04  -0.24
  13   7     0.03   0.05  -0.04    -0.13  -0.06   0.09    -0.04  -0.04  -0.22
  14   6     0.03   0.04  -0.00    -0.11  -0.06  -0.01    -0.08  -0.04   0.20
  15   6    -0.00   0.01   0.03    -0.04   0.02  -0.08    -0.04   0.02   0.26
  16   6    -0.06   0.02   0.03     0.08  -0.00  -0.05     0.05   0.01  -0.08
  17   6    -0.07   0.05  -0.03     0.11  -0.08   0.07     0.07  -0.03  -0.22
  18   6    -0.04   0.08  -0.03     0.04  -0.16   0.04     0.01  -0.08   0.16
  19   6     0.03   0.06   0.02    -0.10  -0.12  -0.06    -0.09  -0.05   0.28
  20   6     0.04   0.04   0.04    -0.13  -0.11  -0.11    -0.07  -0.02   0.08
  21   6     0.04  -0.04   0.06    -0.13   0.02  -0.10    -0.06   0.06  -0.16
  22   6     0.01  -0.07   0.01    -0.03   0.08   0.00    -0.01   0.09  -0.13
  23   6     0.02  -0.10  -0.02    -0.01   0.15   0.06    -0.01   0.07  -0.14
  24   6     0.07  -0.10   0.02    -0.04   0.12   0.07    -0.00  -0.00  -0.03
  25   6     0.09  -0.00  -0.01    -0.05   0.03   0.03    -0.01  -0.08   0.10
  26   6     0.07   0.03  -0.01     0.03  -0.03   0.01    -0.01  -0.07   0.11
  27   7     0.06  -0.00   0.07     0.05  -0.02  -0.12     0.01   0.01   0.01
  28   6    -0.07  -0.06  -0.23     0.11  -0.02  -0.11     0.02   0.01  -0.04
  29   6    -0.14  -0.13  -0.31     0.11  -0.12  -0.07     0.01  -0.02  -0.05
  30   6    -0.04  -0.11  -0.04     0.04  -0.17  -0.02     0.01  -0.03   0.01
  31   6     0.12  -0.02   0.26     0.00  -0.12   0.02     0.00  -0.01   0.04
  32   6    -0.04  -0.02   0.00     0.02  -0.01   0.02    -0.02   0.01  -0.01
  33   6    -0.16  -0.06  -0.30     0.09   0.02  -0.07    -0.01   0.02  -0.06
  34   6     0.04   0.02   0.24    -0.06   0.05   0.08     0.01   0.02  -0.03
  35   6     0.03   0.16   0.26    -0.11   0.09   0.15     0.02   0.02  -0.04
  36   6     0.05   0.18   0.04    -0.02   0.04   0.02     0.01   0.02   0.01
  37   6     0.09   0.06  -0.18     0.09  -0.03  -0.14     0.02   0.04   0.04
  38   6    -0.02   0.00  -0.02    -0.01   0.03   0.01     0.06   0.03  -0.01
  39   6    -0.04   0.01   0.24    -0.09   0.09   0.15     0.04   0.03  -0.04
  40   6     0.02   0.02  -0.04     0.06  -0.01   0.03    -0.05  -0.10   0.12
  41   6     0.01  -0.03  -0.07     0.07   0.10   0.04    -0.04  -0.01  -0.03
  42   6    -0.03  -0.04   0.01     0.00   0.04  -0.02     0.01   0.07   0.18
  43   6    -0.02   0.04   0.02    -0.02  -0.07  -0.06    -0.00  -0.01   0.10
  44   6     0.03   0.05   0.01    -0.13  -0.11  -0.04    -0.04  -0.03  -0.06
  45   6     0.03  -0.00  -0.03    -0.15   0.02   0.07     0.10   0.04  -0.12
  46   6     0.03  -0.01   0.00    -0.10  -0.02   0.02     0.09   0.07   0.12
  47   1    -0.01  -0.01  -0.01     0.01   0.07   0.02    -0.01   0.01  -0.02
  48   1     0.00  -0.00  -0.00    -0.02   0.00   0.02    -0.02  -0.01  -0.01
  49   1    -0.00   0.02   0.02    -0.00  -0.07  -0.05     0.02  -0.00   0.04
  50   1    -0.01   0.01   0.01     0.07  -0.04  -0.02     0.02  -0.01   0.01
  51   1    -0.03  -0.01  -0.00     0.10   0.03  -0.00     0.02  -0.00  -0.04
  52   1     0.01  -0.01   0.01     0.00   0.01  -0.01    -0.07  -0.04   0.05
  53   1    -0.00  -0.00  -0.01    -0.00   0.04   0.02    -0.05  -0.05  -0.07
  54   1     0.00  -0.01   0.01    -0.02   0.03  -0.03    -0.02   0.03   0.10
  55   1    -0.03  -0.00   0.02     0.04   0.02  -0.03     0.02   0.01  -0.07
  56   1    -0.03   0.01  -0.02     0.05  -0.03   0.05     0.04  -0.01  -0.16
  57   1    -0.02   0.04  -0.01     0.02  -0.08   0.03     0.01  -0.04   0.05
  58   1     0.02  -0.02   0.02    -0.06   0.02  -0.03    -0.03   0.03  -0.08
  59   1     0.03  -0.05   0.01    -0.02   0.04   0.02     0.01  -0.00  -0.02
  60   1     0.03   0.00  -0.00    -0.04   0.00   0.00    -0.00  -0.03   0.04
  61   1    -0.05  -0.05  -0.12     0.06  -0.05  -0.02     0.01  -0.01  -0.02
  62   1    -0.01  -0.04  -0.00     0.01  -0.07  -0.00     0.00  -0.01   0.01
  63   1     0.09   0.01   0.18    -0.01  -0.04   0.02     0.00  -0.00   0.03
  64   1    -0.01   0.01   0.03    -0.00   0.01   0.02    -0.01   0.01  -0.00
  65   1    -0.07  -0.02  -0.12     0.03   0.02  -0.02    -0.00   0.01  -0.02
  66   1     0.03   0.06   0.10    -0.04   0.03   0.06     0.01   0.00  -0.02
  67   1     0.02   0.08   0.00    -0.00   0.01   0.00    -0.00   0.00   0.01
  68   1     0.05   0.01  -0.13     0.06  -0.03  -0.09     0.00   0.01   0.02
  69   1    -0.02  -0.02  -0.04     0.00   0.01  -0.00     0.02   0.01  -0.01
  70   1    -0.03  -0.01   0.09    -0.04   0.03   0.06     0.01   0.02  -0.01
  71   1    -0.01   0.02  -0.01     0.03  -0.01   0.01    -0.02  -0.04   0.06
  72   1    -0.00  -0.01  -0.03     0.04   0.04   0.01    -0.02   0.00  -0.02
  73   1    -0.02  -0.02  -0.00     0.01   0.02   0.00     0.02   0.03   0.11
  74   1    -0.02   0.02   0.00     0.02  -0.04  -0.02     0.01  -0.01   0.05
  75   1     0.01  -0.00  -0.01    -0.05   0.01   0.02     0.08   0.02  -0.05
  76   1     0.01  -0.00   0.00    -0.04  -0.03  -0.00     0.05   0.04   0.06
                     28                     29                     30
                        a                      a                      a 
 Frequencies --   274.6824               280.0600               307.9841
 Red. masses --    10.6165                11.9392                10.9043
 Frc consts  --     0.0000                 0.0000                 0.0000
 IR Inten    --     1.7773                 5.6991                 0.3511
 Raman Activ --     0.0000                 0.0000                 0.0000
 Depolar     --     0.0000                 0.0000                 0.0000
 Atom AN      X      Y      Z        X      Y      Z        X      Y      Z
   1   8     0.00  -0.02   0.00    -0.41  -0.14  -0.00    -0.11  -0.03  -0.02
   2   6    -0.00  -0.01  -0.02    -0.01  -0.10   0.09     0.01  -0.03   0.05
   3   6    -0.02  -0.04   0.02     0.04   0.09  -0.06    -0.00  -0.01   0.01
   4   6    -0.02  -0.04   0.01     0.01   0.07  -0.09    -0.03  -0.03  -0.03
   5   6    -0.01  -0.00   0.01    -0.01  -0.02  -0.03    -0.02  -0.02  -0.02
   6   6    -0.04   0.03   0.01     0.08  -0.06   0.04    -0.00   0.02   0.06
   7   6    -0.06   0.02   0.01     0.11  -0.06  -0.02    -0.03  -0.00  -0.00
   8   6    -0.06  -0.01   0.02     0.10   0.01  -0.11    -0.04  -0.02  -0.04
   9   6     0.01  -0.00  -0.06     0.07  -0.21   0.25     0.07  -0.07   0.08
  10   6     0.07   0.00  -0.00    -0.02   0.01   0.09     0.05   0.01   0.02
  11   6     0.06   0.02   0.04    -0.19   0.26  -0.11    -0.00   0.09  -0.06
  12   6     0.05   0.02   0.04    -0.12   0.21  -0.07     0.03   0.06  -0.04
  13   7     0.03   0.04   0.04     0.05   0.02   0.04     0.07   0.00   0.07
  14   6     0.04   0.03   0.25     0.11   0.00   0.05     0.08  -0.01   0.01
  15   6     0.01  -0.01   0.17     0.04  -0.10   0.02     0.05  -0.07  -0.03
  16   6    -0.03  -0.01  -0.23    -0.07  -0.09   0.01    -0.01  -0.07   0.03
  17   6    -0.05   0.02  -0.09    -0.09  -0.04  -0.01    -0.02  -0.03   0.02
  18   6    -0.03   0.06   0.26    -0.01   0.04  -0.01     0.02   0.03  -0.04
  19   6     0.04   0.04   0.15     0.10   0.02   0.02     0.07   0.02  -0.01
  20   6     0.05   0.02  -0.22     0.09  -0.01  -0.00     0.05   0.01   0.03
  21   6     0.04  -0.08  -0.29     0.10  -0.03  -0.04     0.03  -0.02  -0.02
  22   6    -0.03  -0.11   0.12     0.11  -0.03   0.02    -0.03  -0.03  -0.04
  23   6    -0.03  -0.07   0.21     0.11  -0.03   0.02    -0.06   0.04   0.00
  24   6    -0.04   0.04   0.07     0.08  -0.04   0.01    -0.05   0.07  -0.02
  25   6    -0.01   0.16  -0.15     0.07  -0.01  -0.03    -0.07   0.07   0.06
  26   6     0.01   0.11  -0.13     0.03   0.00  -0.02    -0.08   0.06   0.07
  27   7     0.00  -0.01  -0.04    -0.00   0.00   0.00    -0.07   0.01  -0.02
  28   6     0.00  -0.03   0.04    -0.02   0.03   0.01    -0.09  -0.10   0.09
  29   6     0.02  -0.02   0.07    -0.02   0.08   0.00    -0.09  -0.17   0.09
  30   6     0.01  -0.03  -0.01    -0.02   0.09   0.01    -0.00  -0.15  -0.00
  31   6     0.01  -0.06  -0.06    -0.04   0.10  -0.00     0.14  -0.25  -0.03
  32   6     0.06  -0.05   0.02    -0.04   0.06   0.00     0.15  -0.25  -0.02
  33   6     0.05  -0.05   0.06    -0.05   0.06   0.02     0.04  -0.26   0.01
  34   6     0.00  -0.02   0.04    -0.02  -0.03  -0.00    -0.12   0.15  -0.16
  35   6    -0.02   0.00   0.06    -0.04  -0.07   0.01    -0.15   0.15  -0.11
  36   6    -0.00   0.00  -0.01    -0.04  -0.08  -0.01    -0.04   0.05   0.01
  37   6    -0.00  -0.03  -0.05    -0.06  -0.08  -0.01     0.18   0.11   0.02
  38   6    -0.05  -0.02   0.02    -0.07  -0.06  -0.00     0.17   0.21   0.03
  39   6    -0.04  -0.02   0.06    -0.06  -0.05  -0.01     0.02   0.29  -0.04
  40   6     0.04   0.13  -0.12     0.08   0.01   0.00    -0.10   0.09   0.04
  41   6     0.02   0.03   0.08     0.09   0.00   0.01    -0.11   0.06   0.03
  42   6    -0.07  -0.08   0.19     0.10  -0.02   0.05    -0.01  -0.05  -0.06
  43   6    -0.05   0.01  -0.22     0.09  -0.00  -0.01    -0.00  -0.03   0.03
  44   6     0.03   0.03  -0.27     0.06  -0.01   0.01     0.05  -0.00   0.08
  45   6     0.02  -0.02   0.02    -0.19   0.21  -0.12     0.01   0.07  -0.07
  46   6     0.01  -0.01  -0.06    -0.04  -0.02   0.06     0.05   0.01  -0.01
  47   1    -0.01  -0.01   0.00    -0.01   0.03  -0.03    -0.01  -0.01  -0.02
  48   1     0.01   0.00   0.00    -0.03  -0.01  -0.01    -0.01  -0.01  -0.01
  49   1    -0.01   0.01   0.00     0.03  -0.02   0.04     0.01   0.01   0.04
  50   1    -0.02   0.01  -0.00     0.04  -0.03  -0.00    -0.01  -0.00  -0.00
  51   1    -0.03  -0.00   0.01     0.05   0.00  -0.06    -0.02  -0.01  -0.02
  52   1     0.03   0.00  -0.00     0.02   0.00   0.03     0.02   0.00   0.01
  53   1     0.02   0.01   0.01    -0.07   0.10  -0.06    -0.01   0.03  -0.03
  54   1     0.01  -0.02   0.06     0.02  -0.06  -0.01     0.02  -0.04  -0.02
  55   1    -0.01  -0.01  -0.17    -0.03  -0.04  -0.00    -0.01  -0.03   0.01
  56   1    -0.02   0.01  -0.08    -0.04  -0.01  -0.01    -0.02  -0.01   0.01
  57   1    -0.01   0.03   0.11    -0.01   0.04  -0.01     0.00   0.02  -0.02
  58   1     0.03  -0.04  -0.12     0.03  -0.01  -0.03     0.02  -0.01  -0.02
  59   1    -0.02   0.01   0.03     0.02  -0.01   0.01    -0.01   0.03  -0.02
  60   1    -0.01   0.07  -0.07     0.03   0.00  -0.01    -0.01   0.02   0.02
  61   1     0.01  -0.00   0.03    -0.02   0.03   0.00    -0.03  -0.05   0.02
  62   1    -0.00  -0.00  -0.01    -0.00   0.02   0.00    -0.01  -0.00  -0.02
  63   1    -0.01  -0.02  -0.04    -0.01   0.03  -0.00     0.06  -0.06  -0.02
  64   1     0.02  -0.02   0.01    -0.01   0.01  -0.01     0.05  -0.08  -0.01
  65   1     0.02  -0.02   0.02    -0.01   0.02   0.01    -0.00  -0.13   0.00
  66   1    -0.00   0.01   0.03    -0.02  -0.02   0.00    -0.07   0.04  -0.03
  67   1     0.00   0.01  -0.01    -0.01  -0.02  -0.01    -0.03  -0.03   0.03
  68   1     0.01  -0.01  -0.04    -0.02  -0.02  -0.00     0.08   0.01   0.02
  69   1    -0.02  -0.01   0.01    -0.02  -0.01   0.00     0.07   0.07   0.02
  70   1    -0.01  -0.01   0.02    -0.02  -0.02  -0.00     0.01   0.15  -0.01
  71   1     0.02   0.05  -0.05     0.03  -0.00  -0.00    -0.03   0.04   0.01
  72   1     0.01   0.01   0.03     0.02   0.00  -0.00    -0.04   0.01   0.01
  73   1    -0.04  -0.03   0.14     0.02  -0.01   0.02     0.00  -0.01  -0.04
  74   1    -0.03   0.01  -0.07     0.03  -0.00  -0.02    -0.01   0.00   0.01
  75   1    -0.00  -0.01   0.02    -0.09   0.08  -0.05    -0.00   0.03  -0.03
  76   1    -0.00   0.00  -0.02    -0.01  -0.01   0.02     0.01   0.01  -0.00
                     31                     32                     33
                        a                      a                      a 
 Frequencies --   316.0396               344.7997               350.8507
 Red. masses --    10.7641                11.0061                11.1979
 Frc consts  --     0.0000                 0.0000                 0.0000
 IR Inten    --     0.1771                 0.7780                 0.9060
 Raman Activ --     0.0000                 0.0000                 0.0000
 Depolar     --     0.0000                 0.0000                 0.0000
 Atom AN      X      Y      Z        X      Y      Z        X      Y      Z
   1   8     0.06   0.02  -0.02     0.09   0.05  -0.06     0.28  -0.06  -0.03
   2   6     0.04   0.00   0.03     0.12  -0.00   0.11     0.09  -0.05  -0.09
   3   6    -0.02  -0.02   0.02     0.02   0.00   0.08    -0.01  -0.02  -0.07
   4   6    -0.06  -0.04  -0.01    -0.11  -0.05  -0.01    -0.13   0.00   0.06
   5   6    -0.06  -0.01  -0.01    -0.13  -0.03  -0.04    -0.12   0.04   0.11
   6   6    -0.06   0.04   0.05    -0.11   0.09   0.14    -0.23   0.05  -0.02
   7   6    -0.07   0.03   0.01    -0.12   0.06  -0.00    -0.11   0.10   0.02
   8   6    -0.08   0.00  -0.02    -0.13   0.02  -0.08    -0.06   0.12   0.08
   9   6     0.09  -0.03   0.02     0.24  -0.11   0.09     0.15  -0.09  -0.07
  10   6     0.09  -0.03   0.01     0.20  -0.04  -0.00     0.26  -0.03   0.03
  11   6     0.06   0.03  -0.07     0.08   0.14  -0.18     0.06   0.22   0.04
  12   6     0.04   0.03  -0.07     0.03   0.05  -0.09    -0.11   0.19   0.05
  13   7     0.01   0.04   0.02     0.02  -0.02   0.22    -0.04   0.06  -0.12
  14   6     0.02   0.03  -0.01    -0.02  -0.04   0.06     0.03   0.02  -0.02
  15   6     0.00   0.00  -0.02    -0.02  -0.06  -0.07    -0.02  -0.05   0.03
  16   6    -0.04   0.01   0.03     0.04  -0.08   0.01    -0.04  -0.06  -0.01
  17   6    -0.04   0.01   0.00     0.04  -0.10   0.08    -0.03  -0.08  -0.03
  18   6    -0.02   0.03  -0.03     0.04  -0.09  -0.07     0.01  -0.04   0.03
  19   6     0.03   0.02   0.01    -0.03  -0.06  -0.03     0.03  -0.04   0.00
  20   6    -0.00  -0.02   0.06    -0.05  -0.03  -0.01    -0.03  -0.08  -0.05
  21   6    -0.02  -0.13  -0.05    -0.06   0.08  -0.10    -0.03  -0.05   0.12
  22   6    -0.06  -0.14  -0.09    -0.08   0.09  -0.03     0.04  -0.02   0.09
  23   6    -0.03   0.03  -0.01    -0.11   0.08   0.08     0.06   0.07  -0.11
  24   6     0.11   0.11   0.01    -0.19   0.04   0.08     0.05   0.05  -0.12
  25   6     0.10   0.20   0.15    -0.18  -0.04  -0.05     0.03  -0.10   0.03
  26   6     0.04   0.16   0.23    -0.05  -0.04  -0.15     0.00  -0.16   0.12
  27   7     0.03   0.02  -0.03    -0.02  -0.02  -0.10     0.00  -0.02   0.15
  28   6     0.18   0.07  -0.17    -0.01  -0.00  -0.03     0.04   0.02   0.03
  29   6     0.24  -0.06  -0.08     0.03   0.04   0.02    -0.03   0.01  -0.06
  30   6     0.09  -0.15   0.02     0.01   0.04  -0.00    -0.01   0.01  -0.00
  31   6    -0.05  -0.08  -0.01    -0.04   0.04  -0.04     0.01   0.04   0.06
  32   6    -0.00   0.09   0.01    -0.00   0.04   0.03    -0.05   0.01  -0.03
  33   6     0.17   0.16  -0.08    -0.00   0.04   0.03    -0.02   0.02  -0.03
  34   6    -0.03  -0.01  -0.03     0.10  -0.09   0.13    -0.07   0.06  -0.04
  35   6    -0.10  -0.12   0.02     0.17   0.01   0.08    -0.04   0.01  -0.09
  36   6    -0.09  -0.16   0.01     0.09   0.11  -0.01    -0.02  -0.02   0.01
  37   6    -0.12  -0.18  -0.02     0.01   0.09  -0.02     0.02   0.01   0.05
  38   6    -0.12  -0.09  -0.02    -0.01  -0.05  -0.00     0.07   0.03  -0.02
  39   6    -0.13  -0.06  -0.04     0.10  -0.12   0.09    -0.01   0.08  -0.05
  40   6    -0.06   0.21   0.13    -0.03  -0.08  -0.08     0.04  -0.11   0.06
  41   6    -0.09   0.13  -0.02    -0.03  -0.01   0.08     0.08   0.07  -0.13
  42   6    -0.09  -0.14  -0.10    -0.02   0.05  -0.12     0.03  -0.02   0.17
  43   6    -0.09  -0.04   0.08    -0.03  -0.05   0.01     0.02  -0.05  -0.08
  44   6    -0.02  -0.00   0.12    -0.02  -0.05   0.14    -0.05  -0.06  -0.20
  45   6     0.06   0.01  -0.05     0.04   0.09  -0.11    -0.11   0.05   0.09
  46   6     0.09  -0.01  -0.00     0.13  -0.01  -0.02     0.01  -0.13  -0.02
  47   1    -0.02  -0.01  -0.00    -0.04  -0.01  -0.01    -0.05   0.03   0.03
  48   1    -0.01  -0.00  -0.01    -0.03  -0.01  -0.04    -0.01   0.02   0.05
  49   1    -0.01   0.02   0.03    -0.02   0.04   0.08    -0.08   0.00  -0.03
  50   1    -0.02   0.01   0.00    -0.03   0.01  -0.00    -0.02   0.01   0.01
  51   1    -0.04  -0.00  -0.01    -0.07  -0.01  -0.04    -0.03   0.04   0.06
  52   1     0.03  -0.02   0.01     0.07  -0.02   0.01     0.13  -0.02   0.01
  53   1     0.01   0.01  -0.03     0.02   0.08  -0.07     0.03   0.12   0.02
  54   1     0.00  -0.01  -0.01    -0.01  -0.01  -0.05     0.00  -0.03   0.02
  55   1    -0.02  -0.00   0.02     0.02  -0.01  -0.00    -0.01  -0.01  -0.01
  56   1    -0.02   0.00   0.00     0.01  -0.03   0.05    -0.01  -0.02  -0.02
  57   1    -0.01   0.02  -0.02     0.02  -0.04  -0.04    -0.00   0.00   0.02
  58   1     0.01  -0.05  -0.03    -0.02   0.03  -0.05    -0.03  -0.00   0.06
  59   1     0.06   0.03  -0.02    -0.07   0.02   0.04     0.01   0.03  -0.05
  60   1     0.06   0.08   0.04    -0.09  -0.03  -0.02     0.01  -0.04   0.01
  61   1     0.12  -0.04  -0.02     0.01   0.02   0.02    -0.02  -0.00  -0.03
  62   1     0.03  -0.08   0.03     0.00   0.01   0.00    -0.01  -0.00  -0.00
  63   1    -0.05  -0.04   0.01    -0.02   0.01  -0.02     0.01   0.02   0.04
  64   1    -0.03   0.06   0.03     0.01   0.01   0.02    -0.03   0.00  -0.02
  65   1     0.06   0.09  -0.01     0.00   0.02   0.01    -0.01   0.01  -0.01
  66   1    -0.06  -0.04   0.00     0.09   0.02   0.02    -0.02  -0.01  -0.04
  67   1    -0.02  -0.04   0.00     0.04   0.05  -0.02    -0.01  -0.02   0.01
  68   1    -0.03  -0.06  -0.01    -0.01   0.04  -0.02     0.00   0.00   0.04
  69   1    -0.02  -0.01   0.01    -0.03  -0.03  -0.02     0.04   0.01  -0.01
  70   1    -0.04  -0.03  -0.01     0.03  -0.07   0.02    -0.00   0.04  -0.01
  71   1    -0.05   0.09   0.04     0.01  -0.04  -0.03     0.02  -0.05   0.03
  72   1    -0.05   0.04  -0.03     0.02  -0.00   0.05     0.03   0.04  -0.06
  73   1    -0.04  -0.05  -0.06     0.01   0.02  -0.06     0.01  -0.00   0.09
  74   1    -0.04   0.00   0.03    -0.00  -0.02  -0.01     0.02  -0.02  -0.03
  75   1     0.02   0.01  -0.02     0.01   0.04  -0.05    -0.07  -0.00   0.04
  76   1     0.03  -0.00   0.00     0.03  -0.01  -0.01    -0.02  -0.08  -0.02
                     34                     35                     36
                        a                      a                      a 
 Frequencies --   358.8574               371.3952               378.1196
 Red. masses --    11.4163                 9.0217                 9.7742
 Frc consts  --     0.0000                 0.0000                 0.0000
 IR Inten    --     3.1852                 0.6435                 9.3784
 Raman Activ --     0.0000                 0.0000                 0.0000
 Depolar     --     0.0000                 0.0000                 0.0000
 Atom AN      X      Y      Z        X      Y      Z        X      Y      Z
   1   8    -0.33  -0.00   0.05     0.02  -0.03  -0.02    -0.15   0.11   0.02
   2   6    -0.05   0.02   0.04    -0.01  -0.03  -0.04     0.04   0.08   0.11
   3   6     0.01  -0.02   0.12    -0.02  -0.00  -0.09     0.05   0.02   0.20
   4   6     0.06  -0.07  -0.08    -0.13  -0.09  -0.33    -0.03  -0.10  -0.14
   5   6     0.09  -0.04  -0.07     0.12   0.13   0.36     0.03  -0.03  -0.05
   6   6     0.15  -0.00   0.06    -0.02  -0.02  -0.04     0.09   0.05   0.15
   7   6     0.01  -0.07  -0.06    -0.10  -0.10  -0.30    -0.07  -0.06  -0.14
   8   6    -0.01  -0.10  -0.03     0.16   0.13   0.36    -0.03  -0.05  -0.00
[...]
  74   1    -0.03  -0.05   0.00    -0.04  -0.06   0.00    -0.09  -0.12   0.00
  75   1    -0.00  -0.02  -0.02     0.01   0.17   0.16    -0.02  -0.27  -0.25
  76   1    -0.03   0.01   0.02     0.20  -0.04  -0.18    -0.37   0.07   0.32
                    214                    215                    216
                        a                      a                      a 
 Frequencies --  3088.8272              3089.2544              3092.0670
 Red. masses --     1.8521                 1.8336                 1.8721
 Frc consts  --     0.0000                 0.0000                 0.0000
 IR Inten    --    45.3370               140.4461                52.8508
 Raman Activ --     0.0000                 0.0000                 0.0000
 Depolar     --     0.0000                 0.0000                 0.0000
 Atom AN      X      Y      Z        X      Y      Z        X      Y      Z
   1   8     0.00   0.00   0.00     0.00  -0.00  -0.00     0.00  -0.00   0.00
   2   6    -0.00  -0.00   0.00    -0.00  -0.00   0.00    -0.00   0.00   0.00
   3   6    -0.00   0.00  -0.00    -0.00   0.00   0.00     0.00  -0.00  -0.00
   4   6    -0.06  -0.05   0.04    -0.06  -0.06   0.05     0.00   0.00  -0.00
   5   6     0.02  -0.07   0.02     0.02  -0.07   0.02    -0.00   0.00  -0.00
   6   6    -0.01   0.01   0.00    -0.02   0.01   0.00     0.00  -0.00  -0.00
   7   6    -0.06  -0.05   0.04    -0.06  -0.05   0.04     0.00   0.00  -0.00
   8   6     0.02  -0.06   0.01     0.02  -0.06   0.01    -0.00   0.00  -0.00
   9   6     0.00  -0.00  -0.00     0.00   0.00  -0.00     0.00   0.00   0.00
  10   6    -0.00  -0.01  -0.01     0.00   0.02   0.02     0.00   0.02   0.01
  11   6    -0.00   0.00   0.00     0.01  -0.00  -0.01    -0.01   0.00   0.01
  12   6    -0.00  -0.00   0.00     0.00   0.00   0.00    -0.00  -0.00  -0.00
  13   7     0.00   0.00   0.00    -0.00  -0.00  -0.00     0.00  -0.00  -0.00
  14   6     0.00   0.00  -0.00    -0.00  -0.00   0.00     0.00   0.00  -0.00
  15   6     0.05   0.02   0.00    -0.05  -0.02  -0.00     0.05   0.02   0.00
  16   6     0.01  -0.01   0.00     0.01  -0.01   0.00     0.03  -0.02   0.00
  17   6     0.00   0.02   0.00    -0.01  -0.05  -0.00    -0.00  -0.02  -0.00
  18   6     0.05   0.02   0.00    -0.06  -0.02  -0.00    -0.00  -0.00  -0.00
  19   6     0.00  -0.00   0.00    -0.00   0.00  -0.00    -0.00  -0.00   0.00
  20   6    -0.00   0.01  -0.00     0.00  -0.00   0.00     0.00   0.00   0.00
  21   6     0.11   0.14   0.00    -0.04  -0.06  -0.00     0.06   0.08   0.00
  22   6     0.00  -0.00   0.00    -0.00   0.00  -0.00     0.01   0.00   0.00
  23   6    -0.00   0.00   0.00     0.00  -0.00  -0.00    -0.00  -0.00  -0.00
  24   6    -0.01  -0.01  -0.01     0.00   0.00   0.00    -0.02  -0.02  -0.02
  25   6     0.01  -0.01  -0.01    -0.00   0.00   0.00     0.01  -0.01  -0.01
  26   6     0.00  -0.00  -0.00    -0.00   0.00   0.00     0.00  -0.00   0.00
  27   7    -0.00   0.00  -0.00     0.00  -0.00   0.00    -0.00   0.00  -0.00
  28   6     0.00  -0.00   0.00    -0.00   0.00  -0.00     0.00  -0.00  -0.00
  29   6    -0.00  -0.00   0.00     0.00   0.00  -0.00    -0.00  -0.00   0.00
  30   6    -0.00   0.00   0.00     0.00  -0.00  -0.00    -0.01   0.00   0.00
  31   6    -0.00   0.00   0.00     0.00  -0.00  -0.00    -0.00   0.01   0.00
  32   6     0.00   0.00  -0.00    -0.00  -0.00   0.00     0.00   0.00  -0.00
  33   6    -0.00   0.00   0.00     0.00  -0.00  -0.00     0.00  -0.00  -0.00
  34   6     0.00   0.00   0.00    -0.00  -0.00  -0.00     0.00   0.00   0.00
  35   6     0.00  -0.00   0.00    -0.00   0.00  -0.00    -0.00   0.00  -0.00
  36   6    -0.00   0.00  -0.00     0.00  -0.00   0.00    -0.01   0.00  -0.00
  37   6    -0.00  -0.00  -0.00     0.00   0.00   0.00    -0.01  -0.01  -0.00
  38   6     0.00  -0.00   0.00    -0.00   0.00  -0.00     0.00  -0.01   0.00
  39   6     0.00  -0.00   0.00    -0.00   0.00  -0.00     0.00  -0.00   0.00
  40   6     0.02   0.02   0.02    -0.00  -0.01  -0.01     0.01   0.01   0.01
  41   6    -0.02   0.03   0.03     0.01  -0.01  -0.01    -0.01   0.02   0.02
  42   6    -0.02   0.05  -0.00     0.01  -0.03   0.00     0.06  -0.15   0.01
  43   6     0.05   0.07  -0.00    -0.03  -0.04   0.00    -0.11  -0.15   0.00
  44   6     0.00  -0.00   0.00    -0.00   0.00  -0.00    -0.01   0.00  -0.00
  45   6     0.00   0.01   0.01     0.01   0.07   0.07     0.00  -0.00  -0.00
  46   6     0.00  -0.00  -0.00     0.10  -0.02  -0.09    -0.01   0.00   0.01
  47   1     0.19   0.18  -0.14     0.22   0.20  -0.16    -0.01  -0.01   0.01
  48   1    -0.07   0.25  -0.06    -0.06   0.22  -0.06     0.00  -0.01   0.00
  49   1     0.04  -0.02  -0.01     0.07  -0.03  -0.02    -0.00   0.00   0.00
  50   1     0.20   0.18  -0.14     0.20   0.18  -0.14    -0.01  -0.01   0.00
  51   1    -0.06   0.21  -0.05    -0.06   0.20  -0.04     0.00  -0.01   0.00
  52   1     0.00   0.05   0.04    -0.00  -0.08  -0.07    -0.00  -0.05  -0.05
  53   1     0.01  -0.00  -0.01    -0.03   0.01   0.02     0.03  -0.01  -0.03
  54   1    -0.16  -0.06  -0.01     0.18   0.06   0.01    -0.19  -0.07  -0.01
  55   1    -0.02   0.02  -0.00    -0.04   0.03  -0.00    -0.10   0.08  -0.01
  56   1    -0.01  -0.08  -0.00     0.03   0.17   0.00     0.01   0.07   0.00
  57   1    -0.16  -0.06  -0.00     0.22   0.08   0.01     0.01   0.00   0.00
  58   1    -0.38  -0.50  -0.01     0.15   0.20   0.00    -0.22  -0.30  -0.00
  59   1     0.02   0.02   0.02    -0.00  -0.00  -0.00     0.05   0.06   0.06
  60   1    -0.02   0.03   0.03     0.01  -0.01  -0.01    -0.03   0.04   0.04
  61   1     0.00   0.00  -0.00    -0.00  -0.00   0.00     0.01   0.01  -0.01
  62   1     0.01  -0.00  -0.00    -0.00   0.00   0.00     0.02  -0.00  -0.01
  63   1     0.01  -0.01  -0.00    -0.00   0.00   0.00     0.01  -0.03  -0.00
  64   1    -0.00  -0.00   0.00     0.00   0.00  -0.00    -0.01  -0.02   0.01
  65   1     0.00  -0.00  -0.00    -0.00   0.00   0.00    -0.01   0.00   0.01
  66   1    -0.00   0.00  -0.00     0.00  -0.00   0.00     0.00  -0.01   0.01
  67   1     0.00  -0.00   0.00    -0.00   0.00  -0.00     0.02  -0.00   0.01
  68   1     0.01   0.01   0.00    -0.00  -0.00  -0.00     0.02   0.03   0.00
  69   1    -0.00   0.01  -0.00     0.00  -0.00   0.00    -0.00   0.02  -0.01
  70   1    -0.00   0.00  -0.00     0.00  -0.00   0.00    -0.01   0.00  -0.01
  71   1    -0.05  -0.05  -0.05     0.02   0.02   0.02    -0.04  -0.04  -0.04
  72   1     0.07  -0.11  -0.09    -0.02   0.04   0.03     0.04  -0.07  -0.05
  73   1     0.07  -0.16   0.01    -0.04   0.09  -0.00    -0.22   0.50  -0.02
  74   1    -0.17  -0.24   0.00     0.09   0.13  -0.00     0.36   0.50  -0.01
  75   1    -0.00  -0.02  -0.02    -0.02  -0.27  -0.25     0.00   0.02   0.01
  76   1    -0.01   0.00   0.01    -0.35   0.07   0.31     0.03  -0.01  -0.02
                    217                    218                    219
                        a                      a                      a 
 Frequencies --  3093.0656              3093.7877              3095.3497
 Red. masses --     1.9204                 1.9206                 1.9011
 Frc consts  --     0.0000                 0.0000                 0.0000
 IR Inten    --   101.4407                49.5044                78.2584
 Raman Activ --     0.0000                 0.0000                 0.0000
 Depolar     --     0.0000                 0.0000                 0.0000
 Atom AN      X      Y      Z        X      Y      Z        X      Y      Z
   1   8    -0.00  -0.00  -0.00     0.00   0.00   0.00    -0.00   0.00   0.00
   2   6     0.00   0.00   0.00    -0.00  -0.00  -0.00    -0.00  -0.00  -0.00
   3   6    -0.00  -0.00   0.00     0.00  -0.00  -0.00     0.00  -0.00  -0.00
   4   6    -0.00  -0.00   0.00     0.00   0.00  -0.00     0.00   0.00  -0.00
   5   6     0.00  -0.00   0.00    -0.00   0.00  -0.00    -0.00   0.01  -0.00
   6   6     0.00  -0.00  -0.00    -0.00   0.00   0.00    -0.01   0.01   0.00
   7   6    -0.00  -0.00   0.00    -0.00  -0.00   0.00    -0.01  -0.01   0.01
   8   6     0.00  -0.00   0.00     0.00  -0.00   0.00     0.00  -0.01   0.00
   9   6     0.00   0.00  -0.00    -0.00  -0.00   0.00     0.00   0.00  -0.00
  10   6     0.00   0.00   0.00     0.00   0.00   0.00    -0.00   0.01   0.01
  11   6    -0.00   0.00   0.00    -0.00   0.00   0.00    -0.01   0.00   0.01
  12   6    -0.00   0.00   0.00    -0.00  -0.00  -0.00    -0.00  -0.00   0.00
  13   7    -0.00   0.00   0.00     0.00  -0.00  -0.00     0.00   0.00   0.00
  14   6    -0.00  -0.00   0.00     0.00   0.00  -0.00    -0.00  -0.01  -0.00
  15   6    -0.00  -0.00  -0.00     0.01   0.00   0.00    -0.17  -0.06  -0.01
  16   6    -0.00   0.00  -0.00     0.00  -0.00   0.00    -0.11   0.09  -0.01
  17   6     0.00   0.00   0.00    -0.00  -0.00  -0.00     0.02   0.11   0.00
  18   6     0.00   0.00   0.00    -0.00  -0.00  -0.00     0.08   0.03   0.00
  19   6     0.00   0.00   0.00    -0.00   0.00  -0.00     0.00  -0.00   0.00
  20   6    -0.00  -0.00  -0.00     0.00   0.00   0.00    -0.00   0.00   0.00
  21   6    -0.00  -0.00  -0.00     0.00   0.01   0.00     0.02   0.03   0.00
  22   6    -0.00  -0.00   0.00     0.00   0.00   0.00     0.00   0.00   0.00
  23   6     0.00   0.00   0.00    -0.00   0.00  -0.00    -0.00   0.00  -0.00
  24   6     0.00   0.00   0.00    -0.01  -0.01  -0.01    -0.00  -0.00  -0.00
  25   6    -0.00   0.00   0.00     0.01  -0.01  -0.01     0.00  -0.00  -0.00
  26   6    -0.00  -0.00   0.00    -0.00   0.00  -0.00     0.00  -0.00   0.00
  27   7    -0.00  -0.00  -0.00     0.00  -0.00   0.00    -0.00   0.00  -0.00
  28   6    -0.00   0.01   0.00    -0.00   0.01   0.00     0.00  -0.00  -0.00
  29   6     0.02   0.04  -0.02     0.03   0.05  -0.03     0.00   0.00  -0.00
  30   6     0.06  -0.01  -0.04     0.08  -0.01  -0.05     0.00  -0.00  -0.00
  31   6     0.05  -0.11  -0.00     0.06  -0.14  -0.01     0.00  -0.00  -0.00
  32   6    -0.04  -0.06   0.04    -0.04  -0.07   0.04    -0.00  -0.00   0.00
  33   6    -0.05   0.01   0.03    -0.06   0.01   0.04    -0.00   0.00   0.00
  34   6     0.00   0.01   0.00    -0.00  -0.00  -0.00     0.00   0.00   0.00
  35   6    -0.02   0.06  -0.03     0.01  -0.05   0.03     0.00  -0.00   0.00
  36   6    -0.08   0.01  -0.05     0.06  -0.00   0.04     0.00  -0.00   0.00
  37   6    -0.09  -0.12  -0.01     0.07   0.09   0.01     0.00   0.00   0.00
  38   6     0.02  -0.08   0.05    -0.02   0.06  -0.04    -0.00   0.00  -0.00
  39   6     0.06  -0.00   0.04    -0.05   0.00  -0.03    -0.00   0.00  -0.00
  40   6    -0.00  -0.00  -0.00     0.01   0.01   0.01     0.00   0.00   0.00
  41   6     0.00  -0.00  -0.00    -0.01   0.01   0.01    -0.00   0.01   0.00
  42   6    -0.00   0.00  -0.00     0.00  -0.01   0.00     0.01  -0.03   0.00
  43   6     0.00   0.00  -0.00    -0.01  -0.01   0.00    -0.02  -0.03   0.00
  44   6     0.00  -0.00   0.00    -0.00   0.00  -0.00    -0.00   0.00   0.00
  45   6     0.00   0.00   0.00     0.00   0.00   0.00    -0.00  -0.01  -0.01
  46   6     0.00  -0.00  -0.00    -0.00   0.00   0.00     0.02  -0.00  -0.02
  47   1     0.00   0.00  -0.00    -0.00  -0.00   0.00    -0.01  -0.01   0.01
  48   1    -0.00   0.00  -0.00     0.00  -0.00   0.00     0.01  -0.04   0.01
  49   1    -0.00   0.00   0.00     0.00  -0.00  -0.00     0.05  -0.02  -0.01
  50   1     0.00   0.00  -0.00     0.00   0.00  -0.00     0.03   0.03  -0.02
  51   1    -0.00   0.00  -0.00    -0.00   0.00  -0.00    -0.01   0.02  -0.00
  52   1     0.00   0.00   0.00    -0.00  -0.00  -0.00    -0.00  -0.02  -0.02
  53   1     0.00  -0.00  -0.00     0.00  -0.00  -0.00     0.03  -0.01  -0.03
  54   1     0.01   0.00   0.00    -0.02  -0.01  -0.00     0.59   0.21   0.04
  55   1     0.00  -0.00   0.00    -0.01   0.01  -0.00     0.36  -0.30   0.02
  56   1    -0.00  -0.00  -0.00     0.00   0.01   0.00    -0.06  -0.38  -0.00
  57   1    -0.00  -0.00  -0.00     0.00   0.00   0.00    -0.28  -0.10  -0.01
  58   1     0.00   0.00   0.00    -0.02  -0.02  -0.00    -0.08  -0.11  -0.00
  59   1    -0.00  -0.00  -0.00     0.02   0.02   0.02     0.01   0.01   0.01
  60   1     0.00  -0.00  -0.00    -0.02   0.03   0.02    -0.01   0.01   0.01
  61   1    -0.08  -0.13   0.08    -0.11  -0.18   0.12    -0.00  -0.00   0.00
  62   1    -0.20   0.04   0.12    -0.25   0.05   0.15    -0.00   0.00   0.00
  63   1    -0.16   0.38   0.02    -0.19   0.46   0.02    -0.00   0.00   0.00
  64   1     0.11   0.18  -0.12     0.14   0.23  -0.15     0.00   0.00  -0.00
  65   1     0.15  -0.03  -0.09     0.21  -0.04  -0.12     0.00  -0.00  -0.00
  66   1     0.05  -0.19   0.11    -0.04   0.17  -0.10    -0.00   0.00  -0.00
  67   1     0.25  -0.02   0.17    -0.20   0.01  -0.13    -0.00   0.00  -0.00
  68   1     0.31   0.41   0.03    -0.24  -0.31  -0.02    -0.00  -0.01  -0.00
  69   1    -0.07   0.26  -0.15     0.06  -0.20   0.12     0.00  -0.00   0.00
  70   1    -0.19   0.01  -0.13     0.16  -0.01   0.11     0.00  -0.00   0.00
  71   1     0.00   0.00   0.01    -0.02  -0.02  -0.02    -0.01  -0.01  -0.01
  72   1    -0.00   0.01   0.00     0.02  -0.03  -0.02     0.01  -0.02  -0.02
  73   1     0.00  -0.00   0.00    -0.01   0.03  -0.00    -0.05   0.11  -0.01
  74   1    -0.00  -0.00   0.00     0.02   0.03  -0.00     0.08   0.11  -0.00
  75   1    -0.00  -0.00  -0.00    -0.00  -0.00  -0.00     0.00   0.03   0.03
  76   1    -0.00   0.00   0.00     0.01  -0.00  -0.00    -0.07   0.01   0.06
                    220                    221                    222
                        a                      a                      a 
 Frequencies --  3095.8376              3098.4372              3100.0384
 Red. masses --     1.9248                 1.8725                 1.8828
 Frc consts  --     0.0000                 0.0000                 0.0000
 IR Inten    --    46.5116                67.1944                 6.2164
 Raman Activ --     0.0000                 0.0000                 0.0000
 Depolar     --     0.0000                 0.0000                 0.0000
 Atom AN      X      Y      Z        X      Y      Z        X      Y      Z
   1   8     0.00  -0.00  -0.00     0.00  -0.00  -0.00    -0.00  -0.00  -0.00
   2   6    -0.00   0.00   0.00    -0.00   0.00   0.00     0.00   0.00   0.00
   3   6    -0.00   0.00   0.00     0.00  -0.00  -0.00    -0.00   0.00   0.00
   4   6    -0.06  -0.05   0.04     0.00   0.00  -0.00    -0.01  -0.01   0.01
   5   6     0.04  -0.14   0.03     0.00  -0.00   0.00     0.00  -0.01   0.00
   6   6     0.15  -0.06  -0.04     0.00  -0.00  -0.00     0.01  -0.00  -0.00
   7   6     0.09   0.08  -0.06     0.00   0.00  -0.00     0.01   0.01  -0.00
   8   6    -0.02   0.07  -0.01    -0.00   0.00  -0.00    -0.00   0.01  -0.00
   9   6     0.00   0.00  -0.00     0.00  -0.00  -0.00     0.00   0.00   0.00
  10   6    -0.00  -0.00  -0.00     0.01   0.08   0.07     0.00   0.05   0.04
  11   6     0.01  -0.00  -0.01    -0.16   0.03   0.14    -0.10   0.02   0.08
  12   6     0.00   0.00   0.00    -0.00  -0.00  -0.00    -0.01  -0.01   0.00
  13   7     0.00   0.00   0.00    -0.00   0.00  -0.00     0.00   0.00   0.00
  14   6    -0.00  -0.00  -0.00    -0.00  -0.00   0.00     0.00   0.00   0.00
  15   6    -0.02  -0.01  -0.00    -0.01  -0.00  -0.00     0.02   0.01   0.00
  16   6    -0.01   0.01  -0.00    -0.00   0.00  -0.00     0.01  -0.01   0.00
  17   6     0.00   0.01   0.00     0.00   0.00   0.00    -0.00  -0.01  -0.00
  18   6     0.01   0.00   0.00    -0.00  -0.00  -0.00    -0.01  -0.00  -0.00
  19   6     0.00  -0.00   0.00     0.00  -0.00   0.00    -0.00   0.00  -0.00
  20   6    -0.00   0.00  -0.00     0.00  -0.00   0.00    -0.00  -0.00   0.00
  21   6     0.00   0.00   0.00    -0.00  -0.00  -0.00    -0.00  -0.00  -0.00
  22   6     0.00   0.00   0.00    -0.00  -0.00   0.00    -0.00  -0.00  -0.00
  23   6    -0.00   0.00  -0.00     0.00   0.00   0.00     0.00   0.00   0.00
  24   6    -0.00  -0.00  -0.00     0.00   0.00   0.00     0.00   0.00   0.00
  25   6     0.00  -0.00  -0.00    -0.00   0.00   0.00    -0.00   0.00   0.00
  26   6     0.00  -0.00   0.00    -0.00   0.00  -0.00    -0.00   0.00  -0.00
  27   7    -0.00   0.00  -0.00     0.00   0.00  -0.00     0.00  -0.00   0.00
  28   6    -0.00   0.00  -0.00    -0.00   0.00   0.00    -0.00   0.00   0.00
  29   6     0.00   0.00  -0.00    -0.00  -0.00   0.00     0.00   0.00  -0.00
  30   6     0.00  -0.00  -0.00    -0.00   0.00   0.00     0.00  -0.00  -0.00
  31   6     0.00  -0.00  -0.00    -0.00   0.00   0.00     0.00  -0.00  -0.00
  32   6    -0.00  -0.00   0.00     0.00   0.00  -0.00    -0.00  -0.00   0.00
  33   6    -0.00   0.00   0.00    -0.00  -0.00  -0.00    -0.00   0.00   0.00
  34   6    -0.00  -0.00   0.00    -0.00  -0.00  -0.00    -0.00  -0.00  -0.00
  35   6     0.00  -0.00   0.00     0.00   0.00  -0.00     0.00  -0.00   0.00
  36   6     0.00  -0.00   0.00    -0.00  -0.00  -0.00     0.00  -0.00   0.00
  37   6     0.00   0.00   0.00     0.00   0.00   0.00     0.00   0.00   0.00
  38   6    -0.00   0.00  -0.00    -0.00   0.00  -0.00    -0.00   0.00  -0.00
  39   6    -0.00   0.00  -0.00    -0.00   0.00  -0.00    -0.00   0.00  -0.00
  40   6     0.00   0.00   0.00    -0.00  -0.00  -0.00    -0.00  -0.00  -0.00
  41   6    -0.00   0.00   0.00     0.00  -0.00  -0.00     0.00  -0.00  -0.00
  42   6     0.00  -0.00   0.00    -0.00   0.01  -0.00    -0.00   0.01  -0.00
  43   6    -0.00  -0.00   0.00     0.01   0.01  -0.00     0.01   0.01  -0.00
  44   6    -0.00   0.00   0.00     0.00  -0.00   0.00     0.00   0.00  -0.00
  45   6     0.00   0.01   0.01     0.01   0.09   0.08    -0.01  -0.14  -0.13
  46   6    -0.00   0.00   0.00    -0.07   0.01   0.06     0.11  -0.02  -0.09
  47   1     0.20   0.18  -0.15    -0.01  -0.01   0.01     0.03   0.03  -0.02
  48   1    -0.12   0.45  -0.11    -0.00   0.00  -0.00    -0.01   0.03  -0.01
  49   1    -0.51   0.19   0.13    -0.01   0.00   0.00    -0.03   0.01   0.01
  50   1    -0.30  -0.28   0.21    -0.00  -0.00   0.00    -0.02  -0.02   0.01
  51   1     0.06  -0.22   0.05     0.00  -0.01   0.00     0.01  -0.02   0.00
  52   1     0.00   0.01   0.00    -0.02  -0.25  -0.22    -0.01  -0.17  -0.14
  53   1    -0.03   0.01   0.03     0.56  -0.11  -0.48     0.33  -0.07  -0.28
  54   1     0.06   0.02   0.00     0.03   0.01   0.00    -0.07  -0.02  -0.00
  55   1     0.03  -0.03   0.00     0.00  -0.00   0.00    -0.03   0.02  -0.00
  56   1    -0.01  -0.03  -0.00    -0.00  -0.00   0.00     0.00   0.03   0.00
  57   1    -0.02  -0.01  -0.00     0.00   0.00   0.00     0.02   0.01   0.00
  58   1    -0.01  -0.01  -0.00     0.00   0.00   0.00     0.01   0.01   0.00
  59   1     0.00   0.00   0.00    -0.00  -0.00  -0.00    -0.00  -0.00  -0.00
  60   1    -0.00   0.00   0.00     0.00  -0.00  -0.00     0.00  -0.00  -0.00
  61   1    -0.00  -0.00   0.00     0.00   0.00  -0.00    -0.00  -0.00   0.00
  62   1    -0.00   0.00   0.00     0.00  -0.00  -0.00    -0.00   0.00   0.00
  63   1    -0.00   0.00   0.00     0.00  -0.00  -0.00    -0.00   0.00   0.00
  64   1     0.00   0.00  -0.00    -0.00  -0.00   0.00     0.00   0.00  -0.00
  65   1     0.00  -0.00  -0.00     0.00  -0.00  -0.00     0.00  -0.00  -0.00
  66   1    -0.00   0.00  -0.00     0.00  -0.00   0.00    -0.00   0.00  -0.00
  67   1    -0.00   0.00  -0.00     0.00  -0.00   0.00    -0.00   0.00  -0.00
  68   1    -0.00  -0.00  -0.00    -0.00  -0.00  -0.00    -0.00  -0.00  -0.00
  69   1     0.00  -0.00   0.00     0.00  -0.00   0.00     0.00  -0.00   0.00
  70   1     0.00  -0.00   0.00     0.00  -0.00   0.00     0.00  -0.00   0.00
  71   1    -0.00  -0.00  -0.00     0.00   0.00   0.00     0.00   0.00   0.00
  72   1     0.00  -0.00  -0.00    -0.00   0.00   0.00    -0.00   0.00   0.00
  73   1    -0.00   0.01  -0.00     0.01  -0.02   0.00     0.01  -0.02   0.00
  74   1     0.01   0.01  -0.00    -0.03  -0.05   0.00    -0.03  -0.04   0.00
  75   1    -0.00  -0.04  -0.04    -0.02  -0.29  -0.27     0.03   0.48   0.44
  76   1     0.01  -0.00  -0.01     0.22  -0.04  -0.19    -0.37   0.07   0.32
