$hessian                                                                        
        0.2325966585  -0.1419518578  -0.1550734461  -0.1831247367   0.1351614774
        0.1253359539   0.0165202646  -0.0242375462  -0.0151074296  -0.0548952895
        0.0307301927   0.0409250698   0.0003910389   0.0034980807   0.0023830086
       -0.0009920835   0.0011174325   0.0007844065  -0.0002793969   0.0002321031
       -0.0002582231   0.0031836619   0.0023908926  -0.0003071158  -0.0053444126
       -0.0038498900  -0.0011442228   0.0060189640   0.0008174817   0.0001705436
       -0.0028163799   0.0009185216  -0.0009355961   0.0024974414   0.0017123459
       -0.0001996160  -0.0051080345  -0.0009576463  -0.0009331720   0.0097595350
        0.0017681743   0.0014366609  -0.0029760389  -0.0054209450   0.0026899900
       -0.0038250337   0.0040582682  -0.0037161246   0.0028482508  -0.0005850938
        0.0014139363  -0.0025066598  -0.0018897196   0.0000537095   0.0001895464
        0.0000770815   0.0006624152  -0.0002375036   0.0002578209   0.0002192762
        0.0002169695  -0.0000851118   0.0000778345   0.0000360828   0.0001220322
        0.0001629595   0.0003634613   0.0000434612   0.0003425962  -0.0002880372
       -0.0002784302  -0.0005245766   0.0001060733   0.0003953937   0.0002304364
       -0.0002530265  -0.0001468143  -0.0004119302   0.0003076883   0.0004294703
        0.0004521536   0.0000487449  -0.0003791469  -0.0003524192  -0.0000503760
       -0.0000231235  -0.0001210794   0.0000529264  -0.0002136517   0.0000606564
       -0.0002161225   0.0000075074  -0.0000522558  -0.0013632403   0.0015888897
        0.0011109450  -0.0002032430  -0.0010991607   0.0002093193  -0.0000709393
        0.0002321576   0.0000008526   0.0001404452  -0.0002295110   0.0003658792
       -0.0002800238  -0.0000401591   0.0002743154   0.0004271351   0.0003270234
       -0.0004594356  -0.0002402941  -0.0003120411   0.0004906871   0.0001263627
        0.0004126644  -0.0004758379  -0.0001292337  -0.0004971903   0.0003601181
        0.0000149858   0.0004100311  -0.0002895985   0.0002043086  -0.0000187519
       -0.0002310495  -0.0000654919   0.0001206464   0.0001621303   0.0008615413
        0.0003155919  -0.0005167722  -0.0031413088   0.0013319292   0.0016695467
       -0.0045943663  -0.0048797973  -0.0008177873  -0.0025214581  -0.0008697307
       -0.0001108487   0.0000023791   0.0000976460   0.0001285129   0.0001071885
       -0.0000010344  -0.0000346751  -0.0000169140  -0.0000907954  -0.0000309726
       -0.0001137013   0.0000339394  -0.0000005268   0.0000670246  -0.0000264297
        0.0000560309  -0.0000430373   0.0001395557   0.0001479034  -0.0000770716
       -0.0000604139  -0.0000314131  -0.0000358699  -0.0001332120  -0.0000673293
        0.0000955634  -0.0001167181   0.0000163803   0.0000830902  -0.0001486003
        0.0000214031   0.0000966450  -0.0000311316   0.0001430901   0.0000237684
        0.0000783116   0.0000009242  -0.0000970698  -0.0000840409  -0.0001236026
       -0.0001270492  -0.0001434934   0.0001053206   0.0000271820   0.0001084365
       -0.0001069457  -0.0000487703   0.0001255511  -0.0000646424  -0.0001156366
        0.0000448660  -0.0000016602  -0.0000901984   0.0001278737   0.0000515353
       -0.0000897874  -0.0000032244   0.0001238125  -0.0001250100  -0.0000690419
        0.0000123413  -0.0000088435   0.0000321941  -0.0000606265  -0.0010552963
       -0.0001316188   0.0000041234   0.0001520587  -0.0002599721  -0.0002958476
       -0.1419518578   0.2709762032   0.2048654795   0.0947087783  -0.2352218064
       -0.1432495668   0.0334021316  -0.0402835853  -0.0491201135   0.0227053731
        0.0030335325  -0.0143272060  -0.0080667446  -0.0034458235  -0.0007809397
        0.0010552739   0.0006758750   0.0008903703   0.0011625137   0.0001871453
        0.0005985169  -0.0039810921  -0.0032197198   0.0005847095   0.0068636895
        0.0049838537   0.0014805161  -0.0072596880  -0.0010699727  -0.0002754772
        0.0033140028  -0.0011297754   0.0011001070  -0.0028708126  -0.0019599963
        0.0002018120   0.0057254546   0.0010647359   0.0010544389  -0.0105903096
       -0.0019161269  -0.0015590004   0.0031729859   0.0057929537  -0.0028756386
        0.0040812944  -0.0043424029   0.0039719057  -0.0032955704   0.0006413784
       -0.0015953462   0.0029016068   0.0022880575  -0.0000743338  -0.0005189647
        0.0001755442  -0.0008911180   0.0002732638  -0.0004224232  -0.0002904533
       -0.0001939494   0.0000992751  -0.0000009574  -0.0000113319  -0.0001689938
       -0.0001476775  -0.0004177738  -0.0000132550  -0.0003631031   0.0002687556
        0.0003164501   0.0005601530  -0.0001513633  -0.0004010301  -0.0002757271
        0.0002173395   0.0002832198   0.0004742959  -0.0003787995  -0.0004199387
       -0.0004318632  -0.0001215008   0.0003967696   0.0003098464   0.0000075593
       -0.0000824059   0.0001144845  -0.0000886841   0.0000869113  -0.0000739166
        0.0005315656   0.0000826894   0.0001419222   0.0014225760  -0.0019512955
       -0.0014702902   0.0002721870   0.0013784789  -0.0003218412   0.0000135368
       -0.0002882843  -0.0000312739  -0.0002121034   0.0001990968  -0.0003245061
        0.0001972606   0.0000215850  -0.0001628452  -0.0003869153  -0.0001961171
        0.0003011298   0.0003142695   0.0001269103  -0.0004506754   0.0000130015
       -0.0004333207   0.0004070881   0.0000445485   0.0003978593  -0.0001994288
       -0.0000035599  -0.0003158770   0.0002192372  -0.0002237776   0.0000459436
        0.0002145795   0.0000344446  -0.0000177857  -0.0002380028  -0.0010141180
       -0.0003625558   0.0006574338   0.0010407396  -0.0004809174  -0.0002607830
       -0.0022221134   0.0028239000  -0.0000528762  -0.0003576268   0.0016995364
        0.0012560446   0.0001072885  -0.0000617119  -0.0002398609  -0.0000829306
       -0.0000011734   0.0000602091   0.0000192612   0.0001041215   0.0000383909
        0.0001256046  -0.0000503261  -0.0000112275  -0.0000525647   0.0000409018
       -0.0000661240   0.0000511297  -0.0001439708  -0.0001802099   0.0000820838
        0.0000643145   0.0000203407   0.0000466057   0.0001377773   0.0000613261
       -0.0000927474   0.0001430350  -0.0000240147  -0.0000840241   0.0001593254
       -0.0000375280  -0.0000730621   0.0000341825  -0.0001536231  -0.0000335428
       -0.0000651732  -0.0000002406   0.0001512258   0.0001287818   0.0000771219
        0.0002060504   0.0001096258  -0.0000052338  -0.0000298032  -0.0001253918
        0.0001097164   0.0000375579  -0.0001063479   0.0000678463   0.0001039880
       -0.0000356147   0.0000111933   0.0000789665  -0.0001277835  -0.0000593450
        0.0000838642   0.0000037886  -0.0001198224   0.0001279295   0.0000639166
       -0.0000049284   0.0000458248  -0.0000349822   0.0000527723   0.0002909959
        0.0000125928   0.0004647386  -0.0005351968   0.0001156159   0.0003793931
       -0.1550734461   0.2048654795   0.2028783074   0.0985769243  -0.1552499458
       -0.1908065298   0.0227938182  -0.0318965722  -0.0079478305   0.0357465741
       -0.0166150449  -0.0071137612  -0.0053884503  -0.0040480188  -0.0005004880
        0.0008681036   0.0006487339  -0.0003887129   0.0008226777   0.0000670551
        0.0004775737  -0.0034616402  -0.0027887661   0.0005786519   0.0060812305
        0.0043682262   0.0013143307  -0.0065360566  -0.0009497566  -0.0002244126
        0.0030229565  -0.0010121157   0.0010040891  -0.0026289976  -0.0017848215
        0.0001878792   0.0052602238   0.0009773846   0.0009692146  -0.0098069949
       -0.0017736737  -0.0014464030   0.0029558555   0.0053729947  -0.0026630599
        0.0037891737  -0.0040297671   0.0036922005  -0.0029884544   0.0005780588
       -0.0014496919   0.0026442888   0.0020509585  -0.0000671940  -0.0004191512
        0.0000626728  -0.0007763052   0.0002404978  -0.0003134159  -0.0002482147
       -0.0001867243   0.0000809383  -0.0000148968  -0.0000253398  -0.0001421998
       -0.0001417501  -0.0003515070  -0.0000289781  -0.0003254367   0.0002624251
        0.0002917510   0.0004962787  -0.0001345940  -0.0003643124  -0.0002478962
        0.0001872717   0.0002098064   0.0003759248  -0.0002899900  -0.0003976848
       -0.0003943746  -0.0000632759   0.0003721527   0.0002939490   0.0000414765
       -0.0000205041   0.0001378969  -0.0000805617   0.0001506250  -0.0000692846
        0.0003731996   0.0000920035   0.0000914825   0.0013524221  -0.0017610774
       -0.0012058369   0.0001970581   0.0012819046  -0.0003125622   0.0000041148
       -0.0002706674   0.0000181469  -0.0002024158   0.0002141067  -0.0003289079
        0.0002011583   0.0000196739  -0.0001673668  -0.0003877172  -0.0002376124
        0.0003502895   0.0002879065   0.0001722539  -0.0004548774  -0.0000419904
       -0.0004084629   0.0004256377   0.0000666220   0.0004170104  -0.0002441247
       -0.0000090725  -0.0003477050   0.0002454309  -0.0002004981   0.0000233462
        0.0002083115   0.0000502815  -0.0000632637  -0.0001780001  -0.0009202976
       -0.0003306815   0.0005614785   0.0013990020  -0.0003408141  -0.0011708259
        0.0010599896   0.0007095551   0.0040157093   0.0003181909   0.0014513514
        0.0008571758   0.0000811822  -0.0000878769  -0.0001645804  -0.0000853516
        0.0000028813   0.0000408235   0.0000174830   0.0000967718   0.0000365634
        0.0001132997  -0.0000439251  -0.0000073289  -0.0000586694   0.0000328297
       -0.0000578336   0.0000501068  -0.0001372471  -0.0001660203   0.0000804637
        0.0000650656   0.0000159764   0.0000373438   0.0001328900   0.0000506115
       -0.0000901629   0.0001100281  -0.0000291874  -0.0000962376   0.0001252336
       -0.0000353021  -0.0000839022   0.0000205939  -0.0001331981  -0.0000423604
       -0.0000763998  -0.0000158206   0.0001389364   0.0000863885   0.0000815238
        0.0001882235   0.0001252523  -0.0000754295  -0.0000096527  -0.0001207880
        0.0000976268   0.0000409709  -0.0001071607   0.0000634205   0.0001029209
       -0.0000357596   0.0000098530   0.0000803789  -0.0001267802  -0.0000488883
        0.0000850809   0.0000010675  -0.0001117225   0.0001230503   0.0000596538
       -0.0000048781   0.0000292523  -0.0000265981   0.0000508451   0.0003305458
        0.0004112346  -0.0001854497  -0.0004391699   0.0001904637   0.0002971806
       -0.1831247367   0.0947087783   0.0985769243   0.5371753605   0.0318513950
       -0.0855272439  -0.1428867585  -0.0982361207  -0.0389016698  -0.1479665448
       -0.0157903825   0.0144441328  -0.0383895370  -0.0299247086  -0.0097848999
        0.0116118376  -0.0035229989  -0.0030221893  -0.0067021746  -0.0015641817
        0.0023324898  -0.0032358681  -0.0031027974  -0.0006818280   0.0115793951
        0.0080654738   0.0023791729  -0.0138130413  -0.0017147633  -0.0003242964
        0.0067270245  -0.0021777787   0.0022211974  -0.0060988963  -0.0042450352
        0.0005535337   0.0126717308   0.0023106503   0.0022920207  -0.0247230289
       -0.0045475437  -0.0036660812   0.0076287688   0.0141068804  -0.0070243794
        0.0098259500  -0.0106053027   0.0096863410  -0.0069584861   0.0015030375
       -0.0035216124   0.0060118958   0.0043999801  -0.0001450639  -0.0001378223
       -0.0004662046  -0.0012524065   0.0006479561  -0.0004008290  -0.0004741639
       -0.0005814956   0.0001815360  -0.0002084647  -0.0000930477  -0.0003409189
       -0.0003806838  -0.0008894591  -0.0001295985  -0.0008767629   0.0007118120
        0.0007010071   0.0013101254  -0.0002258666  -0.0010094668  -0.0005890841
        0.0006913166   0.0002563414   0.0009655400  -0.0007862750  -0.0010803562
       -0.0012253359  -0.0000846168   0.0009189957   0.0008391429   0.0001659988
        0.0000613050   0.0003513020  -0.0002374553   0.0005965921  -0.0001091141
        0.0002745384  -0.0000459581  -0.0000786769   0.0030673157  -0.0039086290
       -0.0022999949   0.0007065513   0.0024527392  -0.0003837212   0.0001473095
       -0.0006463453  -0.0000195336  -0.0003756172   0.0005740744  -0.0008430261
        0.0007169586   0.0001050117  -0.0007351946  -0.0010630015  -0.0008789000
        0.0011901225   0.0006257367   0.0007669714  -0.0013172248  -0.0003669339
       -0.0010501224   0.0012410213   0.0003194743   0.0012468999  -0.0009529572
       -0.0000481730  -0.0010840733   0.0007550162  -0.0005544038   0.0000506983
        0.0006226628   0.0001783882  -0.0003129660  -0.0003848325  -0.0019714561
       -0.0006910777   0.0012010621   0.0101325800   0.0063628668   0.0028941510
       -0.0443071467   0.0140872086   0.0220998215   0.0009710235   0.0026143727
        0.0003454815   0.0003314906  -0.0000275494  -0.0000550078  -0.0002429262
       -0.0000070579   0.0001234973   0.0000709398   0.0002381770   0.0000659583
        0.0002717373  -0.0000828368   0.0000447454  -0.0001691781   0.0000836417
       -0.0001698273   0.0001337123  -0.0003075306  -0.0003405604   0.0001810758
        0.0001402413   0.0000760825   0.0000815396   0.0003033450   0.0001499409
       -0.0002137324   0.0002679614  -0.0000418432  -0.0001703650   0.0003421590
       -0.0000467984  -0.0002047079   0.0000992541  -0.0002886300  -0.0000501725
       -0.0001239510  -0.0000281574   0.0002993392   0.0002484218   0.0002844879
        0.0002696892   0.0002918182  -0.0001076235  -0.0000578729  -0.0002385571
        0.0002616000   0.0001267599  -0.0002957903   0.0001524266   0.0002867649
       -0.0001023461  -0.0000076563   0.0002357909  -0.0002987624  -0.0001083055
        0.0002242932   0.0000067006  -0.0002901308   0.0002882193   0.0001763584
       -0.0000460186   0.0000201276  -0.0000335701   0.0001462020   0.0002612398
       -0.0000555435   0.0002413241   0.0010591558  -0.0010703397  -0.0015865254
        0.1351614774  -0.2352218064  -0.1552499458   0.0318513950   0.6513998063
        0.2975058921  -0.1390933172  -0.3297440955  -0.1354016949  -0.0159013195
       -0.0736927308  -0.0000496564  -0.0274620637  -0.0104777403   0.0035693175
       -0.0005756971  -0.0028188833  -0.0063980160  -0.0013047757  -0.0008377094
        0.0001530192  -0.0003358207  -0.0010935273   0.0003226093   0.0021709130
        0.0014604128   0.0005759596  -0.0026348190  -0.0003388056  -0.0000453545
        0.0012960890  -0.0004147997   0.0004081201  -0.0011421745  -0.0007588588
        0.0000724383   0.0023498235   0.0004278717   0.0004308879  -0.0045753038
       -0.0008139769  -0.0006751604   0.0013956632   0.0025563365  -0.0012737276
        0.0017910260  -0.0019290260   0.0017633901  -0.0012862559   0.0002357537
       -0.0006282724   0.0011490611   0.0008169581  -0.0000609394  -0.0000746362
       -0.0001256181  -0.0002501063   0.0000460428   0.0000341654  -0.0000361113
       -0.0001167438   0.0000398008  -0.0000643047  -0.0000204049  -0.0000637921
       -0.0001014605  -0.0001166279  -0.0000540188  -0.0001470890   0.0001683179
        0.0000863993   0.0001827641  -0.0000373608  -0.0001639093  -0.0001111283
        0.0000767123   0.0000181754   0.0000886304  -0.0000675114  -0.0002148382
       -0.0002475088   0.0000453144   0.0001174009   0.0001491249   0.0000450867
        0.0000838638   0.0001470270  -0.0000713900   0.0001404231  -0.0000365731
       -0.0000417661   0.0000554168  -0.0000558363   0.0007369426  -0.0007740863
       -0.0004183501   0.0001159847   0.0006311377  -0.0001076792  -0.0000194570
       -0.0001853326  -0.0000474931  -0.0001130089   0.0000866393  -0.0002138373
        0.0001781177  -0.0000005841  -0.0001784554  -0.0002417073  -0.0002290500
        0.0002848989   0.0001538954   0.0001830743  -0.0003099796  -0.0001226536
       -0.0002036235   0.0002764369   0.0000822434   0.0002748118  -0.0002350770
       -0.0000078868  -0.0002621907   0.0001802524  -0.0001099832  -0.0000078411
        0.0001266108   0.0000330167  -0.0000968511  -0.0000545008  -0.0003603409
       -0.0001541305   0.0001995243   0.0035421328  -0.0001647336  -0.0058030192
        0.0117765305   0.0064752892   0.0028358601  -0.0003043153  -0.0020609508
        0.0001605769  -0.0013280002  -0.0002360944  -0.0002377421  -0.0000531473
        0.0000098895   0.0000280258   0.0000174135   0.0000485604   0.0000185861
        0.0000444964  -0.0000099834   0.0000105684  -0.0000515398   0.0000185757
       -0.0000256467   0.0000196865  -0.0000597960  -0.0000432614   0.0000170848
        0.0000200474   0.0000132855   0.0000030120   0.0000408427   0.0000254190
       -0.0000587198   0.0000152773   0.0000091487  -0.0000418873   0.0000279415
        0.0000125933  -0.0000607188   0.0000368392  -0.0000226242  -0.0000064169
       -0.0000228125  -0.0000395670   0.0000886649   0.0000210660   0.0000833803
        0.0000680119   0.0001616437  -0.0000041705   0.0000181891  -0.0000519463
        0.0000919607   0.0000485189  -0.0000644535   0.0000417325   0.0000704315
       -0.0000154546   0.0000009654   0.0000685964  -0.0000589073  -0.0000217390
        0.0000527472   0.0000046055  -0.0000601457   0.0000587289   0.0000435804
       -0.0000075691  -0.0000000927   0.0000015438   0.0000379458   0.0012643263
        0.0002156135  -0.0005796087   0.0017321692  -0.0023668049  -0.0005636008
        0.1253359539  -0.1432495668  -0.1908065298  -0.0855272439   0.2975058921
        0.4035505536  -0.0654920012  -0.1473149138  -0.1359675766   0.0140441433
       -0.0007448266  -0.0714941682  -0.0079063762   0.0042349609   0.0025965423
       -0.0023229653  -0.0054836487   0.0033721737   0.0012025933  -0.0001688300
       -0.0009854350   0.0000912093   0.0008475141  -0.0007677608  -0.0018229122
       -0.0012145476  -0.0004162763   0.0022105133   0.0002940790   0.0000429780
       -0.0010735665   0.0003308986  -0.0003830134   0.0009775713   0.0006530413
       -0.0000858410  -0.0019948782  -0.0003671472  -0.0003506295   0.0038695302
        0.0007092882   0.0005847162  -0.0011898406  -0.0021949992   0.0010897754
       -0.0015275556   0.0016465666  -0.0015071845   0.0010827186  -0.0002144087
        0.0005437161  -0.0009622666  -0.0006955343   0.0000501707   0.0000345299
        0.0002163931   0.0000881905  -0.0001381574  -0.0000147070   0.0000029351
        0.0001028664  -0.0000136181   0.0000415822   0.0000199008   0.0000333100
        0.0000587831   0.0001698747   0.0000225000   0.0001536793  -0.0001156910
       -0.0001725761  -0.0002855717   0.0000179590   0.0001977584   0.0001013096
       -0.0001476151  -0.0000086342  -0.0001745102   0.0001428954   0.0002070717
        0.0002197885  -0.0000005951  -0.0002027506  -0.0001515729  -0.0000873116
       -0.0000135316   0.0000042890   0.0000523164  -0.0001553062   0.0000266871
        0.0000293032   0.0000076263   0.0001287979  -0.0006624518   0.0005617923
        0.0002274615  -0.0000374710  -0.0005190423   0.0001380336  -0.0000310793
        0.0001211738  -0.0000091037   0.0000794378  -0.0001440435   0.0001376914
       -0.0001232267  -0.0000327572   0.0001191871   0.0001986735   0.0001469387
       -0.0002228562  -0.0001340168  -0.0001291734   0.0002515846   0.0001251126
        0.0001629957  -0.0002327539  -0.0000814162  -0.0002469621   0.0001810149
        0.0000224701   0.0001993441  -0.0001479183   0.0000664530   0.0000045893
       -0.0001203055  -0.0000355713   0.0001061517   0.0000033778   0.0003335369
        0.0001605921  -0.0000552037   0.0016116930  -0.0062314690   0.0015941429
        0.0207007704   0.0022283417  -0.0075800060  -0.0012739317  -0.0004945394
       -0.0022018078  -0.0007594480  -0.0006457669   0.0004346342   0.0000375538
        0.0000051188   0.0000004790  -0.0000136075  -0.0000382861  -0.0000077853
       -0.0000410909   0.0000080820  -0.0000074451   0.0000261995  -0.0000082887
        0.0000389920  -0.0000264440   0.0000478774   0.0000765355  -0.0000408923
       -0.0000319079  -0.0000092345  -0.0000155581  -0.0000627320  -0.0000180441
        0.0000311826  -0.0000502135   0.0000328149   0.0000410592  -0.0000679352
        0.0000202968   0.0000349266   0.0000237554   0.0000431347   0.0000393581
        0.0000301828  -0.0000334785  -0.0000132979  -0.0000315331  -0.0000223320
       -0.0000631621  -0.0000542590   0.0000537265  -0.0000003533   0.0000599960
       -0.0000267965  -0.0000201657   0.0000485845  -0.0000246778  -0.0000379915
        0.0000201180   0.0000002494  -0.0000407411   0.0000506465   0.0000189639
       -0.0000287115   0.0000033708   0.0000528132  -0.0000459419  -0.0000260573
        0.0000135708   0.0000109847   0.0000123063  -0.0000088248   0.0009995938
       -0.0002139472   0.0000578191   0.0000926623   0.0003496023  -0.0020485488
        0.0165202646   0.0334021316   0.0227938182  -0.1428867585  -0.1390933172
       -0.0654920012   0.1797965279   0.1628962969   0.0589432667  -0.0421650965
       -0.0518907060  -0.0170956092  -0.0049533970   0.0013578761   0.0038881544
       -0.0027019895  -0.0020385711  -0.0010441802  -0.0000902901  -0.0001576304
       -0.0006040077   0.0024328451   0.0016751641  -0.0001636369  -0.0040140870
       -0.0029020387  -0.0008468351   0.0046433116   0.0006107473   0.0001159417
       -0.0021879838   0.0007104329  -0.0007037847   0.0019393342   0.0013311902
       -0.0001565115  -0.0039950807  -0.0007492502  -0.0007299403   0.0076910877
        0.0013983953   0.0011369826  -0.0023540397  -0.0042838022   0.0021239205
       -0.0030205854   0.0032016912  -0.0029408143   0.0022061492  -0.0004576472
        0.0010996772  -0.0019490038  -0.0014420355   0.0000391864   0.0000565029
        0.0000825038   0.0005124797  -0.0001759816   0.0002131732   0.0001508399
        0.0001966171  -0.0000760991   0.0001030095   0.0000273075   0.0001006350
        0.0001530634   0.0002895561   0.0000511777   0.0002849172  -0.0002683831
       -0.0002203938  -0.0004305643   0.0000772928   0.0003407590   0.0001927485
       -0.0002294256  -0.0000845813  -0.0003209422   0.0002434574   0.0003633308
        0.0004039078   0.0000133031  -0.0002713848  -0.0002813643  -0.0000427436
       -0.0000349982  -0.0001207807   0.0000591237  -0.0001815010   0.0000427722
       -0.0001122018   0.0000213212  -0.0000511006  -0.0010050659   0.0012203004
        0.0008767593  -0.0001700489  -0.0008137038   0.0001207105  -0.0000421774
        0.0002072732   0.0000157555   0.0001139723  -0.0001675421   0.0002917946
       -0.0002345002  -0.0000285897   0.0002317827   0.0003436507   0.0002868617
       -0.0003786384  -0.0001926107  -0.0002704612   0.0004015312   0.0001203963
        0.0003273211  -0.0003913163  -0.0001123123  -0.0004050754   0.0003111866
        0.0000108997   0.0003481122  -0.0002452458   0.0001624100  -0.0000105585
       -0.0001794395  -0.0000482139   0.0001142038   0.0001234089   0.0006364289
        0.0002255223  -0.0003874540  -0.0006372401  -0.0011937685  -0.0010483550
       -0.0005019104  -0.0032501229  -0.0016683827   0.0000192130   0.0002085194
        0.0002583933  -0.0009447569  -0.0000979275   0.0000704054   0.0000956977
       -0.0000118309  -0.0000252659  -0.0000150293  -0.0000708915  -0.0000238975
       -0.0000887901   0.0000254074  -0.0000009488   0.0000648688  -0.0000169491
        0.0000384072  -0.0000188431   0.0001148061   0.0001094769  -0.0000550843
       -0.0000490834  -0.0000275051  -0.0000235595  -0.0001012910  -0.0000567881
        0.0000821657  -0.0000878913   0.0000056335   0.0000669523  -0.0001218518
        0.0000078323   0.0000846736  -0.0000430878   0.0000996092   0.0000177049
        0.0000527960   0.0000006599  -0.0000810099  -0.0000880954  -0.0001082712
       -0.0000812552  -0.0001496453   0.0000764704   0.0000240476   0.0000814406
       -0.0000884162  -0.0000434265   0.0001049222  -0.0000542158  -0.0001006093
        0.0000360830   0.0000030779  -0.0000781886   0.0001024210   0.0000403234
       -0.0000762517  -0.0000038849   0.0001034278  -0.0000990532  -0.0000606516
        0.0000112796   0.0000022979   0.0000163045  -0.0000556615  -0.0000226860
       -0.0000697715  -0.0000864464  -0.0022183889  -0.0002324893   0.0006257094
       -0.0242375462  -0.0402835853  -0.0318965722  -0.0982361207  -0.3297440955
       -0.1473149138   0.1628962969   0.3938557520   0.1944082326  -0.0438581478
       -0.0274855611  -0.0145146656  -0.0008645841   0.0044534985   0.0009627307
       -0.0021487228  -0.0016537698  -0.0004724697  -0.0012125326   0.0000834912
       -0.0005111303   0.0050489388   0.0039774772  -0.0005759524  -0.0085715866
       -0.0063341286  -0.0019144713   0.0094086236   0.0013274451   0.0003284858
       -0.0043097511   0.0014560115  -0.0013857014   0.0037352230   0.0025504610
       -0.0002849862  -0.0075656386  -0.0013938581  -0.0013954849   0.0141099358
        0.0025408519   0.0020800313  -0.0042507465  -0.0077182793   0.0038271088
       -0.0054586642   0.0058032393  -0.0053064783   0.0043007672  -0.0008327546
        0.0020871499  -0.0037838548  -0.0028701414   0.0000984610   0.0005501212
       -0.0000559144   0.0011304441  -0.0002846159   0.0005091773   0.0003661253
        0.0003103781  -0.0001222160   0.0001297676   0.0000173109   0.0002279613
        0.0002346733   0.0004646941   0.0000381926   0.0004349394  -0.0004055618
       -0.0003188333  -0.0006270815   0.0001540329   0.0005302754   0.0003386499
       -0.0002568022  -0.0002909865  -0.0005063843   0.0003600736   0.0005656971
        0.0005666253   0.0000774291  -0.0004321140  -0.0003663096  -0.0000212706
        0.0000457659  -0.0002263617   0.0001440378  -0.0002183577   0.0000533743
       -0.0005854243  -0.0001367133  -0.0003094055  -0.0018978849   0.0026069182
        0.0019765156  -0.0003985000  -0.0017702477   0.0003234115   0.0000750538
        0.0004791514   0.0000313019   0.0002841976  -0.0002194845   0.0005101092
       -0.0003306363  -0.0000292255   0.0003124647   0.0005819896   0.0004299167
       -0.0005555622  -0.0004568139  -0.0002707381   0.0006892157   0.0000664532
        0.0006032883  -0.0006244834  -0.0001285077  -0.0006173466   0.0004136560
        0.0000194075   0.0005428633  -0.0003861228   0.0003031319  -0.0000249936
       -0.0003102583  -0.0000593335   0.0000530830   0.0003388613   0.0011950311
        0.0004481783  -0.0008070287  -0.0011019570  -0.0001388680   0.0006678889
        0.0080461813  -0.0014948356  -0.0040741177   0.0004859311   0.0003378552
        0.0003534205  -0.0004724981  -0.0001149021   0.0005931954   0.0001222657
       -0.0000138012  -0.0000887803  -0.0000245556  -0.0001454900  -0.0000620739
       -0.0001566868   0.0000474136   0.0000031427   0.0001055117  -0.0000572748
        0.0000792680  -0.0000677225   0.0001876846   0.0001939061  -0.0000863860
       -0.0000892827  -0.0000422324  -0.0000370373  -0.0001689604  -0.0000857204
        0.0001581366  -0.0001568739   0.0000065776   0.0001373294  -0.0001848019
        0.0000214804   0.0001376154  -0.0000622347   0.0001716256   0.0000655718
        0.0000722047   0.0000485406  -0.0002507819  -0.0001463543  -0.0001248043
       -0.0002672976  -0.0003115685   0.0000094262   0.0000028500   0.0001507661
       -0.0001787736  -0.0000771102   0.0001552848  -0.0001037216  -0.0001565476
        0.0000369290  -0.0000065067  -0.0001314803   0.0001802763   0.0000727140
       -0.0001346577  -0.0000142060   0.0001660757  -0.0001693794  -0.0001003760
        0.0000051492  -0.0000370816   0.0000350002  -0.0001055687  -0.0001858504
       -0.0000826199  -0.0002817634  -0.0006842435   0.0017736838   0.0014111411
       -0.0151074296  -0.0491201135  -0.0079478305  -0.0389016698  -0.1354016949
       -0.1359675766   0.0589432667   0.1944082326   0.1314319088  -0.0115976818
       -0.0118873242   0.0101949141   0.0020610295  -0.0001928557   0.0032291609
       -0.0006452488  -0.0000914256  -0.0006318343  -0.0008557148   0.0001565792
       -0.0001086586   0.0026695976   0.0022292822  -0.0002037565  -0.0044258097
       -0.0032869551  -0.0010120962   0.0047981961   0.0007183551   0.0001817608
       -0.0021850076   0.0007475463  -0.0007055908   0.0018961688   0.0012903819
       -0.0001462177  -0.0037853300  -0.0006992611  -0.0006972978   0.0070055649
        0.0012630707   0.0010285002  -0.0020997905  -0.0038141147   0.0018916133
       -0.0027004135   0.0028691949  -0.0026200113   0.0021759490  -0.0004220737
        0.0010513168  -0.0019276532  -0.0015060677   0.0000591011   0.0003460740
       -0.0001502429   0.0006557809  -0.0001270733   0.0003003277   0.0002160946
        0.0001277979  -0.0000796175   0.0000210825   0.0000042320   0.0001182437
        0.0001197501   0.0002344423   0.0000188177   0.0002230379  -0.0001900214
       -0.0001514552  -0.0002951503   0.0000987353   0.0002385625   0.0001807787
       -0.0000917638  -0.0001789281  -0.0002471257   0.0001990445   0.0002592878
        0.0002866564   0.0000509233  -0.0001994195  -0.0001818794   0.0000208160
        0.0000179116  -0.0001495587   0.0000758495  -0.0000405460   0.0000370145
       -0.0003707116  -0.0000783829  -0.0001758911  -0.0009318849   0.0013452855
        0.0010325924  -0.0002122619  -0.0009057481   0.0001866323   0.0000218625
        0.0002189682   0.0000499185   0.0001519086  -0.0001012741   0.0002105156
       -0.0001421172   0.0000013630   0.0001239482   0.0002558804   0.0001512353
       -0.0001919067  -0.0002258067  -0.0000818736   0.0003075425  -0.0000024973
        0.0002883741  -0.0002716552  -0.0000358728  -0.0002519352   0.0001390157
       -0.0000064899   0.0002237810  -0.0001449293   0.0001513331  -0.0000323125
       -0.0001364845  -0.0000011807   0.0000071878   0.0001829720   0.0006122146
        0.0002193811  -0.0004620210  -0.0007953741   0.0007214072   0.0000576840
        0.0056904606  -0.0006673909  -0.0013669502   0.0003506587   0.0002237793
        0.0001244559  -0.0002021211   0.0003778420  -0.0001366474   0.0000541129
       -0.0000083771  -0.0000514707  -0.0000079555  -0.0000738929  -0.0000332611
       -0.0000758917   0.0000302168   0.0000031004   0.0000423967  -0.0000254043
        0.0000351248  -0.0000324788   0.0000817475   0.0001013039  -0.0000409263
       -0.0000369853  -0.0000218143  -0.0000230115  -0.0000769385  -0.0000412251