$hessian                                                                        
        0.2151219503  -0.1396730535  -0.1389506648  -0.1688562539   0.1313898802
        0.1149646151   0.0168716054  -0.0280789735  -0.0188726269  -0.0516628774
        0.0350684639   0.0390191680   0.0000960933   0.0032616038   0.0023111457
       -0.0008196899   0.0012087629   0.0008260083  -0.0002440102   0.0002423848
       -0.0002121952   0.0031554318   0.0020882176  -0.0002131168  -0.0052596785
       -0.0032246193  -0.0010157994   0.0056679557   0.0003201495   0.0001560931
       -0.0025788875   0.0010754600  -0.0008521024   0.0024649316   0.0014346929
       -0.0002206007  -0.0048738124  -0.0004830280  -0.0008219371   0.0093426025
        0.0008779228   0.0012227857  -0.0031900233  -0.0048270243   0.0026142634
       -0.0033308053   0.0041103041  -0.0035022510   0.0026486107  -0.0007545753
        0.0013005743  -0.0024883802  -0.0015809399   0.0000728246   0.0001523196
        0.0000954648   0.0005815351  -0.0001580454   0.0002288677   0.0002052968
        0.0001945903  -0.0000938976   0.0000771112   0.0000471854   0.0001713996
        0.0001416480   0.0003354696   0.0000128652   0.0003171785  -0.0002665946
       -0.0002334478  -0.0004967065   0.0002046857   0.0003510248   0.0002167138
       -0.0002549719  -0.0001039807  -0.0003794594   0.0003152132   0.0003835190
        0.0004310268   0.0000061742  -0.0003550932  -0.0003364044  -0.0000535684
       -0.0000281818  -0.0001153221   0.0000350483  -0.0002313419   0.0000474021
       -0.0001777940   0.0000555225  -0.0000367101  -0.0010983238   0.0014877626
        0.0009497734  -0.0003155996  -0.0009710889   0.0001872873  -0.0000464919
        0.0002115656   0.0000076568   0.0001075495  -0.0003063581   0.0003486867
       -0.0002619537  -0.0000121136   0.0002696738   0.0004343673   0.0002901818
       -0.0004384499  -0.0003392126  -0.0002797604   0.0004534938   0.0001766588
        0.0003596100  -0.0004453778  -0.0001504964  -0.0004541145   0.0003533946
        0.0000556619   0.0003893882  -0.0002825656   0.0001921205  -0.0000241375
       -0.0002132147  -0.0000468441   0.0001358429   0.0001376706   0.0007867195
        0.0002117264  -0.0004525211  -0.0029480108   0.0015600683   0.0015963647
       -0.0051475551  -0.0042337314  -0.0010005982  -0.0023209865  -0.0007248774
        0.0000291064  -0.0000000071   0.0000879072   0.0001132891   0.0001107169
        0.0000012684  -0.0000379244  -0.0001537372  -0.0000795725  -0.0000256390
       -0.0001221538   0.0000517740  -0.0000035064   0.0000794890  -0.0000270344
        0.0000509835  -0.0000400654   0.0001515379   0.0001364470  -0.0000739563
       -0.0000461371  -0.0000289851  -0.0000372386  -0.0001252227  -0.0000685133
        0.0000706995  -0.0001244620   0.0000110343   0.0000594160  -0.0001505771
        0.0000155606   0.0000834025  -0.0000280730   0.0001337639   0.0000193854
        0.0000791801   0.0000099379  -0.0000995368  -0.0000719816  -0.0001198735
       -0.0001100747  -0.0001188409   0.0001069119   0.0000382238   0.0001037204
       -0.0000980950  -0.0000397293   0.0001251339  -0.0000558549  -0.0000889674
        0.0000570812  -0.0000003662  -0.0000587477   0.0001316864   0.0000478490
       -0.0000758658   0.0000003942   0.0001111954  -0.0001240272  -0.0000631600
        0.0000109140   0.0000168502   0.0000362980  -0.0000573351  -0.0010452692
       -0.0000705816   0.0000283501   0.0000691156  -0.0002686521  -0.0002600180
       -0.1396730535   0.2887593190   0.2147685121   0.0910618996  -0.2499272421
       -0.1517307445   0.0294796031  -0.0396142002  -0.0473466816   0.0270126064
       -0.0013538937  -0.0169266881  -0.0082359291  -0.0029149930  -0.0011775923
        0.0011007567   0.0005199152   0.0008827053   0.0012732793   0.0000938649
        0.0005931560  -0.0045573687  -0.0032269486   0.0005289371   0.0077509489
        0.0047789684   0.0015082748  -0.0078515320  -0.0005355968  -0.0002904404
        0.0034696660  -0.0014980780   0.0011477622  -0.0032542391  -0.0018831090
        0.0002653868   0.0062646412   0.0006155673   0.0010684155  -0.0116279731
       -0.0010913673  -0.0015215751   0.0039057764   0.0059208081  -0.0032066810
        0.0040784344  -0.0050455886   0.0042942592  -0.0035168095   0.0009660245
       -0.0016837512   0.0033160965   0.0022077236  -0.0001111944  -0.0004950332
        0.0001828133  -0.0008996680   0.0001997323  -0.0004382433  -0.0003172179
       -0.0001971304   0.0001217830  -0.0000054378  -0.0000342495  -0.0002508044
       -0.0001497888  -0.0004405290   0.0000220967  -0.0003864680   0.0002847057
        0.0003090335   0.0006089560  -0.0002873063  -0.0004019577  -0.0002973111
        0.0002712096   0.0002698940   0.0005092760  -0.0004379135  -0.0004246063
       -0.0004773824  -0.0000836721   0.0004346633   0.0003332958   0.0000057493
       -0.0000821901   0.0001182282  -0.0000862962   0.0001306066  -0.0000670705
        0.0005551523  -0.0000043540   0.0001425940   0.0012824326  -0.0020801874
       -0.0014585798   0.0004614115   0.0014014979  -0.0003373199  -0.0000104309
       -0.0002943862  -0.0000464108  -0.0001998600   0.0003336092  -0.0003543466
        0.0002046606   0.0000005213  -0.0001879620  -0.0004367019  -0.0001988739
        0.0003335770   0.0004544190   0.0001190482  -0.0004691493  -0.0000576120
       -0.0004453839   0.0004372537   0.0000726512   0.0004195373  -0.0002294788
       -0.0000395852  -0.0003488781   0.0002455106  -0.0002366549   0.0000626354
        0.0002284938   0.0000275377  -0.0000479563  -0.0002366496  -0.0010641256
       -0.0002744316   0.0006715080   0.0011682944  -0.0006991994  -0.0003531809
       -0.0015309075   0.0033046429  -0.0000715379  -0.0002042243   0.0018009124
        0.0012060738   0.0001202535  -0.0000700706  -0.0002441160  -0.0001004751
       -0.0000061953   0.0000727801   0.0001927190   0.0001086585   0.0000400011
        0.0001501799  -0.0000731439  -0.0000053716  -0.0000768636   0.0000453011
       -0.0000700245   0.0000543480  -0.0001774493  -0.0001919500   0.0000878311
        0.0000565466   0.0000202090   0.0000517099   0.0001464375   0.0000679995
       -0.0000761945   0.0001728990  -0.0000215191  -0.0000654806   0.0001869740
       -0.0000365852  -0.0000717269   0.0000318836  -0.0001634241  -0.0000301456
       -0.0000743251  -0.0000113275   0.0001748091   0.0001254780   0.0000881556
        0.0002024498   0.0000927094  -0.0000122519  -0.0000468825  -0.0001356882
        0.0001147649   0.0000341175  -0.0001207324   0.0000700501   0.0000865709
       -0.0000554852   0.0000125212   0.0000544851  -0.0001504060  -0.0000611576
        0.0000794137   0.0000022299  -0.0001208969   0.0001456764   0.0000637105
       -0.0000040767   0.0000175577  -0.0000496098   0.0000580339   0.0003671533
        0.0000047191   0.0004678695  -0.0004940329   0.0001825426   0.0003784491
       -0.1389506648   0.2147685121   0.2015054718   0.0868804949  -0.1605648174
       -0.1898448625   0.0209291735  -0.0344851415  -0.0087521265   0.0335220841
       -0.0186520410  -0.0059483706  -0.0057240328  -0.0035491183  -0.0005991619
        0.0008725372   0.0006290131  -0.0003132526   0.0009218235   0.0000320378
        0.0004645198  -0.0037660184  -0.0026678044   0.0005181955   0.0065046680
        0.0039757109   0.0012738073  -0.0066545172  -0.0004438773  -0.0002281433
        0.0029769318  -0.0012697212   0.0009842532  -0.0027874520  -0.0016013203
        0.0002263352   0.0053784944   0.0005292346   0.0009220114  -0.0100287400
       -0.0009350387  -0.0013188917   0.0033770883   0.0051018937  -0.0027610866
        0.0035192579  -0.0043483456   0.0037116555  -0.0029936254   0.0008169210
       -0.0014269392   0.0028331258   0.0018684479  -0.0000983152  -0.0004079967
        0.0000823356  -0.0007485649   0.0001609057  -0.0003133418  -0.0002510299
       -0.0001784146   0.0000933822  -0.0000111057  -0.0000389169  -0.0002049788
       -0.0001295005  -0.0003528623   0.0000032025  -0.0003220195   0.0002564879
        0.0002661541   0.0004975319  -0.0002466247  -0.0003392751  -0.0002548854
        0.0002026316   0.0001905231   0.0003773245  -0.0003160406  -0.0003826340
       -0.0004063138  -0.0000259346   0.0003713551   0.0002878947   0.0000430512
       -0.0000231857   0.0001314719  -0.0000759794   0.0001694000  -0.0000612071
        0.0003874796   0.0000305146   0.0000902297   0.0011464273  -0.0017794777
       -0.0011301379   0.0003544276   0.0012339712  -0.0003118441  -0.0000245919
       -0.0002625450   0.0000054264  -0.0001780322   0.0003129163  -0.0003293659
        0.0001898529   0.0000004089  -0.0001699535  -0.0004023738  -0.0002109532
        0.0003466655   0.0004039264   0.0001399457  -0.0004355621  -0.0000900283
       -0.0003877818   0.0004162246   0.0000887315   0.0003963199  -0.0002338045
       -0.0000404114  -0.0003426289   0.0002518567  -0.0001973029   0.0000350370
        0.0002056169   0.0000374811  -0.0000769091  -0.0001711096  -0.0009026285
       -0.0002360350   0.0005369362   0.0012749768  -0.0004677606  -0.0011076555
        0.0009717668   0.0005199627   0.0039878019   0.0004058104   0.0013650029
        0.0009095917   0.0000915020  -0.0000869846  -0.0001624259  -0.0000941750
        0.0000017770   0.0000503627   0.0001683454   0.0000955191   0.0000371294
        0.0001263444  -0.0000613974  -0.0000033393  -0.0000761006   0.0000354588
       -0.0000591018   0.0000494101  -0.0001578433  -0.0001670024   0.0000774593
        0.0000547610   0.0000136258   0.0000382141   0.0001309063   0.0000490673
       -0.0000799360   0.0001263980  -0.0000255179  -0.0000800865   0.0001367450
       -0.0000336768  -0.0000857748   0.0000170775  -0.0001245178  -0.0000405895
       -0.0000827985  -0.0000254421   0.0001504938   0.0000731959   0.0000800174
        0.0001853942   0.0001014582  -0.0000725758  -0.0000234160  -0.0001245279
        0.0000963076   0.0000395434  -0.0001136083   0.0000644259   0.0000787334
       -0.0000469259   0.0000088002   0.0000551774  -0.0001348034  -0.0000488122
        0.0000695055   0.0000031347  -0.0001128489   0.0001297050   0.0000579340
       -0.0000032656   0.0000048698  -0.0000384122   0.0000517688   0.0003542642
        0.0003951573  -0.0001727379  -0.0003953304   0.0002303078   0.0002741471
       -0.1688562539   0.0910618996   0.0868804949   0.5453934857   0.0350771196
       -0.0578124274  -0.1607396001  -0.1081936942  -0.0515210004  -0.1505963772
       -0.0096910662   0.0129521622  -0.0423995224  -0.0273244241  -0.0105872395
        0.0112778842  -0.0044540033  -0.0033637822  -0.0068243338  -0.0010516678
        0.0022040115  -0.0036438150  -0.0033106479  -0.0007138425   0.0126045695
        0.0074898390   0.0023361667  -0.0143262151  -0.0006616548  -0.0003309057
        0.0067817633  -0.0028139500   0.0022250917  -0.0066140616  -0.0039032497
        0.0006523470   0.0132485944   0.0012628591   0.0022130975  -0.0258642949
       -0.0025065745  -0.0034246495   0.0089381324   0.0137347227  -0.0074544235
        0.0093269936  -0.0116990380   0.0099634006  -0.0071043289   0.0021037635
       -0.0035541310   0.0065456352   0.0040596533  -0.0002206688  -0.0001539964
       -0.0005264771  -0.0012201436   0.0005210832  -0.0003999715  -0.0004846635
       -0.0005679044   0.0002326587  -0.0002117821  -0.0001264254  -0.0004782545
       -0.0003631568  -0.0009037059  -0.0000486115  -0.0008896677   0.0007291313
        0.0006437598   0.0013447228  -0.0004927349  -0.0009758847  -0.0006161244
        0.0007319069   0.0001891839   0.0009711795  -0.0008800011  -0.0010436365
       -0.0012731965   0.0000091995   0.0009310562   0.0008602714   0.0001826860
        0.0000569785   0.0003642076  -0.0002080811   0.0006794329  -0.0000897336
        0.0002620394  -0.0001253276  -0.0001041784   0.0026549032  -0.0040175068
       -0.0021574411   0.0010282319   0.0023784236  -0.0003779563   0.0000810184
       -0.0006473596  -0.0000424382  -0.0003273662   0.0008045866  -0.0008639630
        0.0007184712   0.0000369522  -0.0007562831  -0.0011663873  -0.0008203868
        0.0012077117   0.0009229818   0.0007097774  -0.0013124966  -0.0005048122
       -0.0009907535   0.0012455771   0.0003979788   0.0012156463  -0.0009757771
       -0.0001617621  -0.0010930929   0.0007881465  -0.0005642342   0.0000772963
        0.0006206774   0.0001344254  -0.0003577531  -0.0003716389  -0.0019611453
       -0.0005014174   0.0011547036   0.0106967709   0.0055925386   0.0026322074
       -0.0427655171   0.0178220381   0.0216277069   0.0010868946   0.0023864599
        0.0004483436   0.0002743444  -0.0000415372  -0.0000729016  -0.0002674254
       -0.0000052346   0.0001465056   0.0003993165   0.0002342934   0.0000603150
        0.0003158701  -0.0001352960   0.0000466573  -0.0002067259   0.0000959821
       -0.0001744396   0.0001368372  -0.0003608550  -0.0003490261   0.0001882705
        0.0001212471   0.0000702321   0.0000951856   0.0003121787   0.0001572477
       -0.0001780043   0.0003137446  -0.0000347231  -0.0001307316   0.0003747909
       -0.0000387682  -0.0001928393   0.0001014181  -0.0002848495  -0.0000426676
       -0.0001358830  -0.0000480048   0.0003382192   0.0002328340   0.0002927714
        0.0002650590   0.0002649388  -0.0001087965  -0.0000889231  -0.0002440189
        0.0002685582   0.0001155298  -0.0003138898   0.0001526045   0.0002411094
       -0.0001355438  -0.0000057837   0.0001763830  -0.0003316642  -0.0001087442
        0.0002016024  -0.0000017506  -0.0002880912   0.0003108120   0.0001738913
       -0.0000443172  -0.0000301535  -0.0000505386   0.0001495073   0.0003355835
       -0.0000240785   0.0001905756   0.0012214434  -0.0013552708  -0.0015750456
        0.1313898802  -0.2499272421  -0.1605648174   0.0350771196   0.6384327487
        0.3067617316  -0.1488988020  -0.3060800368  -0.1366895076  -0.0099295730
       -0.0715094441  -0.0016860431  -0.0248934647  -0.0061615033   0.0038472712
       -0.0015695739  -0.0023433938  -0.0061710079  -0.0007801707  -0.0006359857
       -0.0000494532  -0.0001597020  -0.0009014379   0.0003735504   0.0013295652
        0.0007205945   0.0003780286  -0.0015196890  -0.0000808666  -0.0000153070
        0.0007273969  -0.0002955310   0.0002204853  -0.0006661533  -0.0003465113
        0.0000261573   0.0013135243   0.0001224710   0.0002277689  -0.0025474319
       -0.0002234809  -0.0003316061   0.0008614396   0.0012941127  -0.0007041037
        0.0008910148  -0.0011156158   0.0009460106  -0.0007006116   0.0001494430
       -0.0003202686   0.0007001042   0.0004074865  -0.0000546473  -0.0000762753
       -0.0000686273  -0.0001494004  -0.0000057095   0.0000838860   0.0000082823
       -0.0000602304   0.0000328405  -0.0000422246  -0.0000148120  -0.0000496877
       -0.0000684384  -0.0000408399  -0.0000344662  -0.0000771074   0.0001095419
        0.0000282678   0.0000797378  -0.0000472044  -0.0000725950  -0.0000695818
        0.0000231788   0.0000019838   0.0000053626  -0.0000091058  -0.0001275256
       -0.0001573221   0.0000636985   0.0000480624   0.0000768885   0.0000404538
        0.0000801538   0.0001230624  -0.0000462159   0.0001027812  -0.0000295655
       -0.0000632405   0.0000676685  -0.0000620031   0.0004262706  -0.0004550653
       -0.0002073577   0.0001019786   0.0004189562  -0.0000796181  -0.0000440044
       -0.0001221099  -0.0000482184  -0.0000759425   0.0000755290  -0.0001441832
        0.0001083788  -0.0000163012  -0.0001176373  -0.0001738447  -0.0001407437
        0.0001906863   0.0001356961   0.0001092033  -0.0001965993  -0.0001107942
       -0.0001041232   0.0001730079   0.0000614324   0.0001664188  -0.0001571223
       -0.0000249388  -0.0001739410   0.0001210399  -0.0000654582  -0.0000084098
        0.0000783575   0.0000088571  -0.0000794275  -0.0000189393  -0.0002009108
       -0.0000762105   0.0001010779   0.0027382406  -0.0008737897  -0.0059714035
        0.0156187616   0.0040673959   0.0013791148  -0.0005572529  -0.0021980849
        0.0001274814  -0.0013557801  -0.0001097639  -0.0002635371  -0.0000364887
        0.0000082100   0.0000221653   0.0000460509   0.0000269355   0.0000150606
        0.0000279428  -0.0000043595   0.0000078327  -0.0000408673   0.0000160690
       -0.0000150896   0.0000147251  -0.0000362455  -0.0000181038   0.0000085648
        0.0000115529   0.0000051381   0.0000018574   0.0000236532   0.0000103025
       -0.0000333393   0.0000061865   0.0000088820  -0.0000217171   0.0000108546
        0.0000143528  -0.0000367956   0.0000339799   0.0000043030   0.0000010678
       -0.0000031192  -0.0000394907   0.0000672653  -0.0000013817   0.0000617515
        0.0000434128   0.0001309282   0.0000069642   0.0000124062  -0.0000274115
        0.0000711607   0.0000266492  -0.0000404522   0.0000326218   0.0000347886
       -0.0000129670   0.0000054220   0.0000376739  -0.0000430750  -0.0000091689
        0.0000313995   0.0000000614  -0.0000323383   0.0000392414   0.0000248794
       -0.0000038792  -0.0000075075   0.0000051108   0.0000256853   0.0012537419
        0.0001416218  -0.0005731115   0.0014411264  -0.0023491136  -0.0003985423
        0.1149646151  -0.1517307445  -0.1898448625  -0.0578124274   0.3067617316
        0.4065558503  -0.0794279841  -0.1456146417  -0.1413622306   0.0124275062
       -0.0022021487  -0.0704788470  -0.0085662290   0.0042582598   0.0022782377
       -0.0025719474  -0.0053907321   0.0032026702   0.0010319952  -0.0002981932
       -0.0009151854   0.0001047860   0.0008474595  -0.0007749968  -0.0016705161
       -0.0009433080  -0.0003527142   0.0019320710   0.0001092939   0.0000321883
       -0.0009105261   0.0003648144  -0.0003283637   0.0008865586   0.0004926460
       -0.0000830637  -0.0017388973  -0.0001667581  -0.0002801859   0.0033759269
        0.0003206463   0.0004480634  -0.0011561576  -0.0017752126   0.0009546546
       -0.0012019739   0.0015068452  -0.0012933264   0.0009247542  -0.0002497431
        0.0004531418  -0.0008751249  -0.0005338848   0.0000511196   0.0000492747
        0.0002119712   0.0000518753  -0.0001117625  -0.0000249664  -0.0000095070
        0.0000889057  -0.0000156881   0.0000389659   0.0000281352   0.0000438278
        0.0000474408   0.0001552463   0.0000094620   0.0001380383  -0.0001005081
       -0.0001442221  -0.0002636417   0.0000551620   0.0001741918   0.0000899835
       -0.0001392881   0.0000107362  -0.0001522556   0.0001490179   0.0001755925
        0.0001947678  -0.0000159339  -0.0001793368  -0.0001355717  -0.0000837577
       -0.0000005054   0.0000194677   0.0000338194  -0.0001514334   0.0000241086
        0.0000436960   0.0000121261   0.0001400548  -0.0005359783   0.0004872632
        0.0001487525  -0.0000777545  -0.0004476266   0.0001275608  -0.0000194311
        0.0001090098  -0.0000075946   0.0000599220  -0.0001600231   0.0001216181
       -0.0001101495  -0.0000208548   0.0001029668   0.0001890262   0.0001156146
       -0.0001968966  -0.0001585751  -0.0000988987   0.0002162634   0.0001309688
        0.0001223088  -0.0002051510  -0.0000871640  -0.0002133117   0.0001634810
        0.0000391759   0.0001716414  -0.0001356633   0.0000534751   0.0000064420
       -0.0001061202  -0.0000241729   0.0001053442  -0.0000111609   0.0002862404
        0.0001196996  -0.0000202430   0.0013472398  -0.0062028471   0.0016413864
        0.0201165532   0.0009675786  -0.0066533242  -0.0012329391  -0.0003587062
       -0.0022247270  -0.0008221341  -0.0005836898   0.0004096196   0.0000365257
        0.0000073465  -0.0000012142  -0.0000578859  -0.0000312576  -0.0000073899
       -0.0000418144   0.0000145327  -0.0000080168   0.0000294877  -0.0000087514
        0.0000335029  -0.0000180249   0.0000496303   0.0000682839  -0.0000333184
       -0.0000221665  -0.0000058225  -0.0000110335  -0.0000553678  -0.0000180391
        0.0000184675  -0.0000486569   0.0000354237   0.0000305454  -0.0000627260
        0.0000221994   0.0000220966   0.0000350330   0.0000492083   0.0000354534
        0.0000315575  -0.0000308919  -0.0000129231  -0.0000281646  -0.0000146513
       -0.0000571274  -0.0000394501   0.0000527350   0.0000023206   0.0000593615
       -0.0000223799  -0.0000170506   0.0000430026  -0.0000183360  -0.0000316675
        0.0000220592  -0.0000039886  -0.0000297035   0.0000489292   0.0000119915
       -0.0000296944   0.0000062780   0.0000355438  -0.0000452262  -0.0000216756
        0.0000090759   0.0000166741   0.0000106836  -0.0000052295   0.0009860241
       -0.0002970016   0.0000763046   0.0001851356   0.0002897745  -0.0020749536
        0.0168716054   0.0294796031   0.0209291735  -0.1607396001  -0.1488988020
       -0.0794279841   0.2043827812   0.1733118366   0.0779570215  -0.0491135222
       -0.0495942008  -0.0199828356  -0.0050032330   0.0020740669   0.0037783577
       -0.0029610176  -0.0019640013  -0.0011356239  -0.0002327294  -0.0001531078
       -0.0006147121   0.0029906911   0.0018666586  -0.0001519207  -0.0049487597
       -0.0030518087  -0.0009492488   0.0054048341   0.0002948792   0.0001390968
       -0.0024624783   0.0010283008  -0.0007891849   0.0023463741   0.0013652501
       -0.0002105259  -0.0046475432  -0.0004592575  -0.0007867543   0.0089229341
        0.0008458796   0.0011712956  -0.0030529845  -0.0046161480   0.0024949276
       -0.0031791915   0.0039229785  -0.0033501774   0.0025142788  -0.0007156068
        0.0012338610  -0.0023744573  -0.0014896969   0.0000711806   0.0000892846
        0.0000899017   0.0005702077  -0.0001376000   0.0002395796   0.0001801014
        0.0002055179  -0.0001053465   0.0001094563   0.0000389913   0.0001735388
        0.0001617546   0.0003186509   0.0000223759   0.0003172796  -0.0002973827
       -0.0002235020  -0.0004829323   0.0001923931   0.0003570044   0.0002242728
       -0.0002656505  -0.0000825317  -0.0003530825   0.0002985862   0.0003839744
        0.0004584105  -0.0000163550  -0.0003057897  -0.0003077130  -0.0000528685
       -0.0000334329  -0.0001405266   0.0000568162  -0.0002239502   0.0000404478
       -0.0001485251   0.0000511323  -0.0000607433  -0.0009698505   0.0014149028
        0.0009469585  -0.0003170111  -0.0009039767   0.0001424040  -0.0000114949
        0.0002300380   0.0000282038   0.0001193361  -0.0002780236   0.0003279388
       -0.0002469013  -0.0000055070   0.0002548940   0.0004164958   0.0002901410
       -0.0004179531  -0.0003373428  -0.0002669952   0.0004380502   0.0001756230
        0.0003432507  -0.0004323995  -0.0001421787  -0.0004283862   0.0003401723
        0.0000518133   0.0003875173  -0.0002786872   0.0001849011  -0.0000217425
       -0.0001990470  -0.0000340910   0.0001356829   0.0001339414   0.0007109751
        0.0001827702  -0.0004270147  -0.0007433612  -0.0011583810  -0.0010098564
       -0.0001222162  -0.0033481487  -0.0019494621   0.0000873741   0.0002112836
        0.0002835096  -0.0009947854  -0.0000474373   0.0001030665   0.0001122806
       -0.0000130300  -0.0000392170  -0.0001465168  -0.0000779450  -0.0000274622
       -0.0001157727   0.0000485609  -0.0000035525   0.0000847404  -0.0000242620
        0.0000436674  -0.0000251527   0.0001429502   0.0001252697  -0.0000656647
       -0.0000497695  -0.0000262373  -0.0000332099  -0.0001179688  -0.0000622928
        0.0000714531  -0.0001199845   0.0000065747   0.0000548326  -0.0001510640
        0.0000093038   0.0000827372  -0.0000506004   0.0001115922   0.0000172879
        0.0000580968   0.0000130840  -0.0001119089  -0.0000964259  -0.0001191134
       -0.0000943832  -0.0001594597   0.0000772623   0.0000405214   0.0000902735
       -0.0001020944  -0.0000368523   0.0001195351  -0.0000622870  -0.0000870593
        0.0000533593  -0.0000014981  -0.0000596973   0.0001282259   0.0000420703
       -0.0000758043   0.0000006902   0.0001076856  -0.0001194749  -0.0000627067
        0.0000093443   0.0000195147   0.0000245842  -0.0000630364  -0.0000386774
       -0.0000871532  -0.0001077061  -0.0023003193   0.0000173277   0.0006910444
       -0.0280789735  -0.0396142002  -0.0344851415  -0.1081936942  -0.3060800368
       -0.1456146417   0.1733118366   0.3616494231   0.1950303089  -0.0414841249
       -0.0195094032  -0.0142336533  -0.0001590580   0.0042602687   0.0005963495
       -0.0019968039  -0.0013674186  -0.0004475458  -0.0012597451   0.0002066827
       -0.0004083463   0.0052237915   0.0037263684  -0.0004777758  -0.0088125606
       -0.0054598945  -0.0017948349   0.0091203064   0.0005994862   0.0002979694
       -0.0040734692   0.0017593221  -0.0013092934   0.0037991139   0.0021837689
       -0.0003107706  -0.0073446016  -0.0007097943  -0.0012502185   0.0136915278
        0.0012672823   0.0017951438  -0.0046094026  -0.0069535241   0.0037643884
       -0.0048039719   0.0059382901  -0.0050528633   0.0040864219  -0.0011133539
        0.0019539871  -0.0038864063  -0.0025366203   0.0001591248   0.0005298147
       -0.0001184976   0.0010656620  -0.0001533626   0.0004392099   0.0003240853
        0.0002435390  -0.0001612833   0.0000703983   0.0000403619   0.0002938288
        0.0002163986   0.0004290738   0.0000126050   0.0004216017  -0.0003886481
       -0.0002958541  -0.0006186280   0.0003106305   0.0004459480   0.0003305821
       -0.0002588081  -0.0002652977  -0.0004736411   0.0003925536   0.0005157925
        0.0005647463   0.0000162887  -0.0004118530  -0.0003582962  -0.0000322786
        0.0000235666  -0.0002366407   0.0001497094  -0.0002203992   0.0000720845
       -0.0005517871  -0.0000423877  -0.0002429733  -0.0015464571   0.0025261380
        0.0017833642  -0.0005877689  -0.0016609734   0.0003236964   0.0000986387
        0.0004101334   0.0000857453   0.0002724040  -0.0003626452   0.0004751544
       -0.0002893148   0.0000242354   0.0002764898   0.0005756640   0.0003432596
       -0.0004824542  -0.0005740909  -0.0002190307   0.0006217987   0.0001333821
        0.0005334546  -0.0005766661  -0.0001201555  -0.0005373709   0.0003515378
        0.0000544737   0.0005022512  -0.0003514043   0.0002929438  -0.0000536274
       -0.0002745400  -0.0000277235   0.0000874567   0.0002857042   0.0011525549
        0.0003100988  -0.0007768368  -0.0009828295   0.0000217272   0.0006992207
        0.0078452880  -0.0018268172  -0.0037425463   0.0005196154   0.0002702326
        0.0003524696  -0.0004209752  -0.0000889080   0.0005786441   0.0001297833
       -0.0000248327  -0.0000869604  -0.0002291199  -0.0001340908  -0.0000518423
       -0.0001693354   0.0000840258   0.0000032490   0.0001139753  -0.0000508885
        0.0000671850  -0.0000522924   0.0002013560   0.0002005167  -0.0000875318
       -0.0000696799  -0.0000272537  -0.0000468386  -0.0001630807  -0.0000791294
        0.0001147891  -0.0001684869   0.0000057186   0.0000962818  -0.0001921256
        0.0000149486   0.0001151064  -0.0000646954   0.0001572082   0.0000547165
        0.0000668098   0.0000573526  -0.0002553230  -0.0001426652  -0.0001261748
       -0.0002502051  -0.0002682092  -0.0000048466   0.0000263327   0.0001499679
       -0.0001743908  -0.0000610144   0.0001525795  -0.0000974138  -0.0001142994
        0.0000575547  -0.0000130619  -0.0000853770   0.0001829749   0.0000726395
       -0.0001046540  -0.0000080903   0.0001500164  -0.0001721137  -0.0000875583
        0.0000000587  -0.0000077907   0.0000425071  -0.0000932044  -0.0001821444
       -0.0000867701  -0.0002758917  -0.0004858678   0.0017817576   0.0013243328
       -0.0188726269  -0.0473466816  -0.0087521265  -0.0515210004  -0.1366895076
       -0.1413622306   0.0779570215   0.1950303089   0.1383931983  -0.0141390405
       -0.0122358557   0.0092043754   0.0018175906  -0.0003288026   0.0033600013
       -0.0006663076  -0.0001355015  -0.0007009065  -0.0009319652   0.0002132421
       -0.0001096942   0.0030297473   0.0022155764  -0.0001732533  -0.0049698943
       -0.0031314814  -0.0010219130   0.0051233474   0.0003598906   0.0001920117
       -0.0022598197   0.0009815661  -0.0007270548   0.0021123004   0.0012172632
       -0.0001812408  -0.0040731026  -0.0003918058  -0.0006908780   0.0075499433
        0.0007012331   0.0009806009  -0.0025316151  -0.0038244576   0.0020644500
       -0.0026428907   0.0032678731  -0.0027800929   0.0022860012  -0.0006260531
        0.0010886804  -0.0021631299  -0.0014307783   0.0000784713   0.0003344130
       -0.0001737500   0.0006619250  -0.0000731426   0.0003054958   0.0002299099
        0.0001201867  -0.0000955037   0.0000229751   0.0000172356   0.0001695619
        0.0001174890   0.0002404452  -0.0000042904   0.0002326019  -0.0001935667
       -0.0001455665  -0.0003161372   0.0001863720   0.0002315805   0.0001909408
       -0.0001192329  -0.0001778751  -0.0002540767   0.0002292385   0.0002557106
        0.0003022390   0.0000334484  -0.0002163987  -0.0001920773   0.0000202499
        0.0000120498  -0.0001612892   0.0000774533  -0.0000691323   0.0000357596
       -0.0003907641  -0.0000255238  -0.0001779872  -0.0008197881   0.0014183361
        0.0010210499  -0.0003372452  -0.0009074786   0.0001901419   0.0000436781
        0.0002174923   0.0000549870   0.0001529955  -0.0001878856   0.0002245722
       -0.0001418643   0.0000135457   0.0001348393   0.0002904907   0.0001465596
       -0.0002024535  -0.0003146245  -0.0000673518   0.0003142776   0.0000380695
        0.0002906448  -0.0002864822  -0.0000448943  -0.0002623270   0.0001555218
        0.0000224605   0.0002388903  -0.0001578990   0.0001600169  -0.0000391746
       -0.0001392675   0.0000004474   0.0000178524   0.0001836689   0.0006339836
        0.0001621423  -0.0004673032  -0.0007074166   0.0007751928   0.0000295411
        0.0057193966  -0.0012226790  -0.0012298142   0.0003864790   0.0001921736
        0.0001380828  -0.0002041859   0.0003891267  -0.0001304376   0.0000661212
       -0.0000054364  -0.0000593538  -0.0001226527  -0.0000736468  -0.0000333629
       -0.0000969209   0.0000508254   0.0000027136   0.0000556051  -0.0000308051
        0.0000349500  -0.0000332478   0.0001027642   0.0001058022  -0.0000458835
       -0.0000340906  -0.0000201270  -0.0000271429  -0.0000868014  -0.0000483526