$hessian                                                                        
        0.0169367066   0.0100977179  -0.0024141019  -0.0311700753  -0.0093313857
        0.0021387102   0.0172533589  -0.0007181339   0.0001648696  -0.0013569440
        0.0023029459  -0.0014400067   0.0002414655  -0.0000030232  -0.0000231067
       -0.0005127789   0.0003511604   0.0017287839   0.0004438099  -0.0000878454
       -0.0000268613  -0.0003126735   0.0004630359  -0.0000436474   0.0001271131
       -0.0002839836  -0.0000289119   0.0002665785   0.0001457911  -0.0000188269
        0.0000076290  -0.0001779157   0.0000299171   0.0000857885  -0.0000025171
        0.0000232352  -0.0000877400  -0.0000640508   0.0000111532   0.0000809992
        0.0000565414  -0.0000021773   0.0000057588  -0.0000451444  -0.0000057377
        0.0000159240  -0.0000039958  -0.0000035793  -0.0000057362  -0.0000006856
        0.0000015487  -0.0000011255   0.0000246876   0.0000062447  -0.0000422124
        0.0000250935   0.0000097875   0.0000446573   0.0001039154  -0.0000509792
       -0.0001649847   0.0000649792  -0.0000086021   0.0000332056   0.0000113798
        0.0000271912  -0.0001120017  -0.0000038785   0.0000135000  -0.0000529941
       -0.0000031121   0.0000283291  -0.0000010611   0.0000354640   0.0000223232
       -0.0000198528  -0.0000627956   0.0000152980  -0.0000246447   0.0000103917
       -0.0000100575  -0.0000154857   0.0000089036   0.0000093202  -0.0000019633
        0.0000032071  -0.0000184266   0.0000085225  -0.0000034119   0.0000063744
        0.0000746346  -0.0000153702   0.0000129586   0.0000391024  -0.0000587017
       -0.0000567943   0.0002391429  -0.0000686082  -0.0001817148   0.0000795733
       -0.0004791199  -0.0000986571  -0.0002490100  -0.0000993797  -0.0000439462
        0.0006537790   0.0001723594  -0.0001674988  -0.0000928718  -0.0001310067
       -0.0000262288   0.0007178018  -0.0001132950   0.0002365104  -0.0014425659
       -0.0022835881   0.0014185520   0.0002189145   0.0000653618  -0.0000087768
       -0.0002057861   0.0001103060   0.0000262567   0.0000764582   0.0004780835
        0.0001083983  -0.0001840269  -0.0003955611   0.0000293249   0.0000827109
        0.0002676378   0.0000333576   0.0001998067  -0.0001171069   0.0000096167
       -0.0001578761  -0.0000630343   0.0000157899   0.0000298259  -0.0000962586
        0.0000469518  -0.0000795364   0.0000605954  -0.0000029244   0.0000626340
       -0.0000446542  -0.0000002676  -0.0000395074  -0.0000235985  -0.0000091326
       -0.0000066776  -0.0000199892  -0.0000038243  -0.0000065784   0.0000034369
        0.0000009309   0.0000120248   0.0000102312   0.0000059985   0.0000110619
        0.0000468281   0.0000103942   0.0000715305   0.0000150667  -0.0000232673
        0.0000163782   0.0001758091  -0.0000301311   0.0000293274  -0.0000960118
       -0.0000194006  -0.0001072102   0.0000137169  -0.0000192379  -0.0000539903
       -0.0000108725  -0.0000292177  -0.0000032791  -0.0000322401  -0.0000278188
       -0.0000213029   0.0000509637  -0.0000128640  -0.0000254463  -0.0000079940
        0.0000098837  -0.0000176338  -0.0000116070  -0.0000116437  -0.0000017110
       -0.0000043478  -0.0000015046   0.0000103450   0.0000024637   0.0000090535
        0.0000752110   0.0000174765  -0.0000140933   0.0000414583   0.0000486199
        0.0000597000   0.0002448602   0.0000711644   0.0001974919   0.0004932306
        0.0001159467   0.0000193824  -0.0005238030  -0.0002720701  -0.0016199421
       -0.0010897702  -0.0005322936   0.0001594687   0.0000677227  -0.0000361746
       -0.0000123222   0.0000496687   0.0000131176   0.0000438716  -0.0000047132
       -0.0000153944   0.0000067070   0.0000028256  -0.0000192074   0.0000007512
       -0.0000000196   0.0000024813   0.0000018978  -0.0000096817   0.0000073858
        0.0000010104   0.0000016790  -0.0000063366   0.0000004642  -0.0000097981
        0.0000040747   0.0000025858  -0.0000219056  -0.0000060396  -0.0000088259
       -0.0000064207   0.0000293881  -0.0000573771  -0.0000491250  -0.0000228623
        0.0000887360  -0.0000302633   0.0000280403   0.0000197360  -0.0000077442
        0.0000127264  -0.0000017822  -0.0000040100  -0.0000005139  -0.0000011358
       -0.0000013649   0.0000211128  -0.0000011311   0.0000020587  -0.0000076075
       -0.0000020103  -0.0000178014   0.0000076633  -0.0000057125   0.0000033114
       -0.0000498484   0.0000297079   0.0000743909   0.0000063623   0.0000595802
       -0.0000067038  -0.0000312693  -0.0001323485  -0.0000383320  -0.0000029876
       -0.0000892140   0.0000637965   0.0002078225   0.0002433664   0.0000972248
       -0.0002369014  -0.0002983581  -0.0000432547  -0.0000323732   0.0000511807
       -0.0000108453  -0.0000193206   0.0000965680  -0.0000016500   0.0000134450
        0.0000113748   0.0000062856   0.0000085882   0.0000073356  -0.0000080192
       -0.0000018038  -0.0000003818   0.0000029172   0.0000087125   0.0000019396
       -0.0000083261  -0.0000067356   0.0000016479   0.0000007635  -0.0000029804
        0.0000011427   0.0000007871  -0.0000164726   0.0000028939  -0.0000055019
       -0.0000070880   0.0000000441   0.0000075979  -0.0000183303   0.0000056187
       -0.0000094960  -0.0000059963  -0.0000431202  -0.0000096381  -0.0000159365
       -0.0000178229  -0.0000070528  -0.0000096181   0.0000002442  -0.0000033840
        0.0000035605  -0.0000009432  -0.0000021381  -0.0000177887  -0.0000006648
        0.0000006095   0.0000096019   0.0000006466  -0.0000203773  -0.0000055497
        0.0000046255  -0.0000207883   0.0000526734  -0.0000286341   0.0000270018
       -0.0000205661  -0.0001085253   0.0000162568   0.0000740649   0.0000556927
       -0.0009070145   0.0004421880  -0.0000717575
        0.0100977179   1.0953396701  -0.2515858941  -0.0092399140  -1.0173967735
        0.2311694135   0.0006716394  -0.0837099658   0.0202424056   0.0060243460
        0.0064635292  -0.0012113969   0.0045610977  -0.0041517898  -0.0004816736
       -0.0022258477   0.0035234253   0.0011892236   0.0038733073   0.0003714098
        0.0009116633  -0.0028538904   0.0015527071   0.0003374743  -0.0003248236
        0.0009528887  -0.0000356669   0.0014242638   0.0010345160   0.0004530665
       -0.0004907714  -0.0014183711   0.0003541647   0.0014949706  -0.0000315087
        0.0002818145  -0.0016058812  -0.0009319303   0.0000587939   0.0011972197
        0.0007311180  -0.0000736155  -0.0002389905  -0.0006596096   0.0000214995
        0.0004635522   0.0000378115  -0.0000076347  -0.0002865534  -0.0001792346
        0.0000201942   0.0002615059   0.0004031624  -0.0000177213  -0.0007033916
        0.0000774780   0.0000424056   0.0006229138   0.0011901000  -0.0004590500
       -0.0013933179   0.0000772485  -0.0003665616  -0.0002579638  -0.0025161787
       -0.0003475576  -0.0007489737   0.0011961609   0.0004051370  -0.0005367161
       -0.0010601990   0.0003944836  -0.0000283336   0.0015486736  -0.0000410082
        0.0000055095  -0.0011198788   0.0000231395  -0.0003301287   0.0004366522
       -0.0000343050  -0.0001557892  -0.0003351528   0.0001209382   0.0000066131
        0.0002692037  -0.0001146506   0.0001516279  -0.0002964144  -0.0000195798
        0.0001895218   0.0005012007  -0.0000124006   0.0005912978  -0.0010521137
       -0.0001518716   0.0008137335   0.0011517571  -0.0001382556   0.0021410770
       -0.0036950400  -0.0015344405  -0.0048163741   0.0003498789  -0.0014948071
       -0.0038098833  -0.0025559000   0.0011063807  -0.0012250211   0.0016464214
       -0.0017268716   0.0052475009  -0.0020045597   0.0013114822  -0.0082742649
        0.0068666765  -0.0012849601  -0.0030236094  -0.0032095601  -0.0004941642
        0.0035692557   0.0004941032  -0.0012409123  -0.0016738094  -0.0027837290
       -0.0012396431   0.0020910456   0.0011561625   0.0002925650   0.0003339241
        0.0009419510   0.0000133500  -0.0012315166   0.0008468757   0.0004479973
        0.0011334237   0.0000584986  -0.0003115312  -0.0005473051   0.0010201172
       -0.0003231397   0.0013597589  -0.0007715797  -0.0000153327  -0.0010191033
        0.0006174775  -0.0000125526   0.0006023368   0.0000618271  -0.0001635797
       -0.0002302256   0.0003412933   0.0000018908   0.0002455482  -0.0001507598
        0.0000054095  -0.0003959890   0.0000360290   0.0000072201   0.0002180265
       -0.0005658420   0.0001759336  -0.0012742602  -0.0000382237   0.0002604104
        0.0004451067  -0.0011536252   0.0002274219   0.0002216383  -0.0022502469
       -0.0003866697   0.0005922266   0.0010227858   0.0003603103   0.0004529005
       -0.0009509526   0.0002753487   0.0000263285   0.0013192447   0.0000232336
       -0.0000054436  -0.0009623156  -0.0000301611   0.0002818361   0.0003803498
        0.0001671052   0.0001285714  -0.0002934558  -0.0001002275  -0.0000038017
        0.0002294320   0.0000002518  -0.0001227395  -0.0002529472   0.0000677276
       -0.0001412167   0.0004513170  -0.0001716505  -0.0004875924  -0.0009032842
       -0.0001421928  -0.0006065212   0.0010032471  -0.0000140343  -0.0027686844
        0.0002661009   0.0007278251   0.0017470167   0.0025187998   0.0008216584
       -0.0005310491  -0.0002278195   0.0013471675   0.0000063464   0.0001741526
        0.0002952441   0.0001129265   0.0000987408   0.0001137663  -0.0000122960
       -0.0000646078   0.0000159674   0.0000080455  -0.0000989772   0.0000072873
       -0.0000047802  -0.0000246269  -0.0000089801  -0.0000170208   0.0000024668
        0.0000052238  -0.0000326963   0.0000093747   0.0000221782   0.0000016740
        0.0000247551   0.0000023546  -0.0001046595  -0.0000035158   0.0000184884
        0.0000175881   0.0001059227  -0.0001531718  -0.0000234724  -0.0001105347
        0.0000679710  -0.0000761710   0.0001022059  -0.0000332836   0.0000299914
       -0.0000013837   0.0000052288   0.0000145231   0.0000025706  -0.0000106620
        0.0000151508  -0.0000104415   0.0000009188   0.0000324237   0.0000427765
        0.0000161668   0.0000620695  -0.0000102092   0.0000173331   0.0000677532
        0.0001251203  -0.0001003357  -0.0000555754  -0.0002970820  -0.0002106746
       -0.0000334418  -0.0000659903  -0.0000457241   0.0000474469  -0.0000870840
        0.0000695946  -0.0000925909  -0.0002439258   0.0003417631   0.0000138244
       -0.0002118125   0.0003250234  -0.0000411093  -0.0000468279   0.0000487940
        0.0000330468  -0.0000789385   0.0000171753  -0.0000078291   0.0000993443
       -0.0001146599   0.0000189462   0.0000068662   0.0000217406  -0.0000080785
        0.0000217474   0.0000013181   0.0000310855   0.0000129891   0.0000194833
        0.0000158708  -0.0000019851   0.0000050295   0.0000039768  -0.0000217379
       -0.0000074040  -0.0000059149  -0.0000961669   0.0000092381   0.0000078505
        0.0000177230   0.0000130898  -0.0000874032   0.0000764037   0.0000979091
        0.0000260721  -0.0000896799   0.0000337303  -0.0000257135  -0.0000122614
       -0.0000373117  -0.0000297629  -0.0000066771   0.0000067088  -0.0000124932
        0.0000034583  -0.0000083918  -0.0000121186  -0.0000115560   0.0000009930
       -0.0000293445   0.0000447594   0.0000165470  -0.0000564192  -0.0000160974
        0.0000173033   0.0000328447   0.0001336935  -0.0000893714   0.0000459243
       -0.0001529534  -0.0002024841  -0.0000137311   0.0000934205   0.0002290503
        0.0004585781  -0.0002917588   0.0012790414
       -0.0024141019  -0.2515858941   0.0750255289   0.0021356897   0.2322179809
       -0.0804820318   0.0002012018   0.0173143356   0.0030859887  -0.0007638685
       -0.0000899588   0.0022484823   0.0001406755   0.0005105884   0.0000376554
       -0.0002306986  -0.0003162362  -0.0011354982   0.0002022484   0.0000945248
        0.0002194337   0.0001395001  -0.0002680033  -0.0000906354  -0.0001326637
        0.0000556355   0.0000629989   0.0001130099   0.0000466507  -0.0000367211
        0.0000053355  -0.0000825816   0.0000133537   0.0000565475  -0.0000260919
        0.0000519608  -0.0000301117  -0.0000179821  -0.0000004010  -0.0000255144
       -0.0000215595  -0.0000004523   0.0000263835  -0.0000204059   0.0000593947
       -0.0000055331  -0.0000141065  -0.0000061319   0.0000069270   0.0000027893
       -0.0000021959  -0.0000131925  -0.0000007186   0.0000050773  -0.0000046508
        0.0000285060  -0.0000598480   0.0000057267   0.0000671286  -0.0000409395
       -0.0000781805   0.0000913467  -0.0000093532  -0.0000127510   0.0000478166
       -0.0000646424  -0.0001043030  -0.0000094792   0.0000335753  -0.0000639009
       -0.0000190804   0.0000615080  -0.0000030007   0.0000370979   0.0000060685
       -0.0000105521   0.0000148606   0.0000027407  -0.0000295521  -0.0000075739
        0.0000656233  -0.0000113654   0.0000070565  -0.0000533387   0.0000003968
       -0.0000109905   0.0000533997   0.0000105127   0.0000006169   0.0000135467
        0.0000366371  -0.0000107514  -0.0000424487   0.0000867746  -0.0000306231
       -0.0000605000   0.0001901342  -0.0000353300  -0.0000817366  -0.0000835223
        0.0001317873   0.0001609646   0.0001167281  -0.0001499172   0.0001245310
        0.0008142896   0.0006168276   0.0001646818  -0.0000595526  -0.0005993967
        0.0000600193  -0.0007569789   0.0006606226   0.0000998264   0.0007815928
       -0.0001055317   0.0022466127  -0.0001884429   0.0004836790   0.0000575680
       -0.0000601030  -0.0001399783   0.0001100545   0.0000408123   0.0000727999
        0.0001339296   0.0000013091  -0.0002117757  -0.0000952917   0.0000846865
        0.0000378919   0.0000594024  -0.0001202522   0.0000609367  -0.0000314842
        0.0000963076   0.0000982500  -0.0000062916  -0.0000117683   0.0000702127
       -0.0000390479   0.0000379141  -0.0000275351  -0.0000010427   0.0000122957
       -0.0000130792  -0.0000025221   0.0000047537   0.0000293280   0.0000397819
        0.0000122491   0.0000012950   0.0000061716  -0.0000088154   0.0000025892
       -0.0000016919   0.0000012632  -0.0000123364  -0.0000080253  -0.0000270549
       -0.0000215799  -0.0000374924  -0.0000622463  -0.0000188917   0.0000498607
       -0.0000040399  -0.0001110578   0.0000108566   0.0000130354   0.0000011837
       -0.0000636986   0.0001319096   0.0000060456   0.0000369414   0.0000669775
       -0.0000299469   0.0000610934   0.0000001783   0.0000558781   0.0000073300
        0.0000085617  -0.0000033570   0.0000027693   0.0000306359  -0.0000060595
       -0.0000296201   0.0000123050   0.0000046524   0.0000451316  -0.0000015205
       -0.0000103229   0.0000030848  -0.0000125474  -0.0000038682  -0.0000344164
       -0.0000328224  -0.0000049707   0.0000519852  -0.0000871836  -0.0000429855
       -0.0000554079  -0.0002280012  -0.0000116099  -0.0000790240  -0.0002814670
        0.0001074056   0.0002191427   0.0002379477  -0.0003189513  -0.0010994275
        0.0008175030   0.0004636844  -0.0002385511  -0.0001044238   0.0000459900
       -0.0000029348  -0.0000527811  -0.0000130209  -0.0000400186   0.0000045752
        0.0000556639   0.0000010063  -0.0000045983   0.0000444000  -0.0000084569
        0.0000044083   0.0000109690  -0.0000035388   0.0000072127  -0.0000005601
       -0.0000026270   0.0000126749  -0.0000008551  -0.0000024432  -0.0000057820
       -0.0000032355   0.0000009630   0.0000712206  -0.0000041648  -0.0000058583
        0.0000065577  -0.0000724732   0.0000345847   0.0000266325   0.0000463400
       -0.0000157715   0.0000425303  -0.0000581021   0.0000130861  -0.0000046855
        0.0000019053  -0.0000061602   0.0000022524  -0.0000083603  -0.0000016704
       -0.0000013350  -0.0000066575  -0.0000014187  -0.0000085070  -0.0000123992
       -0.0000052920  -0.0000030184   0.0000011756  -0.0000191289  -0.0000629482
       -0.0000664485  -0.0000011352  -0.0000233655   0.0000891730   0.0000186742
        0.0000375456   0.0000798192   0.0000020917   0.0000389972   0.0001459940
        0.0000619259   0.0000096129  -0.0000031043  -0.0003254033   0.0000152034
       -0.0000181683  -0.0003192786  -0.0000497595   0.0001172654   0.0000679280
       -0.0000338909   0.0000835910  -0.0000173438  -0.0000104959  -0.0000639404
        0.0000161520  -0.0000250897  -0.0000090291  -0.0000090561   0.0000090121
       -0.0000015826   0.0000018219  -0.0000116630  -0.0000030267  -0.0000019889
       -0.0000060002   0.0000013751  -0.0000023581  -0.0000043072   0.0000095272
       -0.0000031615   0.0000031471   0.0000424467  -0.0000093335  -0.0000026264
        0.0000086498   0.0000033780   0.0000403632  -0.0000119105  -0.0000269621
       -0.0000270663   0.0000345715  -0.0000008180   0.0000050069  -0.0000006783
        0.0000153557   0.0000035487   0.0000047817  -0.0000064051  -0.0000038280
       -0.0000084310  -0.0000020431  -0.0000010582  -0.0000049862  -0.0000015998
        0.0000051631  -0.0000124403  -0.0000053451  -0.0000030820   0.0000046648
       -0.0000173364   0.0000113886  -0.0000581897  -0.0000096993   0.0000253582
        0.0000225382   0.0000004604   0.0001054776   0.0000934435   0.0000229704
       -0.0007582745   0.0004659937  -0.0001939769
       -0.0311700753  -0.0092399140   0.0021356897   0.1045685100   0.0105077093
       -0.0024753047  -0.0593079791  -0.0011824928   0.0002496405   0.0000680163
       -0.0244779174   0.0067384971  -0.0013573286  -0.0012157731   0.0001939357
       -0.0010978025  -0.0010770194  -0.0002328158  -0.0005836424   0.0001385772
        0.0001227992   0.0002027212  -0.0003988392  -0.0001933293   0.0001950221
        0.0000123180  -0.0000061176  -0.0003923676  -0.0002760489  -0.0000498267
        0.0000096213   0.0002456011  -0.0000380794  -0.0001539375   0.0000041651
       -0.0000262002   0.0001414444   0.0000976727  -0.0000136082  -0.0000931246
       -0.0000625615   0.0000036872   0.0000039350   0.0000534930  -0.0000089969
       -0.0000310779   0.0000007180   0.0000042821   0.0000153543   0.0000101170
       -0.0000007498  -0.0000100919  -0.0000300546  -0.0000023247   0.0000501253
       -0.0000169627   0.0000052915  -0.0000743992  -0.0001439951   0.0000730773
        0.0002303677  -0.0000610562   0.0000236419   0.0000046343   0.0003264014
        0.0000310546   0.0001321498  -0.0000782366  -0.0000223116   0.0000636378
        0.0000628998  -0.0000429126   0.0000148587  -0.0001223240  -0.0000185597
        0.0000097162   0.0000784719  -0.0000119986   0.0000283148  -0.0000207909
       -0.0000052681   0.0000167822   0.0000092370   0.0000000914  -0.0000003021
       -0.0000130470   0.0000048226  -0.0000115858   0.0000173463  -0.0000033152
       -0.0000427035  -0.0000141970   0.0000063292  -0.0000470403   0.0001277700
        0.0000371032  -0.0002079597  -0.0000701769   0.0001144979  -0.0003282917
        0.0006804708   0.0001576906   0.0007370095   0.0003130096  -0.0001941164
       -0.0050362211  -0.0014316758   0.0003965726   0.0017738333  -0.0000511361
        0.0000063364  -0.0050418775   0.0017452867  -0.0004911853   0.0004857764
        0.0240462758  -0.0067096621  -0.0013307649   0.0013175360  -0.0001525360
        0.0006584869  -0.0003049292   0.0001976687  -0.0003010093  -0.0006244616
       -0.0001453448   0.0000896520   0.0003594361   0.0002150705   0.0002248986
        0.0000012672   0.0000031290  -0.0003731192   0.0002584560   0.0000609183
        0.0002066790   0.0000619360  -0.0000166248  -0.0000645199   0.0001267706
       -0.0000589660   0.0001134458  -0.0000820280   0.0000062322  -0.0000686657
        0.0000473680   0.0000010458   0.0000364586   0.0000147942  -0.0000047282
       -0.0000047474   0.0000219270   0.0000032060   0.0000100742  -0.0000070755
       -0.0000004026  -0.0000222040  -0.0000024745  -0.0000041624  -0.0000012952
       -0.0000418053   0.0000049739  -0.0001278593  -0.0000059590   0.0000239271
        0.0000016705  -0.0002246071   0.0000231419   0.0000018486  -0.0002963053
       -0.0000457135   0.0001232878   0.0000631202   0.0000167086   0.0000562772
       -0.0000513701   0.0000345503   0.0000155797   0.0001008203   0.0000251783
        0.0000102308  -0.0000609300   0.0000083830   0.0000232924   0.0000138257
        0.0000049876   0.0000145600  -0.0000041193  -0.0000003655  -0.0000000412
        0.0000086005   0.0000004815  -0.0000094793  -0.0000126598  -0.0000006230
       -0.0000392537   0.0000069205  -0.0000039160  -0.0000409594  -0.0001131847
       -0.0000407567  -0.0002001459   0.0000612883  -0.0001073152  -0.0004762770
       -0.0001480156  -0.0001467821  -0.0010169777   0.0009502032   0.0001807786
       -0.0007198696   0.0002107087   0.0017235245   0.0000453344  -0.0000013942
        0.0000111817  -0.0000155059  -0.0000371596  -0.0000061465   0.0000083618
       -0.0000006944  -0.0000041365   0.0000002620   0.0000033703   0.0000007906
        0.0000019364  -0.0000013233   0.0000005388   0.0000025157  -0.0000023852
       -0.0000002201  -0.0000005772   0.0000021768  -0.0000011493   0.0000051007
       -0.0000007827  -0.0000014394   0.0000059360   0.0000059375   0.0000063759
       -0.0000007363  -0.0000003090   0.0000254434   0.0000099432   0.0000004393
       -0.0000363082   0.0000047961  -0.0000103006  -0.0000081391   0.0000005105
       -0.0000049298   0.0000011545   0.0000036057  -0.0000047838   0.0000009828
        0.0000017073  -0.0000045960   0.0000001088   0.0000006887   0.0000017057
       -0.0000003934   0.0000071277  -0.0000012696  -0.0000005274   0.0000128274
        0.0000100655  -0.0000034152   0.0000064372   0.0000352949  -0.0000443990
        0.0000193991  -0.0000401330   0.0001349112   0.0001243470   0.0000146138
        0.0000837687  -0.0002080643  -0.0012697051  -0.0002464491  -0.0002204012
        0.0012697057   0.0003003057   0.0001212420  -0.0000005019  -0.0000700614
        0.0000203654   0.0000543121  -0.0001237181  -0.0000020928  -0.0000094398
       -0.0000147923  -0.0000015990  -0.0000065454  -0.0000068895   0.0000049031
        0.0000001222   0.0000010042  -0.0000011013  -0.0000028045   0.0000003805
        0.0000020623   0.0000021989  -0.0000002444   0.0000016237   0.0000017481
       -0.0000008809   0.0000006088   0.0000052074  -0.0000016661   0.0000084806
        0.0000052860   0.0000029178  -0.0000061446   0.0000366007  -0.0000041482
        0.0000015516   0.0000053300   0.0000269211   0.0000004408   0.0000080372
        0.0000092364   0.0000008472   0.0000044160  -0.0000008317  -0.0000008391
       -0.0000004076  -0.0000004135   0.0000020084   0.0000041646   0.0000001556
        0.0000012110  -0.0000025560   0.0000003709   0.0000080355   0.0000006926
        0.0000005114   0.0000189294  -0.0000111222   0.0000038698   0.0000177635
       -0.0000319487   0.0000544577   0.0000579829  -0.0000027329  -0.0000198580
       -0.0006251070  -0.0001619747  -0.0016331873
       -0.0093313857  -1.0173967735   0.2322179809   0.0105077093   1.3584342879
       -0.3140950535  -0.0042319627  -0.2688971160   0.0655739865  -0.0262209278
       -0.0418354004   0.0093995420  -0.0053592163   0.0058756150   0.0008159152
        0.0040559767  -0.0059318311  -0.0013923878  -0.0073621952  -0.0010156418
       -0.0019759877   0.0054317298  -0.0025987121  -0.0002598997   0.0006548970
       -0.0014993934   0.0001092717  -0.0027613014  -0.0020633769  -0.0007943493
        0.0009137894   0.0029892666  -0.0007047040  -0.0030321688   0.0001418470
       -0.0006369035   0.0032333763   0.0018924504  -0.0001053905  -0.0023404603
       -0.0014072074   0.0001607761   0.0004272787   0.0013783042  -0.0003770226
       -0.0009058872  -0.0000245707   0.0000495609   0.0005558833   0.0003650567
       -0.0000175013  -0.0004868591  -0.0007857299   0.0000375118   0.0014199557
       -0.0002096122   0.0002890933  -0.0012171925  -0.0024494032   0.0010056349
        0.0028983869  -0.0003103582   0.0007525878   0.0004410474   0.0044158726
        0.0006562208   0.0016633700  -0.0022422513  -0.0008044570   0.0011807761
        0.0020880637  -0.0008715879   0.0000228227  -0.0030360212   0.0000717500
        0.0000025031   0.0021467104  -0.0000514178   0.0007184877  -0.0007981525
       -0.0003046270   0.0003453067   0.0006334364   0.0001037818  -0.0000151889
       -0.0004855695  -0.0001255395  -0.0003267115   0.0005898530   0.0000027472
       -0.0005769685  -0.0008540717   0.0003639467  -0.0013030752   0.0020854076
        0.0005080014  -0.0018142838  -0.0021885582   0.0004295313  -0.0033661738
        0.0066765555   0.0027104260   0.0082960358  -0.0003748169   0.0021225320
        0.0013153551   0.0057251195  -0.0023595709   0.0025183094  -0.0026604200
        0.0033221020  -0.0041195263   0.0045573790  -0.0026488374   0.0306939649
       -0.0430915958   0.0094389186   0.0024327332   0.0040098075   0.0008195863
       -0.0059675764  -0.0006528089   0.0016932382   0.0024814829   0.0048687841
        0.0022274855  -0.0041028305  -0.0017718536  -0.0001622414  -0.0007552440
       -0.0015084789   0.0000362099   0.0022945727  -0.0016637977  -0.0008229967
       -0.0024000955  -0.0002793974   0.0006602916   0.0010527408  -0.0020726419
        0.0007264525  -0.0027476917   0.0015878586   0.0000440016   0.0020130261
       -0.0011987249   0.0000437114  -0.0012043236  -0.0001771175   0.0000240106
        0.0004255448  -0.0006716575  -0.0000024968  -0.0004747955   0.0003111459
        0.0000113449   0.0007826963  -0.0000211692   0.0000254166  -0.0003787963
        0.0011776866  -0.0000137672   0.0025508525   0.0001511389  -0.0005815850
       -0.0008196307   0.0025129822  -0.0004743172  -0.0003665433   0.0038045758
        0.0007598754  -0.0013901994  -0.0018961249  -0.0007389893  -0.0009930313
        0.0018226863  -0.0006287150  -0.0000105478  -0.0025947956  -0.0000573838
        0.0000043711   0.0018599278   0.0000522510  -0.0006056106  -0.0006800833
       -0.0000398652  -0.0002929084   0.0005506523  -0.0001299289   0.0000179732
       -0.0004165547  -0.0000154894   0.0002834747   0.0005109244   0.0001619146
        0.0004738775  -0.0007539145   0.0000212019   0.0010967991   0.0017486874
        0.0004755632   0.0014779929  -0.0019196876   0.0002152402   0.0053196459
       -0.0008127797  -0.0016898145  -0.0030006863  -0.0037592551  -0.0007247142
       -0.0000640056   0.0005948623  -0.0012838974   0.0002832799   0.0000576984
       -0.0002968841   0.0001158271  -0.0001717975   0.0000640759   0.0000111671
       -0.0001989475  -0.0000186770  -0.0000079782  -0.0000970338   0.0000155740
        0.0000017357   0.0000431695   0.0000431382   0.0000239870   0.0000185413
        0.0000116462   0.0000343429   0.0000039341  -0.0000267746   0.0000097396
       -0.0000225595   0.0000008352  -0.0001580627   0.0000218442  -0.0000152311
       -0.0000361455   0.0001526590   0.0000240119  -0.0002477055  -0.0000764810
        0.0001041170  -0.0001708823   0.0001701479   0.0000369028  -0.0000157063
        0.0000180988  -0.0000030491  -0.0000134908   0.0000247429   0.0000140125
       -0.0000113323   0.0000325174  -0.0000125984  -0.0000243574  -0.0000127809
       -0.0000369274  -0.0000696506   0.0000199384  -0.0000283401   0.0002007798
       -0.0000858917   0.0001125136   0.0003626316   0.0001605039   0.0000650355
        0.0000988253  -0.0002012473  -0.0000291969   0.0000468630  -0.0000743047
       -0.0002700581   0.0001690827  -0.0003074417  -0.0008146756  -0.0001218579
       -0.0003220925  -0.0008213937  -0.0000255341   0.0000850700  -0.0002637360
       -0.0001005235  -0.0001718282  -0.0001074726   0.0000291297   0.0001409078
       -0.0000092712   0.0000138341   0.0000138809  -0.0000113185  -0.0000037230
       -0.0000215661   0.0000023825  -0.0000286784   0.0000028309  -0.0000206952
       -0.0000181269   0.0000188345   0.0000130297   0.0000009107   0.0000361766
        0.0000401535   0.0000107305  -0.0000991713   0.0000145065  -0.0000052835
       -0.0000462504  -0.0000179819  -0.0001317171  -0.0001271690   0.0000719167
        0.0002382440  -0.0000882574   0.0001320904   0.0000512555   0.0000485576
        0.0000353260   0.0000192397   0.0000188760  -0.0000040293   0.0000206758
        0.0000235658   0.0000113520   0.0000150937   0.0000337906  -0.0000114770
        0.0000255449  -0.0000131147  -0.0000347427   0.0000720366   0.0000218062
       -0.0000276336  -0.0000691036  -0.0001019212   0.0001033575  -0.0003309768
        0.0002298579   0.0000692490  -0.0002624032  -0.0000871166  -0.0002133814
        0.0003395388   0.0004295033  -0.0011378561
        0.0021387102   0.2311694135  -0.0804820318  -0.0024753047  -0.3140950535
        0.1315140509   0.0002573091   0.0739514004  -0.0476926703   0.0009293813
        0.0059302918  -0.0020664744   0.0001998943  -0.0009329500  -0.0001847375
        0.0013808237   0.0006285852  -0.0000970992  -0.0002446952  -0.0002181179
       -0.0003425953  -0.0002951078   0.0001439951   0.0001146241   0.0008072007
       -0.0004780951   0.0000068798  -0.0008231994  -0.0004818988  -0.0001503632
        0.0000810892   0.0005481377  -0.0001081656  -0.0004548628   0.0000466548
       -0.0001541386   0.0003808820   0.0002105065  -0.0000074112  -0.0001802445
       -0.0001085984   0.0000113934  -0.0000137691   0.0001585498  -0.0000730581
       -0.0000728356   0.0000146121   0.0000127462   0.0000301516   0.0000183244
       -0.0000027858  -0.0000202770  -0.0000757845  -0.0000118488   0.0001374873
       -0.0000794157   0.0000622614  -0.0001559599  -0.0003758276   0.0001847972
        0.0004969548  -0.0002292252   0.0000679517   0.0000413812   0.0007757879
        0.0002095362   0.0004256119  -0.0002664786  -0.0001062988   0.0002452515
        0.0002856503  -0.0001974376  -0.0000051848  -0.0003799500  -0.0000047515
        0.0000172786   0.0001751955  -0.0000115352   0.0001277157  -0.0000657703
       -0.0000732273   0.0000510171   0.0000392023   0.0000400012  -0.0000015740
       -0.0000213201  -0.0000300252  -0.0000463226   0.0000438217  -0.0000186465
       -0.0001782815  -0.0000331499   0.0000620929  -0.0002775676   0.0003427195
        0.0001866935  -0.0005303155  -0.0002622355   0.0001989393   0.0000763413
        0.0002687165  -0.0000949871  -0.0000978430   0.0001761002   0.0000849335