$hessian                                                                        
        0.5028186104  -0.0028616538   0.0214438489  -0.1235687953   0.0547801064
        0.0588210867  -0.0211937540   0.0183823374   0.0186688522  -0.0033525753
        0.0060852004  -0.0031397367   0.0006535703   0.0002275012   0.0005170641
       -0.0004751669   0.0001067403   0.0009037301  -0.0003511816   0.0001120621
        0.0001129400   0.0005610748  -0.0002661284  -0.0004444668  -0.0000169366
        0.0012070645  -0.0018285848   0.0047028128  -0.0042152819   0.0008810620
        0.0002048813  -0.0002134350  -0.0005018431   0.0004837763   0.0000990828
       -0.0001357324   0.0001412906  -0.0001553021  -0.0001847257  -0.0002602811
       -0.0003571370   0.0004895550  -0.0000321293   0.0000962142  -0.0002147927
        0.0001240738   0.0001372313  -0.0000289243  -0.0000147268   0.0000314307
       -0.0000051894   0.0001167751  -0.0000023738   0.0000463508   0.0000222618
        0.0000238572   0.0000314082  -0.0000423528  -0.0000205187  -0.0000102592
        0.0000087882   0.0000097861  -0.0000052240   0.0000217084   0.0000042224
       -0.0000174233   0.0000033445   0.0000037540  -0.0000053547   0.0000220342
       -0.0000003641  -0.0000032913  -0.0000125473  -0.0000009946  -0.0000188713
       -0.0000057971  -0.0000148662  -0.0000591462  -0.0005076655   0.0001960651
       -0.0003191665   0.0002675607  -0.0000262034   0.0004104099   0.0000056139
       -0.0001354262  -0.0003722869  -0.0000397708   0.0000727677   0.0000352458
        0.0000781110  -0.0000149086   0.0000525759  -0.0001453078   0.0001015298
       -0.0000659490   0.0000707402  -0.0001559834  -0.0002665211  -0.0000085467
        0.0001154586   0.0002844286  -0.0001602652   0.0000690314   0.0000477172
        0.0001462168  -0.0000429612   0.0001862463   0.0001378284  -0.0000239371
       -0.0000894588   0.0004657236   0.0001484256   0.0006158001  -0.0003200625
       -0.0002779006  -0.0007686315  -0.0005403151   0.0003412469   0.0013195898
        0.0014357835  -0.0002192740  -0.0007100481   0.0001912606  -0.0001716248
       -0.0000923130  -0.0000451543  -0.0000147696  -0.0001135730   0.0000490523
       -0.0000549551   0.0000223805   0.0000089143   0.0000027049  -0.0000182330
        0.0000070787   0.0000063935  -0.0000487514  -0.0000058494  -0.0000079063
       -0.0000047443  -0.0000100608  -0.0000044046  -0.0000070581   0.0000085986
       -0.0000074343  -0.0000001225  -0.0000132197   0.0000008601  -0.0000219641
        0.0000626540  -0.0000120964   0.0000001116  -0.0000195939  -0.0000370503
       -0.0002016004  -0.0381932123   0.0027819613  -0.0017320896  -0.2458518935
       -0.0839087988  -0.0086611197  -0.0778081184   0.0079852542  -0.0852330582
        0.0001585634  -0.0000325158   0.0000501518  -0.0000493038   0.0000811294
        0.0001584089   0.0000210802  -0.0000398746   0.0000107681   0.0000435289
        0.0000815719   0.0000050867  -0.0000115484   0.0000156651   0.0000414542
       -0.0000511979   0.0000073058   0.0000026033   0.0000134414  -0.0000059553
       -0.0000022618   0.0000005646  -0.0000052787   0.0000029107  -0.0000057736
       -0.0000191722  -0.0000065826   0.0000062037   0.0000009037   0.0000134381
       -0.0000058558  -0.0000148180  -0.0000012227  -0.0000109735   0.0000020976
        0.0000004471   0.0000032967  -0.0000024243  -0.0000035485   0.0000042610
       -0.0000009791   0.0000050327   0.0000061772  -0.0000047577  -0.0000040023
       -0.0000167030   0.0000107587   0.0000123433  -0.0000066399  -0.0000042459
       -0.0000105254  -0.0000213256  -0.0000001734  -0.0000095251  -0.0000056237
       -0.0000082858  -0.0000106801  -0.0000006851  -0.0000283546   0.0000111704
       -0.0000060771   0.0000010821  -0.0000012543  -0.0000054980  -0.0000157927
       -0.0000028007   0.0000060670   0.0000072276  -0.0000029602   0.0000148443
       -0.0000141306  -0.0000134070  -0.0000056358   0.0000364013  -0.0000103385
        0.0000077214  -0.0000242673   0.0000007841   0.0000087140   0.0000131084
        0.0000489085   0.0000177093   0.0000078239   0.0000099227  -0.0000066641
        0.0000177006  -0.0000128268  -0.0000003005   0.0000176115   0.0000040149
        0.0000197780  -0.0000114427   0.0000163711   0.0000185997  -0.0000090182
       -0.0000025799  -0.0000089255   0.0000137123   0.0000131129   0.0000164459
       -0.0000036518  -0.0000121367   0.0000019927  -0.0000039016   0.0000022091
       -0.0000093657   0.0000038868   0.0000057520   0.0000161501  -0.0000024698
        0.0000254979   0.0000376248   0.0000039239   0.0000196443  -0.0000195259
        0.0000249998   0.0000864710
       -0.0028616538   0.4854497397  -0.0073620104   0.0528037333  -0.1025794525
       -0.0465736989   0.0130406368  -0.0093472048  -0.0100171089   0.0082074237
        0.0040567609   0.0009636047  -0.0000444388   0.0010418101  -0.0009330244
        0.0006126702  -0.0004252596   0.0017443663  -0.0026785196   0.0011832563
       -0.0013612685   0.0020928096  -0.0011728216  -0.0018154883  -0.0020441488
        0.0026585927  -0.0006281978   0.0027061675  -0.0033692916  -0.0127809466
       -0.0002725200  -0.0013181375   0.0002912791   0.0002199148  -0.0000205752
        0.0006632263  -0.0008428288   0.0004770472  -0.0002331227   0.0005034425
        0.0003211997  -0.0003701692  -0.0000603271  -0.0000401642   0.0000644732
       -0.0001962366  -0.0001919017  -0.0001441200  -0.0000000043  -0.0000185676
        0.0000177586  -0.0000667409   0.0000131793  -0.0000093268  -0.0000308872
       -0.0000309383  -0.0000450925   0.0001059998   0.0000191717   0.0000143475
        0.0000039504  -0.0000395519   0.0000071286  -0.0000259296   0.0000042501
        0.0000389156  -0.0000041694  -0.0000078852   0.0000261950  -0.0000106565
       -0.0000114479   0.0000131897  -0.0000058990   0.0000187615   0.0000454666
        0.0000369351   0.0000026243   0.0001118254   0.0008485316  -0.0003910215
        0.0003994795  -0.0002376911  -0.0000615751  -0.0004698363  -0.0001586545
        0.0000979915   0.0004824026   0.0000737369  -0.0000826493  -0.0000488541
        0.0000961724   0.0000516585  -0.0000440600   0.0001906222  -0.0001544539
        0.0001552457  -0.0001108635   0.0002398670   0.0004256242   0.0000314994
       -0.0001754409  -0.0004223363   0.0002346133  -0.0001347971  -0.0000878026
       -0.0001645232   0.0000229092  -0.0002251550  -0.0002568491   0.0001752119
        0.0001350206  -0.0009570335  -0.0000302209  -0.0011457699   0.0013756345
        0.0008062036   0.0018044563  -0.0011563274  -0.0030836602  -0.0055246956
       -0.0002483100  -0.0031154659   0.0076234945   0.0002925659   0.0004031834
        0.0011301608  -0.0001789829   0.0004709261   0.0003702347   0.0000397271
        0.0000433911  -0.0001908027  -0.0000697617   0.0000133591   0.0000400504
        0.0000074339  -0.0000363620  -0.0000081135   0.0000254607   0.0000269446
        0.0000251056  -0.0000144844   0.0000052738   0.0000093761  -0.0000125572
        0.0000021692  -0.0000187687   0.0000203124  -0.0000021465   0.0000152759
       -0.0000056191  -0.0000434781   0.0001444705   0.0001724997  -0.0001700987
       -0.0001498839   0.0059102129  -0.2593490977   0.0585997497  -0.0840421654
       -0.0692781713  -0.0041972392   0.0073678540  -0.0428488716   0.0193069317
       -0.0001471028  -0.0000204552  -0.0000693456  -0.0000099822  -0.0001970640
       -0.0000393982  -0.0000731947  -0.0001029554   0.0000261242   0.0000485794
       -0.0000357958   0.0000422128   0.0000101718   0.0000593475   0.0000480843
       -0.0000094507  -0.0000363482  -0.0000383648  -0.0000250850   0.0000076139
       -0.0000084818  -0.0000195789  -0.0000015740   0.0000026633   0.0000059704
        0.0000233511   0.0000009795  -0.0000096931  -0.0000018968  -0.0000291304
        0.0000052268   0.0000213897  -0.0000114785   0.0000136938   0.0000042885
       -0.0000093774  -0.0000220788   0.0000147920   0.0000060185  -0.0000180075
        0.0000134543  -0.0000022831  -0.0000090509   0.0000065122  -0.0000022733
        0.0000209088  -0.0000162984  -0.0000129234  -0.0000015042   0.0000032394
        0.0000031198   0.0000189263  -0.0000072860  -0.0000069068   0.0000097851
        0.0000076741   0.0000049886  -0.0000066935   0.0000203874   0.0000192934
        0.0000133830   0.0000006260  -0.0000087966  -0.0000029424   0.0000173309
        0.0000082472  -0.0000171499  -0.0000071116  -0.0000015031  -0.0000250208
        0.0000154048   0.0000221037  -0.0000169436  -0.0000117339  -0.0000140147
        0.0000319890   0.0000251145   0.0000479511   0.0000134992   0.0000166289
        0.0000254062  -0.0000225032  -0.0000168685   0.0000314387   0.0000029778
       -0.0000156309   0.0000164393  -0.0000099022   0.0000016165   0.0000065784
       -0.0000214731   0.0000184486  -0.0000070336   0.0000036253   0.0000233178
        0.0000082416  -0.0000074910   0.0000050886  -0.0000004641  -0.0000153392
       -0.0000005320   0.0000063157   0.0000112657   0.0000297512  -0.0000019983
       -0.0000066994   0.0000039968   0.0000034789  -0.0000198753  -0.0000010259
       -0.0000311487   0.0000100277  -0.0000152778  -0.0000063866   0.0000349553
        0.0000737077   0.0001096612
        0.0214438489  -0.0073620104   0.5150663839   0.0664455375  -0.0588469467
       -0.1303182152  -0.0000254908   0.0023075622   0.0056392893  -0.0022339397
       -0.0007916651   0.0000469529  -0.0005345662   0.0005002158   0.0008402306
       -0.0000874932   0.0000870881  -0.0004849124   0.0001693961  -0.0002567316
       -0.0004382438   0.0008970968  -0.0011197472  -0.0002942038  -0.0026111556
       -0.0009661255  -0.0046041850   0.0141599953  -0.0169751984  -0.0271155620
        0.0023248675  -0.0006019660   0.0007866741  -0.0001388601   0.0000932455
       -0.0001508439   0.0001343886  -0.0000407177   0.0002523721   0.0002471928
        0.0002936388  -0.0001962644  -0.0000520856  -0.0001143645   0.0001155932
       -0.0000953899  -0.0001109020  -0.0000214545  -0.0000072943  -0.0000741264
        0.0000047884  -0.0000488221   0.0000204139   0.0000234491  -0.0000006769
       -0.0000260874  -0.0000371156   0.0000596990   0.0000187059   0.0000171443
        0.0000068608  -0.0000188319   0.0000007952  -0.0000154564   0.0000068701
        0.0000217139   0.0000006944  -0.0000018517   0.0000171198  -0.0000064214
        0.0000006106   0.0000022162   0.0000040045   0.0000054674   0.0000137765
       -0.0000038262   0.0000104934   0.0000571016  -0.0000478295  -0.0001859132
       -0.0000213352  -0.0000123166  -0.0000533042  -0.0002385274   0.0000276107
        0.0000712400   0.0002799458   0.0000343545  -0.0000478353  -0.0000163023
       -0.0001633125   0.0000374414  -0.0000726733   0.0001199560  -0.0000772833
        0.0000304785  -0.0000706146   0.0001308083   0.0002122605   0.0000043709
       -0.0000901816  -0.0002109114   0.0001109765  -0.0000512261  -0.0000504554
       -0.0000247659  -0.0000135599  -0.0001245959  -0.0001157425   0.0000894682
        0.0000977891   0.0005591503   0.0000111266   0.0001976240  -0.0002086203
       -0.0002009006  -0.0003083041  -0.0001343691   0.0000419539   0.0015140563
        0.0004267304   0.0028442256  -0.0017656479  -0.0000334739   0.0002308320
       -0.0003534421  -0.0000349994   0.0000010875  -0.0000298581   0.0000852809
        0.0000274484   0.0000313765  -0.0000244553   0.0000048123   0.0000215385
       -0.0000664073   0.0000006513   0.0000303036  -0.0000084609   0.0000207209
        0.0000063449   0.0000110853  -0.0000069465   0.0000057989   0.0000039015
       -0.0000098663  -0.0000094847   0.0000165555  -0.0000144374   0.0000156815
       -0.0000623133   0.0000141087   0.0000340495   0.0000024491  -0.0001088220
       -0.0000922744  -0.0035945059   0.0630120764  -0.0585825768  -0.0109045636
       -0.0036748303  -0.0432064953  -0.0861597532   0.0218826033  -0.2565708612
       -0.0000094662  -0.0000498924   0.0000186504   0.0000156719   0.0000158455
        0.0000152350   0.0001443939  -0.0000498176  -0.0000368952   0.0000567069
        0.0000252261   0.0000569943   0.0000102612   0.0000510793  -0.0000004649
        0.0000111362   0.0000016909  -0.0000467853  -0.0000202368   0.0000069091
       -0.0000061609  -0.0000131489  -0.0000024275   0.0000031104   0.0000036494
        0.0000160153   0.0000035338  -0.0000088556  -0.0000033095  -0.0000135583
        0.0000034681   0.0000150950  -0.0000037534   0.0000094068  -0.0000002969
       -0.0000005821  -0.0000158912   0.0000098818   0.0000031632  -0.0000129483
        0.0000064743   0.0000022896  -0.0000096153   0.0000037066   0.0000028411
        0.0000129838  -0.0000143256  -0.0000091026  -0.0000011606   0.0000030804
        0.0000059709   0.0000093724  -0.0000025996   0.0000014396   0.0000137362
        0.0000062302   0.0000153314   0.0000063905   0.0000243732  -0.0000007611
        0.0000056764  -0.0000060294  -0.0000106535   0.0000008113   0.0000211193
        0.0000006296  -0.0000191610  -0.0000010115  -0.0000046556  -0.0000190190
        0.0000149327   0.0000106715  -0.0000063191  -0.0000276935  -0.0000203922
       -0.0000571314   0.0000054439  -0.0000115835   0.0000300326  -0.0000106753
        0.0000097170   0.0000071812  -0.0000137781  -0.0000020513   0.0000021663
       -0.0000088506   0.0000037981   0.0000078083  -0.0000126460  -0.0000053405
       -0.0000224192   0.0000118655   0.0000016622  -0.0000027470   0.0000205354
        0.0000032677   0.0000092871  -0.0000137199  -0.0000000011  -0.0000036777
        0.0000071263  -0.0000050923  -0.0000006626   0.0000135107   0.0000005139
        0.0000153329   0.0000019379  -0.0000071963  -0.0000170130  -0.0000046827
       -0.0000149213   0.0000358534  -0.0000071968  -0.0000019108   0.0000601247
        0.0000243366  -0.0000250602
       -0.1235687953   0.0528037333   0.0664455375   0.5937402473  -0.2720182587
       -0.0389225299  -0.3276757267   0.1319239548  -0.0940856287  -0.0599510151
        0.0586198730   0.0476289231   0.0112278677  -0.0088814321  -0.0068794664
       -0.0037028321   0.0021872099   0.0019226978   0.0105678078  -0.0051609385
        0.0019002462  -0.0095108247   0.0138708757   0.0112450948   0.0195520815
       -0.0044152386  -0.0002511526  -0.0700607231   0.0135744999   0.0209914557
       -0.0168807410   0.0006628573  -0.0239208660  -0.0039567246   0.0017052865
       -0.0019533487   0.0008264095   0.0012210961   0.0033840560  -0.0004782126
       -0.0014676062  -0.0014518185   0.0002434406   0.0003961501   0.0001423695
       -0.0000863515  -0.0000576459   0.0002662621   0.0000375171   0.0004273658
        0.0000814438  -0.0000072032  -0.0000499086  -0.0000100438  -0.0000007112
        0.0001379933   0.0000173604  -0.0001339041   0.0000308156   0.0000233910
       -0.0000919597   0.0000222142  -0.0000792658   0.0000324966   0.0000936456
       -0.0001646077  -0.0000085119   0.0000626185   0.0000898134  -0.0000081152
        0.0001306469   0.0000335169   0.0000691306  -0.0000027808  -0.0000637494
        0.0001649586   0.0000596476  -0.0000710007   0.0025301442  -0.0014026022
        0.0014294390  -0.0028342314   0.0011695346  -0.0007999054   0.0000655718
        0.0004375924   0.0001493502   0.0000035950  -0.0001553616   0.0000288409
        0.0000031758   0.0001708881  -0.0000194195  -0.0002822881   0.0001809252
       -0.0003602204   0.0004499972  -0.0005101035  -0.0008591419  -0.0000123626
        0.0003683274   0.0007741093   0.0001661178  -0.0000905624   0.0002166349
       -0.0004944317   0.0004485577   0.0009499616   0.0007394616  -0.0016235973
       -0.0008924041   0.0000718201  -0.0002389086  -0.0014160271   0.0021674142
       -0.0031417886  -0.0012848596   0.0000766283   0.0002263522  -0.0014682791
       -0.0002758579  -0.0008801765   0.0026682668  -0.0001031508  -0.0002378070
        0.0007688822   0.0007276868  -0.0007125978   0.0000913526  -0.0003238425
        0.0000550935   0.0001998933   0.0001844085   0.0002609013   0.0001968541
       -0.0003690628   0.0000809596   0.0001068325  -0.0000352770  -0.0001268946
       -0.0001356476   0.0000382726   0.0001430477  -0.0000026194   0.0000479423
        0.0000432810   0.0000110664   0.0000180746   0.0001728926  -0.0001677306
        0.0002396169   0.0003233427  -0.0003971651  -0.0004570582   0.0001516345
        0.0000310994  -0.0037621885   0.0094798263   0.0007056653  -0.0256396136
        0.0161643394   0.0188287454   0.0066572944  -0.0044401986  -0.0050438766
        0.0007245962   0.0010329537  -0.0002872900  -0.0000444931  -0.0000330509
        0.0000662159  -0.0001634395  -0.0001689017  -0.0000401655  -0.0005771510
       -0.0010795193  -0.0000897898   0.0001753977  -0.0002531179  -0.0009327693
       -0.0000780198   0.0000301055   0.0000712326  -0.0000148104   0.0000418934
        0.0000847654   0.0000697563  -0.0000066703  -0.0000131915  -0.0000102550
       -0.0001815046   0.0000671440   0.0000776807   0.0000318847   0.0001682677
       -0.0000165516  -0.0001160451   0.0000867311   0.0000217558  -0.0001201332
        0.0000779437   0.0000728085  -0.0000726557  -0.0000514850   0.0000823986
       -0.0000978390   0.0000081499   0.0000192958  -0.0001365883  -0.0000291990
       -0.0000944328   0.0000764687  -0.0001144733  -0.0000149102  -0.0000100402
       -0.0000299364  -0.0000077332   0.0000709567   0.0000246529   0.0000126289
        0.0000096565   0.0000170238  -0.0000356055  -0.0000318834  -0.0000927196
       -0.0000476228   0.0000161550   0.0000212667  -0.0000354907  -0.0001586684
       -0.0000175459  -0.0000007248   0.0000432814   0.0000564229   0.0000002911
        0.0000157735  -0.0000482341   0.0000327137   0.0001403947  -0.0000163682
       -0.0001536370  -0.0000049779   0.0003787774  -0.0000631204  -0.0001020168
        0.0000384658  -0.0000351089   0.0000206850  -0.0000010236  -0.0000938844
        0.0000257618  -0.0000038000   0.0000850439  -0.0001452021   0.0000140764
        0.0000185007  -0.0001111344  -0.0000796836  -0.0000324865  -0.0001140089
        0.0001683051   0.0000969771  -0.0001445924  -0.0000697037   0.0000219163
       -0.0001234284   0.0000667009  -0.0000072253  -0.0001685458   0.0000479099
        0.0000618921  -0.0000566135   0.0000067509   0.0000591664   0.0000349257
        0.0001241511  -0.0002168736   0.0000238728  -0.0000910853   0.0001732946
       -0.0003712031  -0.0002148774
        0.0547801064  -0.1025794525  -0.0588469467  -0.2720182587   0.3538658944
        0.1240066220   0.1453900789  -0.1320555056   0.0438919390   0.0426677138
       -0.0325836223  -0.0292311469  -0.0030902646   0.0051292554   0.0002388286
        0.0013817080  -0.0012766646  -0.0031193492  -0.0020375562   0.0006442962
       -0.0003259268   0.0058226357  -0.0029696988  -0.0043329393   0.0049607921
       -0.0053159766  -0.0205643523   0.0102029528  -0.0675234890  -0.0418903687
       -0.0071648577  -0.0001419863   0.0039741633   0.0030990425   0.0020435117
        0.0006973204  -0.0007525885  -0.0004370710  -0.0018622135  -0.0007971398
       -0.0003090495   0.0017160848   0.0000336895   0.0000371632  -0.0003223852
        0.0005712442   0.0005813406   0.0004204589  -0.0001336233  -0.0000542352
       -0.0000363471   0.0002051678   0.0000680556   0.0000449871   0.0001744557
        0.0000135405   0.0001206560  -0.0002599092  -0.0000452175  -0.0000553085
        0.0000261613   0.0001025170   0.0000084136   0.0000813173  -0.0000479062
       -0.0000252750   0.0000202459   0.0000040534  -0.0000896873   0.0000260121
       -0.0000059469  -0.0000185812  -0.0000053198  -0.0000948544  -0.0000780239
       -0.0001843536   0.0000008502  -0.0002825646  -0.0007722555   0.0013382985
       -0.0006365919   0.0002351818   0.0003402116   0.0007070423   0.0005140902
       -0.0000470030  -0.0007878734  -0.0001398028   0.0001026716   0.0000764492
       -0.0004328357  -0.0000743371  -0.0000470111  -0.0003295641   0.0002988340
       -0.0002609170   0.0002452568  -0.0004699404  -0.0008747642  -0.0000121006
        0.0003893694   0.0008918015  -0.0005620149   0.0003160932   0.0001426278
        0.0003146652  -0.0001008458   0.0003629890   0.0003892200  -0.0004575224
       -0.0002730480  -0.0004132122  -0.0005928985   0.0006517039   0.0005736299
       -0.0021075372  -0.0005630526   0.0022101989   0.0008040031   0.0020354852
       -0.0009417638   0.0005594595  -0.0027336824  -0.0004491535   0.0003786764
       -0.0005832719   0.0000453479  -0.0002784027   0.0002166581  -0.0002069867
       -0.0001722207   0.0001491195  -0.0002449528  -0.0000136004  -0.0001405274
        0.0001895963   0.0000669662   0.0002870510  -0.0000107381  -0.0000466415
       -0.0000134738   0.0000002573  -0.0000187436  -0.0000461426   0.0000349310
       -0.0000011475   0.0000204890  -0.0000297942   0.0000125054   0.0000166362
        0.0000275414  -0.0000351109  -0.0003389797  -0.0003669912   0.0001877654
        0.0005362618   0.0204759498  -0.0215817222  -0.0178942101  -0.0012637639
        0.0043563323   0.0064674778  -0.0018489807   0.0004007987  -0.0010477141
       -0.0003809032  -0.0003220183   0.0001203821  -0.0000719753  -0.0001141350
       -0.0000983890  -0.0000276024  -0.0003807463   0.0001765138   0.0003499127
        0.0008365052  -0.0001044359   0.0002422181  -0.0000991752  -0.0000862143
        0.0000302676   0.0000479856   0.0000367164   0.0000378766  -0.0000557341
       -0.0000009088   0.0000296100   0.0000223664  -0.0000017565  -0.0000106565
        0.0000104371   0.0000024056  -0.0000243876  -0.0000063892  -0.0000012172
       -0.0000188005   0.0000139396   0.0000144920  -0.0000284554   0.0000073669
        0.0000023506   0.0000239473  -0.0000189553  -0.0000041917   0.0000177994
       -0.0000094533   0.0000012060  -0.0000107707   0.0000309024   0.0000110510
       -0.0000039638  -0.0000026218   0.0000442361   0.0000229608  -0.0000093242
        0.0000101954  -0.0000444645   0.0000280092   0.0000032842  -0.0000266281
       -0.0000080686   0.0000348373   0.0000511602   0.0000582831  -0.0000757461
       -0.0000171722  -0.0000140479   0.0000116112  -0.0000021208  -0.0000154023
        0.0000002780   0.0000391682   0.0000136146  -0.0000114944   0.0000257847
       -0.0000340667  -0.0000360797   0.0000728514   0.0000110839  -0.0000299286
       -0.0001904369  -0.0001926807  -0.0001466473   0.0000618160  -0.0000269900
       -0.0000548847   0.0000302629   0.0000374940  -0.0000315492   0.0000075230
        0.0000177206   0.0000155833  -0.0000077506   0.0000067565   0.0000040731
        0.0000019914   0.0000080452   0.0000320104  -0.0000278345  -0.0000164166
       -0.0000446692   0.0000048432   0.0000117999  -0.0000051132  -0.0000322434
        0.0000475614   0.0000029048  -0.0000208105  -0.0000228106  -0.0000167245
       -0.0000020051  -0.0000146393  -0.0000069338   0.0000035834  -0.0000173882
        0.0000120036  -0.0000072964  -0.0000222094   0.0000048150  -0.0003277068
       -0.0004107119  -0.0001426559
        0.0588210867  -0.0465736989  -0.1303182152  -0.0389225299   0.1240066220
        0.4525036550  -0.0638459989   0.0192835600  -0.1087715787   0.0044630602
       -0.0018977976   0.0025280534   0.0074153157  -0.0114852552  -0.0079315130
       -0.0052265056  -0.0016607075  -0.0092274095   0.0198628045  -0.0108572834
        0.0053337860  -0.0122023431   0.0135548455   0.0149962235   0.0528921438
       -0.0437217666  -0.0522663463  -0.0274978748  -0.0316262512  -0.1330938774
       -0.0244526935   0.0094460114  -0.0173438992   0.0071943469   0.0026000970
        0.0051066010  -0.0002049669  -0.0002756507  -0.0005052340  -0.0012794668
       -0.0037904523   0.0015127398   0.0001607184   0.0013122505  -0.0011081033
        0.0005783905   0.0011450532   0.0006954705   0.0001978990   0.0006351154
       -0.0000819625   0.0004193464   0.0000439043   0.0001598518   0.0002424338
        0.0002542844   0.0002326731  -0.0005702861  -0.0000717219  -0.0001135205
       -0.0001073596   0.0001338798  -0.0000206648   0.0001568018   0.0000126713
       -0.0002079524   0.0000178457   0.0000519896  -0.0001055908   0.0000473865
        0.0001061852  -0.0000225748  -0.0000662461  -0.0000413314  -0.0002221039
       -0.0001162906   0.0000669052  -0.0005429756  -0.0001087671   0.0018811886
       -0.0001981360  -0.0014139655   0.0012660647   0.0025707221   0.0001880251
       -0.0008452246  -0.0033959108  -0.0003772794   0.0004828928   0.0002838660
        0.0008558769   0.0001612689   0.0010891826  -0.0016591469   0.0009298306
       -0.0011685407   0.0009946615  -0.0017371629  -0.0029298701  -0.0001226684
        0.0013046891   0.0027552324  -0.0009550529   0.0004267571   0.0007150147
        0.0000382680   0.0003586348   0.0021356344   0.0020783541  -0.0021683974
       -0.0017603092  -0.0010059894  -0.0001861811   0.0000366765   0.0032429928
       -0.0033806386  -0.0030383478   0.0009556761   0.0030828139   0.0041191093
       -0.0000153972   0.0011003453  -0.0042211261  -0.0002530762  -0.0009358187
       -0.0001013904   0.0002900953  -0.0003436134  -0.0007111895  -0.0005261798
       -0.0003779162  -0.0002348006   0.0004012442  -0.0000850400  -0.0001769072
        0.0001531570  -0.0001770797  -0.0004787991   0.0000115314  -0.0003021026
       -0.0001995636  -0.0000925249   0.0000795366  -0.0001250974   0.0000537281
        0.0000830382   0.0000346824  -0.0001103021   0.0002836428  -0.0001172765
        0.0004487003   0.0001941212  -0.0001753635   0.0001289705   0.0004507359
        0.0003343375  -0.0016271934  -0.0040673159   0.0085871002   0.0045996937
       -0.0019889597   0.0002838898   0.0154877629  -0.0155592968  -0.0248441196
        0.0004598145   0.0012994447  -0.0001571056   0.0000401890   0.0004180089
       -0.0004982539   0.0002500418  -0.0000840080   0.0001162600  -0.0002022149
       -0.0003894096  -0.0004161791  -0.0000824172  -0.0003619820  -0.0009372694
       -0.0000184266   0.0000612585   0.0001294716   0.0000637434  -0.0000603982
        0.0000690301   0.0001069238   0.0000187173  -0.0000079104  -0.0000278167
       -0.0001388197   0.0000723806   0.0000152056   0.0000139333   0.0001179358
       -0.0000502336  -0.0000705851   0.0001075138  -0.0000150934  -0.0000533666
        0.0000629295   0.0001133331  -0.0000857250  -0.0000473828   0.0001022252
       -0.0001058552   0.0000271274  -0.0000085606  -0.0000437370  -0.0000153062
       -0.0000714301   0.0000506771   0.0000340821   0.0000045311  -0.0000431533
        0.0000241595  -0.0000622821   0.0000306300   0.0000500317  -0.0000690462
       -0.0000971732   0.0000819791   0.0000131843  -0.0001322171   0.0000221298
       -0.0000379274  -0.0000111741   0.0000265755  -0.0000426186  -0.0003060809
        0.0000334061   0.0001352530   0.0000610542   0.0000091278   0.0000895079
       -0.0001001885  -0.0001551818   0.0001375474   0.0002789860  -0.0001138958
       -0.0000624588  -0.0000464313   0.0002032327  -0.0000445453  -0.0000122210
        0.0000277010   0.0000140147   0.0000656796   0.0000774859   0.0000122148
       -0.0000366963   0.0000727623  -0.0000280910  -0.0000338902   0.0000814199
        0.0000536469  -0.0000205390  -0.0000553319   0.0000366451  -0.0000560202
        0.0001823937  -0.0000537765  -0.0000767154  -0.0000194258   0.0000246522
       -0.0001943482   0.0000466387   0.0000198082  -0.0000835409   0.0000456186
       -0.0000687283  -0.0001088226   0.0000707100   0.0000470965   0.0000246273
        0.0000728634  -0.0001787255   0.0000764374   0.0000039117  -0.0002533983
       -0.0002286265   0.0003001325
       -0.0211937540   0.0130406368  -0.0000254908  -0.3276757267   0.1453900789
       -0.0638459989   0.4781618348  -0.2192398526   0.0921470678  -0.0650168606
        0.0186938686   0.0378974847  -0.0202190633   0.0213789370   0.0287240884
       -0.0009024018   0.0041073980  -0.0019496788  -0.0075126426   0.0052143085
        0.0014938060   0.0056384042  -0.0047963354  -0.0086453014  -0.0003494939
        0.0082063067   0.0078914181  -0.0404650710   0.0151591381  -0.0921786621
        0.0009811506  -0.0086001122  -0.0046850827   0.0035453102   0.0009054439
        0.0037099328  -0.0059383704  -0.0027571228  -0.0055459113   0.0019617809
        0.0049272166   0.0006366654  -0.0000455667  -0.0014475337   0.0008038026
       -0.0005871783  -0.0008534862  -0.0010634105  -0.0002393801  -0.0010657588
       -0.0000371605  -0.0002692938   0.0000758065  -0.0000972221  -0.0000531979
       -0.0001766680  -0.0000910910   0.0004156424   0.0000106659  -0.0000162625
        0.0001044083  -0.0001146733   0.0001331752  -0.0001328945  -0.0000885479
        0.0002873999  -0.0000136326  -0.0000961219  -0.0000473750  -0.0000217260
       -0.0001712500  -0.0000323972  -0.0000642765   0.0001028733   0.0001176011
       -0.0002114743   0.0000263552   0.0003948999  -0.0005952174   0.0017759945
       -0.0002033706   0.0025711703  -0.0011956140   0.0000883175  -0.0000185462
       -0.0003728419   0.0008534317   0.0000772787   0.0000982138  -0.0001612093
       -0.0001866528  -0.0000526674  -0.0001381169   0.0004739656  -0.0003966474
        0.0004809968  -0.0005644636   0.0008040767   0.0014458351   0.0000382065
       -0.0006251814  -0.0014024135   0.0002129204  -0.0001113365  -0.0003143149
        0.0002698426  -0.0003886396  -0.0012613150  -0.0008574109   0.0017084330
        0.0009674787  -0.0030746495  -0.0000460085  -0.0009478564   0.0009918081
        0.0037519093   0.0037806793  -0.0014438575  -0.0019779579  -0.0025199080
        0.0006661770   0.0000126827   0.0006892210   0.0002739940   0.0005803135
       -0.0003077359  -0.0004799220   0.0013427272   0.0003013478   0.0005992519
       -0.0000643787  -0.0003966373  -0.0001572405  -0.0001514560   0.0001211159
        0.0000027657   0.0000271161  -0.0000710975   0.0000018199   0.0002176993
        0.0002166619   0.0000336576  -0.0002279595   0.0000736253  -0.0000892957
       -0.0002068077  -0.0000053976   0.0000428061  -0.0003230380   0.0002381666