 Entering Gaussian System
 *********************************************
 Gaussian 98:
 frequency output generated by the xtb code
 *********************************************
                         Standard orientation:
 --------------------------------------------------------------------
  Center     Atomic     Atomic              Coordinates (Angstroms)
  Number     Number      Type              X           Y           Z
 --------------------------------------------------------------------
    1          6             0        2.441047    4.000050   -3.255446
    2          6             0        2.553592    4.639978   -1.922482
    3          7             0        3.209833    5.728510   -1.679787
    4          6             0        3.077232    5.972296   -0.332937
    5          6             0        3.560295    7.016637    0.444254
    6          6             0        3.247504    7.009988    1.788965
    7          6             0        2.465721    6.002248    2.353498
    8          6             0        1.972846    4.955642    1.596407
    9          6             0        2.305751    4.946799    0.254792
   10          7             0        1.967941    4.102035   -0.786920
   11          6             0        1.238225    2.921807   -0.684898
   12          6             0        0.073698    2.755074   -1.438921
   13          6             0       -0.690285    1.614092   -1.330508
   14         16             0       -2.177792    1.564234   -2.380263
   15          8             0       -1.866893    0.784631   -3.554859
   16          8             0       -2.532355    2.947640   -2.606816
   17          6             0       -3.461785    0.780156   -1.427583
   18          6             0       -3.847990    1.372859   -0.239968
   19          6             0       -4.815865    0.761177    0.531837
   20          6             0       -5.412538   -0.436774    0.132954
   21          6             0       -6.428456   -1.099363    1.046842
   22          6             0       -5.716214   -1.449647    2.362638
   23          6             0       -7.003451   -2.387588    0.452774
   24          6             0       -7.590232   -0.130713    1.312129
   25          6             0       -5.023906   -0.988184   -1.084097
   26          6             0       -4.049612   -0.388033   -1.864355
   27          6             0       -0.325207    0.596285   -0.451540
   28          7             0       -1.084034   -0.568785   -0.300169
   29          6             0       -1.781200   -0.967046    0.829575
   30          6             0       -1.800398   -0.156519    2.069063
   31          7             0       -2.389680   -2.098202    0.667567
   32          6             0       -2.091817   -2.524082   -0.604665
   33          6             0       -2.455025   -3.685031   -1.275533
   34          6             0       -1.976080   -3.858306   -2.558336
   35          6             0       -1.143760   -2.915911   -3.164147
   36          6             0       -0.765388   -1.756698   -2.513344
   37          6             0       -1.266608   -1.568352   -1.238104
   38          6             0        0.841796    0.757705    0.296010
   39          6             0        1.618546    1.891200    0.174335
   40         16             0        3.176382    1.882035    1.117346
   41          8             0        2.849303    2.134519    2.501173
   42          8             0        4.129314    2.753822    0.480394
   43          6             0        3.726202    0.189757    0.942950
   44          6             0        4.262402   -0.216403   -0.262477
   45          6             0        4.675343   -1.529200   -0.417364
   46          6             0        4.559027   -2.448400    0.623032
   47          6             0        4.997641   -3.897766    0.491366
   48          6             0        6.095704   -4.178709    1.528479
   49          6             0        5.554991   -4.222499   -0.897569
   50          6             0        3.787700   -4.808833    0.749777
   51          6             0        4.020961   -2.003875    1.832127
   52          6             0        3.605002   -0.696245    1.997350
   53          1             0        2.514884    2.917640   -3.172828
   54          1             0        1.487282    4.246222   -3.722265
   55          1             0        3.238953    4.377579   -3.888592
   56          1             0        4.153771    7.800244    0.000732
   57          1             0        3.610832    7.805732    2.422332
   58          1             0        2.239722    6.038593    3.408649
   59          1             0        1.376317    4.173844    2.040858
   60          1             0       -0.271583    3.535141   -2.099622
   61          1             0       -3.389299    2.303680    0.058184
   62          1             0       -5.100831    1.224607    1.462416
   63          1             0       -6.382356   -2.020895    3.004675
   64          1             0       -4.830017   -2.045691    2.155070
   65          1             0       -5.414456   -0.553668    2.897377
   66          1             0       -6.221724   -3.126537    0.299472
   67          1             0       -7.508879   -2.194434   -0.490522
   68          1             0       -7.732130   -2.807510    1.142748
   69          1             0       -8.325454   -0.605181    1.957865
   70          1             0       -7.252218    0.780522    1.796508
   71          1             0       -8.076395    0.139593    0.377023
   72          1             0       -5.464175   -1.903515   -1.439601
   73          1             0       -3.731003   -0.815449   -2.802212
   74          1             0       -0.873039   -0.289071    2.625920
   75          1             0       -1.911734    0.900058    1.837262
   76          1             0       -2.626560   -0.489006    2.689444
   77          1             0       -3.080358   -4.421945   -0.798121
   78          1             0       -2.241440   -4.748846   -3.108440
   79          1             0       -0.783627   -3.096630   -4.165726
   80          1             0       -0.127669   -1.026012   -2.984962
   81          1             0        1.155181   -0.025256    0.969008
   82          1             0        4.365309    0.501902   -1.060867
   83          1             0        5.093059   -1.823351   -1.365038
   84          1             0        6.940505   -3.510949    1.372907
   85          1             0        6.443949   -5.204097    1.429271
   86          1             0        5.732800   -4.039489    2.542582
   87          1             0        4.807194   -4.057231   -1.669461
   88          1             0        5.844467   -5.270437   -0.932001
   89          1             0        6.437200   -3.625631   -1.116328
   90          1             0        2.992105   -4.591800    0.039796
   91          1             0        4.078828   -5.849986    0.633016
   92          1             0        3.395401   -4.677267    1.753794
   93          1             0        3.922966   -2.683271    2.663553
   94          1             0        3.196797   -0.342216    2.931579
 --------------------------------------------------------------------
     1 basis functions        1 primitive gaussians
     1 alpha electrons        1 beta electrons
 
 Harmonic frequencies (cm**-1), IR intensities (km*mol⁻¹),
 Raman scattering activities (A**4/amu), Raman depolarization ratios,
 reduced masses (AMU), force constants (mDyne/A) and normal coordinates:
                      1                      2                      3
                        a                      a                      a 
 Frequencies --    -9.1232                 2.2384                 9.1393
 Red. masses --     9.4331                11.9466                10.7325
 Frc consts  --     0.0000                 0.0000                 0.0000
 IR Inten    --     0.3631                 1.2538                 0.4104
 Raman Activ --     0.0000                 0.0000                 0.0000
 Depolar     --     0.0000                 0.0000                 0.0000
 Atom AN      X      Y      Z        X      Y      Z        X      Y      Z
   1   6     0.07  -0.07  -0.00    -0.02   0.02   0.01     0.02  -0.01   0.01
   2   6     0.04  -0.05  -0.01    -0.02   0.01   0.02     0.00  -0.03   0.02
   3   7     0.03  -0.04  -0.02    -0.03   0.02   0.02    -0.01  -0.03   0.04
   4   6    -0.00  -0.02  -0.03    -0.02   0.01   0.02    -0.03  -0.04   0.03
   5   6    -0.02  -0.01  -0.03    -0.02   0.01   0.02    -0.05  -0.04   0.05
   6   6    -0.05   0.01  -0.04    -0.01   0.00   0.02    -0.06  -0.05   0.05
   7   6    -0.06   0.02  -0.04     0.01  -0.01   0.03    -0.06  -0.06   0.03
   8   6    -0.04   0.01  -0.03     0.02  -0.01   0.03    -0.04  -0.06   0.01
   9   6    -0.01  -0.01  -0.03     0.00  -0.00   0.02    -0.03  -0.05   0.02
  10   7     0.01  -0.03  -0.02    -0.00  -0.00   0.02    -0.01  -0.04   0.01
  11   6     0.01  -0.02  -0.02     0.01  -0.00   0.03    -0.00  -0.05  -0.01
  12   6     0.01  -0.02  -0.02     0.02  -0.03   0.01     0.00  -0.04  -0.02
  13   6     0.00  -0.02  -0.02     0.02  -0.03   0.02    -0.00  -0.04  -0.03
  14  16    -0.02   0.00  -0.01     0.10  -0.13  -0.05    -0.00  -0.04  -0.05
  15   8    -0.04   0.00  -0.02     0.13  -0.16   0.03    -0.02  -0.06  -0.02
  16   8     0.00   0.01   0.01     0.08  -0.10  -0.13     0.03  -0.03  -0.06
  17   6    -0.00   0.01   0.01     0.03  -0.04  -0.04    -0.02   0.02  -0.02
  18   6     0.02   0.01   0.02    -0.02   0.02  -0.09     0.00   0.04  -0.02
  19   6     0.03   0.01   0.04    -0.05   0.06  -0.10    -0.02   0.08  -0.01
  20   6     0.01   0.02   0.04    -0.03   0.03  -0.06    -0.05   0.09  -0.00
  21   6     0.02   0.03   0.06    -0.06   0.07  -0.06    -0.08   0.13   0.00
  22   6     0.04   0.02   0.04    -0.10   0.12  -0.03    -0.09   0.12   0.01
  23   6     0.00   0.03   0.06    -0.04   0.05  -0.03    -0.12   0.15   0.01
  24   6     0.04   0.03   0.08    -0.07   0.08  -0.14    -0.04   0.17  -0.01
  25   6    -0.01   0.02   0.03     0.02  -0.03  -0.01    -0.07   0.07   0.00
  26   6    -0.02   0.02   0.02     0.05  -0.06  -0.01    -0.05   0.03  -0.00
  27   6    -0.00  -0.02  -0.02     0.00   0.00   0.06    -0.01  -0.04  -0.02
  28   7    -0.01  -0.01  -0.02    -0.00   0.01   0.09    -0.04  -0.03  -0.02
  29   6     0.01  -0.01  -0.01    -0.05   0.06   0.08    -0.05   0.00  -0.01
  30   6     0.03  -0.02  -0.00    -0.10   0.13   0.04    -0.03   0.01  -0.02
  31   7    -0.00  -0.01  -0.00    -0.04   0.06   0.12    -0.09   0.02  -0.01
  32   6    -0.03  -0.01  -0.01     0.01  -0.01   0.14    -0.10   0.01  -0.01
  33   6    -0.04   0.00  -0.01     0.05  -0.04   0.19    -0.14   0.02  -0.00
  34   6    -0.07   0.00  -0.02     0.10  -0.11   0.22    -0.15  -0.01  -0.00
  35   6    -0.07   0.00  -0.03     0.13  -0.14   0.20    -0.11  -0.04  -0.01
  36   6    -0.05  -0.01  -0.03     0.09  -0.10   0.16    -0.07  -0.05  -0.01
  37   6    -0.03  -0.01  -0.02     0.04  -0.04   0.13    -0.07  -0.02  -0.01
  38   6    -0.00  -0.02  -0.02    -0.01   0.02   0.08    -0.01  -0.05  -0.02
  39   6    -0.00  -0.02  -0.01    -0.00   0.02   0.06    -0.01  -0.05  -0.01
  40  16    -0.04  -0.01   0.05    -0.01   0.01   0.09    -0.05  -0.08   0.02
  41   8    -0.10  -0.04   0.03    -0.01  -0.05   0.08    -0.07  -0.09   0.01
  42   8    -0.02   0.02   0.09    -0.01   0.04   0.10    -0.03  -0.03   0.06
  43   6     0.01   0.01   0.02     0.00   0.02  -0.01     0.01  -0.03  -0.00
  44   6     0.23   0.09   0.10    -0.00   0.07  -0.03     0.01  -0.01  -0.01
  45   6     0.25   0.09   0.08    -0.01   0.07  -0.09     0.08   0.01  -0.01
  46   6     0.05   0.02  -0.00    -0.02   0.03  -0.13     0.17   0.01  -0.00
  47   6     0.05   0.02  -0.03    -0.04   0.03  -0.20     0.28   0.05   0.01
  48   6    -0.19  -0.09   0.20    -0.05  -0.05  -0.21     0.35   0.17  -0.04
  49   6     0.36   0.13   0.07    -0.03   0.09  -0.21     0.23   0.06  -0.01
  50   6    -0.03   0.03  -0.38    -0.05   0.03  -0.26     0.37  -0.05   0.09
  51   6    -0.18  -0.06  -0.07    -0.01  -0.02  -0.11     0.16  -0.01   0.00
  52   6    -0.19  -0.06  -0.06     0.00  -0.03  -0.05     0.09  -0.03   0.00
  53   1     0.03  -0.02   0.01    -0.02   0.01   0.00     0.00  -0.00   0.00
  54   1     0.02  -0.03  -0.00    -0.00   0.02   0.00     0.01  -0.00  -0.00
  55   1     0.02  -0.02  -0.00    -0.00  -0.00   0.01     0.01  -0.00   0.01
  56   1    -0.00  -0.00  -0.01    -0.01   0.01   0.00    -0.01  -0.01   0.02
  57   1    -0.02   0.01  -0.01    -0.00   0.00   0.01    -0.02  -0.02   0.02
  58   1    -0.02   0.01  -0.01     0.01  -0.01   0.01    -0.02  -0.02   0.01
  59   1    -0.01   0.00  -0.01     0.01  -0.01   0.01    -0.01  -0.02   0.00
  60   1     0.00  -0.01  -0.01     0.01  -0.01  -0.01     0.00  -0.01  -0.01
  61   1     0.01   0.00   0.01    -0.01   0.01  -0.03     0.01   0.01  -0.01
  62   1     0.02   0.00   0.01    -0.03   0.03  -0.04    -0.00   0.03  -0.01
  63   1     0.01   0.01   0.02    -0.03   0.04  -0.01    -0.03   0.04   0.00
  64   1     0.01   0.00   0.01    -0.03   0.03   0.01    -0.03   0.03   0.00
  65   1     0.02   0.00   0.01    -0.03   0.04  -0.02    -0.02   0.03  -0.00
  66   1    -0.00   0.01   0.01    -0.01   0.01   0.01    -0.04   0.03   0.01
  67   1    -0.00   0.01   0.02    -0.00   0.00  -0.02    -0.03   0.04   0.00
  68   1     0.00   0.01   0.02    -0.02   0.02  -0.01    -0.04   0.05   0.01
  69   1     0.01   0.01   0.03    -0.03   0.03  -0.04    -0.02   0.06  -0.00
  70   1     0.01   0.01   0.02    -0.02   0.03  -0.05    -0.00   0.05  -0.00
  71   1     0.01   0.01   0.03    -0.01   0.01  -0.05    -0.01   0.05  -0.00
  72   1    -0.01   0.01   0.01     0.01  -0.01   0.00    -0.03   0.02   0.00
  73   1    -0.01   0.01   0.00     0.03  -0.03   0.01    -0.02   0.00  -0.00
  74   1     0.01  -0.02  -0.00    -0.03   0.06   0.01    -0.01  -0.00  -0.01
  75   1     0.02  -0.00   0.00    -0.04   0.03  -0.01    -0.00   0.00  -0.01
  76   1     0.01   0.00  -0.00    -0.03   0.03   0.01    -0.01   0.01  -0.00
  77   1    -0.01   0.00  -0.00     0.01  -0.01   0.06    -0.05   0.01   0.00
  78   1    -0.02   0.00  -0.01     0.04  -0.04   0.07    -0.05   0.00   0.00
  79   1    -0.03   0.00  -0.01     0.05  -0.05   0.07    -0.03  -0.02  -0.00
  80   1    -0.02  -0.00  -0.01     0.03  -0.04   0.04    -0.01  -0.02  -0.00
  81   1    -0.00  -0.01  -0.00    -0.01   0.01   0.03    -0.01  -0.01  -0.01
  82   1     0.11   0.04   0.05     0.00   0.03   0.00    -0.01  -0.00  -0.01
  83   1     0.12   0.05   0.04    -0.00   0.03  -0.03     0.02   0.01  -0.01
  84   1    -0.04  -0.03   0.13    -0.01  -0.02  -0.05     0.08   0.07  -0.03
  85   1    -0.06  -0.03   0.05    -0.02  -0.01  -0.07     0.13   0.06  -0.01
  86   1    -0.12  -0.05   0.04    -0.02  -0.03  -0.06     0.11   0.04  -0.01
  87   1     0.16   0.06  -0.02    -0.01   0.04  -0.06     0.05  -0.00   0.01
  88   1     0.10   0.04   0.02    -0.01   0.03  -0.08     0.09   0.02  -0.00
  89   1     0.12   0.04   0.09    -0.01   0.03  -0.05     0.05   0.03  -0.02
  90   1     0.04   0.03  -0.16    -0.01   0.02  -0.07     0.09  -0.04   0.04
  91   1    -0.01   0.01  -0.11    -0.02   0.01  -0.09     0.13  -0.01   0.03
  92   1    -0.08  -0.01  -0.14    -0.02  -0.00  -0.07     0.12  -0.02   0.03
  93   1    -0.10  -0.03  -0.04    -0.00  -0.02  -0.04     0.07  -0.00   0.00
  94   1    -0.10  -0.04  -0.03     0.00  -0.02  -0.01     0.03  -0.01   0.00
                      4                      5                      6
                        a                      a                      a 
 Frequencies --    16.9838                21.7738                27.1590
 Red. masses --    11.9147                14.4404                11.8882
 Frc consts  --     0.0000                 0.0000                 0.0000
 IR Inten    --     0.1933                 0.6103                 0.1928
 Raman Activ --     0.0000                 0.0000                 0.0000
 Depolar     --     0.0000                 0.0000                 0.0000
 Atom AN      X      Y      Z        X      Y      Z        X      Y      Z
   1   6    -0.08  -0.08  -0.02     0.08  -0.16  -0.02     0.12   0.03   0.00
   2   6    -0.01  -0.05  -0.04     0.07  -0.11  -0.05     0.10  -0.00   0.02
   3   7     0.05  -0.08  -0.10     0.10  -0.12  -0.09     0.17  -0.06   0.09
   4   6     0.11  -0.04  -0.09     0.07  -0.05  -0.10     0.10  -0.07   0.08
   5   6     0.18  -0.04  -0.14     0.07  -0.02  -0.13     0.13  -0.13   0.13
   6   6     0.24  -0.00  -0.12     0.04   0.05  -0.14     0.06  -0.14   0.12
   7   6     0.23   0.04  -0.07     0.02   0.09  -0.11    -0.06  -0.09   0.05
   8   6     0.16   0.04  -0.02     0.01   0.06  -0.07    -0.09  -0.04  -0.01
   9   6     0.10   0.00  -0.04     0.03  -0.00  -0.07    -0.01  -0.03   0.01
  10   7     0.02  -0.01  -0.01     0.04  -0.05  -0.04    -0.00   0.02  -0.03
  11   6    -0.01   0.02   0.04     0.02  -0.03   0.00    -0.02   0.02  -0.06
  12   6    -0.04   0.04   0.07     0.04  -0.04  -0.03    -0.02   0.03  -0.07
  13   6    -0.05   0.05   0.09     0.03  -0.03  -0.02    -0.04   0.05  -0.07
  14  16    -0.09   0.11   0.15     0.04  -0.02  -0.03    -0.05   0.11  -0.13
  15   8    -0.03   0.14   0.07    -0.00   0.00  -0.04    -0.02   0.09  -0.10
  16   8    -0.09   0.08   0.16     0.04  -0.01   0.01    -0.03   0.08  -0.08
  17   6    -0.06   0.01   0.04     0.03  -0.01  -0.01    -0.03   0.05  -0.09
  18   6    -0.12  -0.03   0.04     0.07  -0.03   0.02    -0.03   0.04  -0.09
  19   6    -0.13  -0.08  -0.02     0.08  -0.03   0.03     0.01  -0.00  -0.07
  20   6    -0.09  -0.08  -0.07     0.05  -0.01   0.02     0.06  -0.04  -0.05
  21   6    -0.11  -0.13  -0.13     0.07  -0.02   0.03     0.14  -0.10  -0.01
  22   6    -0.16  -0.14  -0.11     0.10  -0.06  -0.00     0.25  -0.10  -0.06
  23   6    -0.06  -0.12  -0.19     0.02   0.01   0.02     0.16  -0.11  -0.00
  24   6    -0.15  -0.16  -0.16     0.09  -0.00   0.10     0.12  -0.17   0.10
  25   6    -0.03  -0.04  -0.07     0.00   0.01  -0.01     0.05  -0.02  -0.06
  26   6    -0.01   0.00  -0.02    -0.01   0.01  -0.02     0.01   0.03  -0.08
  27   6    -0.05   0.04   0.08    -0.01  -0.01   0.02    -0.06   0.05  -0.05
  28   7    -0.06   0.05   0.08    -0.00  -0.02   0.01    -0.09   0.08  -0.01
  29   6    -0.06   0.03   0.06     0.01  -0.05   0.00    -0.02   0.11   0.04
  30   6    -0.09   0.03   0.06     0.02  -0.09   0.03    -0.01   0.17  -0.00
  31   7    -0.05   0.02   0.05     0.00  -0.04  -0.03     0.01   0.08   0.13
  32   6    -0.02   0.03   0.05    -0.01  -0.00  -0.05    -0.03   0.02   0.13
  33   6     0.00   0.03   0.03    -0.02   0.02  -0.08    -0.02  -0.03   0.21
  34   6     0.02   0.05   0.04    -0.03   0.05  -0.09    -0.07  -0.08   0.20
  35   6     0.01   0.07   0.05    -0.03   0.07  -0.06    -0.14  -0.07   0.11
  36   6    -0.01   0.07   0.06    -0.02   0.05  -0.03    -0.15  -0.03   0.03
  37   6    -0.03   0.05   0.06    -0.01   0.01  -0.02    -0.09   0.02   0.05
  38   6    -0.03   0.03   0.06    -0.05   0.02   0.07    -0.06   0.03  -0.05
  39   6    -0.01   0.01   0.04    -0.04   0.01   0.07    -0.04   0.02  -0.05
  40  16     0.01  -0.02   0.02    -0.17   0.02   0.30    -0.09   0.00  -0.05
  41   8     0.03  -0.01   0.02    -0.26  -0.07   0.19    -0.09  -0.00  -0.04
  42   8     0.01  -0.02   0.00    -0.08   0.07   0.35    -0.04  -0.01  -0.02
  43   6    -0.00  -0.01  -0.00    -0.07   0.03   0.13    -0.07  -0.00  -0.03
  44   6     0.03   0.01   0.01    -0.11   0.09   0.09    -0.05   0.00  -0.02
  45   6     0.06   0.02   0.01    -0.10   0.10   0.02    -0.03   0.01  -0.02
  46   6     0.06   0.01  -0.00    -0.05   0.06  -0.01    -0.02   0.01  -0.01
  47   6     0.10   0.02  -0.00    -0.03   0.07  -0.09     0.02   0.02   0.00
  48   6     0.08   0.04   0.03     0.07   0.07  -0.20     0.04   0.07   0.00
  49   6     0.16   0.05   0.02    -0.16   0.11  -0.15     0.02   0.02   0.00
  50   6     0.12  -0.01  -0.05     0.01   0.03   0.00     0.05  -0.02   0.03
  51   6     0.02  -0.01  -0.01     0.00   0.00   0.03    -0.04   0.01  -0.02
  52   6    -0.01  -0.02  -0.01    -0.01  -0.01   0.10    -0.06   0.00  -0.03
  53   1    -0.03  -0.02  -0.00     0.00  -0.05   0.01     0.02   0.01  -0.01
  54   1    -0.03  -0.02   0.00     0.03  -0.03  -0.02     0.04   0.02  -0.01
  55   1    -0.03  -0.04  -0.02     0.04  -0.07  -0.00     0.05   0.00   0.01
  56   1     0.06  -0.02  -0.05     0.03  -0.02  -0.05     0.06  -0.05   0.05
  57   1     0.09  -0.00  -0.04     0.01   0.02  -0.05     0.02  -0.05   0.04
  58   1     0.08   0.02  -0.02    -0.00   0.04  -0.03    -0.03  -0.03   0.01
  59   1     0.04   0.02   0.01    -0.00   0.02  -0.01    -0.05  -0.00  -0.02
  60   1    -0.01   0.01   0.02     0.02  -0.02  -0.02     0.00   0.01  -0.02
  61   1    -0.04  -0.01   0.02     0.03  -0.01   0.01    -0.02   0.02  -0.03
  62   1    -0.05  -0.03  -0.00     0.03  -0.01   0.01     0.00  -0.01  -0.02
  63   1    -0.05  -0.05  -0.04     0.03  -0.02   0.00     0.10  -0.05  -0.01
  64   1    -0.04  -0.03  -0.03     0.03  -0.02  -0.01     0.08  -0.01  -0.04
  65   1    -0.06  -0.04  -0.02     0.04  -0.02   0.01     0.06  -0.03  -0.01
  66   1    -0.01  -0.03  -0.05     0.00  -0.00  -0.01     0.05  -0.02  -0.01
  67   1    -0.01  -0.03  -0.06    -0.00   0.01   0.01     0.03  -0.03   0.01
  68   1    -0.02  -0.04  -0.07     0.01   0.00   0.01     0.06  -0.04   0.01
  69   1    -0.05  -0.05  -0.06     0.03  -0.00   0.03     0.05  -0.06   0.04
  70   1    -0.05  -0.05  -0.04     0.04  -0.01   0.03     0.03  -0.05   0.03
  71   1    -0.03  -0.04  -0.05     0.02   0.01   0.04     0.01  -0.05   0.04
  72   1     0.00  -0.01  -0.03    -0.01   0.01  -0.00     0.02  -0.01  -0.01
  73   1     0.01   0.01  -0.01    -0.01   0.01  -0.01     0.00   0.01  -0.03
  74   1    -0.02   0.02   0.02    -0.00  -0.05   0.02     0.01   0.07  -0.01
  75   1    -0.04   0.01   0.02     0.03  -0.02   0.02    -0.02   0.04  -0.02
  76   1    -0.02  -0.00   0.02    -0.01  -0.02  -0.00     0.01   0.05   0.02
  77   1     0.00   0.01   0.01    -0.01   0.00  -0.03     0.01  -0.01   0.08
  78   1     0.01   0.01   0.01    -0.01   0.02  -0.03    -0.02  -0.03   0.08
  79   1     0.01   0.02   0.02    -0.01   0.03  -0.02    -0.05  -0.03   0.03
  80   1    -0.01   0.02   0.02    -0.00   0.02  -0.00    -0.06  -0.01  -0.01
  81   1    -0.01   0.01   0.01    -0.02   0.01   0.04    -0.02   0.01  -0.01
  82   1     0.01   0.01   0.00    -0.04   0.03   0.03    -0.01  -0.00  -0.01
  83   1     0.03   0.01   0.00    -0.04   0.04  -0.00    -0.01   0.00  -0.00
  84   1     0.02   0.02   0.02     0.01   0.02  -0.08     0.00   0.03  -0.00
  85   1     0.03   0.02   0.01     0.02   0.02  -0.07     0.02   0.02   0.00
  86   1     0.01   0.01   0.01     0.05   0.01  -0.05     0.01   0.02   0.00
  87   1     0.05   0.01  -0.00    -0.07   0.04  -0.02     0.00  -0.00   0.00
  88   1     0.06   0.02   0.00    -0.05   0.03  -0.06     0.01   0.01   0.00
  89   1     0.04   0.02   0.01    -0.05   0.03  -0.06     0.00   0.01  -0.00
  90   1     0.04  -0.01  -0.02    -0.02   0.01   0.03     0.01  -0.02   0.01
  91   1     0.05  -0.00  -0.01     0.01   0.01  -0.02     0.03  -0.00   0.01
  92   1     0.02  -0.01  -0.02     0.03  -0.01   0.02     0.02  -0.00   0.01
  93   1     0.00  -0.01  -0.01     0.02  -0.01   0.00    -0.01   0.00  -0.00
  94   1    -0.01  -0.01  -0.00     0.01  -0.02   0.04    -0.02  -0.00  -0.01
                      7                      8                      9
                        a                      a                      a 
 Frequencies --    28.9011                34.1497                36.3972
 Red. masses --    11.3548                11.6890                12.7022
 Frc consts  --     0.0000                 0.0000                 0.0000
 IR Inten    --     1.5746                 0.3165                 0.4165
 Raman Activ --     0.0000                 0.0000                 0.0000
 Depolar     --     0.0000                 0.0000                 0.0000
 Atom AN      X      Y      Z        X      Y      Z        X      Y      Z
   1   6     0.12  -0.05   0.00     0.35  -0.16   0.05    -0.07   0.07  -0.00
   2   6     0.04  -0.01  -0.01     0.23  -0.12   0.03    -0.01   0.02   0.02
   3   7    -0.05   0.06  -0.02     0.30  -0.16   0.08     0.09  -0.05   0.05
   4   6    -0.10   0.07  -0.03     0.11  -0.09   0.05     0.10  -0.07   0.06
   5   6    -0.21   0.13  -0.04     0.07  -0.10   0.09     0.22  -0.15   0.09
   6   6    -0.25   0.14  -0.05    -0.12  -0.03   0.04     0.22  -0.17   0.10
   7   6    -0.16   0.08  -0.04    -0.27   0.04  -0.03     0.10  -0.10   0.06
   8   6    -0.05   0.02  -0.03    -0.23   0.05  -0.06    -0.01  -0.02   0.02
   9   6    -0.02   0.02  -0.02    -0.04  -0.01  -0.02    -0.00  -0.02   0.02
  10   7     0.07  -0.03  -0.01     0.04  -0.03  -0.04    -0.08   0.05  -0.00
  11   6     0.08  -0.04  -0.01     0.01  -0.02  -0.04    -0.05   0.03  -0.00
  12   6     0.08  -0.04  -0.00     0.00  -0.01  -0.03    -0.03  -0.03  -0.02
  13   6     0.06  -0.03   0.02    -0.01   0.00   0.01     0.01  -0.06  -0.01
  14  16     0.08   0.02   0.05    -0.08   0.00   0.10     0.04  -0.21  -0.04
  15   8     0.05   0.08  -0.01    -0.09   0.02   0.05     0.04  -0.18  -0.00
  16   8     0.06   0.03   0.11    -0.07   0.00   0.11    -0.01  -0.17  -0.08
  17   6     0.05  -0.02   0.00    -0.02  -0.02   0.08     0.03  -0.11  -0.00
  18   6     0.08  -0.09   0.05    -0.06  -0.01   0.06     0.10  -0.14   0.03
  19   6     0.06  -0.10   0.01    -0.08  -0.01   0.04     0.08  -0.11   0.03
  20   6     0.01  -0.04  -0.07    -0.05  -0.02   0.04    -0.02  -0.04  -0.01
  21   6    -0.02  -0.06  -0.11    -0.10  -0.00   0.01    -0.06   0.00  -0.02
  22   6    -0.02  -0.20  -0.15    -0.20   0.09   0.08    -0.05  -0.16  -0.07
  23   6    -0.10   0.02  -0.21    -0.02  -0.05   0.04    -0.21   0.10  -0.09
  24   6     0.03  -0.02  -0.02    -0.14  -0.01  -0.14     0.04   0.10   0.08
  25   6    -0.02   0.02  -0.11    -0.01  -0.04   0.06    -0.09  -0.02  -0.04
  26   6     0.00   0.03  -0.07    -0.00  -0.03   0.08    -0.06  -0.06  -0.03
  27   6     0.05  -0.02   0.03     0.01   0.00   0.01     0.03  -0.03   0.01
  28   7     0.03   0.00   0.08     0.01   0.00   0.00     0.06  -0.05   0.03
  29   6     0.06   0.03   0.10     0.01  -0.01  -0.00     0.04  -0.03   0.02
  30   6     0.14   0.03   0.10    -0.01  -0.02   0.00     0.09  -0.06   0.04
  31   7     0.01   0.06   0.13     0.03  -0.02  -0.02    -0.02   0.01   0.00
  32   6    -0.07   0.05   0.11     0.04  -0.01  -0.02    -0.05   0.02  -0.01
  33   6    -0.16   0.07   0.12     0.06  -0.01  -0.03    -0.12   0.05  -0.03
  34   6    -0.24   0.06   0.09     0.07   0.01  -0.03    -0.14   0.05  -0.04
  35   6    -0.23   0.03   0.05     0.06   0.03  -0.02    -0.08   0.01  -0.02
  36   6    -0.14   0.01   0.04     0.03   0.03  -0.00    -0.01  -0.03   0.00
  37   6    -0.06   0.02   0.07     0.03   0.01  -0.00    -0.00  -0.02   0.01
  38   6     0.06  -0.02   0.02     0.02  -0.00  -0.01     0.02   0.02   0.02
  39   6     0.07  -0.03   0.00     0.02  -0.01  -0.03    -0.02   0.05   0.01
  40  16     0.13  -0.01  -0.00     0.05   0.08  -0.09     0.02   0.17  -0.05
  41   8     0.09  -0.00  -0.00     0.05   0.11  -0.07     0.08   0.17  -0.03
  42   8     0.07  -0.00  -0.01     0.01   0.05  -0.11    -0.02   0.11  -0.11
  43   6     0.08  -0.01   0.00     0.05   0.05  -0.02     0.02   0.11  -0.01
  44   6     0.07  -0.02  -0.00     0.06   0.05  -0.02    -0.00   0.09  -0.01
  45   6     0.04  -0.02  -0.01     0.04   0.05  -0.02    -0.01   0.09  -0.00
  46   6     0.02  -0.02  -0.01     0.01   0.04  -0.03    -0.00   0.10   0.01
  47   6    -0.02  -0.04  -0.03    -0.02   0.04  -0.04    -0.04   0.09   0.01
  48   6    -0.01  -0.08  -0.05     0.02   0.03  -0.08    -0.08   0.04   0.04
  49   6    -0.07  -0.05  -0.04    -0.08   0.02  -0.06    -0.01   0.09   0.02
  50   6    -0.05   0.00  -0.00    -0.02   0.05   0.01    -0.08   0.14  -0.03
  51   6     0.05  -0.01  -0.00     0.02   0.05  -0.03     0.02   0.12   0.02
  52   6     0.08  -0.01   0.00     0.03   0.05  -0.03     0.04   0.13   0.01
  53   1     0.06  -0.01   0.01     0.11  -0.05   0.03    -0.05   0.02  -0.01
  54   1     0.03  -0.04  -0.01     0.10  -0.07  -0.00    -0.02   0.05   0.00
  55   1     0.03   0.00   0.00     0.11  -0.04   0.02    -0.01   0.01   0.00
  56   1    -0.08   0.05  -0.01     0.06  -0.05   0.04     0.09  -0.06   0.04
  57   1    -0.10   0.06  -0.02    -0.05  -0.01   0.02     0.09  -0.07   0.04
  58   1    -0.06   0.03  -0.01    -0.12   0.03  -0.02     0.03  -0.03   0.02
  59   1     0.00  -0.01  -0.01    -0.10   0.03  -0.04    -0.03   0.01  -0.00
  60   1     0.02  -0.01  -0.00     0.00  -0.00  -0.01    -0.01  -0.01  -0.01
  61   1     0.04  -0.04   0.03    -0.02  -0.00   0.02     0.05  -0.05   0.02
  62   1     0.03  -0.05   0.01    -0.03   0.00   0.01     0.04  -0.04   0.02
  63   1    -0.01  -0.07  -0.06    -0.07   0.04   0.02    -0.02  -0.05  -0.03
  64   1    -0.01  -0.05  -0.06    -0.05   0.02   0.06    -0.03  -0.06  -0.04
  65   1    -0.00  -0.07  -0.02    -0.07   0.04   0.01     0.01  -0.06  -0.00
  66   1    -0.04  -0.01  -0.07     0.01  -0.01   0.03    -0.09   0.01  -0.04
  67   1    -0.02   0.03  -0.06     0.01  -0.03   0.00    -0.06   0.06  -0.02
  68   1    -0.04   0.01  -0.07    -0.01  -0.01   0.01    -0.07   0.04  -0.03
  69   1     0.01  -0.01  -0.01    -0.05   0.00  -0.05     0.00   0.04   0.02
  70   1     0.03  -0.02   0.01    -0.06   0.01  -0.05     0.04   0.01   0.04
  71   1     0.01   0.02   0.00    -0.02  -0.02  -0.06     0.01   0.06   0.03
  72   1    -0.02   0.02  -0.05     0.00  -0.01   0.02    -0.05   0.01  -0.02
  73   1    -0.01   0.02  -0.03     0.01  -0.01   0.03    -0.03  -0.01  -0.02
  74   1     0.04  -0.01   0.03    -0.01  -0.01   0.00     0.01  -0.06   0.02
  75   1     0.06   0.01   0.03    -0.00  -0.01   0.00     0.07  -0.01   0.02
  76   1     0.04   0.02   0.03    -0.01  -0.01  -0.00     0.01   0.01  -0.00
  77   1    -0.05   0.03   0.04     0.02  -0.01  -0.01    -0.05   0.02  -0.01
  78   1    -0.09   0.02   0.03     0.02   0.00  -0.01    -0.06   0.02  -0.02
  79   1    -0.09   0.01   0.01     0.02   0.01  -0.00    -0.03   0.00  -0.01
  80   1    -0.04  -0.01   0.00     0.01   0.01   0.00     0.01  -0.02   0.01
  81   1     0.02  -0.00   0.01     0.01   0.00  -0.00     0.01   0.01   0.01
  82   1     0.02  -0.00  -0.00     0.02   0.02  -0.00    -0.00   0.02  -0.01
  83   1     0.01  -0.01  -0.00     0.01   0.01  -0.01    -0.01   0.02  -0.00
  84   1     0.00  -0.03  -0.02     0.01   0.00  -0.04    -0.02   0.01   0.02
  85   1    -0.01  -0.03  -0.02    -0.00   0.00  -0.02    -0.03   0.01   0.01
  86   1     0.01  -0.02  -0.01     0.02   0.02  -0.02    -0.03   0.01   0.01
  87   1    -0.02  -0.01  -0.01    -0.03   0.01  -0.01     0.00   0.03   0.00
  88   1    -0.03  -0.02  -0.01    -0.03   0.00  -0.02    -0.01   0.02   0.01
  89   1    -0.01  -0.02  -0.02    -0.02  -0.00  -0.03    -0.00   0.02   0.01
  90   1    -0.02   0.01   0.01    -0.02   0.02   0.01    -0.01   0.05  -0.02
  91   1    -0.03  -0.00  -0.01    -0.01   0.01  -0.00    -0.03   0.04  -0.01
  92   1    -0.00   0.00   0.00     0.01   0.01   0.01    -0.03   0.04  -0.01
  93   1     0.01  -0.00  -0.00     0.00   0.01  -0.01     0.01   0.04   0.01
  94   1     0.03  -0.00   0.00     0.01   0.01  -0.01     0.02   0.04   0.00
                     10                     11                     12
                        a                      a                      a 
 Frequencies --    42.9498                50.6389                51.9943
 Red. masses --    10.1315                 9.6736                11.5134
 Frc consts  --     0.0000                 0.0000                 0.0000
 IR Inten    --     0.5916                 0.3391                 0.8461
 Raman Activ --     0.0000                 0.0000                 0.0000
 Depolar     --     0.0000                 0.0000                 0.0000
 Atom AN      X      Y      Z        X      Y      Z        X      Y      Z
   1   6     0.09  -0.11   0.04     0.04  -0.05   0.01    -0.02  -0.07   0.06
   2   6     0.05  -0.06   0.02     0.03  -0.04   0.01    -0.02  -0.03   0.04
   3   7     0.05  -0.06   0.01     0.03  -0.04   0.00    -0.02  -0.03   0.01
   4   6    -0.00  -0.01  -0.01     0.01  -0.02  -0.00    -0.01   0.00   0.01
   5   6    -0.03   0.02  -0.02    -0.02  -0.00  -0.01     0.00   0.01  -0.02
   6   6    -0.08   0.07  -0.03    -0.05   0.02  -0.02     0.02   0.04  -0.01
   7   6    -0.09   0.08  -0.03    -0.05   0.02  -0.02     0.02   0.05   0.01
   8   6    -0.06   0.05  -0.01    -0.03   0.01  -0.01     0.01   0.04   0.04
   9   6    -0.02   0.01   0.00    -0.00  -0.01  -0.00    -0.00   0.01   0.04
  10   7     0.01  -0.02   0.02     0.01  -0.03   0.00    -0.02  -0.00   0.06
  11   6    -0.01  -0.00   0.03     0.00  -0.02   0.01    -0.02  -0.00   0.07
  12   6    -0.02   0.02   0.05     0.01  -0.02   0.01    -0.01  -0.01   0.06
  13   6    -0.03   0.03   0.06     0.00  -0.01   0.02     0.00  -0.02   0.06
  14  16    -0.01  -0.00   0.03     0.03  -0.03  -0.01     0.09  -0.11  -0.03
  15   8     0.04  -0.07   0.08     0.04  -0.04   0.01     0.14  -0.14   0.04
  16   8     0.01  -0.01  -0.07     0.04  -0.02  -0.03     0.08  -0.09  -0.12
  17   6    -0.04   0.04   0.00    -0.01   0.00  -0.03     0.00  -0.03  -0.05
  18   6    -0.05   0.04  -0.00    -0.03   0.02  -0.04    -0.01  -0.01  -0.06
  19   6    -0.05   0.04  -0.00    -0.02   0.02  -0.03    -0.01  -0.00  -0.05
  20   6    -0.05   0.05  -0.01     0.01  -0.01  -0.01     0.03  -0.03  -0.02
  21   6     0.00  -0.00   0.02     0.05  -0.03   0.02     0.08  -0.06   0.03
  22   6     0.19  -0.26  -0.14     0.07   0.07   0.03     0.10   0.12   0.06
  23   6    -0.19   0.14  -0.10     0.13  -0.09   0.08     0.22  -0.17   0.13
  24   6     0.11   0.04   0.36    -0.01  -0.09  -0.02    -0.01  -0.15  -0.07
  25   6    -0.06   0.05  -0.01     0.01  -0.01  -0.01     0.01  -0.03  -0.02
  26   6    -0.05   0.04  -0.00     0.00  -0.00  -0.02     0.00  -0.03  -0.04
  27   6    -0.04   0.03   0.06    -0.02   0.00   0.05    -0.00  -0.01   0.07
  28   7    -0.06   0.03   0.03    -0.03   0.01   0.04    -0.01  -0.01   0.06
  29   6    -0.15   0.04  -0.03    -0.08   0.02   0.01    -0.12   0.03   0.00
  30   6    -0.23   0.03  -0.03    -0.10   0.00   0.02    -0.12   0.01   0.02
  31   7    -0.16   0.04  -0.09    -0.12   0.04  -0.04    -0.22   0.09  -0.06
  32   6    -0.03   0.03  -0.05    -0.08   0.05  -0.03    -0.16   0.09  -0.05
  33   6     0.04   0.02  -0.07    -0.11   0.08  -0.07    -0.24   0.15  -0.12
  34   6     0.19   0.00  -0.02    -0.07   0.09  -0.06    -0.19   0.16  -0.10
  35   6     0.26  -0.01   0.06    -0.01   0.07  -0.01    -0.05   0.09  -0.01
  36   6     0.18   0.00   0.08     0.02   0.04   0.03     0.03   0.02   0.05
  37   6     0.04   0.02   0.02    -0.03   0.03   0.02    -0.04   0.03   0.02
  38   6    -0.03   0.01   0.05    -0.02   0.01   0.06    -0.01   0.00   0.08
  39   6    -0.02  -0.01   0.03    -0.01  -0.00   0.04    -0.01   0.00   0.07
  40  16     0.04  -0.02  -0.06     0.01  -0.01   0.02     0.08   0.03  -0.03
  41   8     0.11   0.03  -0.03     0.05   0.01   0.02     0.17   0.08  -0.00
  42   8     0.00  -0.05  -0.12    -0.01  -0.02  -0.02     0.01  -0.01  -0.13
  43   6    -0.00  -0.02  -0.03     0.00  -0.01   0.01     0.03   0.01  -0.01
  44   6     0.01  -0.03  -0.02    -0.28  -0.08  -0.10     0.18   0.05   0.04
  45   6     0.01  -0.03  -0.02    -0.25  -0.07  -0.09     0.15   0.04   0.04
  46   6     0.00  -0.03  -0.02     0.07   0.01   0.01    -0.02  -0.00  -0.02
  47   6     0.02  -0.02  -0.00     0.04   0.01  -0.00    -0.01  -0.00  -0.01
  48   6     0.03   0.01   0.00    -0.12  -0.16   0.12     0.06   0.07  -0.07
  49   6     0.03  -0.03   0.00     0.22   0.06   0.06    -0.10  -0.03  -0.04
  50   6     0.04  -0.04   0.01    -0.07   0.09  -0.22     0.03  -0.03   0.09
  51   6    -0.02  -0.02  -0.02     0.33   0.08   0.11    -0.15  -0.03  -0.06
  52   6    -0.02  -0.02  -0.03     0.31   0.07   0.11    -0.13  -0.03  -0.06
  53   1     0.04  -0.03   0.02    -0.01  -0.01   0.00     0.00  -0.02   0.02
  54   1     0.02  -0.05   0.01     0.02   0.00  -0.01    -0.01  -0.03   0.02
  55   1     0.02  -0.03   0.01     0.02  -0.03   0.01    -0.01  -0.02   0.01
  56   1    -0.01   0.00  -0.01    -0.00  -0.00  -0.00     0.00   0.00  -0.01
  57   1    -0.03   0.03  -0.01    -0.02   0.01  -0.01     0.01   0.02  -0.01
  58   1    -0.04   0.03  -0.01    -0.02   0.01  -0.01     0.01   0.02   0.00
  59   1    -0.02   0.02  -0.00    -0.01   0.00  -0.00     0.01   0.01   0.02
  60   1    -0.00   0.00   0.01     0.01  -0.01  -0.00    -0.00  -0.01   0.02
  61   1    -0.01   0.01  -0.00    -0.01   0.01  -0.01    -0.01   0.00  -0.02
  62   1    -0.01   0.01   0.00    -0.01   0.01  -0.01    -0.00   0.00  -0.02
  63   1     0.07  -0.10  -0.04     0.03   0.01   0.02     0.05   0.03   0.03
  64   1     0.04  -0.08  -0.11     0.03   0.03   0.01     0.05   0.06   0.03
  65   1     0.09  -0.10  -0.01     0.00   0.03  -0.00    -0.00   0.06   0.00
  66   1    -0.08   0.02  -0.07     0.05  -0.01   0.03     0.09  -0.02   0.05
  67   1    -0.07   0.09  -0.01     0.03  -0.05   0.02     0.05  -0.09   0.04
  68   1    -0.05   0.04  -0.03     0.05  -0.03   0.03     0.08  -0.06   0.05
  69   1     0.05  -0.01   0.11     0.01  -0.03   0.00     0.01  -0.04   0.00
  70   1     0.07  -0.02   0.14    -0.02  -0.01  -0.02    -0.03  -0.02  -0.05
  71   1     0.00   0.07   0.14    -0.01  -0.05  -0.01    -0.02  -0.09  -0.03
  72   1    -0.02   0.02  -0.00     0.01  -0.01   0.00     0.01  -0.01  -0.00
  73   1    -0.01   0.01   0.00     0.00  -0.00  -0.00     0.00  -0.01  -0.01
  74   1    -0.07   0.02  -0.00    -0.03   0.00   0.01    -0.04  -0.02   0.02
  75   1    -0.07   0.01  -0.01    -0.03   0.00   0.01    -0.01   0.01   0.01
  76   1    -0.07  -0.00  -0.02    -0.03  -0.00   0.00    -0.05   0.02  -0.01
  77   1    -0.00   0.01  -0.04    -0.04   0.03  -0.03    -0.10   0.05  -0.05
  78   1     0.07  -0.00  -0.01    -0.03   0.03  -0.03    -0.07   0.06  -0.04
  79   1     0.11  -0.01   0.03     0.01   0.02   0.00    -0.00   0.03   0.00
  80   1     0.07  -0.00   0.04     0.02   0.01   0.02     0.04  -0.01   0.04
  81   1    -0.01   0.00   0.01    -0.01   0.01   0.02    -0.00   0.00   0.02
  82   1     0.01  -0.01  -0.01    -0.15  -0.04  -0.05     0.09   0.02   0.03
  83   1     0.01  -0.01  -0.00    -0.14  -0.04  -0.05     0.08   0.02   0.02
  84   1     0.00   0.01  -0.00    -0.02  -0.04   0.10     0.01   0.02  -0.05
  85   1     0.01   0.00   0.00    -0.04  -0.04   0.01     0.02   0.02  -0.01
  86   1     0.01   0.00  -0.00    -0.07  -0.09   0.03     0.04   0.04  -0.02
  87   1     0.01  -0.01  -0.00     0.08  -0.01  -0.01    -0.04   0.01   0.00
  88   1     0.01  -0.01   0.00     0.09   0.03   0.03    -0.05  -0.01  -0.02
  89   1     0.01  -0.01  -0.00     0.05   0.04   0.05    -0.02  -0.02  -0.03
  90   1     0.01  -0.02   0.00     0.02   0.04  -0.11    -0.01  -0.01   0.05
  91   1     0.02  -0.01   0.00    -0.04   0.02  -0.04     0.01  -0.01   0.01
  92   1     0.01  -0.01   0.00    -0.07   0.05  -0.09     0.04  -0.02   0.04
  93   1    -0.01  -0.01  -0.01     0.16   0.04   0.05    -0.08  -0.02  -0.03
  94   1    -0.01  -0.01  -0.01     0.15   0.04   0.05    -0.06  -0.01  -0.03
                     13                     14                     15
                        a                      a                      a 
 Frequencies --    59.8751                62.6868                72.1899
 Red. masses --    10.6958                11.5951                 9.3918
 Frc consts  --     0.0000                 0.0000                 0.0000
 IR Inten    --     1.0414                 2.6975                 0.4675
 Raman Activ --     0.0000                 0.0000                 0.0000
 Depolar     --     0.0000                 0.0000                 0.0000
 Atom AN      X      Y      Z        X      Y      Z        X      Y      Z
   1   6    -0.04  -0.04   0.04     0.06   0.22  -0.18     0.05  -0.03   0.08
   2   6    -0.02  -0.01   0.03     0.04   0.11  -0.13     0.04   0.02   0.06
   3   7    -0.01  -0.02   0.01    -0.02   0.14  -0.05     0.06   0.01   0.04
   4   6     0.01   0.00   0.00    -0.02   0.02  -0.02     0.05   0.06   0.02
   5   6     0.04   0.00  -0.02    -0.07  -0.02   0.07     0.06   0.08  -0.02
   6   6     0.07   0.02  -0.01    -0.06  -0.16   0.07     0.04   0.15  -0.02
   7   6     0.06   0.04   0.01    -0.01  -0.24  -0.01     0.03   0.17   0.01
   8   6     0.03   0.04   0.03     0.04  -0.20  -0.10     0.02   0.15   0.05
   9   6     0.00   0.02   0.03     0.05  -0.08  -0.10     0.02   0.09   0.05
  10   7    -0.02   0.01   0.05     0.10  -0.02  -0.17     0.00   0.08   0.07
  11   6     0.00  -0.01   0.03     0.11  -0.03  -0.17    -0.01   0.07   0.04
  12   6    -0.03   0.03   0.07     0.10  -0.05  -0.17    -0.03   0.10   0.05
  13   6    -0.01   0.01   0.01     0.06  -0.01  -0.07     0.01   0.07  -0.02
  14  16    -0.04   0.04   0.06    -0.03  -0.06   0.06    -0.02  -0.01   0.03
  15   8    -0.03  -0.01   0.07    -0.10  -0.05   0.03    -0.01  -0.07   0.06
  16   8    -0.00   0.03   0.01    -0.03  -0.04   0.06    -0.07  -0.04  -0.06
  17   6    -0.05   0.05   0.02     0.01  -0.03   0.08     0.03  -0.02   0.07
  18   6    -0.16   0.10  -0.04    -0.01  -0.04   0.09     0.12  -0.11   0.15
  19   6    -0.17   0.09  -0.05    -0.02  -0.05   0.07     0.13  -0.13   0.14
  20   6    -0.07   0.03  -0.01    -0.02  -0.05   0.05     0.04  -0.06   0.06
  21   6    -0.03  -0.03   0.00    -0.03  -0.07   0.03    -0.00  -0.05   0.02
  22   6     0.06  -0.04  -0.05    -0.05  -0.07   0.04    -0.11  -0.06   0.07
  23   6    -0.01  -0.03  -0.01    -0.01  -0.07   0.01     0.01  -0.05  -0.00
  24   6    -0.05  -0.09   0.10    -0.04  -0.08   0.02    -0.00  -0.02  -0.07
  25   6     0.01  -0.01   0.03    -0.01  -0.03   0.04    -0.04   0.02   0.00
  26   6     0.02  -0.00   0.05    -0.00  -0.02   0.06    -0.04   0.04   0.01
  27   6     0.06  -0.06  -0.10     0.04   0.04  -0.00     0.05   0.01  -0.12
  28   7     0.05  -0.06  -0.12     0.01   0.07   0.03     0.05   0.01  -0.14
  29   6    -0.01   0.04  -0.11    -0.09   0.12  -0.02    -0.02   0.12  -0.13
  30   6    -0.02   0.12  -0.17    -0.11   0.12  -0.02     0.05   0.17  -0.16
  31   7    -0.06   0.06  -0.08    -0.14   0.16  -0.06    -0.09   0.16  -0.09
  32   6    -0.05  -0.02  -0.04    -0.06   0.12  -0.03    -0.06   0.05  -0.05
  33   6    -0.10  -0.03   0.01    -0.06   0.13  -0.05    -0.09   0.02   0.03
  34   6    -0.10  -0.11   0.02     0.04   0.11  -0.01    -0.03  -0.11   0.07
  35   6    -0.06  -0.17  -0.02     0.13   0.06   0.05     0.04  -0.20   0.03
  36   6    -0.00  -0.16  -0.07     0.13   0.05   0.07     0.06  -0.16  -0.05
  37   6     0.01  -0.09  -0.07     0.03   0.07   0.03     0.02  -0.04  -0.08
  38   6     0.10  -0.11  -0.15     0.04   0.05  -0.02     0.04  -0.01  -0.10
  39   6     0.07  -0.07  -0.08     0.07   0.02  -0.09     0.01   0.02  -0.03
  40  16     0.03   0.02   0.02     0.01  -0.00   0.05    -0.02  -0.04   0.01
  41   8    -0.15  -0.02  -0.01    -0.15  -0.12   0.02    -0.06  -0.02  -0.01
  42   8     0.00   0.10   0.12     0.08   0.05   0.21     0.02  -0.04   0.04
  43   6     0.15   0.05   0.06     0.03   0.00   0.00    -0.06  -0.04  -0.01
  44   6     0.19   0.06   0.07     0.06   0.01   0.01    -0.11  -0.05  -0.03
  45   6     0.19   0.06   0.07     0.05   0.00   0.02    -0.12  -0.05  -0.04
  46   6     0.15   0.05   0.06     0.02  -0.00   0.02    -0.07  -0.04  -0.02
  47   6    -0.01   0.01   0.00    -0.01  -0.01   0.02     0.00  -0.02  -0.01
  48   6    -0.00  -0.17  -0.06    -0.00  -0.02   0.02    -0.00   0.04   0.01
  49   6    -0.13  -0.02  -0.04    -0.03  -0.03   0.02     0.06   0.00   0.00
  50   6    -0.12   0.16   0.03    -0.02   0.01   0.04     0.05  -0.09  -0.03
  51   6     0.19   0.06   0.07    -0.00   0.00   0.01    -0.05  -0.04  -0.02
  52   6     0.19   0.06   0.07     0.00   0.00  -0.00    -0.04  -0.04  -0.01
  53   1     0.01  -0.01   0.02     0.01   0.06  -0.08     0.03  -0.01   0.03
  54   1    -0.02  -0.03   0.02     0.02   0.08  -0.05     0.01  -0.02   0.02
  55   1    -0.03   0.00   0.00     0.02   0.08  -0.04     0.01  -0.00   0.02
  56   1     0.01  -0.00  -0.01    -0.04   0.01   0.04     0.02   0.01  -0.01
  57   1     0.03   0.01  -0.01    -0.03  -0.06   0.04     0.01   0.05  -0.01
  58   1     0.02   0.02   0.01    -0.00  -0.10  -0.00     0.01   0.06   0.00
  59   1     0.01   0.01   0.02     0.02  -0.08  -0.05     0.00   0.05   0.02
  60   1    -0.02   0.02   0.04     0.04  -0.02  -0.06    -0.02   0.04   0.03
  61   1    -0.07   0.04  -0.02    -0.01  -0.01   0.03     0.05  -0.05   0.06
  62   1    -0.07   0.04  -0.03    -0.01  -0.02   0.02     0.06  -0.06   0.06
  63   1     0.03  -0.02  -0.01    -0.01  -0.03   0.00    -0.04  -0.02   0.00
  64   1     0.02  -0.00  -0.03    -0.01  -0.01   0.01    -0.02  -0.01   0.04
  65   1     0.02  -0.01  -0.01    -0.02  -0.02   0.02    -0.05  -0.02   0.04
  66   1     0.00  -0.00  -0.01     0.00  -0.02   0.00     0.01  -0.01   0.00
  67   1    -0.00  -0.01  -0.00     0.00  -0.02   0.00     0.01  -0.01  -0.00
  68   1     0.00  -0.01  -0.00    -0.00  -0.02  -0.00    -0.00  -0.02  -0.01
  69   1    -0.00  -0.04   0.03    -0.01  -0.03   0.01    -0.01   0.00  -0.03
  70   1    -0.02  -0.03   0.04    -0.02  -0.02   0.01    -0.00  -0.00  -0.03
  71   1    -0.03  -0.02   0.04    -0.01  -0.03   0.01     0.01  -0.01  -0.03
  72   1     0.02  -0.01   0.02    -0.00  -0.01   0.01    -0.03   0.02  -0.02
  73   1     0.03  -0.01   0.03     0.00  -0.00   0.02    -0.03   0.03  -0.01
  74   1     0.02   0.11  -0.08    -0.07  -0.03   0.04    -0.07  -0.14   0.05
  75   1    -0.08   0.02  -0.07     0.05   0.04  -0.01     0.25   0.07  -0.06
  76   1     0.04  -0.00  -0.01    -0.08   0.09  -0.04    -0.12   0.22  -0.13
  77   1    -0.04   0.01   0.01    -0.04   0.05  -0.03    -0.04   0.02   0.02
  78   1    -0.04  -0.03   0.02     0.01   0.03  -0.01    -0.01  -0.04   0.04
  79   1    -0.02  -0.07  -0.00     0.06   0.01   0.02     0.02  -0.09   0.02
  80   1     0.01  -0.06  -0.03     0.06   0.01   0.04     0.03  -0.07  -0.02
  81   1     0.04  -0.05  -0.07     0.00   0.03   0.01     0.01  -0.01  -0.04
  82   1     0.06   0.02   0.02     0.02   0.00   0.00    -0.04  -0.02  -0.01
  83   1     0.06   0.02   0.02     0.02   0.00   0.01    -0.05  -0.02  -0.02
  84   1     0.03  -0.09  -0.03     0.00  -0.01  -0.00    -0.02   0.03   0.01
  85   1    -0.05  -0.07  -0.02    -0.01  -0.01   0.01     0.02   0.02   0.00
  86   1     0.02  -0.03  -0.01     0.00   0.00   0.00    -0.01  -0.00   0.00
  87   1    -0.04   0.03   0.00    -0.01  -0.00   0.01     0.02  -0.02  -0.00
  88   1    -0.08  -0.02  -0.02    -0.02  -0.01   0.01     0.04   0.01   0.01
  89   1    -0.02  -0.04  -0.02    -0.00  -0.02   0.00     0.01   0.02   0.01
  90   1    -0.04   0.10   0.03    -0.01   0.01   0.02     0.02  -0.05  -0.02
  91   1    -0.08   0.04  -0.02    -0.01   0.00   0.01     0.04  -0.02   0.01
  92   1    -0.01   0.04   0.02     0.00   0.00   0.02    -0.00  -0.02  -0.02
  93   1     0.06   0.02   0.02    -0.01   0.00   0.00    -0.01  -0.01  -0.00
  94   1     0.05   0.02   0.02    -0.01   0.00  -0.00    -0.01  -0.01   0.00
                     16                     17                     18
                        a                      a                      a 
 Frequencies --    77.7212                90.2142                93.2021
 Red. masses --     9.8743                11.3451                11.2042
 Frc consts  --     0.0000                 0.0000                 0.0000
 IR Inten    --     0.8763                 2.0625                 0.8340
 Raman Activ --     0.0000                 0.0000                 0.0000
 Depolar     --     0.0000                 0.0000                 0.0000
 Atom AN      X      Y      Z        X      Y      Z        X      Y      Z
   1   6     0.08   0.05   0.00    -0.04  -0.03  -0.02    -0.02  -0.02   0.03
   2   6     0.06   0.05   0.00    -0.03  -0.04  -0.01    -0.01  -0.00   0.02
   3   7     0.07   0.05   0.02    -0.07  -0.02  -0.02     0.01  -0.02   0.02
   4   6     0.04   0.05   0.01    -0.04  -0.04  -0.01     0.00   0.00   0.01
   5   6     0.03   0.05   0.01    -0.06  -0.03  -0.01     0.02   0.01  -0.00
   6   6     0.00   0.07   0.00    -0.02  -0.06  -0.00     0.02   0.03  -0.01
   7   6    -0.01   0.07  -0.00     0.03  -0.10   0.00    -0.00   0.05   0.01
   8   6     0.01   0.07  -0.00     0.04  -0.10   0.00    -0.01   0.05   0.02
   9   6     0.02   0.06  -0.00     0.02  -0.07  -0.00    -0.02   0.03   0.02
  10   7     0.03   0.06  -0.01     0.03  -0.09  -0.00    -0.03   0.02   0.03
  11   6     0.03   0.05  -0.01     0.05  -0.08   0.01    -0.04   0.03   0.02
  12   6     0.02   0.04   0.00     0.09  -0.11  -0.05    -0.04   0.04   0.01
  13   6     0.04   0.02   0.00     0.08  -0.10  -0.04    -0.04   0.04  -0.01
  14  16     0.03  -0.12   0.05     0.05   0.09   0.06    -0.03   0.02  -0.08
  15   8     0.03  -0.15   0.08    -0.11   0.19  -0.08     0.08   0.20  -0.15
  16   8    -0.03  -0.11  -0.04     0.11   0.12   0.25    -0.19   0.00   0.12
  17   6     0.02  -0.06   0.06     0.05   0.04   0.04     0.08  -0.16  -0.07
  18   6    -0.17   0.06  -0.07    -0.07   0.11  -0.04     0.08  -0.11  -0.10
  19   6    -0.20   0.08  -0.09    -0.08   0.10  -0.05     0.13  -0.10  -0.03
  20   6    -0.05  -0.02   0.01     0.04   0.02   0.01     0.17  -0.14   0.06
  21   6    -0.06  -0.02   0.01     0.02   0.01  -0.02     0.06   0.01   0.04
  22   6    -0.00  -0.07  -0.03     0.02  -0.03  -0.03    -0.08  -0.05   0.09
  23   6    -0.10   0.01  -0.02     0.00   0.04  -0.06    -0.11   0.09   0.04
  24   6    -0.04  -0.03   0.09     0.03   0.01   0.01     0.19   0.20  -0.07
  25   6     0.14  -0.16   0.13     0.19  -0.07   0.10     0.23  -0.26   0.13
  26   6     0.16  -0.17   0.15     0.19  -0.06   0.11     0.18  -0.26   0.05
  27   6     0.08   0.01  -0.03     0.05  -0.08  -0.01    -0.06   0.05  -0.00
  28   7     0.11  -0.00  -0.03     0.03  -0.09  -0.03    -0.08   0.06   0.00
  29   6     0.11   0.02  -0.01    -0.04  -0.02  -0.06    -0.11   0.06  -0.01
  30   6     0.10   0.06  -0.04    -0.09   0.03  -0.09    -0.18   0.10  -0.04
  31   7     0.09   0.04   0.00    -0.07  -0.01  -0.05    -0.08   0.05  -0.01
  32   6     0.04   0.03  -0.01    -0.03  -0.06  -0.02    -0.03   0.03   0.00
  33   6    -0.07   0.08  -0.03    -0.06  -0.05  -0.01    -0.02   0.04  -0.01
  34   6    -0.16   0.10  -0.06    -0.07  -0.09  -0.00    -0.01   0.06  -0.01
  35   6    -0.11   0.05  -0.06    -0.05  -0.11  -0.02    -0.02   0.07  -0.00
  36   6     0.01  -0.00  -0.04    -0.01  -0.11  -0.03    -0.03   0.06   0.01
  37   6     0.06   0.00  -0.02     0.02  -0.09  -0.02    -0.03   0.04   0.01
  38   6     0.08   0.03  -0.04    -0.00  -0.05   0.07    -0.06   0.02  -0.01
  39   6     0.05   0.05  -0.03    -0.01  -0.04   0.09    -0.04   0.01  -0.01
  40  16     0.02  -0.00   0.03     0.05   0.09   0.05    -0.06  -0.06  -0.04
  41   8    -0.04  -0.03   0.02     0.21   0.21   0.04    -0.05  -0.07  -0.02
  42   8     0.08  -0.02   0.11    -0.02  -0.03  -0.17    -0.05  -0.01  -0.00
  43   6    -0.07  -0.03  -0.01    -0.03   0.05   0.08     0.01  -0.03  -0.03
  44   6    -0.14  -0.04  -0.04    -0.08   0.06   0.05     0.06  -0.02  -0.01
  45   6    -0.17  -0.05  -0.05    -0.11   0.06   0.01     0.10  -0.01   0.02
  46   6    -0.13  -0.05  -0.04    -0.10   0.05   0.00     0.09  -0.01   0.02
  47   6    -0.02  -0.02  -0.01    -0.03   0.07  -0.02     0.03  -0.03   0.01
  48   6    -0.02   0.13   0.04    -0.02   0.13  -0.01     0.02  -0.11  -0.01
  49   6     0.07   0.01   0.02     0.00   0.13  -0.02    -0.02  -0.06  -0.00
  50   6     0.07  -0.14  -0.02     0.02  -0.01  -0.04    -0.03   0.04   0.02
  51   6    -0.14  -0.05  -0.04    -0.09   0.02   0.02     0.08  -0.00   0.01
  52   6    -0.10  -0.04  -0.03    -0.05   0.03   0.06     0.04  -0.01  -0.02
  53   1     0.03   0.02  -0.00    -0.04  -0.01  -0.01    -0.02  -0.01   0.02
  54   1     0.02   0.01   0.00     0.00   0.02  -0.02     0.00   0.00   0.00
  55   1     0.02   0.02   0.00     0.00  -0.03   0.00     0.00  -0.02   0.01
  56   1     0.01   0.01   0.00    -0.03   0.00  -0.00     0.01  -0.00  -0.00
  57   1    -0.00   0.02   0.00    -0.01  -0.02  -0.00     0.01   0.01  -0.00
  58   1    -0.01   0.02  -0.00     0.01  -0.03   0.00    -0.00   0.02   0.00
  59   1    -0.00   0.02  -0.00     0.02  -0.03   0.00    -0.01   0.02   0.01
  60   1    -0.00   0.01   0.00     0.03  -0.04  -0.02    -0.01   0.01   0.00
  61   1    -0.08   0.04  -0.04    -0.05   0.05  -0.03     0.01  -0.01  -0.06
  62   1    -0.10   0.05  -0.05    -0.05   0.05  -0.03     0.04  -0.01  -0.02
  63   1    -0.00  -0.01   0.00     0.00  -0.01  -0.01    -0.06   0.04   0.03
  64   1    -0.01  -0.03  -0.02     0.00  -0.02  -0.01    -0.05  -0.07   0.05
  65   1     0.03  -0.02  -0.02     0.01  -0.01  -0.01     0.02  -0.02   0.01
  66   1    -0.04  -0.01   0.00    -0.01   0.00  -0.00    -0.06  -0.02   0.04
  67   1    -0.01   0.01  -0.01     0.02   0.02  -0.03     0.00   0.04  -0.00
  68   1    -0.05   0.01  -0.02    -0.02   0.02  -0.03    -0.07   0.07  -0.00
  69   1    -0.01  -0.02   0.01    -0.00  -0.01  -0.02     0.00   0.08  -0.06
  70   1    -0.01  -0.02   0.05     0.01  -0.01   0.03     0.08   0.03   0.02
  71   1    -0.01   0.02   0.03     0.02   0.03   0.00     0.11   0.10  -0.04
  72   1     0.07  -0.07   0.06     0.09  -0.04   0.04     0.09  -0.09   0.06
  73   1     0.08  -0.08   0.07     0.08  -0.03   0.05     0.06  -0.09   0.02
  74   1     0.11   0.19  -0.10    -0.11  -0.14   0.08    -0.05   0.06  -0.01
  75   1    -0.18  -0.00  -0.02     0.18   0.02  -0.05    -0.08   0.02  -0.02
  76   1     0.14  -0.11   0.07    -0.15   0.15  -0.12    -0.05   0.01  -0.01
  77   1    -0.03   0.03  -0.01    -0.03  -0.01   0.00    -0.01   0.01  -0.01
  78   1    -0.08   0.04  -0.02    -0.03  -0.02   0.00    -0.00   0.02  -0.01
  79   1    -0.05   0.02  -0.03    -0.02  -0.04  -0.01    -0.01   0.02  -0.00
  80   1     0.01  -0.01  -0.01    -0.00  -0.04  -0.01    -0.01   0.02   0.00
  81   1     0.03   0.01  -0.02    -0.01  -0.01   0.03    -0.02   0.00  -0.00
  82   1    -0.04  -0.01  -0.01    -0.02   0.02   0.02     0.02  -0.01  -0.00
  83   1    -0.06  -0.02  -0.02    -0.04   0.02  -0.00     0.04  -0.00   0.01
  84   1    -0.03   0.07   0.03    -0.02   0.07   0.01     0.03  -0.06  -0.01
  85   1     0.04   0.05   0.01     0.02   0.05  -0.01    -0.02  -0.04   0.00
  86   1    -0.02   0.02   0.01    -0.01   0.02  -0.00     0.02  -0.01  -0.00
  87   1     0.02  -0.02  -0.00     0.00   0.03  -0.01    -0.01  -0.00   0.00
  88   1     0.05   0.01   0.02     0.02   0.04  -0.01    -0.02  -0.02  -0.00
  89   1     0.01   0.03   0.01    -0.01   0.05   0.00     0.00  -0.03  -0.01
  90   1     0.03  -0.08  -0.03     0.01  -0.02  -0.02    -0.01   0.04   0.02
  91   1     0.06  -0.03   0.02     0.03   0.00  -0.00    -0.03   0.01  -0.01
  92   1    -0.01  -0.03  -0.02    -0.00  -0.00  -0.02     0.01   0.01   0.01
  93   1    -0.04  -0.02  -0.01    -0.03  -0.00  -0.00     0.03   0.00   0.01
  94   1    -0.02  -0.01  -0.01    -0.01   0.00   0.02     0.01  -0.00  -0.01
                     19                     20                     21
                        a                      a                      a 
 Frequencies --   100.7544               108.7955               111.0958
 Red. masses --     6.9814                 7.1877                11.3687
 Frc consts  --     0.0000                 0.0000                 0.0000
 IR Inten    --     0.6204                 1.3511                 3.2511
 Raman Activ --     0.0000                 0.0000                 0.0000
 Depolar     --     0.0000                 0.0000                 0.0000
 Atom AN      X      Y      Z        X      Y      Z        X      Y      Z
   1   6    -0.02  -0.01  -0.02     0.33  -0.23   0.10     0.12  -0.04   0.01
   2   6    -0.01  -0.02  -0.01     0.02  -0.02   0.02     0.01   0.01  -0.01
   3   7    -0.02  -0.01  -0.01    -0.11   0.06  -0.01    -0.06   0.05  -0.01
   4   6    -0.01  -0.02  -0.01    -0.12   0.07  -0.01    -0.05   0.03  -0.01
   5   6    -0.02  -0.02  -0.00    -0.11   0.07  -0.01    -0.06   0.04  -0.00
   6   6    -0.01  -0.04  -0.00     0.09  -0.05   0.03     0.02  -0.02   0.01
   7   6    -0.00  -0.05  -0.00     0.23  -0.15   0.07     0.10  -0.07   0.02
   8   6    -0.00  -0.04  -0.01     0.15  -0.10   0.05     0.08  -0.06   0.01
   9   6     0.00  -0.03  -0.01    -0.02   0.01   0.01     0.01  -0.01  -0.00
  10   7     0.01  -0.03  -0.01     0.01  -0.01   0.02     0.03  -0.02  -0.01
  11   6     0.02  -0.04  -0.01    -0.00  -0.00   0.00     0.00   0.00  -0.02
  12   6     0.02  -0.04   0.01    -0.02   0.01   0.02     0.02   0.02  -0.05
  13   6     0.03  -0.04   0.02    -0.02   0.01   0.02    -0.01   0.04  -0.06
  14  16     0.03   0.07   0.06    -0.01  -0.02  -0.00    -0.02   0.01  -0.07
  15   8     0.01   0.17  -0.03     0.05   0.04  -0.02    -0.14  -0.26   0.09
  16   8     0.02   0.08   0.20    -0.05  -0.02   0.04     0.10  -0.01  -0.33
  17   6     0.03  -0.01   0.00    -0.01  -0.05  -0.04     0.01   0.14   0.10
  18   6     0.15  -0.09   0.08    -0.01  -0.03  -0.05     0.02   0.08   0.13
  19   6     0.17  -0.10   0.09    -0.01  -0.01  -0.04     0.07  -0.01   0.14
  20   6     0.07  -0.03   0.02    -0.02  -0.01  -0.02     0.11  -0.02   0.11
  21   6     0.04  -0.00   0.01    -0.01   0.01   0.01     0.03  -0.05  -0.00
  22   6    -0.03   0.02   0.05     0.02   0.03  -0.00    -0.14  -0.15   0.06
  23   6     0.04  -0.01   0.02    -0.03   0.00   0.05     0.05  -0.00  -0.13
  24   6     0.06   0.04  -0.08     0.00   0.02   0.02     0.03  -0.03  -0.09
  25   6    -0.06   0.06  -0.06    -0.03  -0.03  -0.02     0.13   0.02   0.10
  26   6    -0.06   0.07  -0.07    -0.03  -0.05  -0.03     0.07   0.11   0.10
  27   6     0.04  -0.06  -0.01    -0.01  -0.00   0.01    -0.07   0.04  -0.03
  28   7     0.03  -0.06  -0.01    -0.01  -0.00  -0.00    -0.09   0.06  -0.04
  29   6    -0.07   0.01  -0.05    -0.01  -0.01   0.00    -0.03   0.02  -0.02
  30   6    -0.09   0.02  -0.06    -0.02  -0.01   0.00    -0.07   0.03  -0.02
  31   7    -0.15   0.06  -0.07     0.00  -0.02   0.00     0.02  -0.01   0.00
  32   6    -0.10   0.01  -0.04     0.00  -0.01   0.00     0.01   0.00  -0.00
  33   6    -0.12   0.01  -0.03     0.01  -0.02   0.00     0.04  -0.02   0.02
  34   6    -0.00  -0.08   0.02     0.00  -0.01   0.00    -0.01   0.00  -0.00
  35   6     0.10  -0.15   0.06    -0.01  -0.00  -0.01    -0.06   0.03  -0.03
  36   6     0.09  -0.13   0.04    -0.02   0.00  -0.01    -0.08   0.04  -0.04
  37   6     0.01  -0.06  -0.01    -0.01  -0.00  -0.00    -0.05   0.03  -0.03
  38   6     0.06  -0.06  -0.04    -0.01  -0.00   0.01    -0.08   0.03   0.01
  39   6     0.04  -0.04  -0.02    -0.01  -0.00  -0.00    -0.05   0.01   0.02
  40  16     0.04   0.06   0.00    -0.01   0.05  -0.02    -0.06  -0.02  -0.01
  41   8     0.01   0.08  -0.01    -0.03  -0.12   0.01     0.07   0.18  -0.02
  42   8     0.02   0.03  -0.02    -0.06   0.14   0.07    -0.03  -0.16  -0.19
  43   6     0.01   0.04   0.03     0.03   0.06  -0.10    -0.08  -0.03   0.12
  44   6    -0.05   0.03   0.00    -0.01   0.03  -0.11    -0.04   0.01   0.12
  45   6    -0.10   0.02  -0.02    -0.05   0.01  -0.09     0.02   0.04   0.10
  46   6    -0.09   0.02  -0.02    -0.04   0.04  -0.06     0.04   0.01   0.08
  47   6    -0.04   0.04  -0.01    -0.03   0.04   0.02     0.03   0.01  -0.02
  48   6    -0.03   0.12   0.01    -0.05   0.12   0.06     0.05  -0.10  -0.07
  49   6     0.01   0.06   0.01     0.00  -0.02   0.05    -0.02   0.10  -0.06
  50   6     0.02  -0.03  -0.02    -0.03   0.05   0.04     0.01   0.03  -0.05
  51   6    -0.08   0.02  -0.01    -0.01   0.08  -0.06     0.04  -0.03   0.09
  52   6    -0.03   0.03   0.01     0.02   0.09  -0.09    -0.03  -0.05   0.11
  53   1    -0.00  -0.00  -0.01     0.45  -0.04   0.06     0.16  -0.00   0.01
  54   1    -0.01  -0.01   0.00    -0.02  -0.39   0.09    -0.00  -0.13   0.02
  55   1    -0.01   0.00  -0.01    -0.07   0.16  -0.03    -0.02   0.07  -0.02
  56   1    -0.01  -0.00   0.00    -0.06   0.04  -0.01    -0.03   0.02  -0.00
  57   1    -0.00  -0.01   0.00     0.04  -0.03   0.01     0.01  -0.01   0.01
  58   1    -0.00  -0.02  -0.00     0.12  -0.08   0.03     0.05  -0.04   0.01
  59   1    -0.00  -0.01  -0.01     0.07  -0.05   0.02     0.03  -0.02   0.01
  60   1     0.00  -0.01   0.00    -0.01   0.01   0.01     0.02   0.01  -0.02
  61   1     0.06  -0.04   0.03     0.00  -0.01  -0.02    -0.01   0.03   0.05
  62   1     0.07  -0.05   0.05    -0.00   0.00  -0.01     0.02  -0.02   0.05
  63   1    -0.02   0.01   0.01     0.01   0.01   0.01    -0.07  -0.03  -0.01
  64   1    -0.01  -0.00   0.03     0.01   0.01  -0.00    -0.05  -0.07   0.04
  65   1    -0.01   0.00   0.01     0.01   0.01  -0.01    -0.03  -0.06   0.03
  66   1     0.01   0.00   0.00    -0.01  -0.00   0.01     0.01  -0.01  -0.03
  67   1     0.01  -0.00   0.01    -0.01  -0.00   0.02     0.04   0.02  -0.05
  68   1     0.02  -0.00   0.01    -0.00   0.00   0.02    -0.01  -0.01  -0.07
  69   1     0.00   0.03  -0.03     0.01   0.01   0.02    -0.03  -0.02  -0.08
  70   1     0.02   0.02  -0.03     0.01   0.01  -0.00    -0.00  -0.03   0.02
  71   1     0.03   0.01  -0.03    -0.01  -0.00   0.01     0.06   0.03  -0.04
  72   1    -0.04   0.04  -0.03    -0.01  -0.01  -0.00     0.05   0.00   0.02
  73   1    -0.04   0.04  -0.04    -0.01  -0.02  -0.01     0.03   0.04   0.02
  74   1     0.13   0.32  -0.20    -0.02  -0.03   0.02     0.02   0.11  -0.06
  75   1    -0.41  -0.03  -0.00     0.03   0.00  -0.00    -0.14  -0.00  -0.00
  76   1     0.20  -0.25   0.14    -0.03   0.02  -0.02     0.05  -0.07   0.04
  77   1    -0.06   0.02  -0.02     0.01  -0.01   0.00     0.02  -0.01   0.01
  78   1     0.00  -0.03   0.01     0.00  -0.00   0.00     0.00  -0.00   0.00
  79   1     0.05  -0.06   0.03    -0.01   0.00  -0.00    -0.03   0.01  -0.01
  80   1     0.05  -0.05   0.02    -0.01   0.00  -0.00    -0.03   0.02  -0.02
  81   1     0.03  -0.02  -0.02    -0.00   0.00   0.00    -0.03   0.01   0.01
  82   1    -0.01   0.01   0.00    -0.00   0.00  -0.04    -0.02   0.01   0.04
  83   1    -0.04   0.00  -0.01    -0.02  -0.01  -0.03     0.01   0.02   0.03
  84   1    -0.03   0.06   0.02    -0.02   0.05   0.02     0.03  -0.04  -0.02
  85   1     0.02   0.05  -0.00     0.00   0.04   0.03    -0.01  -0.03  -0.04
  86   1    -0.02   0.02   0.00    -0.03   0.04   0.01     0.03  -0.03  -0.02
  87   1     0.00   0.01  -0.00     0.01  -0.02   0.01    -0.01   0.05  -0.01
  88   1     0.02   0.02   0.00     0.01  -0.01   0.03    -0.01   0.03  -0.04
  89   1    -0.01   0.03   0.01    -0.00  -0.01   0.01    -0.00   0.03  -0.01
  90   1     0.01  -0.04  -0.02     0.00  -0.01  -0.00    -0.01   0.04   0.01
  91   1     0.03  -0.00   0.02    -0.00   0.01   0.04    -0.01   0.01  -0.06
  92   1    -0.01  -0.00  -0.01    -0.02   0.04   0.00     0.02  -0.02  -0.00
  93   1    -0.03   0.00  -0.01    -0.00   0.03  -0.01     0.02  -0.01   0.02
  94   1    -0.00   0.01   0.01     0.01   0.04  -0.03    -0.01  -0.02   0.04
                     22                     23                     24
                        a                      a                      a 
 Frequencies --   112.1385               119.4652               136.2914
 Red. masses --    11.6608                 7.0676                 9.4784
 Frc consts  --     0.0000                 0.0000                 0.0000
 IR Inten    --     1.9177                 0.8309                 2.9688
 Raman Activ --     0.0000                 0.0000                 0.0000
 Depolar     --     0.0000                 0.0000                 0.0000
 Atom AN      X      Y      Z        X      Y      Z        X      Y      Z
   1   6    -0.07  -0.05   0.02    -0.17   0.11  -0.08    -0.17   0.13  -0.05
   2   6    -0.02  -0.05   0.01    -0.08   0.04  -0.06    -0.01   0.00  -0.00
   3   7     0.01  -0.07   0.00     0.02  -0.02  -0.03     0.06  -0.04   0.01
   4   6     0.00  -0.04  -0.00     0.04  -0.05  -0.02     0.09  -0.06   0.02
   5   6     0.01  -0.04  -0.01     0.12  -0.12   0.02     0.08  -0.04   0.00
   6   6    -0.02  -0.01  -0.01     0.01  -0.08  -0.01    -0.05   0.04  -0.02
   7   6    -0.04   0.01  -0.01    -0.18   0.03  -0.07    -0.12   0.09  -0.04
   8   6    -0.04   0.00   0.00    -0.20   0.06  -0.09    -0.04   0.04  -0.01
   9   6    -0.03  -0.01   0.01    -0.06   0.01  -0.06     0.06  -0.03   0.01
  10   7    -0.04  -0.02   0.02    -0.09   0.04  -0.07     0.03  -0.02   0.01
  11   6    -0.03  -0.01   0.02    -0.04   0.02  -0.02     0.04  -0.03   0.02
  12   6    -0.02  -0.02   0.02    -0.10   0.02   0.09     0.06  -0.04   0.00
  13   6    -0.01  -0.02   0.03    -0.06   0.00   0.10     0.06  -0.04  -0.01
  14  16     0.04   0.09   0.01     0.01   0.09   0.04     0.08  -0.09   0.03
  15   8    -0.06  -0.11   0.10     0.11   0.05   0.06    -0.00  -0.06   0.01
  16   8     0.19   0.08  -0.15     0.06   0.07  -0.00     0.08  -0.05   0.03
  17   6     0.02   0.17   0.08    -0.00   0.07  -0.02     0.03  -0.02   0.03
  18   6     0.01   0.13   0.10    -0.01   0.07  -0.02     0.06  -0.05   0.05
  19   6     0.05   0.05   0.10     0.02   0.04  -0.01     0.04  -0.03   0.04
  20   6     0.13   0.02   0.07     0.06   0.01  -0.00    -0.02   0.01   0.01
  21   6     0.06  -0.02  -0.03     0.05   0.01  -0.03    -0.01  -0.00   0.01
  22   6    -0.07  -0.11   0.02     0.01  -0.01  -0.01    -0.01  -0.00   0.01
  23   6     0.09   0.02  -0.16     0.04   0.03  -0.05     0.01  -0.01   0.01
  24   6     0.06  -0.01  -0.11     0.05   0.03  -0.06    -0.02  -0.02   0.02
  25   6     0.19   0.03   0.09     0.10  -0.01   0.02    -0.08   0.06  -0.04
  26   6     0.13   0.12   0.09     0.07   0.02   0.01    -0.05   0.04  -0.02
  27   6    -0.03  -0.03   0.03     0.01  -0.03   0.03     0.03  -0.02   0.02
  28   7    -0.02  -0.04   0.04     0.05  -0.05   0.07    -0.00  -0.01  -0.02
  29   6    -0.03  -0.05   0.02     0.02  -0.04   0.05    -0.05   0.02  -0.04
  30   6    -0.03  -0.09   0.05     0.09  -0.11   0.09    -0.39   0.23  -0.18
  31   7    -0.04  -0.05   0.00    -0.04  -0.01   0.02     0.09  -0.07   0.01
  32   6    -0.04  -0.03   0.00    -0.04   0.00   0.01     0.15  -0.09   0.04
  33   6    -0.06  -0.01  -0.02    -0.09   0.04  -0.04     0.17  -0.11   0.05
  34   6    -0.04  -0.01  -0.02    -0.03   0.04  -0.01    -0.04   0.00  -0.04
  35   6    -0.00  -0.02   0.02     0.08  -0.02   0.05    -0.22   0.11  -0.12
  36   6     0.01  -0.04   0.04     0.10  -0.04   0.09    -0.14   0.07  -0.09
  37   6    -0.01  -0.03   0.02     0.03  -0.03   0.05     0.05  -0.04  -0.00
  38   6    -0.02  -0.02   0.02     0.06  -0.02  -0.05     0.00  -0.00   0.07
  39   6    -0.02  -0.02   0.01     0.04  -0.01  -0.08     0.01  -0.00   0.06
  40  16    -0.03   0.01  -0.04    -0.01  -0.02  -0.03     0.07   0.01   0.07
  41   8    -0.07  -0.26   0.01    -0.14   0.05  -0.06     0.10  -0.06   0.07
  42   8    -0.10   0.22   0.14     0.06  -0.05   0.03     0.01   0.06   0.06
  43   6     0.07   0.06  -0.21    -0.01  -0.03   0.05     0.06   0.02  -0.03
  44   6     0.06   0.01  -0.20    -0.02  -0.03   0.05     0.03   0.01  -0.04
  45   6     0.02  -0.02  -0.14    -0.02  -0.02   0.03    -0.00  -0.01  -0.04
  46   6    -0.01   0.03  -0.10    -0.01  -0.04   0.02    -0.02  -0.00  -0.04
  47   6    -0.03   0.01   0.04     0.01  -0.03  -0.01    -0.02  -0.01   0.00
  48   6    -0.07   0.12   0.11     0.02  -0.04  -0.03    -0.02   0.05   0.03
  49   6     0.01  -0.13   0.09     0.01   0.02  -0.03     0.00  -0.04   0.02
  50   6    -0.05   0.05   0.10     0.03  -0.06  -0.03    -0.01  -0.01   0.02
  51   6    -0.01   0.08  -0.13    -0.00  -0.04   0.03    -0.00   0.01  -0.04
  52   6     0.03   0.10  -0.18    -0.00  -0.04   0.05     0.04   0.02  -0.03
  53   1    -0.13  -0.02   0.01     0.31   0.05  -0.07     0.12   0.04  -0.06
  54   1     0.02   0.08  -0.03    -0.21  -0.26   0.14    -0.13  -0.08   0.09
  55   1     0.03  -0.10   0.03    -0.27   0.30  -0.13    -0.16   0.17  -0.08
  56   1     0.01  -0.02  -0.00     0.07  -0.05   0.02     0.04  -0.02   0.00
  57   1    -0.00  -0.00  -0.01     0.01  -0.03   0.01    -0.03   0.02  -0.01
  58   1    -0.02   0.01  -0.00    -0.08   0.03  -0.03    -0.07   0.05  -0.02
  59   1    -0.01   0.00   0.00    -0.09   0.04  -0.04    -0.02   0.02  -0.01
  60   1    -0.01  -0.01   0.00    -0.06   0.01   0.05     0.01  -0.01  -0.00
  61   1    -0.02   0.05   0.03    -0.01   0.02  -0.01     0.03  -0.02   0.02
  62   1     0.01   0.00   0.03    -0.00   0.01  -0.00     0.02  -0.02   0.02
  63   1    -0.05  -0.02  -0.02    -0.00   0.00  -0.01     0.00  -0.01  -0.00
  64   1    -0.03  -0.05   0.02    -0.00  -0.01   0.00     0.00   0.01   0.00
  65   1    -0.02  -0.04   0.02     0.01  -0.00  -0.00    -0.01  -0.00   0.01
  66   1     0.02   0.00  -0.03     0.01   0.00  -0.01     0.01   0.01  -0.01
  67   1     0.06   0.02  -0.06     0.03   0.01  -0.02    -0.01  -0.00   0.01
  68   1     0.00   0.00  -0.08    -0.00   0.01  -0.03     0.01  -0.01   0.01
  69   1    -0.02  -0.02  -0.08    -0.00   0.01  -0.04     0.00  -0.00   0.02
  70   1     0.00  -0.02   0.02     0.01   0.00   0.00    -0.00   0.00  -0.01
  71   1     0.06   0.04  -0.04     0.04   0.03  -0.02    -0.02  -0.02   0.01
  72   1     0.08  -0.00   0.03     0.04  -0.01   0.01    -0.04   0.03  -0.02
  73   1     0.05   0.04   0.03     0.03   0.01   0.01    -0.03   0.02  -0.01
  74   1    -0.01  -0.03   0.01     0.01  -0.10   0.04    -0.14   0.14   0.01
  75   1    -0.00  -0.02   0.02     0.10  -0.02   0.04    -0.14   0.05  -0.12
  76   1    -0.01  -0.03   0.01    -0.01   0.01   0.01    -0.14   0.07  -0.08
  77   1    -0.02  -0.00  -0.01    -0.05   0.02  -0.02     0.08  -0.05   0.03
  78   1    -0.02   0.00  -0.01    -0.02   0.02  -0.01    -0.02   0.01  -0.02
  79   1     0.01  -0.01   0.01     0.04  -0.01   0.02    -0.12   0.07  -0.06
  80   1     0.01  -0.01   0.02     0.05  -0.02   0.04    -0.08   0.04  -0.05
  81   1    -0.00  -0.00   0.01     0.03  -0.01  -0.02    -0.01   0.01   0.03
  82   1     0.02  -0.01  -0.07    -0.01  -0.01   0.02     0.01   0.00  -0.01
  83   1     0.00  -0.02  -0.04    -0.01  -0.00   0.01    -0.00  -0.01  -0.01
  84   1    -0.02   0.03   0.02     0.00  -0.01  -0.00    -0.02   0.03   0.01
  85   1    -0.01   0.03   0.06     0.01  -0.01  -0.02     0.01   0.02   0.01
  86   1    -0.03   0.06   0.02     0.01  -0.03  -0.01    -0.02   0.01   0.01
  87   1     0.01  -0.06   0.01     0.00   0.01  -0.01     0.00  -0.02   0.00
  88   1    -0.00  -0.04   0.06     0.01   0.01  -0.02     0.00  -0.01   0.01
  89   1     0.01  -0.05   0.02    -0.00   0.01  -0.00     0.00  -0.01   0.01
  90   1    -0.00  -0.01   0.01     0.01  -0.02  -0.01     0.01  -0.03  -0.01
  91   1    -0.01   0.01   0.07     0.02  -0.02  -0.01     0.01  -0.00   0.04
  92   1    -0.03   0.05   0.02     0.01  -0.02  -0.01    -0.02   0.02  -0.00
  93   1    -0.01   0.03  -0.03     0.00  -0.01   0.01    -0.01   0.00  -0.01
  94   1     0.01   0.04  -0.06    -0.00  -0.02   0.02     0.01   0.01  -0.01
                     25                     26                     27
                        a                      a                      a 
 Frequencies --   140.6978               149.5410               156.3889
 Red. masses --    12.0956                11.1959                 9.4993
 Frc consts  --     0.0000                 0.0000                 0.0000
 IR Inten    --     1.4454                 2.7416                 3.5642
 Raman Activ --     0.0000                 0.0000                 0.0000
 Depolar     --     0.0000                 0.0000                 0.0000
 Atom AN      X      Y      Z        X      Y      Z        X      Y      Z
   1   6    -0.03  -0.10  -0.02     0.01   0.25  -0.12     0.08  -0.13  -0.02
   2   6     0.02  -0.07  -0.04     0.14   0.03  -0.03    -0.04  -0.00  -0.07
   3   7    -0.03  -0.04  -0.04     0.18   0.01   0.01    -0.08   0.02  -0.08
   4   6    -0.03  -0.05  -0.03     0.17  -0.03   0.02    -0.10   0.04  -0.07
   5   6    -0.11  -0.03  -0.00    -0.03   0.07   0.01    -0.02  -0.06   0.00
   6   6    -0.10  -0.10  -0.00    -0.16   0.11  -0.02     0.04  -0.17   0.02
   7   6    -0.01  -0.17  -0.01    -0.03   0.00  -0.03    -0.04  -0.13  -0.03
   8   6     0.04  -0.16  -0.04     0.17  -0.10  -0.03    -0.14  -0.03  -0.10
   9   6     0.04  -0.09  -0.03     0.22  -0.08  -0.01    -0.13   0.05  -0.09
  10   7     0.07  -0.09  -0.03     0.21  -0.05  -0.04    -0.09   0.05  -0.08
  11   6     0.01  -0.03   0.02     0.05   0.03   0.01    -0.08   0.06   0.03
  12   6    -0.13   0.12   0.20    -0.01   0.08   0.07    -0.10   0.06   0.08
  13   6    -0.15   0.14   0.21    -0.05   0.11   0.11    -0.05   0.03   0.08
  14  16    -0.01   0.10   0.09     0.02   0.05   0.08     0.01   0.05   0.08
  15   8     0.39  -0.02   0.23     0.25   0.02   0.13     0.12   0.04   0.08
  16   8    -0.09   0.00  -0.17    -0.10  -0.01  -0.04    -0.01   0.03   0.05
  17   6    -0.06   0.02  -0.06    -0.00  -0.02  -0.01     0.01   0.02   0.01
  18   6    -0.02  -0.00  -0.03    -0.02  -0.02  -0.02     0.03   0.00   0.03
  19   6     0.03  -0.03   0.01    -0.02  -0.01  -0.02     0.03   0.00   0.02
  20   6     0.04  -0.04   0.01    -0.01  -0.02  -0.00     0.01   0.02  -0.01
  21   6     0.03  -0.01   0.02    -0.01  -0.00   0.01     0.01   0.01  -0.01
  22   6    -0.02  -0.02   0.04    -0.00   0.01   0.01     0.02   0.01  -0.02
  23   6    -0.01   0.01   0.02    -0.03  -0.01   0.04     0.02   0.01  -0.02
  24   6     0.06   0.05  -0.03    -0.01   0.00   0.01     0.01   0.00  -0.01
  25   6     0.01  -0.02  -0.01     0.00  -0.03   0.01    -0.02   0.05  -0.03
  26   6    -0.04   0.01  -0.04     0.01  -0.03   0.00    -0.01   0.04  -0.01
  27   6    -0.02   0.03   0.02    -0.08   0.04   0.04     0.03   0.02   0.03
  28   7    -0.02   0.02  -0.01    -0.06  -0.01  -0.07     0.17  -0.06  -0.01
  29   6    -0.00   0.01  -0.01    -0.03  -0.06  -0.06     0.11   0.01  -0.02
  30   6    -0.07   0.07  -0.05     0.05  -0.18   0.02    -0.02   0.17  -0.13
  31   7     0.07  -0.03   0.02    -0.05  -0.05  -0.07     0.13  -0.00   0.01
  32   6     0.07  -0.03   0.02    -0.07  -0.02  -0.07     0.14  -0.04   0.03
  33   6     0.07  -0.02   0.01    -0.06  -0.07  -0.01    -0.03   0.03  -0.01
  34   6    -0.02   0.04  -0.03    -0.03  -0.16   0.02    -0.14   0.06  -0.05
  35   6    -0.08   0.07  -0.05    -0.03  -0.17  -0.00    -0.03  -0.03  -0.04
  36   6    -0.04   0.04  -0.03    -0.07  -0.11  -0.07     0.14  -0.10   0.00
  37   6     0.02   0.00   0.00    -0.08  -0.02  -0.08     0.18  -0.08   0.02
  38   6     0.08  -0.09  -0.11    -0.12   0.07   0.11    -0.03   0.11   0.10
  39   6     0.10  -0.10  -0.11    -0.08   0.05   0.10    -0.07   0.13   0.11
  40  16     0.09   0.03  -0.05    -0.07  -0.02   0.03    -0.05  -0.01   0.06
  41   8    -0.14   0.10  -0.10     0.12  -0.07   0.07     0.14  -0.07   0.10
  42   8     0.11   0.02   0.03    -0.06  -0.05  -0.05    -0.02  -0.05   0.01
  43   6     0.09   0.04   0.08    -0.09  -0.00  -0.06    -0.14  -0.04  -0.06
  44   6     0.02   0.04   0.06    -0.05   0.02  -0.05    -0.10  -0.04  -0.04
  45   6    -0.06   0.02   0.02     0.02   0.04  -0.03     0.00  -0.01  -0.01
  46   6    -0.09   0.01   0.01     0.05   0.06  -0.01     0.07   0.00   0.01
  47   6    -0.05   0.03  -0.02     0.03   0.06   0.02     0.07  -0.00   0.02
  48   6    -0.03   0.11  -0.01     0.01   0.01   0.03     0.05  -0.12   0.01
  49   6    -0.02   0.08  -0.02     0.01   0.01   0.03     0.06  -0.02   0.02
  50   6     0.01  -0.06  -0.03    -0.04   0.15   0.04    -0.00   0.09   0.02
  51   6    -0.04   0.01   0.03    -0.00   0.04  -0.03    -0.02  -0.02  -0.02
  52   6     0.05   0.03   0.07    -0.07   0.02  -0.05    -0.12  -0.05  -0.06
  53   1    -0.13  -0.03   0.01     0.05   0.07  -0.10    -0.03  -0.04   0.04
  54   1     0.04   0.07  -0.04    -0.03   0.05   0.03     0.05  -0.01  -0.06
  55   1     0.06  -0.13   0.02    -0.05   0.14  -0.06     0.07  -0.09   0.02
  56   1    -0.05   0.01   0.01    -0.03   0.04   0.00     0.01  -0.02   0.02
  57   1    -0.04  -0.03   0.00    -0.11   0.06  -0.01     0.04  -0.08   0.02
  58   1     0.00  -0.06  -0.00    -0.04   0.01  -0.02     0.00  -0.06  -0.01
  59   1     0.02  -0.06  -0.02     0.07  -0.04  -0.01    -0.05  -0.01  -0.05
  60   1    -0.05   0.06   0.09     0.00   0.02   0.02    -0.03   0.01   0.02
  61   1    -0.00  -0.00  -0.01    -0.01  -0.00  -0.01     0.01  -0.00   0.01
  62   1     0.02  -0.02   0.01    -0.01   0.00  -0.01     0.01  -0.01   0.01
  63   1    -0.02   0.01   0.01    -0.00   0.01   0.01     0.01  -0.01  -0.01
  64   1    -0.02  -0.02   0.02    -0.01  -0.01   0.00     0.01   0.02  -0.01
  65   1     0.01  -0.01   0.01     0.01   0.00  -0.01    -0.01   0.00   0.00
  66   1    -0.01  -0.00   0.01    -0.01  -0.00   0.01     0.01   0.01  -0.01
  67   1    -0.00   0.01   0.01    -0.01  -0.01   0.01     0.01   0.00  -0.01
  68   1    -0.01   0.01   0.01    -0.01   0.00   0.01     0.01  -0.00  -0.01
  69   1    -0.01   0.02  -0.03    -0.00   0.00   0.00     0.01   0.00   0.01
  70   1     0.02   0.00   0.01     0.00   0.00   0.00     0.00   0.01  -0.01
  71   1     0.05   0.04  -0.02    -0.00   0.00   0.00    -0.01  -0.01  -0.00
  72   1     0.00  -0.01   0.00     0.00  -0.01   0.01    -0.01   0.02  -0.01
  73   1    -0.01   0.00  -0.01     0.00  -0.01   0.00    -0.00   0.02  -0.01
  74   1    -0.05  -0.01   0.03     0.03  -0.07  -0.02    -0.01   0.09  -0.01
  75   1     0.04   0.02  -0.03     0.00  -0.05   0.04    -0.02   0.04  -0.09
  76   1    -0.06   0.07  -0.04     0.03  -0.08   0.02    -0.01   0.06  -0.04
  77   1     0.03  -0.01   0.01    -0.02  -0.01   0.01    -0.03   0.03  -0.00
  78   1    -0.01   0.02  -0.01     0.00  -0.06   0.02    -0.09   0.04  -0.03
  79   1    -0.04   0.03  -0.02     0.00  -0.06   0.01    -0.03  -0.01  -0.02
  80   1    -0.02   0.02  -0.01    -0.02  -0.04  -0.03     0.06  -0.04   0.00
  81   1     0.04  -0.05  -0.07    -0.04   0.03   0.04    -0.01   0.04   0.04
  82   1     0.01   0.02   0.02    -0.02   0.01  -0.02    -0.04  -0.02  -0.02
  83   1    -0.03   0.00   0.00     0.02   0.01  -0.00     0.01  -0.00   0.00
  84   1    -0.05   0.09   0.03     0.04  -0.06  -0.04     0.10  -0.16  -0.09
  85   1     0.05   0.06  -0.04    -0.06  -0.02   0.05    -0.12  -0.09   0.09
  86   1    -0.03  -0.03  -0.00     0.02   0.08   0.01     0.07   0.11   0.00
  87   1    -0.00   0.03  -0.01    -0.00  -0.01   0.01     0.00  -0.04   0.01
  88   1    -0.00   0.03  -0.01     0.01   0.00   0.02     0.05   0.00   0.02
  89   1    -0.01   0.03   0.00    -0.00   0.01  -0.00    -0.00   0.02  -0.01
  90   1     0.02  -0.07  -0.05    -0.04   0.11   0.06    -0.06   0.17   0.12
  91   1     0.04  -0.01   0.04    -0.06   0.04  -0.07    -0.07   0.03  -0.17
  92   1    -0.04   0.01  -0.03     0.04  -0.00   0.04     0.11  -0.09   0.07
  93   1    -0.02  -0.00   0.00     0.00   0.01  -0.01    -0.00  -0.00  -0.00
  94   1     0.02   0.01   0.02    -0.03   0.01  -0.02    -0.05  -0.02  -0.02
                     28                     29                     30
                        a                      a                      a 
 Frequencies --   158.9702               167.2494               174.1058
 Red. masses --    11.8352                 7.6991                 7.2272
 Frc consts  --     0.0000                 0.0000                 0.0000
 IR Inten    --     0.2672                 0.5082                 2.4304
 Raman Activ --     0.0000                 0.0000                 0.0000
[...]
  44   6    -0.00  -0.01   0.01    -0.00  -0.00   0.00    -0.00  -0.00   0.00
  45   6     0.00  -0.00  -0.00     0.00  -0.00  -0.00     0.00  -0.00  -0.00
  46   6    -0.00   0.00  -0.00    -0.00   0.00  -0.00     0.00  -0.00  -0.00
  47   6     0.00   0.00  -0.00     0.00   0.00  -0.00    -0.00   0.00   0.00
  48   6     0.00  -0.00  -0.00     0.00  -0.00  -0.00    -0.00   0.00   0.00
  49   6    -0.00   0.00   0.00    -0.00   0.00  -0.00    -0.00   0.00  -0.00
  50   6     0.00  -0.00  -0.00     0.00   0.00  -0.00    -0.00   0.00   0.00
  51   6     0.00   0.03  -0.04     0.00   0.01  -0.01    -0.00  -0.00   0.00
  52   6    -0.00   0.00   0.00    -0.00   0.00   0.00    -0.00   0.00   0.00
  53   1    -0.00   0.00   0.00     0.00   0.00   0.00     0.00  -0.00   0.00
  54   1     0.00  -0.00   0.00    -0.00   0.00  -0.00    -0.00   0.00  -0.00
  55   1     0.00   0.00  -0.00    -0.00  -0.00   0.00     0.00   0.00  -0.00
  56   1    -0.00  -0.00   0.00    -0.00  -0.00   0.00     0.47   0.62  -0.35
  57   1    -0.00  -0.00  -0.00    -0.00  -0.00  -0.00     0.11   0.24   0.19
  58   1     0.00  -0.00  -0.00     0.00  -0.00  -0.00    -0.05   0.01   0.24
  59   1     0.01   0.01  -0.01     0.00   0.00  -0.00    -0.09  -0.11   0.07
  60   1     0.01  -0.03   0.03    -0.01   0.02  -0.02    -0.02   0.06  -0.05
  61   1    -0.00  -0.00  -0.00    -0.00  -0.01  -0.00    -0.00  -0.00  -0.00
  62   1     0.00  -0.00  -0.01    -0.00   0.00   0.00     0.00  -0.00  -0.00
  63   1    -0.00  -0.00   0.00     0.00   0.00  -0.00    -0.00  -0.00   0.00
  64   1    -0.00   0.00  -0.00     0.00  -0.00  -0.00    -0.00   0.00   0.00
  65   1     0.00   0.00   0.00    -0.00   0.00   0.00    -0.00  -0.00  -0.00
  66   1    -0.00   0.00   0.00     0.00  -0.00  -0.00    -0.00   0.00   0.00
  67   1     0.00  -0.00   0.00    -0.00   0.00  -0.00     0.00  -0.00   0.00
  68   1    -0.00  -0.00   0.00     0.00   0.00  -0.00    -0.00  -0.00   0.00
  69   1    -0.00  -0.00   0.00     0.00   0.00  -0.00    -0.00  -0.00   0.00
  70   1    -0.00  -0.00  -0.00    -0.00  -0.00  -0.00    -0.00  -0.00  -0.00
  71   1     0.00   0.00   0.00    -0.00   0.00  -0.00     0.00  -0.00   0.00
  72   1     0.01   0.02   0.01    -0.04  -0.09  -0.03    -0.00  -0.00  -0.00
  73   1     0.05  -0.07  -0.15    -0.20   0.27   0.59    -0.00   0.00   0.00
  74   1     0.01  -0.00   0.01     0.00  -0.00   0.00    -0.00   0.00  -0.00
  75   1    -0.00   0.01  -0.00    -0.00   0.01  -0.00     0.00  -0.00   0.00
  76   1     0.01   0.00  -0.01     0.00   0.00  -0.00     0.00   0.00  -0.00
  77   1    -0.02  -0.03   0.02     0.12   0.15  -0.09    -0.00  -0.00   0.00
  78   1     0.00   0.01   0.01    -0.02  -0.07  -0.04    -0.00  -0.00  -0.00
  79   1    -0.02   0.01   0.04     0.10  -0.05  -0.28     0.00  -0.00  -0.00
  80   1    -0.04  -0.05   0.03     0.31   0.35  -0.23    -0.00  -0.00   0.00
  81   1     0.27  -0.66   0.57     0.05  -0.13   0.11     0.00  -0.01   0.01
  82   1     0.01   0.05  -0.05     0.00   0.01  -0.01     0.00   0.01  -0.01
  83   1    -0.01   0.01   0.01    -0.00   0.00   0.00    -0.00   0.00   0.00
  84   1     0.00   0.00  -0.00     0.00   0.00  -0.00    -0.00  -0.00   0.00
  85   1     0.00  -0.00  -0.00     0.00  -0.00  -0.00     0.00  -0.00  -0.00
  86   1    -0.00   0.00   0.01    -0.00   0.00   0.00     0.00  -0.00  -0.00
  87   1     0.00   0.00   0.00     0.00  -0.00   0.00     0.00  -0.00   0.00
  88   1     0.00  -0.00  -0.00     0.00  -0.00  -0.00     0.00  -0.00   0.00
  89   1    -0.00  -0.00   0.00     0.00   0.00  -0.00    -0.00  -0.00   0.00
  90   1    -0.00   0.00  -0.00     0.00  -0.00   0.00     0.00  -0.00   0.00
  91   1     0.00  -0.00  -0.00     0.00  -0.00  -0.00     0.00  -0.00  -0.00
  92   1    -0.00   0.00   0.01    -0.00   0.00   0.00     0.00  -0.00  -0.00
  93   1    -0.02  -0.12   0.15    -0.00  -0.02   0.03     0.00   0.01  -0.01
  94   1     0.01  -0.01  -0.02     0.00  -0.00  -0.00     0.00  -0.00  -0.00
                    271                    272                    273
                        a                      a                      a 
 Frequencies --  3104.6522              3106.2787              3106.3533
 Red. masses --     1.8318                 1.8669                 1.8532
 Frc consts  --     0.0000                 0.0000                 0.0000
 IR Inten    --     0.5957                28.2223                32.1608
 Raman Activ --     0.0000                 0.0000                 0.0000
 Depolar     --     0.0000                 0.0000                 0.0000
 Atom AN      X      Y      Z        X      Y      Z        X      Y      Z
   1   6     0.01   0.00  -0.00    -0.00  -0.00   0.00    -0.00  -0.00  -0.00
   2   6     0.00   0.00  -0.00     0.00   0.00  -0.00     0.00   0.00  -0.00
   3   7    -0.00  -0.00   0.00    -0.00  -0.00   0.00    -0.00  -0.00   0.00
   4   6     0.00  -0.00  -0.00     0.00   0.00  -0.00     0.00   0.00  -0.00
   5   6     0.01   0.01  -0.01     0.00   0.00  -0.00     0.00   0.00  -0.00
   6   6     0.00   0.01   0.01     0.00   0.00   0.00     0.00   0.00   0.00
   7   6    -0.00   0.00   0.01    -0.00   0.00   0.00    -0.00   0.00   0.00
   8   6    -0.00  -0.00   0.00    -0.00  -0.00   0.00    -0.00  -0.00   0.00
   9   6     0.00  -0.00   0.00    -0.00  -0.00   0.00    -0.00   0.00   0.00
  10   7    -0.00   0.00   0.00    -0.00  -0.00   0.00    -0.00  -0.00   0.00
  11   6    -0.00  -0.01   0.00     0.00  -0.00   0.00     0.00   0.00   0.00
  12   6     0.09  -0.20   0.17     0.00  -0.00   0.00    -0.00   0.00  -0.00
  13   6     0.01  -0.00   0.00     0.00  -0.00   0.00    -0.00  -0.00  -0.00
  14  16    -0.00  -0.00  -0.00    -0.00  -0.00  -0.00     0.00   0.00   0.00
  15   8     0.00   0.00   0.00     0.00   0.00   0.00    -0.00  -0.00   0.00
  16   8     0.00   0.00   0.00     0.00   0.00   0.00     0.00  -0.00  -0.00
  17   6     0.00  -0.00   0.00    -0.00   0.00   0.00     0.00  -0.00  -0.00
  18   6     0.00   0.00   0.00    -0.00  -0.01  -0.00     0.03   0.06   0.02
  19   6    -0.00   0.00   0.00     0.01  -0.01  -0.02    -0.07   0.11   0.23
  20   6    -0.00  -0.00   0.00     0.00   0.00  -0.00    -0.01  -0.00   0.01
  21   6     0.00   0.00   0.00    -0.00  -0.00  -0.00     0.00   0.00   0.00
  22   6     0.00   0.00   0.00    -0.00  -0.00  -0.00     0.00   0.01   0.01
  23   6    -0.00  -0.00   0.00     0.00   0.00  -0.00    -0.00  -0.00   0.00
  24   6     0.00   0.00   0.00    -0.00  -0.00  -0.00     0.00   0.01   0.00
  25   6    -0.00  -0.00  -0.00    -0.00  -0.00   0.00     0.00   0.00  -0.00
  26   6    -0.00   0.00   0.00    -0.00   0.00   0.00     0.00  -0.00  -0.00
  27   6    -0.00   0.00  -0.00     0.00   0.00  -0.00     0.00   0.00   0.00
  28   7     0.00  -0.00   0.00     0.00   0.00  -0.00     0.00   0.00   0.00
  29   6     0.00   0.00   0.00    -0.00  -0.00   0.00    -0.00   0.00   0.00
  30   6    -0.00   0.00  -0.00    -0.00  -0.00  -0.00    -0.00   0.00   0.00
  31   7    -0.00  -0.00  -0.00     0.00   0.00  -0.00    -0.00   0.00   0.00
  32   6    -0.00  -0.00  -0.00     0.00  -0.00  -0.00     0.00  -0.00  -0.00
  33   6     0.00   0.00  -0.00     0.00   0.00  -0.00     0.00   0.00  -0.00
  34   6    -0.00  -0.00  -0.00     0.00   0.00   0.00     0.00   0.00   0.00
  35   6     0.00  -0.00  -0.00    -0.00   0.00   0.00     0.00  -0.00  -0.00
  36   6     0.01   0.01  -0.00    -0.00  -0.00   0.00     0.00   0.00  -0.00
  37   6     0.00   0.00   0.00    -0.00  -0.00  -0.00     0.00  -0.00  -0.00
  38   6    -0.00   0.01  -0.01    -0.01   0.03  -0.03    -0.00   0.00  -0.00
  39   6    -0.00   0.00  -0.00    -0.00  -0.00  -0.00    -0.00  -0.00  -0.00
  40  16     0.00  -0.00   0.00    -0.00   0.00   0.00     0.00   0.00   0.00
  41   8     0.00   0.00   0.00     0.00   0.00  -0.00    -0.00   0.00  -0.00
  42   8     0.00   0.00  -0.00    -0.00  -0.00   0.00    -0.00  -0.00   0.00
  43   6    -0.00   0.00   0.00    -0.00   0.00  -0.00    -0.00   0.00  -0.00
  44   6     0.00   0.00  -0.00     0.00   0.00  -0.00     0.00   0.00  -0.00
  45   6    -0.00  -0.00   0.00    -0.00   0.00   0.00    -0.00   0.00   0.00
  46   6    -0.00   0.00   0.00     0.00  -0.01  -0.00     0.00  -0.00  -0.00
  47   6     0.00  -0.00  -0.00    -0.00  -0.00   0.00    -0.00  -0.00   0.00
  48   6     0.00  -0.00  -0.00    -0.00   0.00   0.01    -0.00   0.00   0.00
  49   6    -0.00   0.00  -0.00     0.00  -0.00   0.00     0.00  -0.00   0.00
  50   6     0.00   0.00  -0.00    -0.01   0.00   0.01    -0.00   0.00   0.00
  51   6     0.00   0.00  -0.00    -0.02  -0.15   0.19    -0.00  -0.02   0.02
  52   6     0.00  -0.00  -0.00    -0.05   0.04   0.11    -0.00   0.00   0.01
  53   1     0.00  -0.01   0.00    -0.00   0.00  -0.00    -0.00   0.00  -0.00
  54   1    -0.02   0.01  -0.01     0.00  -0.00   0.00     0.00  -0.00   0.00
  55   1    -0.01  -0.00   0.01     0.00   0.00  -0.00    -0.00  -0.00   0.00
  56   1    -0.04  -0.05   0.03    -0.00  -0.01   0.00    -0.00  -0.00   0.00
  57   1    -0.01  -0.02  -0.02    -0.00  -0.00  -0.00    -0.00  -0.00  -0.00
  58   1     0.00  -0.00  -0.02     0.00  -0.00  -0.01     0.00  -0.00  -0.00
  59   1     0.01   0.01  -0.01     0.00   0.01  -0.00     0.00   0.00  -0.00
  60   1    -0.30   0.69  -0.59    -0.00   0.01  -0.01     0.00  -0.01   0.01
  61   1    -0.00  -0.00  -0.00     0.01   0.02   0.01    -0.09  -0.19  -0.06
  62   1     0.00  -0.00  -0.01    -0.03   0.04   0.08     0.25  -0.39  -0.80
  63   1    -0.00  -0.00   0.00     0.00  -0.00  -0.00     0.00   0.00   0.00
  64   1    -0.00   0.00   0.00     0.00  -0.00  -0.00    -0.01   0.01   0.00
  65   1    -0.00  -0.00  -0.00     0.00   0.00   0.00    -0.01  -0.04  -0.02
  66   1    -0.00   0.00   0.00    -0.00   0.00  -0.00     0.00  -0.00   0.00
  67   1    -0.00   0.00  -0.00     0.00  -0.00   0.00    -0.00   0.00  -0.00
  68   1     0.00   0.00  -0.00    -0.00  -0.00   0.00     0.00   0.00  -0.00
  69   1    -0.00  -0.00   0.00    -0.00  -0.00  -0.00     0.00   0.00  -0.00
  70   1    -0.00  -0.00  -0.00     0.00   0.00   0.00    -0.02  -0.05  -0.03
  71   1    -0.00   0.00  -0.00    -0.00  -0.00  -0.00     0.00   0.00   0.01
  72   1     0.00   0.00   0.00     0.00   0.00   0.00    -0.01  -0.01  -0.00
  73   1     0.00  -0.00  -0.01     0.00  -0.00  -0.00    -0.00   0.00   0.01
  74   1    -0.00   0.00  -0.00     0.00  -0.00   0.00     0.00  -0.00   0.00
  75   1     0.00  -0.00   0.00    -0.00   0.00  -0.00    -0.00  -0.00   0.00
  76   1     0.00   0.00  -0.00     0.00   0.00  -0.00     0.01   0.00  -0.01
  77   1    -0.01  -0.01   0.01    -0.01  -0.01   0.00    -0.01  -0.01   0.01
  78   1     0.00   0.00   0.00    -0.00  -0.00  -0.00    -0.00  -0.00  -0.00
  79   1    -0.00   0.00   0.01     0.00  -0.00  -0.00    -0.00   0.00   0.00
  80   1    -0.02  -0.03   0.02     0.00   0.00  -0.00    -0.00  -0.00   0.00
  81   1     0.01  -0.03   0.02     0.05  -0.12   0.10     0.00  -0.01   0.01
  82   1    -0.00  -0.00   0.00    -0.00  -0.00   0.00    -0.00  -0.00   0.00
  83   1     0.00  -0.00  -0.00     0.01  -0.01  -0.01     0.00  -0.00  -0.00
  84   1     0.00   0.00  -0.00    -0.01  -0.00   0.00    -0.00  -0.00   0.00
  85   1     0.00  -0.00  -0.00    -0.00   0.00   0.00    -0.00   0.00   0.00
  86   1    -0.00   0.00   0.00     0.02  -0.00  -0.04     0.00  -0.00  -0.00
  87   1     0.00   0.00   0.00    -0.00  -0.00  -0.00    -0.00  -0.00  -0.00
  88   1     0.00  -0.00  -0.00    -0.00   0.00   0.00    -0.00   0.00   0.00
  89   1     0.00   0.00  -0.00     0.00   0.00  -0.00     0.00   0.00  -0.00
  90   1     0.00   0.00   0.00     0.00  -0.00   0.01     0.00  -0.00   0.00
  91   1     0.00  -0.00  -0.00    -0.00   0.00   0.00    -0.00   0.00   0.00
  92   1    -0.00   0.00   0.00     0.02  -0.01  -0.04     0.00  -0.00  -0.00
  93   1    -0.00  -0.01   0.01     0.07   0.53  -0.65     0.01   0.06  -0.07
  94   1    -0.00   0.00   0.00     0.16  -0.13  -0.36     0.02  -0.01  -0.04
                    274                    275                    276
                        a                      a                      a 
 Frequencies --  3109.0981              3127.9395              3133.6218
 Red. masses --     1.8784                 1.8443                 1.8431
 Frc consts  --     0.0000                 0.0000                 0.0000
 IR Inten    --    42.7367                11.9345                11.0251
 Raman Activ --     0.0000                 0.0000                 0.0000
 Depolar     --     0.0000                 0.0000                 0.0000
 Atom AN      X      Y      Z        X      Y      Z        X      Y      Z
   1   6    -0.00  -0.00  -0.00    -0.00  -0.00   0.00     0.00   0.00   0.00
   2   6    -0.00  -0.00   0.00     0.00   0.00  -0.00     0.00   0.00  -0.00
   3   7     0.00   0.00  -0.00    -0.00  -0.00   0.00    -0.00  -0.00   0.00
   4   6     0.00  -0.00  -0.00     0.00   0.00   0.00     0.00   0.00   0.00
   5   6     0.00   0.00  -0.00     0.00   0.00  -0.00    -0.00  -0.00   0.00
   6   6     0.00   0.00   0.00     0.00   0.00   0.00    -0.00  -0.00  -0.00
   7   6     0.00  -0.00  -0.00    -0.00   0.00   0.00     0.00   0.00  -0.00
   8   6     0.00   0.00  -0.00    -0.00  -0.00   0.00     0.00   0.00  -0.00
   9   6    -0.00  -0.00  -0.00     0.00   0.00   0.00     0.00   0.00   0.00
  10   7     0.00   0.00  -0.00    -0.00  -0.00   0.00    -0.00  -0.00   0.00
  11   6    -0.00  -0.00  -0.00     0.00   0.00  -0.00     0.00   0.00  -0.00
  12   6    -0.00   0.00  -0.00    -0.00   0.00  -0.00    -0.00   0.00  -0.00
  13   6    -0.00   0.00  -0.00     0.00   0.00   0.00    -0.00   0.00   0.00
  14  16     0.00  -0.00   0.00    -0.00  -0.00  -0.00     0.00  -0.00  -0.00
  15   8     0.00  -0.00  -0.00     0.00   0.00   0.00    -0.00   0.00   0.00
  16   8    -0.00   0.00  -0.00     0.00  -0.00   0.00    -0.00  -0.00   0.00
  17   6     0.00   0.00  -0.00     0.00   0.00   0.00     0.00   0.00   0.00
  18   6    -0.00  -0.00  -0.00    -0.00  -0.00   0.00     0.00   0.00   0.00
  19   6     0.00  -0.00  -0.00     0.00  -0.00  -0.00     0.00   0.00   0.00
  20   6     0.00   0.00  -0.00     0.00   0.00  -0.00    -0.01  -0.00   0.00
  21   6    -0.00   0.00   0.00     0.00  -0.00   0.00    -0.00  -0.00  -0.00
  22   6     0.00  -0.00  -0.00    -0.00  -0.00  -0.00    -0.00  -0.00  -0.00
  23   6    -0.00   0.00   0.00     0.00   0.00   0.00     0.00  -0.00  -0.00
  24   6     0.00  -0.00  -0.00     0.00  -0.00  -0.00    -0.00  -0.00  -0.00
  25   6    -0.00  -0.00  -0.00     0.00   0.00   0.00    -0.11  -0.23  -0.09
  26   6     0.00  -0.00  -0.01     0.00  -0.00  -0.00     0.01  -0.02  -0.04
  27   6    -0.00  -0.00   0.00    -0.00  -0.00   0.00     0.00  -0.00   0.00
  28   7     0.00   0.00   0.00     0.00   0.00  -0.00     0.00   0.00  -0.00
  29   6     0.00   0.00  -0.00    -0.00  -0.00   0.00    -0.00  -0.00  -0.00
  30   6     0.00  -0.00  -0.00     0.00  -0.00   0.00     0.00  -0.00   0.00
  31   7    -0.00   0.00   0.00     0.00   0.00  -0.00     0.00  -0.00  -0.00
  32   6     0.00  -0.00  -0.01    -0.00   0.00   0.00    -0.00  -0.00   0.00
  33   6     0.15   0.17  -0.11    -0.00  -0.00   0.00    -0.00  -0.00   0.00
  34   6     0.02   0.07   0.05    -0.00  -0.00  -0.00     0.00   0.00   0.00
  35   6    -0.02   0.01   0.05     0.00  -0.00  -0.00    -0.00   0.00   0.00
  36   6    -0.03  -0.03   0.02     0.00   0.00  -0.00    -0.00  -0.00   0.00
  37   6    -0.00  -0.00  -0.00     0.00  -0.00  -0.00    -0.00  -0.00  -0.00
  38   6     0.00  -0.00   0.00     0.00  -0.00   0.00     0.00  -0.00   0.00
  39   6     0.00  -0.00   0.00     0.00  -0.00   0.00    -0.00  -0.00   0.00
  40  16    -0.00  -0.00  -0.00     0.00   0.00  -0.00     0.00  -0.00   0.00
  41   8     0.00   0.00   0.00     0.00  -0.00  -0.00    -0.00   0.00  -0.00
  42   8     0.00   0.00  -0.00    -0.00  -0.00   0.00    -0.00  -0.00   0.00
  43   6     0.00  -0.00   0.00    -0.00   0.00   0.00    -0.00   0.00  -0.00
  44   6    -0.00  -0.00   0.00     0.01   0.03  -0.04    -0.00  -0.00   0.00
  45   6     0.00  -0.00  -0.00     0.10  -0.07  -0.24     0.00  -0.00  -0.00
  46   6    -0.00   0.00   0.00     0.00  -0.01  -0.00     0.00  -0.00  -0.00
  47   6    -0.00   0.00  -0.00     0.00  -0.00  -0.00    -0.00  -0.00  -0.00
  48   6     0.00   0.00  -0.00     0.00   0.00  -0.00    -0.00  -0.00   0.00
  49   6     0.00   0.00   0.00     0.00   0.00  -0.00    -0.00  -0.00  -0.00
  50   6    -0.00   0.00  -0.00    -0.00  -0.00  -0.00     0.00  -0.00   0.00
  51   6     0.00   0.00  -0.00    -0.00  -0.00   0.00    -0.00  -0.00   0.00
  52   6     0.00  -0.00  -0.00    -0.00   0.00   0.00     0.00  -0.00  -0.00
  53   1    -0.00   0.00  -0.00    -0.00   0.00  -0.00     0.00  -0.00  -0.00
  54   1     0.00  -0.00   0.00     0.00  -0.00   0.00    -0.00   0.00  -0.00
  55   1    -0.00   0.00  -0.00     0.00   0.00  -0.00    -0.00  -0.00   0.00
  56   1    -0.00  -0.00   0.00    -0.00  -0.00   0.00     0.00   0.00  -0.00
  57   1    -0.00  -0.00  -0.00    -0.00  -0.00  -0.00     0.00   0.00   0.00
  58   1    -0.00   0.00   0.00     0.00  -0.00  -0.00    -0.00   0.00   0.00
  59   1    -0.00  -0.00   0.00     0.00   0.00  -0.00    -0.00  -0.00   0.00
  60   1     0.00  -0.00   0.00     0.00  -0.00   0.00     0.00  -0.00   0.00
  61   1     0.00   0.01   0.00     0.00   0.00   0.00    -0.00  -0.00  -0.00
  62   1    -0.00   0.01   0.02    -0.00   0.00   0.00     0.00  -0.01  -0.01
  63   1     0.00  -0.00   0.00    -0.00  -0.00   0.00     0.00   0.00  -0.00
  64   1    -0.00   0.00   0.00     0.00  -0.00  -0.00    -0.00   0.00  -0.00
  65   1     0.00   0.00   0.00     0.00   0.00   0.00     0.00   0.00   0.00
  66   1     0.01  -0.01  -0.00     0.00  -0.00  -0.00    -0.01   0.01   0.00
  67   1    -0.00   0.00  -0.00    -0.00   0.00  -0.00     0.00  -0.00   0.01
  68   1    -0.00   0.00  -0.00    -0.00  -0.00   0.00    -0.00  -0.00   0.00
  69   1    -0.00  -0.00   0.00    -0.00  -0.00   0.00     0.00   0.00  -0.00
  70   1     0.00   0.00   0.00     0.00   0.00   0.00     0.00   0.00   0.00
  71   1    -0.00   0.00  -0.00    -0.00   0.00  -0.00     0.00  -0.00   0.00
  72   1     0.00   0.00   0.00    -0.00  -0.00  -0.00     0.39   0.81   0.31
  73   1    -0.01   0.01   0.03    -0.00   0.00   0.00    -0.04   0.06   0.12
  74   1     0.00  -0.00   0.00    -0.00   0.00  -0.00    -0.00   0.00  -0.00
  75   1    -0.00   0.00  -0.00    -0.00  -0.00   0.00     0.00   0.00  -0.00
  76   1    -0.00  -0.00   0.00     0.00   0.00  -0.00    -0.00  -0.00   0.00
  77   1    -0.51  -0.60   0.39     0.00   0.00  -0.00     0.01   0.01  -0.00
  78   1    -0.07  -0.22  -0.14     0.00   0.00   0.00    -0.00  -0.00  -0.00
  79   1     0.06  -0.03  -0.18    -0.00   0.00   0.00     0.00  -0.00  -0.00
  80   1     0.10   0.12  -0.08    -0.00  -0.00   0.00     0.00   0.00  -0.00
  81   1    -0.00   0.01  -0.00    -0.00   0.00  -0.00    -0.00   0.00  -0.00
  82   1     0.00   0.00  -0.00    -0.01  -0.10   0.11     0.00   0.00  -0.00
  83   1    -0.00   0.00   0.00    -0.37   0.27   0.83    -0.00   0.00   0.00
  84   1     0.00   0.00  -0.00    -0.00  -0.00  -0.00     0.00   0.00  -0.00
  85   1     0.00  -0.00  -0.00    -0.00   0.00   0.00    -0.00   0.00   0.00
  86   1    -0.00   0.00   0.00    -0.00  -0.00   0.00     0.00  -0.00  -0.00
  87   1    -0.00   0.00  -0.00     0.01  -0.00   0.01     0.00  -0.00   0.00
  88   1     0.00  -0.00  -0.00     0.00  -0.00   0.00    -0.00   0.00  -0.00
  89   1    -0.00  -0.00   0.00    -0.01  -0.01   0.00     0.00   0.00  -0.00
  90   1     0.00   0.00   0.00     0.00  -0.00   0.00    -0.00   0.00  -0.00
  91   1     0.00  -0.00  -0.00    -0.00   0.00   0.00    -0.00   0.00   0.00
  92   1    -0.00   0.00   0.00    -0.00  -0.00   0.00     0.00  -0.00  -0.00
  93   1    -0.00  -0.01   0.01     0.00   0.01  -0.01     0.00   0.00  -0.00
  94   1    -0.00   0.00   0.00     0.00  -0.00  -0.00    -0.00   0.00   0.00
