94
 energy: -145.835697642515 gnorm: 0.000078656718 xtb: 6.7.1 (edcfbbe)
C            2.48244045459256        3.59766571756643       -2.05760352224386
C            3.33288484251067        3.10814160102720       -0.95494073263592
N            4.44278117109033        3.64244355865525       -0.56678530494751
C            4.88081261516046        2.90951660537419        0.51369915709622
C            6.03314338396006        3.02132855649711        1.27008070450177
C            6.20936283313700        2.12009848070874        2.31313504010822
C            5.27262837395959        1.12537002023965        2.58967122077117
C            4.11542018880008        0.99416671804506        1.84261154361475
C            3.92758624196550        1.89988897285917        0.80504075359415
N            2.95406031574496        2.02450958015411       -0.15343752822852
C            1.79316002951327        1.28905293775586       -0.25703113024122
C            1.00917304125044        1.04344546910957        0.85210660568341
C           -0.19317531871473        0.35275977821178        0.76865647463262
S           -1.25534755633499        0.41113513379267        2.19927653422210
O           -0.80355640279237        1.52246741990065        3.01226640590569
O           -1.24432408096678       -0.88192968228418        2.86121344464051
C           -2.92136545491213        0.74821396361778        1.64325945989391
C           -3.17963951379662        1.94533159057936        1.00583679340681
C           -4.47280090913332        2.24105174234972        0.61339414832163
C           -5.52162921331396        1.35284949272588        0.84925923341908
C           -6.95822324565958        1.71069921845875        0.50426000337058
C           -7.59087148619988        2.31284930913863        1.76956044420363
C           -7.75325619142485        0.46847776017519        0.08102454013144
C           -7.03285734428895        2.73653166697929       -0.63256792919294
C           -5.22536097260987        0.15016567002929        1.48893806482775
C           -3.93612697730322       -0.15643612216134        1.88395029115173
C           -0.66352102177638       -0.07676772174653       -0.51771453020582
N           -1.89261855092550       -0.71154108834042       -0.66566559137123
C           -2.24333829613577       -1.99182016152449       -0.24780451343796
C           -1.31496704974146       -2.84140606323951        0.52148158007014
N           -3.41244190645842       -2.34443309547579       -0.67701767852921
C           -3.90041942719024       -1.29623268851256       -1.42073486552496
C           -5.10032359567260       -1.14463400847102       -2.09493634308039
C           -5.29502080146957        0.03195651290376       -2.80380526324247
C           -4.33025408017646        1.03634577355199       -2.83712554787543
C           -3.12759494821409        0.90593947050664       -2.16504349532449
C           -2.92848609015979       -0.26909911759363       -1.45806203184730
C            0.11384301563007        0.15907854713013       -1.62683658177767
C            1.37204492743084        0.77676692117429       -1.54764009897400
S            2.63021373165852       -0.02322748761974       -2.53641165079774
O            3.83466888047925        0.78026710516229       -2.56449805323938
O            2.03972633224845       -0.35388189015780       -3.81791542409970
C            2.94477797027184       -1.51037258069134       -1.59853665410556
C            2.08499126819590       -2.58709344385664       -1.70599512265585
C            2.21986645225995       -3.65894924862354       -0.84003344167945
C            3.19677075183701       -3.66555014772432        0.15393418624581
C            3.36361683838779       -4.81264870772672        1.13782556072623
C            2.34795348927449       -5.93681591587854        0.91475151655706
C            3.17819662168790       -4.27229088989868        2.56443540783764
C            4.77375392023378       -5.40208625747909        0.98279184507063
C            4.05005765995570       -2.56346586752716        0.23688982570684
C            3.92637226700055       -1.49069686859871       -0.62360606782925
H            2.42213707805774        2.83690295194462       -2.83630956196506
H            1.47457028879526        3.80384598286640       -1.69901429819841
H            2.92335714683984        4.50160225320912       -2.46699857412965
H            6.76804028481545        3.77668203087641        1.04371673637794
H            7.09764357019937        2.18762950018225        2.92247716140004
H            5.45288472434078        0.44298645118079        3.40575835670135
H            3.39020150450989        0.22394396362021        2.05411524436732
H            1.26446328589367        1.48277651030584        1.80505898469122
H           -2.36997848890700        2.63996703993031        0.84079438345884
H           -4.65463994989388        3.18363124628548        0.12588886797783
H           -8.62549251124800        2.58497009135240        1.57410028969449
H           -7.56828019434325        1.59720698839513        2.58814639767045
H           -7.05008667249903        3.20382699224185        2.08139044891350
H           -7.93255994714591       -0.19900377662722        0.91877337947891
H           -7.21861362071374       -0.07434664951058       -0.69358871568453
H           -8.72226505745055        0.76938528136397       -0.30993226352383
H           -8.06786057943825        2.86388447905558       -0.94095994383909
H           -6.66463977355125        3.70915919185008       -0.31806077620344
H           -6.45636874909915        2.39509265338168       -1.48806020362911
H           -6.00361895273138       -0.56497574904360        1.69560376053246
H           -3.70430938807961       -1.08231919226089        2.38717598555510
H           -0.33814724738813       -2.86285430028063        0.03867720271242
H           -1.18464432764064       -2.43525340832607        1.52565966594731
H           -1.72413650180398       -3.84475159904563        0.58722900472854
H           -5.84814359993853       -1.92065715489753       -2.06439540856091
H           -6.21628698029231        0.17243791761117       -3.34880799144111
H           -4.51847513178182        1.93169430197775       -3.40942429831207
H           -2.36726234960336        1.66990595704741       -2.20648914340273
H           -0.19439093336302       -0.21738279374596       -2.59084682367282
H            1.33120875793885       -2.57976711275655       -2.47845846945848
H            1.54725612126207       -4.49294716915270       -0.95182511174550
H            1.33055988432405       -5.57813143224896        1.04771966325045
H            2.52164343837880       -6.72662276188074        1.64235093379758
H            2.45202765251128       -6.36850502512792       -0.07776956310156
H            3.93185040921909       -3.52943323245200        2.80929651820975
H            3.25833967497909       -5.08620524542611        3.28131739722220
H            2.19706037666482       -3.81382555946234        2.67261760723287
H            4.91979745501025       -5.76674065768270       -0.03180798757085
H            5.54102306606715       -4.66263303976627        1.19287312192635
H            4.90465242505261       -6.23385248238089        1.67108283897921
H            4.82654331824388       -2.53344413573727        0.98461462308811
H            4.58912046635072       -0.64068585438950       -0.56653562572183
