$hessian                                                                        
        0.0847480002   0.0349349927  -0.1351155035  -0.0940091558  -0.0350530726
        0.1225886685   0.0103764121   0.0023119880   0.0006573263   0.0080127650
        0.0044571022  -0.0079784310   0.0000530503   0.0010201630   0.0003680361
        0.0001033859  -0.0008520253  -0.0006914810   0.0000630925  -0.0000064584
       -0.0001655258  -0.0006236720   0.0000037671  -0.0006962931  -0.0008955781
        0.0025335098  -0.0006822129  -0.0008135421  -0.0077950520   0.0224813724
       -0.0004058264  -0.0000013170   0.0014125639  -0.0003666322   0.0014444340
       -0.0003529780   0.0007130244   0.0004823890   0.0002079958   0.0000648907
       -0.0002781712   0.0002049521  -0.0002166261   0.0001036784   0.0001963084
       -0.0000656311   0.0000510984  -0.0000455312   0.0000612450   0.0000853607
        0.0000156118   0.0000942366  -0.0002375710  -0.0000326900   0.0000457205
       -0.0001107753  -0.0001915383  -0.0000587248   0.0000939273   0.0000611227
       -0.0000242957  -0.0000434106  -0.0001515540   0.0000012080   0.0000328605
        0.0000314352   0.0000145349   0.0000162751  -0.0000411418  -0.0000067520
       -0.0000023084  -0.0000357054  -0.0000241136  -0.0000277799  -0.0000303332
       -0.0000305334   0.0000384500   0.0000152197   0.0000146417  -0.0000971482
        0.0000788401   0.0000062075   0.0000263357  -0.0000443894   0.0000147886
       -0.0000209945  -0.0000015921   0.0000046148  -0.0000198274   0.0000189124
       -0.0000159624  -0.0000209021   0.0000432425  -0.0000007646  -0.0000225255
       -0.0000353052  -0.0001218169  -0.0000291607  -0.0000067583   0.0000792780
       -0.0000406953  -0.0000259734   0.0000000414  -0.0000602687  -0.0000139426
       -0.0000283618   0.0000858216   0.0000260762  -0.0000094531   0.0001016839
        0.0000289743   0.0000092010  -0.0000178846   0.0000014310  -0.0017904854
        0.0013896067  -0.0003598756  -0.0046638571  -0.0032475373  -0.0003241125
        0.0001092653  -0.0005369316  -0.0010627232   0.0000686204  -0.0000879277
       -0.0000257124   0.0000837719   0.0001458364  -0.0001312759  -0.0001285157
        0.0001401820  -0.0002197519   0.0001591499   0.0002009645  -0.0004883714
       -0.0001006492  -0.0001782382   0.0004364375  -0.0000888901  -0.0000750993
       -0.0001107886   0.0000238395   0.0000428877  -0.0000158073  -0.0000614693
       -0.0000809791  -0.0000225379   0.0001028839  -0.0000587128   0.0000138217
        0.0000041123  -0.0000118680  -0.0000087163  -0.0000085044  -0.0000227370
        0.0000355784   0.0000048096   0.0000073520   0.0000399844   0.0000195609
        0.0000013533   0.0000026436   0.0000173231  -0.0000299651   0.0000259601
       -0.0000055543   0.0000006815   0.0000158133  -0.0000291736   0.0000325432
        0.0000054897  -0.0000168364   0.0000367104  -0.0000213116   0.0000100364
        0.0000062221  -0.0000120886  -0.0000053010   0.0000310472   0.0000471085
       -0.0000217689   0.0000185440   0.0000100104  -0.0000402008  -0.0000077317
        0.0000049892  -0.0000361734  -0.0000360476  -0.0000089562   0.0000180750
       -0.0000075671  -0.0000053672  -0.0005546368  -0.0000861247   0.0000322417
        0.0001676712  -0.0006729523   0.0000481089
        0.0349349927   0.0819981840  -0.1091014357  -0.0343861437  -0.0939554794
        0.1039960183   0.0078025316   0.0163237708  -0.0261973507  -0.0065816149
       -0.0007166504   0.0172505478   0.0002460368  -0.0004414925   0.0007388418
       -0.0004942737   0.0008548440   0.0006563036  -0.0001210163   0.0001544250
        0.0000358698  -0.0000000621  -0.0001248009   0.0013733328   0.0034169140
       -0.0049101256   0.0018371856  -0.0018180517   0.0022690285   0.0075143379
       -0.0002273064  -0.0000883005  -0.0002237570   0.0001543307   0.0004233148
        0.0002922996   0.0001711930   0.0000256273   0.0000560676   0.0000319001
        0.0000381250   0.0000602302   0.0000162672  -0.0000199507   0.0000178995
       -0.0000225055   0.0000160293  -0.0000163209   0.0000225757   0.0000402513
        0.0000107756   0.0000446695  -0.0000659060  -0.0000031509  -0.0000592349
       -0.0001040401  -0.0000975405  -0.0000263258   0.0000784453   0.0000199597
       -0.0000138210  -0.0000206432  -0.0000815924  -0.0000033407   0.0000154703
        0.0000091755  -0.0000010304   0.0000007200  -0.0000129492  -0.0000034645
        0.0000086572  -0.0000054789  -0.0000180050  -0.0000351989  -0.0000197739
       -0.0000261914  -0.0000118271   0.0000433809   0.0000092487  -0.0000891874
        0.0000757982   0.0000026962   0.0000205596  -0.0000198992   0.0000001509
       -0.0000046013   0.0000139586   0.0000008848   0.0000095021   0.0000029692
       -0.0000001844  -0.0000047728   0.0000338040   0.0000079958   0.0000028972
       -0.0000127409  -0.0000782251  -0.0000270383  -0.0000145681   0.0000455883
       -0.0000077887  -0.0000116273  -0.0000089018  -0.0000266077  -0.0000056209
       -0.0000158378   0.0000307147   0.0000077410   0.0000077989   0.0000206064
        0.0000033294   0.0000010261   0.0000153578   0.0000064592  -0.0004221543
        0.0005079174   0.0004680880  -0.0021414202  -0.0011661361  -0.0001990794
       -0.0005584700  -0.0002939411   0.0006949455   0.0000188431   0.0000028735
       -0.0000670591   0.0000111916  -0.0001888883   0.0000771962   0.0002300424
       -0.0004660916   0.0002480960   0.0000128198  -0.0002317048  -0.0002734969
        0.0002013932   0.0004099113   0.0006973957   0.0000409285  -0.0000187645
        0.0000102097  -0.0000060643   0.0000684008   0.0000256496  -0.0000124081
       -0.0000061141   0.0000013804   0.0000125379   0.0000086129   0.0000332493
        0.0000111335   0.0000075854  -0.0000038451   0.0000058342   0.0000017516
        0.0000033101   0.0000020701   0.0000008703   0.0000089895   0.0000084153
        0.0000183667   0.0000163168   0.0000039775  -0.0000005965  -0.0000119486
       -0.0000015555  -0.0000031942  -0.0000026747  -0.0000168071   0.0000117381
       -0.0000044778  -0.0000170729   0.0000176790  -0.0000158771  -0.0000021623
       -0.0000014053  -0.0000273677  -0.0000052793  -0.0000012150   0.0000220676
       -0.0000176245   0.0000087736   0.0000072718  -0.0000124754  -0.0000026414
        0.0000026798  -0.0000076677  -0.0000066905  -0.0000017141   0.0000057103
        0.0000108549   0.0000044010  -0.0002489297  -0.0000742122   0.0000435828
       -0.0001060701  -0.0003058591   0.0000102314
       -0.1351155035  -0.1091014357   0.4932221390   0.1187180659   0.1027496058
       -0.4492293537   0.0083815546  -0.0015043358  -0.0285584640   0.0079630902
        0.0008170534  -0.0114221733   0.0012115611  -0.0007683472  -0.0018391861
       -0.0002566659  -0.0004739643   0.0001091633   0.0003047654  -0.0004368444
        0.0001057892  -0.0001854495  -0.0000734161  -0.0011610259  -0.0027047359
        0.0051784276  -0.0003934251   0.0011013147  -0.0007333108  -0.0041776705
        0.0003179874  -0.0017855484  -0.0019424126   0.0005801916   0.0000300839
        0.0005184862  -0.0007464291  -0.0001862135  -0.0000000085  -0.0000399887
        0.0002094905   0.0000901863   0.0001071256  -0.0001418637  -0.0001057760
        0.0000639076  -0.0000426463   0.0000299587  -0.0000689222  -0.0000299131
       -0.0000077165  -0.0000570316   0.0001407531   0.0000105964  -0.0000459380
        0.0000920633   0.0001929857   0.0000243991  -0.0000912543  -0.0000041258
        0.0000202335   0.0000069659   0.0000308194   0.0000046651  -0.0000234269
       -0.0000039122   0.0000002231  -0.0000124983   0.0000303677   0.0000170751
       -0.0000047708   0.0000150455   0.0000193370  -0.0000119722   0.0000028072
        0.0000448770   0.0000143609  -0.0000324434  -0.0000204162   0.0001431815
       -0.0001183660   0.0000120087  -0.0000347230   0.0000276035  -0.0000004042
        0.0000129343  -0.0000120817  -0.0000038130   0.0000009151  -0.0000065093
        0.0000215294   0.0000027121  -0.0000894099   0.0000249188  -0.0000470699
        0.0000186063   0.0000839162   0.0000342931   0.0000355862  -0.0000579753
        0.0000105640   0.0000237785   0.0000099941   0.0000414864   0.0000120860
        0.0000132530  -0.0000465868  -0.0000081376  -0.0000067312  -0.0000739505
       -0.0000114558   0.0000099041   0.0000010250  -0.0000048739   0.0006591573
       -0.0003380972  -0.0000934581   0.0019594564   0.0022256179   0.0006499885
       -0.0008823953   0.0011179454   0.0008601589  -0.0002304978   0.0002627320
        0.0001980240  -0.0000445985   0.0001967520   0.0001838144  -0.0003718621
        0.0004406451  -0.0001626655  -0.0000696053  -0.0002261290   0.0013699874
       -0.0002965520   0.0014848333   0.0006509134   0.0001944042   0.0002264548
        0.0002245662  -0.0000231247  -0.0000006101  -0.0000256403   0.0000289385
        0.0000474272   0.0000002990  -0.0000513587  -0.0000025401  -0.0000626180
       -0.0000095513   0.0000097892   0.0000039180  -0.0000044271   0.0000091856
       -0.0000048450  -0.0000091510   0.0000037309   0.0000077403  -0.0000142527
        0.0000195069  -0.0000043580  -0.0000175257  -0.0000042989  -0.0000091011
       -0.0000159834   0.0000081439   0.0000170266   0.0000115226  -0.0000095135
        0.0000082437   0.0000196943  -0.0000277361   0.0000216202   0.0000007685
       -0.0000092728   0.0000638545   0.0000028056   0.0000173914  -0.0000391062
        0.0000160933  -0.0000042679  -0.0000119396   0.0000142257   0.0000079811
       -0.0000053323   0.0000168612   0.0000176575   0.0000036399  -0.0000103488
        0.0000041038  -0.0000047910   0.0002773399   0.0001350633   0.0000444601
       -0.0008959274   0.0005256805   0.0007681223
       -0.0940091558  -0.0343861437   0.1187180659   0.3827603792   0.0417708680
       -0.0834416517  -0.0593332588  -0.0248499795  -0.0186218714  -0.0750363987
        0.0387367086  -0.0155319169  -0.0079663161   0.0100881186  -0.0003672158
        0.0030015562   0.0039119648   0.0040954643  -0.0008798455   0.0007259516
        0.0002463495   0.0055988535   0.0012449540   0.0011237660   0.0005717103
       -0.0005695343  -0.0057488932  -0.1321876446  -0.0243178620  -0.0042882624
       -0.0078609308  -0.0086653792  -0.0085339790   0.0050486128  -0.0016049228
       -0.0006410150  -0.0036155019  -0.0012103603   0.0005083813   0.0004294280
        0.0008042169  -0.0003068871   0.0006551213  -0.0005862838  -0.0008363625
        0.0003090519  -0.0002622074   0.0001140884  -0.0003312216  -0.0002746946
       -0.0000287439  -0.0002770718   0.0008283891   0.0000758736  -0.0002203781
        0.0005273569   0.0007306297   0.0001847652  -0.0003504686  -0.0002245800
        0.0000984360   0.0001695609   0.0005487008  -0.0000101845  -0.0001029204
       -0.0001318924  -0.0000566714  -0.0000501665   0.0001418837   0.0000161479
        0.0000165319   0.0001192122   0.0000649182   0.0000973256   0.0000835966
        0.0000889482  -0.0001240660  -0.0000661606  -0.0000575639   0.0003409136
       -0.0002772112  -0.0000217728  -0.0001050227   0.0001544569  -0.0000561217
        0.0000753679   0.0000080300  -0.0000204989   0.0000683723  -0.0000645820
        0.0000533543   0.0000593000  -0.0001436523   0.0000169084   0.0000432784
        0.0001119633   0.0003985345   0.0001592580   0.0000372846  -0.0002673093
        0.0001334664   0.0000924434  -0.0000178853   0.0002145796   0.0000490196
        0.0000852834  -0.0003128612  -0.0000936456   0.0000260301  -0.0003749540
       -0.0001091313   0.0000079508   0.0000583107  -0.0000144585   0.0017461670
        0.0004398934   0.0046278141  -0.0181548113  -0.0021002250   0.0066046004
       -0.0011642222  -0.0007278084  -0.0003662754   0.0000274361   0.0002397372
       -0.0002127704  -0.0008752617  -0.0011104430  -0.0000399914   0.0002416091
       -0.0004141896   0.0006917648  -0.0012039227  -0.0014106832   0.0012776091
        0.0006682910   0.0021962843   0.0010470648   0.0004060869   0.0003429863
        0.0005655889  -0.0001211649  -0.0000625871   0.0000979606   0.0001827362
        0.0002622356   0.0000953347  -0.0002459980   0.0000574785  -0.0000551148
       -0.0000146207   0.0000293490   0.0000367765   0.0000294284   0.0000712652
       -0.0001153926  -0.0000178644  -0.0000323197  -0.0001357326  -0.0000668945
       -0.0000306487  -0.0000086900  -0.0000516391   0.0000790997  -0.0000613824
        0.0000187108   0.0000001904  -0.0000496201   0.0000892724  -0.0001010355
       -0.0000154405   0.0000491373  -0.0001093970   0.0000675819  -0.0000305204
       -0.0000159440   0.0000490160   0.0000188855  -0.0000822629  -0.0001429523
        0.0000752085  -0.0000701868  -0.0000335826   0.0001324902   0.0000176900
       -0.0000205098   0.0001193986   0.0001197038   0.0000300382  -0.0000619988
        0.0000339630   0.0000222060   0.0000147769  -0.0001755724  -0.0003226345
        0.0009990248   0.0006264603  -0.0011203637
       -0.0350530726  -0.0939554794   0.1027496058   0.0417708680   0.5620147834
        0.0992486333  -0.0231073073  -0.3006325297  -0.2221604137   0.0455327181
       -0.0997451889   0.0226280076   0.0090555814  -0.0118058302  -0.0029019960
        0.0030674279   0.0018786612  -0.0013824274   0.0008526574  -0.0013624031
        0.0000118326   0.0009003299   0.0033926685   0.0016185038   0.0008939728
       -0.0073670387   0.0102765896  -0.0323992612  -0.0516894994  -0.0011829704
       -0.0118524896  -0.0078190970  -0.0018281106  -0.0011818216   0.0020951052
       -0.0045860487  -0.0012614134  -0.0004392590  -0.0002340367   0.0004999260
       -0.0008740683   0.0004542201  -0.0002508396  -0.0001393796  -0.0001311862
        0.0001827022  -0.0001536001  -0.0000219160  -0.0001787338  -0.0000682702
       -0.0000060953  -0.0001396397   0.0002191104  -0.0000754907   0.0002980657
        0.0004961444   0.0003770573   0.0000989026  -0.0002781893  -0.0001022231
        0.0000578153   0.0001094232   0.0003241535   0.0000008641  -0.0000571479
       -0.0000710512  -0.0000035711   0.0000022371   0.0000575418   0.0000040061
       -0.0000123049   0.0000251537   0.0000507519   0.0001515881   0.0000512220
        0.0000669489   0.0000300855  -0.0001506029  -0.0000331823   0.0002652704
       -0.0002246036  -0.0000025532  -0.0000835664   0.0000634828  -0.0000065868
        0.0000119850  -0.0000207723  -0.0000086709  -0.0000152711  -0.0000160649
        0.0000070486   0.0000048433  -0.0000838390  -0.0000181352  -0.0000221162
        0.0000592512   0.0002430719   0.0001518106   0.0000459347  -0.0001437577
        0.0000176679   0.0000374025   0.0000215598   0.0001016772   0.0000204597
        0.0000366614  -0.0001144959  -0.0000308988  -0.0000333406  -0.0000980302
       -0.0000196515   0.0000088763  -0.0000503792  -0.0000204315   0.0008765548
        0.0035476188  -0.0036734433   0.0005653743   0.0022899737   0.0047487419
       -0.0014360014   0.0008901484   0.0000568708  -0.0001690884   0.0001936124
        0.0002548267  -0.0007304231  -0.0000691031  -0.0003373125  -0.0000451004
        0.0004006591  -0.0005576823  -0.0004160156   0.0007586515  -0.0020136054
        0.0004626465  -0.0010244511   0.0001408604  -0.0004210432  -0.0000829573
       -0.0001525095  -0.0000093324  -0.0001870794  -0.0000591916   0.0000126044
       -0.0000039625   0.0000110312   0.0000196276  -0.0001135571  -0.0000868570
       -0.0000422246  -0.0000383358   0.0000215287  -0.0000211415  -0.0000159702
       -0.0000106057  -0.0000068795  -0.0000152426  -0.0000440990  -0.0000276489
       -0.0001062326  -0.0000584778  -0.0000019081  -0.0000097505   0.0000644723
        0.0000153383   0.0000148010  -0.0000050502   0.0000553245  -0.0000363788
        0.0000082870   0.0000507057  -0.0000455130   0.0000441686   0.0000076374
        0.0000081839   0.0000709751   0.0000192624   0.0000097104  -0.0000611997
        0.0000588664  -0.0000336647  -0.0000233787   0.0000343576   0.0000007366
       -0.0000133802   0.0000220341   0.0000173865   0.0000055196  -0.0000193631
       -0.0000341567  -0.0000103701   0.0006377876   0.0002687771  -0.0003814966
        0.0025316688  -0.0007438209  -0.0007368440
        0.1225886685   0.1039960183  -0.4492293537  -0.0834416517   0.0992486333
        0.8353623013  -0.0175007659  -0.2250694298  -0.2774767348  -0.0204042281
        0.0226919761  -0.0504664473   0.0034709210  -0.0064652478   0.0072415301
        0.0035802915  -0.0011577605  -0.0013095430  -0.0001395425   0.0003264561
       -0.0005215185   0.0018645986   0.0018107382  -0.0041977006  -0.0096809827
        0.0145340456  -0.0068536372  -0.0048479761   0.0006274585  -0.0423848797
       -0.0129104362  -0.0029391194   0.0004373786  -0.0002325900  -0.0049187998
       -0.0010709156   0.0000860514  -0.0003711165  -0.0004673176  -0.0001102877
        0.0003993185  -0.0007751748   0.0001053397   0.0000753849  -0.0000814377
       -0.0000470807   0.0000076461   0.0000467148   0.0000151365  -0.0000806967
       -0.0000146586   0.0000008909   0.0000891256   0.0000451763  -0.0001101829
        0.0000548067  -0.0000232131   0.0000413713  -0.0000103102  -0.0000868380
        0.0000026200   0.0000624704   0.0001930392  -0.0000175609  -0.0000090193
       -0.0000416845  -0.0000138330   0.0000211704   0.0000035484  -0.0000301894
        0.0000111772   0.0000068621  -0.0000093331   0.0000894895   0.0000465265
       -0.0000318285  -0.0000458623   0.0000085892   0.0000048078  -0.0000865049
        0.0000820867  -0.0000328833   0.0000193833   0.0000051096  -0.0000114047
       -0.0000028415   0.0000157889   0.0000003763   0.0000093403  -0.0000033427
       -0.0000281228   0.0000195000   0.0000969717  -0.0000352154   0.0000846342
        0.0000032401   0.0000061734   0.0000219867  -0.0000401387  -0.0000191796
        0.0000114424  -0.0000150491  -0.0000047088   0.0000070647  -0.0000054661
        0.0000120803  -0.0000156750  -0.0000170498  -0.0000064690  -0.0000002177
       -0.0000132957  -0.0000019380  -0.0000040374  -0.0000060340   0.0035702890
       -0.0034244194  -0.0003904710   0.0107277620   0.0050764532   0.0017973816
        0.0019102575  -0.0029608673  -0.0018225014   0.0007630281  -0.0010460087
       -0.0001908521  -0.0000785713  -0.0004181977  -0.0004477919  -0.0002985781
        0.0008060413  -0.0005290227   0.0000249095   0.0004817849  -0.0019604303
       -0.0009043443  -0.0011462566  -0.0019927693  -0.0007802659  -0.0007213713
       -0.0002380526   0.0000094185  -0.0000022024   0.0000563995   0.0000099952
       -0.0000017500   0.0000223637  -0.0000248199   0.0000016223   0.0000535012
        0.0000026572  -0.0000175357   0.0000066442   0.0000101905  -0.0000040963
       -0.0000287068   0.0000127875  -0.0000225618  -0.0000677221   0.0000015230
       -0.0000783889  -0.0000096420   0.0000147877   0.0000234353   0.0000131945
        0.0000395775  -0.0000109119  -0.0000451642   0.0000156776  -0.0000160874
       -0.0000156623  -0.0000096781   0.0000124353  -0.0000113730  -0.0000054642
        0.0000121544  -0.0000790644   0.0000081639  -0.0000512000   0.0000182924
        0.0000055907  -0.0000138865   0.0000069742   0.0000103202  -0.0000077031
        0.0000015841   0.0000038454   0.0000002027   0.0000015046   0.0000014687
       -0.0000061291   0.0000115763   0.0009626571   0.0001326404  -0.0003120912
        0.0018858787   0.0003601761  -0.0023415322
        0.0103764121   0.0078025316   0.0083815546  -0.0593332588  -0.0231073073
       -0.0175007659   0.0477078626   0.0249641360   0.0181750314   0.0070766833
        0.0097963417   0.0082371824  -0.0008634645   0.0023094068  -0.0009739647
       -0.0013195979  -0.0002922975  -0.0003073675   0.0000556737  -0.0000925232
        0.0002080773  -0.0007566007  -0.0008153383   0.0000018487   0.0000682242
        0.0007245237   0.0006775229   0.0036797150  -0.0172577609  -0.0132837729
       -0.0059996288  -0.0026606829   0.0004399906  -0.0009140346  -0.0004811894
       -0.0014102334   0.0004775617   0.0001308316  -0.0002042500   0.0000735352
       -0.0001701793   0.0000178176  -0.0002064714   0.0000518605   0.0001704771
       -0.0000407667   0.0000565266  -0.0000141418   0.0000446064   0.0000528204
        0.0000064664   0.0000837049  -0.0001996160  -0.0000288108   0.0000206569
       -0.0000558851  -0.0001255449  -0.0000512479   0.0000772881   0.0000498257
       -0.0000244670  -0.0000339393  -0.0001044718  -0.0000005966   0.0000237555
        0.0000367461   0.0000170256   0.0000217848  -0.0000373161  -0.0000070443
       -0.0000076854  -0.0000430449  -0.0000172119  -0.0000097180  -0.0000116199
       -0.0000175011   0.0000478658   0.0000009274   0.0000108152  -0.0000693545
        0.0000561866  -0.0000019365   0.0000277341  -0.0000364312   0.0000154722
       -0.0000185849  -0.0000111561   0.0000064340  -0.0000244245   0.0000206499
       -0.0000200403  -0.0000128692   0.0000377931   0.0000015247  -0.0000198834
       -0.0000402967  -0.0001033352  -0.0000318895  -0.0000060637   0.0000582549
       -0.0000314439  -0.0000203286   0.0000007932  -0.0000552767  -0.0000125114
       -0.0000152374   0.0000761111   0.0000223485  -0.0000160574   0.0000900911
        0.0000275636   0.0000153929  -0.0000225199  -0.0000026069   0.0006431969
        0.0002034747  -0.0013172007  -0.0003761177  -0.0008541169   0.0000415538
        0.0002484513   0.0002183887   0.0000371577  -0.0001914428   0.0001651842
       -0.0000345654   0.0001603160   0.0002176471   0.0000198669  -0.0000405382
        0.0000616247  -0.0000876985  -0.0000663051   0.0002780081  -0.0000876586
       -0.0000820780  -0.0002482489   0.0001137833  -0.0005292878  -0.0002305427
       -0.0001782505   0.0000247416   0.0000566513  -0.0000234064  -0.0000531049
       -0.0000688320  -0.0000219813   0.0000792113  -0.0000463286   0.0000039490
        0.0000022027  -0.0000120679  -0.0000094135  -0.0000098263  -0.0000232835
        0.0000308609   0.0000058138   0.0000066844   0.0000344657   0.0000174732
       -0.0000085649  -0.0000066278   0.0000165892  -0.0000293909   0.0000284907
       -0.0000024258  -0.0000000384   0.0000133224  -0.0000224673   0.0000270840
        0.0000056931  -0.0000126558   0.0000297191  -0.0000171608   0.0000098450
        0.0000025482  -0.0000077563  -0.0000025846   0.0000247965   0.0000393644
       -0.0000167691   0.0000169111   0.0000075735  -0.0000357544  -0.0000038151
        0.0000049722  -0.0000327348  -0.0000313409  -0.0000072372   0.0000161396
       -0.0000067696  -0.0000053530   0.0000641853   0.0000277035   0.0000426353
        0.0001040771  -0.0005563256  -0.0010126896
        0.0023119880   0.0163237708  -0.0015043358  -0.0248499795  -0.3006325297
       -0.2250694298   0.0249641360   0.3094623388   0.2535665415  -0.0034175076
       -0.0116414150  -0.0169895693   0.0021444913  -0.0054879672   0.0027763791
        0.0019219714   0.0002104117  -0.0006314201  -0.0002260633   0.0003309771
       -0.0002357050   0.0008087676   0.0010657207  -0.0002505493   0.0007405548
       -0.0006769231  -0.0013932082   0.0014359772  -0.0051724344  -0.0108454421
       -0.0046994318  -0.0012490664   0.0003853001  -0.0001258835  -0.0006596958
       -0.0007985694   0.0006320473   0.0001684231   0.0000607397  -0.0000085476
        0.0000367097   0.0001028589  -0.0000291759   0.0000022910   0.0001087708
       -0.0000341061   0.0000769696  -0.0000192395   0.0000677739   0.0000631260
        0.0000090327   0.0000710566  -0.0001730077  -0.0000063523  -0.0000515651
       -0.0002146915  -0.0001645917  -0.0000659842   0.0001503269   0.0000704626
       -0.0000356504  -0.0000657033  -0.0001841037   0.0000004227   0.0000286708
        0.0000555470   0.0000086832   0.0000027792  -0.0000348102   0.0000004328
       -0.0000008584  -0.0000223765  -0.0000251758  -0.0000930939  -0.0000244411
       -0.0000241322   0.0000052480   0.0000674006   0.0000158664  -0.0001134591
        0.0000923474  -0.0000011687   0.0000466430  -0.0000305114   0.0000099980
       -0.0000048732  -0.0000035842   0.0000081453  -0.0000016494   0.0000157209
       -0.0000052763  -0.0000023244   0.0000308843   0.0000243433  -0.0000114649
       -0.0000482091  -0.0001419636  -0.0000906973  -0.0000157680   0.0000721496
       -0.0000091596  -0.0000141964  -0.0000115130  -0.0000624487  -0.0000117282
       -0.0000165163   0.0000685580   0.0000204069   0.0000087926   0.0000574867
        0.0000153498   0.0000024389   0.0000170549   0.0000097467  -0.0000211778
       -0.0000195964  -0.0001282067   0.0006725497  -0.0003362830  -0.0016404391
       -0.0007743585  -0.0002630636   0.0005141449   0.0004133561  -0.0005084428
        0.0001470120  -0.0001883075  -0.0003570258   0.0000203566   0.0000218711
       -0.0001489602   0.0002144728  -0.0005049375  -0.0003709278  -0.0002816918
        0.0000821328   0.0005248696   0.0009150836  -0.0004305669  -0.0001991222
        0.0000307345  -0.0000000350   0.0001308996   0.0000160526  -0.0000260175
       -0.0000086462  -0.0000090479   0.0000069866   0.0000446004   0.0000338216
        0.0000223639   0.0000242222  -0.0000148948   0.0000090211   0.0000075473
        0.0000094584   0.0000036469   0.0000113753   0.0000326401   0.0000154529
        0.0000636081   0.0000281788  -0.0000004537  -0.0000055102  -0.0000308362
       -0.0000119934  -0.0000073557   0.0000092970  -0.0000309928   0.0000213484
        0.0000002968  -0.0000253278   0.0000223029  -0.0000205360  -0.0000023635
       -0.0000085171  -0.0000175892  -0.0000132856   0.0000104158   0.0000353546
       -0.0000289029   0.0000189876   0.0000102491  -0.0000201622   0.0000027081
        0.0000068678  -0.0000150129  -0.0000098366  -0.0000029863   0.0000102956
        0.0000215188   0.0000037177  -0.0001625882   0.0000151561   0.0001792059
       -0.0004815892  -0.0004303157   0.0008499354
        0.0006573263  -0.0261973507  -0.0285584640  -0.0186218714  -0.2221604137
       -0.2774767348   0.0181750314   0.2535665415   0.3029132363   0.0008747749
        0.0016513745   0.0019648279  -0.0002780087  -0.0007420596   0.0008616323
        0.0000075981  -0.0000296839  -0.0000300972  -0.0002359102   0.0002480702
       -0.0000143267   0.0000709329  -0.0002032495   0.0007339373   0.0009868323
        0.0002799231  -0.0020104331   0.0027777671  -0.0058467711  -0.0026350957
       -0.0025198690  -0.0011536537   0.0014494327  -0.0004100923  -0.0000803468
       -0.0005586413   0.0006783359   0.0002329930  -0.0000208320  -0.0000747774
       -0.0000223097   0.0001956172  -0.0000591156   0.0000416628   0.0001424458
       -0.0000283341   0.0000686385  -0.0000153137   0.0000626340   0.0000611739
        0.0000050264   0.0000491478  -0.0001591492  -0.0000113388   0.0000161436
       -0.0001563662  -0.0001078073  -0.0000541045   0.0000944637   0.0000749228
       -0.0000267531  -0.0000609132  -0.0001715918   0.0000049473   0.0000159363
        0.0000577407   0.0000145821   0.0000008736  -0.0000275766   0.0000086616
       -0.0000126959  -0.0000260262  -0.0000092002  -0.0000755598  -0.0000200697
        0.0000007498   0.0000350232   0.0000263078   0.0000085933  -0.0000307036
        0.0000208267   0.0000044372   0.0000267469  -0.0000207997   0.0000114766
       -0.0000038625  -0.0000151082   0.0000057949  -0.0000140007   0.0000160817
       -0.0000032867  -0.0000045649  -0.0000040474   0.0000170214  -0.0000262039
       -0.0000336014  -0.0000867371  -0.0000706825   0.0000031895   0.0000430191
       -0.0000122062  -0.0000051713  -0.0000010231  -0.0000492730  -0.0000086434
       -0.0000086802   0.0000568622   0.0000203852   0.0000015278   0.0000525018
        0.0000189312  -0.0000009967  -0.0000010247   0.0000047067  -0.0004418002
        0.0003605959   0.0000712579   0.0014956415  -0.0007309195  -0.0014489092
       -0.0006998322   0.0006067141   0.0005973148   0.0000148573  -0.0000750432
        0.0001102898  -0.0001194145  -0.0000175718   0.0001628360   0.0000729837
       -0.0001698607   0.0002715112  -0.0009206507  -0.0005418495   0.0013929871
        0.0002878760   0.0006159885   0.0008381493  -0.0003333578  -0.0000188768
       -0.0000192130   0.0000126104   0.0000659279  -0.0000243046  -0.0000189799
       -0.0000130064  -0.0000171159   0.0000133964   0.0000363854  -0.0000012474
        0.0000105206   0.0000166421  -0.0000128363  -0.0000033081  -0.0000000183
        0.0000187059  -0.0000045228   0.0000162590   0.0000448365   0.0000081550
        0.0000579205   0.0000119451  -0.0000054940  -0.0000129971  -0.0000100664
       -0.0000186524  -0.0000019554   0.0000203480  -0.0000209801   0.0000160925
        0.0000071063  -0.0000097360   0.0000093335  -0.0000061526   0.0000019153
       -0.0000065466   0.0000144210  -0.0000106825   0.0000223831   0.0000175329
       -0.0000161944   0.0000147644   0.0000036886  -0.0000144311   0.0000040220
        0.0000037447  -0.0000123756  -0.0000089469  -0.0000043403   0.0000077733
        0.0000114600  -0.0000037797  -0.0002453305   0.0000077581   0.0001915629
       -0.0010885620   0.0004156050   0.0010321992
        0.0080127650  -0.0065816149   0.0079630902  -0.0750363987   0.0455327181
       -0.0204042281   0.0070766833  -0.0034175076   0.0008747749   0.2811443743
       -0.1798614322  -0.1306254904  -0.1353148942   0.0764084962   0.1172328204
       -0.0245305344   0.0430923238  -0.0113715866  -0.0117224554  -0.0017355313
        0.0215465178   0.0156935616  -0.0105634254  -0.0158685459  -0.0620060898
        0.0180472763   0.0131549240  -0.0031959301   0.0130791474  -0.0040716288
       -0.0016418367   0.0000530574   0.0001494898   0.0003677969  -0.0010253240
        0.0006449066   0.0004276271   0.0002324919   0.0000488367  -0.0001286984
        0.0002149426  -0.0001870747  -0.0000158360   0.0000998545   0.0001033310
       -0.0000755380   0.0000525855   0.0000100675   0.0000485147   0.0000070238
       -0.0000046217   0.0000650772  -0.0000953986   0.0000152373  -0.0000690526
       -0.0000776034  -0.0001030929  -0.0000298132   0.0000564035   0.0000308872