$hessian                                                                        
        0.0702024904   0.0009286626  -0.1145178884  -0.0808987979  -0.0037848318
        0.1053217915   0.0101011331   0.0020111429   0.0009951123   0.0079000059
        0.0023939330  -0.0109656147  -0.0001532187   0.0010240621   0.0000047177
        0.0003277937  -0.0010268540  -0.0005583835   0.0000817058  -0.0000496986
       -0.0001490700  -0.0005024714  -0.0001898440  -0.0008464473  -0.0016339444
        0.0027591563  -0.0015797602   0.0008099296  -0.0022109109   0.0229422758
       -0.0005476931   0.0004343728   0.0013517903  -0.0005637176   0.0011166965
       -0.0009216184   0.0006591521   0.0005611747   0.0000132665   0.0000831275
       -0.0002064997   0.0002900069  -0.0002308482   0.0001427475   0.0001457456
       -0.0000636798   0.0000271784  -0.0000577889   0.0000519242   0.0000846318
       -0.0000115877   0.0001086800  -0.0002204939   0.0000458451   0.0000697492
       -0.0001469539  -0.0001356814  -0.0000632716   0.0000944490   0.0000267177
       -0.0000160992  -0.0000875004  -0.0001171260  -0.0000017992   0.0000399983
        0.0000207147   0.0000146541   0.0000029886  -0.0000418007  -0.0000047075
       -0.0000169941  -0.0000341759  -0.0000189891  -0.0000348196  -0.0000159382
       -0.0000283474   0.0000388074  -0.0000067198   0.0000187060  -0.0000538547
        0.0000928750   0.0000049648   0.0000068948  -0.0000473510   0.0000180990
       -0.0000190700   0.0000029331   0.0000076715  -0.0000140490   0.0000244366
       -0.0000142720  -0.0000096058   0.0000448301   0.0000033936  -0.0000346476
       -0.0000239943  -0.0001113059  -0.0000370854   0.0000070594   0.0000750163
       -0.0000397767  -0.0000106703   0.0000069452  -0.0000578938   0.0000082060
       -0.0000335399   0.0000836167  -0.0000061635  -0.0000192809   0.0001010605
       -0.0000057366   0.0000107116  -0.0000183767   0.0000079434  -0.0018057581
        0.0009666006  -0.0009564151  -0.0037602568  -0.0031290422   0.0007399009
        0.0002714294  -0.0007272870  -0.0009826295   0.0000731543  -0.0000866529
        0.0000074582   0.0000527753   0.0001306987  -0.0001731307  -0.0001739316
        0.0001202652  -0.0002881995   0.0001209404   0.0001033114  -0.0004783597
       -0.0000269203  -0.0001179123   0.0004314544  -0.0001043555  -0.0001137962
       -0.0000775061   0.0000215218   0.0000287876  -0.0000347492  -0.0000534687
       -0.0000865497   0.0000103660   0.0001047045  -0.0000456247   0.0000305870
        0.0000035340  -0.0000136435  -0.0000039113  -0.0000085624  -0.0000097197
        0.0000401742   0.0000024884   0.0000208121   0.0000337573   0.0000182602
        0.0000013548  -0.0000000309   0.0000191555  -0.0000193542   0.0000358407
       -0.0000051154   0.0000067661   0.0000138251  -0.0000281910   0.0000286423
       -0.0000058798  -0.0000153714   0.0000240801  -0.0000300690   0.0000114562
        0.0000030019  -0.0000096271  -0.0000072859   0.0000437332   0.0000320180
       -0.0000205032   0.0000170102  -0.0000005563  -0.0000379437  -0.0000083916
        0.0000068708  -0.0000323496  -0.0000374391   0.0000078005   0.0000175543
       -0.0000076658  -0.0000002984  -0.0004836354  -0.0000963210   0.0000570548
        0.0001968049  -0.0005874777   0.0003015039
        0.0009286626   0.0548705046  -0.0033684264  -0.0040944358  -0.0661712146
        0.0123320751   0.0078796184   0.0073266202  -0.0360297390  -0.0031450747
        0.0029750668   0.0131243610   0.0006617723  -0.0003157345   0.0004458601
       -0.0006591927   0.0006413156   0.0004450476  -0.0000565523   0.0000554153
        0.0000392812  -0.0001352541  -0.0000583232   0.0009724845   0.0029328192
       -0.0025076788   0.0023061643  -0.0013040701   0.0032314004   0.0073317039
       -0.0000863105  -0.0007698619  -0.0004411910   0.0002256437   0.0006523059
        0.0001308010   0.0000164692   0.0000618679   0.0000782027   0.0000430910
        0.0000971122   0.0000697353   0.0000240040  -0.0000277352   0.0000205931
       -0.0000004858   0.0000042513  -0.0000132205   0.0000019549   0.0000349339
       -0.0000021966   0.0000371435  -0.0000414720   0.0000130465  -0.0000411690
       -0.0001070115  -0.0000236626  -0.0000357379   0.0000632944   0.0000040737
       -0.0000074039  -0.0000513715  -0.0000687421  -0.0000021739   0.0000159748
        0.0000064102  -0.0000001695  -0.0000069795  -0.0000080351  -0.0000001336
        0.0000044666  -0.0000044282  -0.0000094860  -0.0000452636  -0.0000053724
       -0.0000156421   0.0000055168   0.0000315066   0.0000088201  -0.0000345449
        0.0000597391   0.0000065011   0.0000060207  -0.0000164217   0.0000014238
        0.0000026280   0.0000080131   0.0000014003   0.0000068024   0.0000001387
        0.0000064186  -0.0000029552   0.0000131423   0.0000167642  -0.0000140376
       -0.0000056741  -0.0000594226  -0.0000276841   0.0000032755   0.0000365892
       -0.0000036792  -0.0000046847  -0.0000074546  -0.0000215445   0.0000041964
       -0.0000143405   0.0000221695  -0.0000012857   0.0000058937   0.0000121915
       -0.0000004470  -0.0000016902   0.0000139672   0.0000005181  -0.0004657500
        0.0005526508   0.0001452886  -0.0016353847  -0.0009654559   0.0002729609
       -0.0007461399  -0.0000412037   0.0007716800  -0.0000323508   0.0000523468
       -0.0000291756   0.0000320305  -0.0000850058   0.0001327683   0.0001396353
       -0.0002823563   0.0002461257   0.0000534224  -0.0002044619   0.0000764626
        0.0000105306   0.0010401647   0.0005242592   0.0000817054   0.0000591365
        0.0000480266  -0.0000154634   0.0000647069  -0.0000093184  -0.0000119229
       -0.0000022265   0.0000007004   0.0000039619   0.0000097892   0.0000146827
        0.0000071488   0.0000083985  -0.0000065630   0.0000025628   0.0000050593
        0.0000036838  -0.0000015377   0.0000078581   0.0000124407   0.0000033965
        0.0000277493   0.0000058722   0.0000015509  -0.0000088806  -0.0000094023
       -0.0000069715   0.0000002275   0.0000032582  -0.0000155548   0.0000086876
       -0.0000049651  -0.0000119469   0.0000065769  -0.0000145358   0.0000004213
       -0.0000069106  -0.0000062916  -0.0000058411   0.0000108368   0.0000110652
       -0.0000152703   0.0000078231  -0.0000000225  -0.0000110795  -0.0000013497
        0.0000011730  -0.0000062148  -0.0000043919   0.0000008341   0.0000020943
        0.0000114915  -0.0000008598  -0.0002089864  -0.0000254404   0.0000653006
       -0.0003068364  -0.0001425543   0.0002977086
       -0.1145178884  -0.0033684264   0.5346026075   0.1005441540   0.0103234850
       -0.4899980757   0.0053095724  -0.0103785483  -0.0193192274   0.0085401601
       -0.0023372345  -0.0150927182   0.0012618633  -0.0009419453  -0.0017482118
        0.0000344283  -0.0005822123   0.0001209258   0.0003628152  -0.0003943923
        0.0001967726   0.0000016392  -0.0002898324  -0.0013970575  -0.0041425163
        0.0053270460  -0.0020400263   0.0016779872  -0.0022819561  -0.0064518130
        0.0006962413  -0.0022116326  -0.0012831614   0.0005918121   0.0000297455
        0.0004893048  -0.0008014351  -0.0002663317   0.0000553749  -0.0000738312
        0.0002186067  -0.0000263556   0.0001205150  -0.0001495014  -0.0000626305
        0.0000713692  -0.0000363492   0.0000476888  -0.0000750388  -0.0000498279
       -0.0000003964  -0.0000876113   0.0001653228  -0.0000451583  -0.0000469673
        0.0001953033   0.0001689670   0.0000467486  -0.0001176796   0.0000269021
        0.0000250365   0.0000399489   0.0000457581   0.0000092100  -0.0000360803
       -0.0000059677   0.0000000808   0.0000002530   0.0000417681   0.0000185863
        0.0000049240   0.0000236957   0.0000246401   0.0000043315   0.0000031254
        0.0000499485   0.0000024625  -0.0000444826  -0.0000364723   0.0001101281
       -0.0001959525   0.0000143196  -0.0000255286   0.0000481349  -0.0000053495
        0.0000090730  -0.0000158188  -0.0000100824  -0.0000008899  -0.0000062477
        0.0000206857  -0.0000242636  -0.0000981011   0.0000179389  -0.0000292088
        0.0000406722   0.0001081087   0.0000742600   0.0000163356  -0.0000729738
        0.0000136239   0.0000229265   0.0000088847   0.0000578953  -0.0000073203
        0.0000218549  -0.0000573290   0.0000108819  -0.0000018488  -0.0000840604
        0.0000129458   0.0000081543  -0.0000035854  -0.0000073661   0.0009223088
       -0.0004893838   0.0000595328   0.0022398562   0.0028785399  -0.0002385415
       -0.0009792743   0.0011429022   0.0004073724  -0.0002609833   0.0002728885
        0.0001425311  -0.0001024741   0.0002349662   0.0000999635  -0.0004605910
        0.0004825944  -0.0003231059  -0.0001298201   0.0001004621   0.0014110795
       -0.0005339215   0.0012335817  -0.0001097299   0.0001650423   0.0002954475
        0.0001170937  -0.0000182588  -0.0000369588  -0.0000123393   0.0000303528
        0.0000496307  -0.0000201192  -0.0000528535  -0.0000370348  -0.0000715890
       -0.0000123913   0.0000056814   0.0000053651  -0.0000043489   0.0000040948
       -0.0000085826  -0.0000082965   0.0000005842   0.0000028151  -0.0000171100
        0.0000048170  -0.0000107554  -0.0000207811  -0.0000029663  -0.0000023525
       -0.0000171391   0.0000122365   0.0000151117   0.0000150016  -0.0000068976
        0.0000168464   0.0000231160  -0.0000168603   0.0000380524  -0.0000037929
        0.0000210163   0.0000695935   0.0000029766   0.0000026630  -0.0000532561
        0.0000233315  -0.0000097289  -0.0000056111   0.0000187960   0.0000055528
       -0.0000079586   0.0000195326   0.0000193499  -0.0000083377  -0.0000104826
       -0.0000043443  -0.0000094296   0.0003421371   0.0001708586  -0.0000372967
       -0.0008846723   0.0007567135   0.0004049490
       -0.0808987979  -0.0040944358   0.1005441540   0.3726912542   0.0090153905
       -0.0799975770  -0.0575201589  -0.0145098342  -0.0047990442  -0.0837012633
        0.0358345163  -0.0262570192  -0.0099913488   0.0101745785  -0.0027011219
        0.0019935190   0.0048358431   0.0032254344  -0.0010840659   0.0008022180
        0.0001540035   0.0052441607   0.0015310279   0.0008068767   0.0007812258
       -0.0016128814  -0.0062779887  -0.1273580367  -0.0301070127   0.0069332677
       -0.0058717722  -0.0107029559  -0.0051796206   0.0053105852  -0.0012384858
        0.0001068472  -0.0034247145  -0.0010876613   0.0010182054   0.0003225249
        0.0007072716  -0.0005698904   0.0007254588  -0.0007645447  -0.0005668399
        0.0003083896  -0.0001740186   0.0001877578  -0.0002962816  -0.0002819054
        0.0000588982  -0.0003357908   0.0007544379  -0.0001928945  -0.0002854128
        0.0006784138   0.0004993895   0.0002077916  -0.0003635880  -0.0000904067
        0.0000671860   0.0003337955   0.0004337329  -0.0000010723  -0.0001342169
       -0.0000860639  -0.0000553775  -0.0000019011   0.0001395157   0.0000102014
        0.0000577310   0.0001065722   0.0000499178   0.0001159254   0.0000405634
        0.0000913018  -0.0001262667  -0.0000061827  -0.0000751932   0.0002033954
       -0.0003535219  -0.0000203790  -0.0000346065   0.0001719667  -0.0000646537
        0.0000641809  -0.0000172214  -0.0000291200   0.0000440064  -0.0000836149
        0.0000465465   0.0000220166  -0.0001538250   0.0000088761   0.0000780534
        0.0000817018   0.0003640388   0.0001771222  -0.0000222413  -0.0002647913
        0.0001337570   0.0000433074  -0.0000385036   0.0002060990  -0.0000284420
        0.0001095496  -0.0003061439   0.0000246835   0.0000595077  -0.0003765704
        0.0000207822   0.0000039455   0.0000550762  -0.0000343305   0.0014310111
        0.0018656497   0.0044844570  -0.0179596119  -0.0016632178   0.0069732348
       -0.0008772870  -0.0009578561  -0.0001813038   0.0000006123   0.0001952196
       -0.0002894696  -0.0006447340  -0.0011193904   0.0002241828   0.0003017837
       -0.0002685736   0.0008361795  -0.0009882892  -0.0011736564   0.0017646028
        0.0004005574   0.0024706260   0.0002776887   0.0004271557   0.0005574624
        0.0004257469  -0.0001206285  -0.0000122164   0.0001342413   0.0001585098
        0.0002908149  -0.0000176696  -0.0002540485   0.0000260102  -0.0000807385
       -0.0000126337   0.0000409430   0.0000206416   0.0000287287   0.0000299853
       -0.0001308330  -0.0000106877  -0.0000759248  -0.0001115124  -0.0000634935
       -0.0000274523   0.0000053407  -0.0000587023   0.0000512767  -0.0000890992
        0.0000163509  -0.0000184053  -0.0000429893   0.0000878940  -0.0000898631
        0.0000207432   0.0000465814  -0.0000739329   0.0000973251  -0.0000351618
       -0.0000023369   0.0000475954   0.0000233645  -0.0001219730  -0.0001023265
        0.0000738726  -0.0000651512   0.0000037992   0.0001268857   0.0000224934
       -0.0000238004   0.0001072394   0.0001263377  -0.0000254513  -0.0000619177
        0.0000346790   0.0000013637  -0.0000313890  -0.0002861855  -0.0002023555
        0.0008087903   0.0003368109  -0.0011994067
       -0.0037848318  -0.0661712146   0.0103234850   0.0090153905   0.6305701846
        0.1457646102  -0.0117501510  -0.4120817667  -0.1869099353   0.0402347711
       -0.0802533521   0.0276069146   0.0098818067  -0.0105961291   0.0010951883
        0.0039037664   0.0021732166  -0.0016272723   0.0008859964  -0.0011305001
        0.0001594281   0.0013328491   0.0042388522  -0.0000376098  -0.0008757008
       -0.0023669903   0.0087704752  -0.0378795504  -0.0556399397   0.0033651913
       -0.0152423849  -0.0108397137   0.0013882190  -0.0006519160  -0.0014562376
       -0.0045391551  -0.0013312271  -0.0007842546  -0.0000909612   0.0004530164
       -0.0005257124   0.0003766774  -0.0001429938  -0.0002901142  -0.0001299778
        0.0001674517  -0.0001140553   0.0000489227  -0.0001599101  -0.0001151142
        0.0000187328  -0.0001961120   0.0002333203  -0.0001414202   0.0001188296
        0.0006813352   0.0002029966   0.0001684559  -0.0003136234  -0.0000368809
        0.0000442704   0.0002665763   0.0003331829   0.0000022013  -0.0000866110
       -0.0000624106  -0.0000099268   0.0000291764   0.0000557830  -0.0000021499
        0.0000037125   0.0000298379   0.0000333004   0.0002021747   0.0000027749
        0.0000630635  -0.0000445251  -0.0001339810  -0.0000539510   0.0001601966
       -0.0002682016  -0.0000151630  -0.0000438198   0.0000873435  -0.0000153410
       -0.0000008726  -0.0000139284  -0.0000185680  -0.0000071415  -0.0000172889
       -0.0000099124   0.0000060917  -0.0000736302  -0.0000323027   0.0000232016
        0.0000568955   0.0002478870   0.0001903425  -0.0000247848  -0.0001664545
        0.0000228329   0.0000295798   0.0000163230   0.0001228669  -0.0000203845
        0.0000542065  -0.0001337157   0.0000107906  -0.0000257012  -0.0001309904
        0.0000090111   0.0000379772  -0.0000411390  -0.0000095090   0.0019758930
        0.0012458760  -0.0038266283   0.0022629728   0.0057038967   0.0037854834
       -0.0011047129  -0.0000911207  -0.0004213959  -0.0000214750   0.0000470196
        0.0001637777  -0.0007998458  -0.0004282867  -0.0003937849  -0.0001217801
        0.0004216745  -0.0007111626  -0.0004996332   0.0000221200  -0.0023051534
        0.0003175563  -0.0011543672  -0.0000266136  -0.0006141272  -0.0003587082
       -0.0000640445  -0.0000018463  -0.0001565615   0.0000410324   0.0000376256
        0.0000293526   0.0000046005   0.0000063104  -0.0001254257  -0.0000502478
       -0.0000319914  -0.0000308340   0.0000358450  -0.0000058932  -0.0000221432
       -0.0000229272   0.0000064640  -0.0000496602  -0.0000596188  -0.0000181468
       -0.0001401032  -0.0000108399  -0.0000055533   0.0000297862   0.0000512671
        0.0000277975   0.0000055586  -0.0000188162   0.0000609181  -0.0000348284
        0.0000180286   0.0000429952  -0.0000259551   0.0000582315  -0.0000052265
        0.0000304565   0.0000389020   0.0000231436  -0.0000304907  -0.0000565634
        0.0000650260  -0.0000362417   0.0000035756   0.0000435733   0.0000024677
       -0.0000084471   0.0000308694   0.0000251269  -0.0000087260  -0.0000153395
       -0.0000353322  -0.0000004135   0.0009135208   0.0001644103  -0.0005764913
        0.0031335908  -0.0007642344  -0.0012375784
        0.1053217915   0.0123320751  -0.4899980757  -0.0799975770   0.1457646102
        0.7766399333  -0.0036594439  -0.1904902979  -0.1678685377  -0.0328814700
        0.0277081019  -0.0616098193   0.0015450040  -0.0019226215   0.0082579034
        0.0029440621  -0.0013837850  -0.0007317225  -0.0003791877   0.0004544686
       -0.0005978706   0.0015665308   0.0002426128  -0.0045242601  -0.0110310167
        0.0125560594  -0.0120907819   0.0073968425   0.0049734354  -0.0435665492
       -0.0081155533  -0.0001446303   0.0013834756   0.0003531965  -0.0047729864
        0.0023516686   0.0006201973  -0.0002494437  -0.0003092791  -0.0003225347
        0.0002868521  -0.0010351874   0.0001615181   0.0001538477  -0.0000607779
       -0.0001112980   0.0000611561   0.0000317845   0.0000800588  -0.0000419612
        0.0000107927   0.0000546868   0.0000224694   0.0000648251  -0.0001617082
       -0.0002061180  -0.0001123481  -0.0000101418   0.0000709729  -0.0000703725
       -0.0000206179   0.0000399951   0.0000583262  -0.0000178696   0.0000145931
       -0.0000171194  -0.0000131146   0.0000101554  -0.0000268802  -0.0000306277
        0.0000105260  -0.0000141492  -0.0000294634   0.0000417311   0.0000078912
       -0.0000526699  -0.0000370998   0.0000696859   0.0000300945  -0.0001149425
        0.0002201314  -0.0000276509   0.0000288788  -0.0000371237  -0.0000050807
       -0.0000030187   0.0000247745   0.0000065433   0.0000113370  -0.0000093023
       -0.0000270921   0.0000454516   0.0001140057  -0.0000297936   0.0000670183
       -0.0000420588  -0.0000800911  -0.0000569762  -0.0000355140   0.0000390816
       -0.0000039187  -0.0000294493  -0.0000109344  -0.0000345237   0.0000023743
       -0.0000074210   0.0000245449  -0.0000130320   0.0000040225   0.0000372452
       -0.0000140279  -0.0000145520   0.0000111924   0.0000013119   0.0033234469
       -0.0037301338   0.0021105707   0.0097171359   0.0044533227  -0.0015423709
        0.0026316071  -0.0031131754  -0.0010369439   0.0008976809  -0.0009951088
        0.0000056408   0.0001355968  -0.0004346044  -0.0002635039  -0.0003466587
        0.0004998330  -0.0005366195   0.0001710212  -0.0000589329  -0.0014052543
       -0.0007803471  -0.0013999175  -0.0015669161  -0.0005447171  -0.0007384608
        0.0000476562   0.0000094856   0.0000753688   0.0000357345  -0.0000031343
       -0.0000052774   0.0000195120  -0.0000285854   0.0000614443   0.0000681967
        0.0000148337  -0.0000030516  -0.0000007833   0.0000143722  -0.0000037147
       -0.0000196636   0.0000161049  -0.0000264268  -0.0000388821   0.0000148455
       -0.0000310156   0.0000205519   0.0000185686   0.0000183858  -0.0000161243
        0.0000353545  -0.0000227906  -0.0000355253  -0.0000008862  -0.0000090989
       -0.0000226161  -0.0000238778   0.0000102152  -0.0000377102  -0.0000014157
       -0.0000312394  -0.0000982876   0.0000068927  -0.0000366761   0.0000589738
       -0.0000160665   0.0000023502   0.0000104126  -0.0000048532  -0.0000036320
        0.0000086756  -0.0000070978  -0.0000062652   0.0000072914   0.0000063704
        0.0000102846   0.0000163300   0.0006741729   0.0000437459  -0.0001686493
        0.0009834302  -0.0000324357  -0.0020443412
        0.0101011331   0.0078796184   0.0053095724  -0.0575201589  -0.0117501510
       -0.0036594439   0.0455097460   0.0134777554   0.0028780355   0.0067975894
        0.0133287489   0.0063568245  -0.0012654682   0.0021155185  -0.0016109465
       -0.0014080574  -0.0005992288  -0.0002106693   0.0000898344  -0.0000590618
        0.0002243494  -0.0007683661  -0.0009608440   0.0001618558  -0.0001703831
        0.0009669727   0.0005479004   0.0045595368  -0.0191188044  -0.0079928424
       -0.0056457033  -0.0027640843   0.0013436758  -0.0007701341  -0.0010618381
       -0.0009959393   0.0004316031   0.0000695395  -0.0002398723   0.0000765231
       -0.0001371129   0.0000353352  -0.0002072602   0.0000881882   0.0001346844
       -0.0000474044   0.0000445914  -0.0000282179   0.0000401826   0.0000494538
       -0.0000100432   0.0000971345  -0.0001780703   0.0000378934   0.0000180146
       -0.0000809065  -0.0000951772  -0.0000525121   0.0000750727   0.0000185511
       -0.0000173252  -0.0000620946  -0.0000788958  -0.0000028126   0.0000309214
        0.0000248602   0.0000162147   0.0000104163  -0.0000392321  -0.0000050849
       -0.0000224384  -0.0000364331  -0.0000145947  -0.0000101468  -0.0000063955
       -0.0000187823   0.0000422919  -0.0000182151   0.0000141863  -0.0000408019
        0.0000705192  -0.0000026446   0.0000102796  -0.0000408548   0.0000176073
       -0.0000188062  -0.0000039014   0.0000082888  -0.0000157088   0.0000277561
       -0.0000188473  -0.0000026253   0.0000391970   0.0000028498  -0.0000293522
       -0.0000278158  -0.0000917513  -0.0000346381   0.0000044914   0.0000571759
       -0.0000317206  -0.0000089585   0.0000069934  -0.0000514547   0.0000068312
       -0.0000207923   0.0000732052  -0.0000060463  -0.0000234283   0.0000896952
       -0.0000039314   0.0000188404  -0.0000209767   0.0000045239   0.0007031367
       -0.0002632095  -0.0012377842  -0.0003829205  -0.0007075819   0.0002926075
        0.0002729070   0.0002891365  -0.0000666512  -0.0002229986   0.0001531735
       -0.0000812137   0.0001569364   0.0002636679  -0.0000329477  -0.0000564197
        0.0000474884  -0.0001227114   0.0000090533   0.0002871084  -0.0001378533
       -0.0000716828  -0.0002099362   0.0000898479  -0.0004868624  -0.0003187011
       -0.0000769675   0.0000219169   0.0000379163  -0.0000440341  -0.0000444840
       -0.0000749630   0.0000072461   0.0000832693  -0.0000383184   0.0000213334
        0.0000020522  -0.0000151809  -0.0000032941  -0.0000090867  -0.0000125981
        0.0000361024   0.0000044312   0.0000171878   0.0000276493   0.0000181213
       -0.0000128253  -0.0000038441   0.0000181392  -0.0000162617   0.0000377814
       -0.0000011114   0.0000045393   0.0000107703  -0.0000215227   0.0000240191
       -0.0000037580  -0.0000117510   0.0000204829  -0.0000250080   0.0000109209
        0.0000008819  -0.0000082620  -0.0000035549   0.0000346481   0.0000267091
       -0.0000159782   0.0000154098  -0.0000009705  -0.0000338760  -0.0000059018
        0.0000055329  -0.0000290817  -0.0000333103   0.0000067438   0.0000160752
       -0.0000080372  -0.0000008362   0.0000746862   0.0000461977   0.0000141864
        0.0002077420  -0.0008264350  -0.0008433995
        0.0020111429   0.0073266202  -0.0103785483  -0.0145098342  -0.4120817667
       -0.1904902979   0.0134777554   0.4367198760   0.2187189794  -0.0021973432
       -0.0137583952  -0.0118199469   0.0022066072  -0.0041395115   0.0037782112
        0.0017946994   0.0003101778  -0.0005461674  -0.0003444388   0.0003209082
       -0.0002980133   0.0007415070   0.0009840373  -0.0001878723   0.0011283408
       -0.0009201474  -0.0016435599   0.0027808945  -0.0106529251  -0.0097334481
       -0.0055716747  -0.0016309038   0.0012769898  -0.0002277706  -0.0010656758
       -0.0005836264   0.0007654273   0.0002905815  -0.0000466706  -0.0000183428
        0.0001372743   0.0001042364  -0.0000184345   0.0000936631   0.0001264097
       -0.0000626640   0.0000407664  -0.0000444665   0.0000534041   0.0001031084
       -0.0000157839   0.0001113590  -0.0001702519   0.0000621053  -0.0000116026
       -0.0003460668  -0.0000922139  -0.0001031776   0.0001773816   0.0000296091
       -0.0000235194  -0.0001663131  -0.0002145518   0.0000005559   0.0000473706
        0.0000361662   0.0000069978  -0.0000196490  -0.0000266003   0.0000060642
        0.0000001847  -0.0000156211  -0.0000149674  -0.0001266273  -0.0000075216
       -0.0000333577   0.0000299280   0.0000683941   0.0000283892  -0.0000870908
        0.0001390666   0.0000170538   0.0000186379  -0.0000492552   0.0000090991
        0.0000014009   0.0000077156   0.0000070552   0.0000062292   0.0000094213
        0.0000120172  -0.0000130708   0.0000334441   0.0000254241  -0.0000291013
       -0.0000242109  -0.0001432311  -0.0000974230   0.0000168258   0.0001026406
       -0.0000128841  -0.0000135874  -0.0000139878  -0.0000680971   0.0000123151
       -0.0000374723   0.0000734413  -0.0000036942   0.0000154748   0.0000750655
       -0.0000036317  -0.0000118698   0.0000268091   0.0000047125  -0.0000555301
       -0.0000513423  -0.0001447403   0.0010832827  -0.0011090783  -0.0016197837
       -0.0009174713  -0.0001264692   0.0006234193   0.0004284859  -0.0003961983
        0.0002595997  -0.0001779228  -0.0003612003   0.0001332846   0.0000544773
       -0.0001398338   0.0003113699  -0.0007148487  -0.0004716719   0.0000870811
        0.0000783096   0.0010401241   0.0008119491  -0.0005093176  -0.0002497068
        0.0001075088  -0.0000080818   0.0001250317  -0.0000481982  -0.0000325686
       -0.0000261704   0.0000000399   0.0000152374   0.0000614817   0.0000219890
        0.0000171023   0.0000176657  -0.0000204948   0.0000015869   0.0000134794
        0.0000175604  -0.0000046590   0.0000324705   0.0000412675   0.0000115818
        0.0000872743   0.0000043433   0.0000033761  -0.0000198349  -0.0000248933
       -0.0000216911   0.0000000933   0.0000160318  -0.0000374325   0.0000236174
       -0.0000097228  -0.0000240621   0.0000158488  -0.0000316914   0.0000027233
       -0.0000139609  -0.0000113813  -0.0000129673   0.0000270106   0.0000280274
       -0.0000381846   0.0000204369  -0.0000037051  -0.0000266775  -0.0000034512
        0.0000039848  -0.0000192963  -0.0000153340   0.0000050292   0.0000074218
        0.0000202619  -0.0000020871  -0.0002241616   0.0000830165   0.0002198401
       -0.0008369334   0.0000188783   0.0010390595
        0.0009951123  -0.0360297390  -0.0193192274  -0.0047990442  -0.1869099353
       -0.1678685377   0.0028780355   0.2187189794   0.1776602065   0.0013845470
        0.0054347984   0.0046932530  -0.0007283404   0.0004590609   0.0000749136
       -0.0004176043  -0.0000991951   0.0001262250  -0.0001936398   0.0001476016
        0.0000260645  -0.0000614998  -0.0002920747   0.0008072624   0.0007790873
        0.0000423364  -0.0017201355   0.0026453280  -0.0028686881   0.0018682955
       -0.0008819755  -0.0002433741   0.0014398964  -0.0002476435  -0.0000261345
       -0.0003096843   0.0004206036   0.0002077523  -0.0000810554  -0.0000676510
        0.0000304068   0.0001434916  -0.0000459026   0.0000654991   0.0000798559
       -0.0000213006   0.0000340780  -0.0000210263   0.0000351033   0.0000418784
       -0.0000111140   0.0000317308  -0.0000882549   0.0000251845   0.0000304579
       -0.0000963629  -0.0000205454  -0.0000362964   0.0000550257   0.0000323461
       -0.0000079685  -0.0000767624  -0.0000963624   0.0000036310   0.0000149790
        0.0000310728   0.0000100849  -0.0000060477  -0.0000096439   0.0000098136
       -0.0000141751  -0.0000108399   0.0000031652  -0.0000491467   0.0000035314
        0.0000042334   0.0000317213  -0.0000023098   0.0000031851   0.0000014541
       -0.0000072997   0.0000066427   0.0000053320  -0.0000131131   0.0000090958
       -0.0000040362  -0.0000112221   0.0000035982  -0.0000074999   0.0000159598
        0.0000010940  -0.0000090452  -0.0000120760   0.0000106604  -0.0000225921
       -0.0000053128  -0.0000345274  -0.0000345943   0.0000190596   0.0000219580
       -0.0000076901   0.0000016811   0.0000049244  -0.0000255820   0.0000042756
       -0.0000076038   0.0000331749   0.0000001350  -0.0000022163   0.0000344295
        0.0000017460  -0.0000017039  -0.0000029237   0.0000027123  -0.0004440639
        0.0003058679   0.0000391388   0.0013382532  -0.0007653023  -0.0006025228
       -0.0005706092   0.0006365069   0.0002879879  -0.0000867337   0.0000432280
        0.0000612580  -0.0000786467   0.0000767630   0.0001336823   0.0000749602
       -0.0000737386   0.0002347501  -0.0007589130  -0.0002099308   0.0013917482
        0.0001898971   0.0006306668   0.0003646156  -0.0001919362   0.0000194539
       -0.0000309253   0.0000113617   0.0000106054  -0.0000361991  -0.0000076693
       -0.0000139354  -0.0000066785   0.0000100245   0.0000197324  -0.0000135122
        0.0000014992   0.0000051852  -0.0000092833  -0.0000074358   0.0000026401
        0.0000152183  -0.0000087968   0.0000225396   0.0000276989   0.0000001676
        0.0000365318  -0.0000090359  -0.0000042676  -0.0000099066   0.0000022470
       -0.0000152750   0.0000043484   0.0000150753  -0.0000110782   0.0000096977
        0.0000039957  -0.0000003566   0.0000032621  -0.0000010049   0.0000035452
        0.0000029139   0.0000186863  -0.0000065385   0.0000176200  -0.0000017350
       -0.0000077411   0.0000066494  -0.0000049405  -0.0000078831   0.0000003104
       -0.0000006664  -0.0000065910  -0.0000070556   0.0000002668   0.0000038620
        0.0000019605  -0.0000050931  -0.0001878952   0.0000296353   0.0001337538
       -0.0009683141   0.0007490970   0.0004538113
        0.0079000059  -0.0031450747   0.0085401601  -0.0837012633   0.0402347711
       -0.0328814700   0.0067975894  -0.0021973432   0.0013845470   0.3262100723
       -0.2083138218  -0.0915457875  -0.1579090141   0.1006330629   0.1094236060
       -0.0326433265   0.0407652800  -0.0218554725  -0.0122173781   0.0022977919
        0.0234000205   0.0178044386  -0.0125424071  -0.0158218270  -0.0657607752
        0.0209958379   0.0043764195  -0.0039135402   0.0111514159  -0.0065594626
       -0.0014470053   0.0000818759   0.0001403078   0.0004378793  -0.0005851233
        0.0008651522   0.0003954481   0.0002814184  -0.0000212762  -0.0001322582
        0.0001139328  -0.0002303459  -0.0000279006   0.0001238633   0.0000600515
       -0.0000773853   0.0000444263  -0.0000064955   0.0000454984   0.0000083565
       -0.0000053871   0.0000712845  -0.0000770552   0.0000434869  -0.0000570865
       -0.0001049586  -0.0000687523  -0.0000332224   0.0000570591   0.0000093475