      -----------------------------------------------------------      
     |                   =====================                   |     
     |                           x T B                           |     
     |                   =====================                   |     
     |                         S. Grimme                         |     
     |          Mulliken Center for Theoretical Chemistry        |     
     |                    University of Bonn                     |     
      -----------------------------------------------------------      

   * xtb version 6.7.1 (edcfbbe) compiled by 'albert@albert-system' on 2024-07-22

   xtb is free software: you can redistribute it and/or modify it under
   the terms of the GNU Lesser General Public License as published by
   the Free Software Foundation, either version 3 of the License, or
   (at your option) any later version.
   
   xtb is distributed in the hope that it will be useful,
   but WITHOUT ANY WARRANTY; without even the implied warranty of
   MERCHANTABILITY or FITNESS FOR A PARTICULAR PURPOSE.  See the
   GNU Lesser General Public License for more details.
   
   Cite this work as:
   * C. Bannwarth, E. Caldeweyher, S. Ehlert, A. Hansen, P. Pracht,
     J. Seibert, S. Spicher, S. Grimme, WIREs Comput. Mol. Sci., 2020, 11,
     e01493. DOI: 10.1002/wcms.1493
   
   for GFN2-xTB:
   * C. Bannwarth, S. Ehlert and S. Grimme., J. Chem. Theory Comput., 2019,
     15, 1652-1671. DOI: 10.1021/acs.jctc.8b01176
   for GFN1-xTB:
   * S. Grimme, C. Bannwarth, P. Shushkov, J. Chem. Theory Comput., 2017,
     13, 1989-2009. DOI: 10.1021/acs.jctc.7b00118
   for GFN0-xTB:
   * P. Pracht, E. Caldeweyher, S. Ehlert, S. Grimme, ChemRxiv, 2019, preprint.
     DOI: 10.26434/chemrxiv.8326202.v1
   for GFN-FF:
   * S. Spicher and S. Grimme, Angew. Chem. Int. Ed., 2020, 59, 15665-15673.
     DOI: 10.1002/anie.202004239
   
   for ALPB and GBSA implicit solvation:
   * S. Ehlert, M. Stahn, S. Spicher, S. Grimme, J. Chem. Theory Comput.,
     2021, 17, 4250-4261. DOI: 10.1021/acs.jctc.1c00471
   
   for ddCOSMO and CPCM-X implicit solvation:
   * M. Stahn, S. Ehlert, S. Grimme, J. Phys. Chem. A,
     2023, XX, XXXX-XXXX. DOI: 10.1021/acs.jpca.3c04382
   
   for DFT-D4:
   * E. Caldeweyher, C. Bannwarth and S. Grimme, J. Chem. Phys., 2017,
     147, 034112. DOI: 10.1063/1.4993215
   * E. Caldeweyher, S. Ehlert, A. Hansen, H. Neugebauer, S. Spicher,
     C. Bannwarth and S. Grimme, J. Chem. Phys., 2019, 150, 154122.
     DOI: 10.1063/1.5090222
   * E. Caldeweyher, J.-M. Mewes, S. Ehlert and S. Grimme, Phys. Chem. Chem. Phys.
     2020, 22, 8499-8512. DOI: 10.1039/D0CP00502A
   
   for sTDA-xTB:
   * S. Grimme and C. Bannwarth, J. Chem. Phys., 2016, 145, 054103.
     DOI: 10.1063/1.4959605
   
   in the mass-spec context:
   * V. Asgeirsson, C. Bauer and S. Grimme, Chem. Sci., 2017, 8, 4879.
     DOI: 10.1039/c7sc00601b
   * J. Koopman and S. Grimme, ACS Omega 2019, 4, 12, 15120-15133.
     DOI: 10.1021/acsomega.9b02011
   
   for metadynamics refer to:
   * S. Grimme, J. Chem. Theory Comput., 2019, 155, 2847-2862
     DOI: 10.1021/acs.jctc.9b00143
   
   for SPH calculations refer to:
   * S. Spicher and S. Grimme, J. Chem. Theory Comput., 2021, 17, 1701-1714
     DOI: 10.1021/acs.jctc.0c01306
   
   for ONIOM refer to:
   * C. Plett, A. Katbashev, S. Ehlert, S. Grimme, M. Bursch,
     Phys. Chem. Chem. Phys., 2023, 25, 17860-17868. DOI: 10.1039/D3CP02178E
   
   for DIPRO refer to:
   * J. Kohn, N. Gildemeister, S. Grimme, D. Fazzi, A. Hansen,
     J. Chem. Phys., 2023, just accepted.
   
   for PTB refer to:
   * S. Grimme, M. Mueller, A. Hansen, J. Chem. Phys., 2023, 158, 124111.
     DOI: 10.1063/5.0137838
   
   with help from (in alphabetical order)
   P. Atkinson, C. Bannwarth, F. Bohle, G. Brandenburg, E. Caldeweyher
   M. Checinski, S. Dohm, S. Ehlert, S. Ehrlich, I. Gerasimov, C. Hölzer
   A. Katbashev, J. Kohn, J. Koopman, C. Lavigne, S. Lehtola, F. März, M. Müller,
   F. Musil, H. Neugebauer, J. Pisarek, C. Plett, P. Pracht, F. Pultar,
   J. Seibert, P. Shushkov, S. Spicher, M. Stahn, M. Steiner, T. Strunk,
   J. Stückrath, T. Rose, and J. Unsleber
   
 * started run on 2025/07/18 at 01:49:09.637     
   ID    Z sym.   atoms
    1    6 C      1-10, 12-21, 23-25, 27-56, 58-66
    2    5 B      11
    3    8 O      22, 67
    4    7 N      26, 57
    5    1 H      68-116

           -------------------------------------------------
          |                Calculation Setup                |
           -------------------------------------------------

          program call               : xtb data2507/toluene/TDBA-TPDICz/TDBA-TPDICz.xyz --gfn 2 --gbsa toluene --ohess vtight --parallel 40 --molden --ceasefiles --namespace data2507/toluene/TDBA-TPDICz/TDBA-TPDICz_toluene_S0_preOpt
          calculation namespace      : data2507/toluene/TDBA-TPDICz/TDBA-TPDICz_toluene_S0_preOpt
          coordinate file            : data2507/toluene/TDBA-TPDICz/TDBA-TPDICz.xyz
          omp threads                :                    40


           -------------------------------------------------
          |                 G F N 2 - x T B                 |
           -------------------------------------------------

        Reference                      10.1021/acs.jctc.8b01176
      * Hamiltonian:
        H0-scaling (s, p, d)           1.850000    2.230000    2.230000
        zeta-weighting                 0.500000
      * Dispersion:
        s8                             2.700000
        a1                             0.520000
        a2                             5.000000
        s9                             5.000000
      * Repulsion:
        kExp                           1.500000    1.000000
        rExp                           1.000000
      * Coulomb:
        alpha                          2.000000
        third order                    shell-resolved
        anisotropic                    true
        a3                             3.000000
        a5                             4.000000
        cn-shift                       1.200000
        cn-exp                         4.000000
        max-rad                        5.000000

      * Solvation model:               GBSA
        Solvent                        toluene
        Parameter file                 internal GFN2-xTB/GBSA
        Dielectric constant                7.0000E+00
        Reference state                gsolv [1 M gas/solution]
        Free energy shift                  4.5239E-03 Eh       2.8388E+00 kcal/mol
        Temperature                        2.9815E+02 K
        Density                            8.6700E-01 kg/L
        Solvent mass                       9.2140E+01 g/mol
        Interaction kernel             Still
        Born radius scaling (c1)           1.5686E+00
        Born radii integrator          GBOBC
        Born offset                        0.0000E+00 a0       0.0000E+00 AA
        H-bond correction              false
        Ion screening                  false
        Surface tension                    1.0000E-05 Eh       1.5569E+01 dyn/cm
        Grid points                               230 per atom

          ...................................................
          :                      SETUP                      :
          :.................................................:
          :  # basis functions                 317          :
          :  # atomic orbitals                 317          :
          :  # shells                          183          :
          :  # electrons                       322          :
          :  max. iterations                   250          :
          :  Hamiltonian                  GFN2-xTB          :
          :  restarted?                      false          :
          :  GBSA solvation                   true          :
          :  PC potential                    false          :
          :  electronic temp.          300.0000000     K    :
          :  accuracy                    1.0000000          :
          :  -> integral cutoff          0.2500000E+02      :
          :  -> integral neglect         0.1000000E-07      :
          :  -> SCF convergence          0.1000000E-05 Eh   :
          :  -> wf. convergence          0.1000000E-03 e    :
          :  Broyden damping             0.4000000          :
          :  net charge                          0          :
          :  unpaired electrons                  0          :
          ...................................................

 iter      E             dE          RMSdq      gap      omega  full diag
   1   -175.9934161 -0.175993E+03  0.453E+00    2.08       0.0  T
   2   -176.2129364 -0.219520E+00  0.280E+00    1.51       1.0  T
   3   -176.1769165  0.360199E-01  0.123E+00    2.26       1.0  T
   4   -176.2463640 -0.694475E-01  0.304E-01    1.78       1.0  T
   5   -176.2557967 -0.943268E-02  0.147E-01    2.00       1.0  T
   6   -176.2573431 -0.154646E-02  0.646E-02    1.91       1.0  T
   7   -176.2574472 -0.104101E-03  0.234E-02    1.93       1.0  T
   8   -176.2574834 -0.361625E-04  0.813E-03    1.91       1.1  T
   9   -176.2574869 -0.348873E-05  0.354E-03    1.92       2.6  T
  10   -176.2574873 -0.402533E-06  0.142E-03    1.92       6.5  T
  11   -176.2574874 -0.108695E-06  0.638E-04    1.92      14.6  T
  12   -176.2574874 -0.170280E-07  0.297E-04    1.92      31.3  T

   *** convergence criteria satisfied after 12 iterations ***

         #    Occupation            Energy/Eh            Energy/eV
      -------------------------------------------------------------
         1        2.0000           -0.7245293             -19.7154
       ...           ...                  ...                  ...
       155        2.0000           -0.3905573             -10.6276
       156        2.0000           -0.3830966             -10.4246
       157        2.0000           -0.3774536             -10.2710
       158        2.0000           -0.3754819             -10.2174
       159        2.0000           -0.3702830             -10.0759
       160        2.0000           -0.3675157             -10.0006
       161        2.0000           -0.3443588              -9.3705 (HOMO)
       162                         -0.2738478              -7.4518 (LUMO)
       163                         -0.2512536              -6.8370
       164                         -0.2357716              -6.4157
       165                         -0.2346200              -6.3843
       166                         -0.2313147              -6.2944
       ...                                ...                  ...
       317                          0.8312972              22.6207
      -------------------------------------------------------------
                  HL-Gap            0.0705110 Eh            1.9187 eV
             Fermi-level           -0.3091033 Eh           -8.4111 eV

 SCC (total)                   0 d,  0 h,  0 min,  0.305 sec
 SCC setup                      ...        0 min,  0.004 sec (  1.236%)
 Dispersion                     ...        0 min,  0.008 sec (  2.549%)
 classical contributions        ...        0 min,  0.000 sec (  0.134%)
 integral evaluation            ...        0 min,  0.013 sec (  4.407%)
 iterations                     ...        0 min,  0.255 sec ( 83.757%)
 molecular gradient             ...        0 min,  0.021 sec (  7.038%)
 printout                       ...        0 min,  0.003 sec (  0.848%)

         :::::::::::::::::::::::::::::::::::::::::::::::::::::
         ::                     SUMMARY                     ::
         :::::::::::::::::::::::::::::::::::::::::::::::::::::
         :: total energy            -173.073399786197 Eh    ::
         :: total w/o Gsasa/hb      -173.013620743487 Eh    ::
         :: gradient norm              0.241978034177 Eh/a0 ::
         :: HOMO-LUMO gap              1.918701134784 eV    ::
         ::.................................................::
         :: SCC energy              -176.255056454753 Eh    ::
         :: -> isotropic ES            0.063140181699 Eh    ::
         :: -> anisotropic ES          0.022711369371 Eh    ::
         :: -> anisotropic XC          0.083792986364 Eh    ::
         :: -> dispersion             -0.178027878259 Eh    ::
         :: -> Gsolv                  -0.063550800091 Eh    ::
         ::    -> Gelec               -0.003771757381 Eh    ::
         ::    -> Gsasa               -0.064302922581 Eh    ::
         ::    -> Ghb                  0.000000000000 Eh    ::
         ::    -> Gshift               0.004523879872 Eh    ::
         :: repulsion energy           3.181656668556 Eh    ::
         :: add. restraining           0.000000000000 Eh    ::
         :: total charge               0.000000000000 e     ::
         :::::::::::::::::::::::::::::::::::::::::::::::::::::

      ----------------------------------------------------------- 
     |                   =====================                   |
     |                        A N C O P T                        |
     |                   =====================                   |
     |               Approximate Normal Coordinate               |
     |                Rational Function Optimizer                |
      ----------------------------------------------------------- 

Optimization log is written to '/dev/null'
      ----------------------------------------------------------- 
     |                   =====================                   |
     |                        A N C O P T                        |
     |                   =====================                   |
     |               Approximate Normal Coordinate               |
     |                Rational Function Optimizer                |
      ----------------------------------------------------------- 

          ...................................................
          :                      SETUP                      :
          :.................................................:
          :   optimization level         verytight          :
          :   max. optcycles                  2320          :
          :   ANC micro-cycles                  20          :
          :   degrees of freedom               342          :
          :.................................................:
          :   RF solver                   davidson          :
          :   write xtbopt.log                true          :
          :   linear?                        false          :
          :   energy convergence         0.1000000E-06 Eh   :
          :   grad. convergence          0.2000000E-03 Eh/α :
          :   maxmium RF displ.          1.0000000          :
          :   Hlow (freq-cutoff)         0.1000000E-01      :
          :   Hmax (freq-cutoff)         5.0000000          :
          :   S6 in model hess.         20.0000000          :
          ...................................................

generating ANC from exact Hessian ...
Using Lindh-Hessian (1995)
 Shifting diagonal of input Hessian by   9.985070314651477E-003
 Lowest  eigenvalues of input Hessian
    0.000000    0.000000    0.000000    0.000000    0.000000    0.000000
    0.010000    0.010020    0.010062    0.010190    0.010269    0.010289
    0.010396    0.010617    0.010736    0.010847    0.010937    0.010998
 Highest eigenvalues
    2.224192    2.263152    2.264346    2.311088    2.326315    2.365161
 

........................................................................
.............................. CYCLE    1 ..............................
........................................................................

 iter      E             dE          RMSdq      gap      omega  full diag
   1   -176.2574874 -0.176257E+03  0.110E-04    1.92       0.0  T
   2   -176.2574874 -0.192529E-09  0.763E-05    1.92     121.7  T
   3   -176.2574874 -0.224645E-09  0.513E-05    1.92     180.9  T
     SCC iter.                  ...        0 min,  0.054 sec
     gradient                   ...        0 min,  0.021 sec
 * total energy  :  -173.0733998 Eh     change       -0.7356164E-08 Eh
   gradient norm :     0.2419770 Eh/α   predicted     0.0000000E+00 (-100.00%)
   displ. norm   :     0.5205439 α      lambda       -0.8250262E-01
   maximum displ.:     0.2317367 α      in ANC's #74, #161, #78, ...

........................................................................
.............................. CYCLE    2 ..............................
........................................................................

 iter      E             dE          RMSdq      gap      omega  full diag
   1   -176.2742097 -0.176274E+03  0.276E-01    1.94       0.0  T
   2   -176.2746457 -0.435967E-03  0.167E-01    1.95       1.0  T
   3   -176.2741989  0.446779E-03  0.742E-02    1.90       1.0  T
   4   -176.2747805 -0.581601E-03  0.158E-02    1.94       1.0  T
   5   -176.2748080 -0.275190E-04  0.616E-03    1.93       1.5  T
   6   -176.2748111 -0.308234E-05  0.287E-03    1.94       3.2  T
   7   -176.2748113 -0.200005E-06  0.126E-03    1.94       7.4  T
   8   -176.2748114 -0.106521E-06  0.524E-04    1.94      17.7  T
   9   -176.2748114 -0.154949E-07  0.241E-04    1.94      38.5  T
     SCC iter.                  ...        0 min,  0.145 sec
     gradient                   ...        0 min,  0.021 sec
 * total energy  :  -173.1338712 Eh     change       -0.6047144E-01 Eh
   gradient norm :     0.1048890 Eh/α   predicted    -0.5249520E-01 ( -13.19%)
   displ. norm   :     0.5294290 α      lambda       -0.3377935E-01
   maximum displ.:     0.2407877 α      in ANC's #74, #25, #26, ...

........................................................................
.............................. CYCLE    3 ..............................
........................................................................

 iter      E             dE          RMSdq      gap      omega  full diag
   1   -176.2652866 -0.176265E+03  0.222E-01    1.95       0.0  T
   2   -176.2654737 -0.187030E-03  0.133E-01    1.95       1.0  T
   3   -176.2652376  0.236054E-03  0.508E-02    1.92       1.0  T
   4   -176.2655257 -0.288089E-03  0.107E-02    1.94       1.0  T
   5   -176.2655364 -0.107020E-04  0.432E-03    1.93       2.2  T
   6   -176.2655377 -0.123955E-05  0.215E-03    1.94       4.3  T
   7   -176.2655378 -0.177340E-06  0.900E-04    1.94      10.3  T
   8   -176.2655379 -0.432797E-07  0.426E-04    1.94      21.8  T
     SCC iter.                  ...        0 min,  0.129 sec
     gradient                   ...        0 min,  0.021 sec
 * total energy  :  -173.1565464 Eh     change       -0.2267516E-01 Eh
   gradient norm :     0.0307640 Eh/α   predicted    -0.2162377E-01 (  -4.64%)
   displ. norm   :     0.5633262 α      lambda       -0.1102374E-01
   maximum displ.:     0.2079756 α      in ANC's #25, #26, #39, ...

........................................................................
.............................. CYCLE    4 ..............................
........................................................................

 iter      E             dE          RMSdq      gap      omega  full diag
   1   -176.2440270 -0.176244E+03  0.122E-01    1.94       0.0  T
   2   -176.2440469 -0.198836E-04  0.734E-02    1.93       1.0  T
   3   -176.2440191  0.277615E-04  0.178E-02    1.92       1.0  T
   4   -176.2440533 -0.342202E-04  0.381E-03    1.92       2.4  T
   5   -176.2440538 -0.444761E-06  0.176E-03    1.92       5.3  T
   6   -176.2440539 -0.114736E-06  0.864E-04    1.93      10.8  T
   7   -176.2440539 -0.575465E-07  0.335E-04    1.93      27.8  T
     SCC iter.                  ...        0 min,  0.113 sec
     gradient                   ...        0 min,  0.022 sec
 * total energy  :  -173.1647223 Eh     change       -0.8175912E-02 Eh
   gradient norm :     0.0157514 Eh/α   predicted    -0.7260989E-02 ( -11.19%)
   displ. norm   :     0.5992340 α      lambda       -0.6018854E-02
   maximum displ.:     0.2517987 α      in ANC's #11, #25, #39, ...

........................................................................
.............................. CYCLE    5 ..............................
........................................................................

 iter      E             dE          RMSdq      gap      omega  full diag
   1   -176.2286790 -0.176229E+03  0.881E-02    1.92       0.0  T
   2   -176.2286887 -0.970444E-05  0.529E-02    1.91       1.0  T
   3   -176.2286734  0.152881E-04  0.125E-02    1.92       1.0  T
   4   -176.2286920 -0.186041E-04  0.247E-03    1.91       3.8  T
   5   -176.2286923 -0.206416E-06  0.113E-03    1.91       8.2  T
   6   -176.2286923 -0.230785E-07  0.518E-04    1.91      17.9  T
   7   -176.2286923 -0.201796E-07  0.193E-04    1.91      48.1  T
     SCC iter.                  ...        0 min,  0.101 sec
     gradient                   ...        0 min,  0.021 sec
 * total energy  :  -173.1694126 Eh     change       -0.4690270E-02 Eh
   gradient norm :     0.0131798 Eh/α   predicted    -0.4090157E-02 ( -12.79%)
   displ. norm   :     0.6372682 α      lambda       -0.4191597E-02
   maximum displ.:     0.3261785 α      in ANC's #11, #39, #25, ...

........................................................................
.............................. CYCLE    6 ..............................
........................................................................

 iter      E             dE          RMSdq      gap      omega  full diag
   1   -176.2235159 -0.176224E+03  0.716E-02    1.91       0.0  T
   2   -176.2235222 -0.627776E-05  0.429E-02    1.91       1.0  T
   3   -176.2235136  0.858652E-05  0.930E-03    1.91       1.0  T
   4   -176.2235240 -0.103637E-04  0.189E-03    1.90       4.9  T
   5   -176.2235242 -0.172971E-06  0.839E-04    1.90      11.1  T
   6   -176.2235242 -0.323973E-08  0.384E-04    1.90      24.2  T
     SCC iter.                  ...        0 min,  0.087 sec
     gradient                   ...        0 min,  0.021 sec
 * total energy  :  -173.1727871 Eh     change       -0.3374555E-02 Eh
   gradient norm :     0.0152346 Eh/α   predicted    -0.2946926E-02 ( -12.67%)
   displ. norm   :     0.6352731 α      lambda       -0.3273681E-02
   maximum displ.:     0.3679976 α      in ANC's #11, #39, #25, ...

........................................................................
.............................. CYCLE    7 ..............................
........................................................................

 iter      E             dE          RMSdq      gap      omega  full diag
   1   -176.2274991 -0.176227E+03  0.617E-02    1.90       0.0  T
   2   -176.2275031 -0.396776E-05  0.369E-02    1.90       1.0  T
   3   -176.2274974  0.567180E-05  0.794E-03    1.90       1.2  T
   4   -176.2275043 -0.683019E-05  0.146E-03    1.90       6.3  T
   5   -176.2275044 -0.973024E-07  0.665E-04    1.90      14.0  T
   6   -176.2275044 -0.118598E-08  0.334E-04    1.90      27.8  T
     SCC iter.                  ...        0 min,  0.087 sec
     gradient                   ...        0 min,  0.021 sec
 * total energy  :  -173.1754711 Eh     change       -0.2683982E-02 Eh
   gradient norm :     0.0147727 Eh/α   predicted    -0.2297424E-02 ( -14.40%)
   displ. norm   :     0.6260663 α      lambda       -0.2710022E-02
   maximum displ.:     0.4011849 α      in ANC's #11, #39, #38, ...

........................................................................
.............................. CYCLE    8 ..............................
........................................................................

 iter      E             dE          RMSdq      gap      omega  full diag
   1   -176.2370922 -0.176237E+03  0.571E-02    1.90       0.0  T
   2   -176.2370957 -0.351773E-05  0.341E-02    1.90       1.0  T
   3   -176.2370897  0.598227E-05  0.844E-03    1.90       1.1  T
   4   -176.2370968 -0.708329E-05  0.139E-03    1.90       6.7  T
   5   -176.2370969 -0.104023E-06  0.665E-04    1.90      14.0  T
   6   -176.2370969 -0.103559E-07  0.381E-04    1.90      24.4  T
     SCC iter.                  ...        0 min,  0.087 sec
     gradient                   ...        0 min,  0.021 sec
 * total energy  :  -173.1776939 Eh     change       -0.2222758E-02 Eh
   gradient norm :     0.0114804 Eh/α   predicted    -0.1886135E-02 ( -15.14%)
   displ. norm   :     0.6304280 α      lambda       -0.2148864E-02
   maximum displ.:     0.4258914 α      in ANC's #11, #39, #38, ...

........................................................................
.............................. CYCLE    9 ..............................
........................................................................

 iter      E             dE          RMSdq      gap      omega  full diag
   1   -176.2443600 -0.176244E+03  0.563E-02    1.90       0.0  T
   2   -176.2443639 -0.387662E-05  0.336E-02    1.90       1.0  T
   3   -176.2443570  0.684798E-05  0.905E-03    1.90       1.0  T
   4   -176.2443651 -0.809157E-05  0.142E-03    1.90       6.6  T
   5   -176.2443653 -0.122431E-06  0.687E-04    1.90      13.5  T
   6   -176.2443653 -0.168737E-07  0.392E-04    1.90      23.7  T
     SCC iter.                  ...        0 min,  0.086 sec
     gradient                   ...        0 min,  0.020 sec
 * total energy  :  -173.1794360 Eh     change       -0.1742101E-02 Eh
   gradient norm :     0.0101225 Eh/α   predicted    -0.1501454E-02 ( -13.81%)
   displ. norm   :     0.5958349 α      lambda       -0.1604186E-02
   maximum displ.:     0.4321949 α      in ANC's #11, #38, #12, ...

........................................................................
.............................. CYCLE   10 ..............................
........................................................................

 iter      E             dE          RMSdq      gap      omega  full diag
   1   -176.2527610 -0.176253E+03  0.533E-02    1.90       0.0  T
   2   -176.2527653 -0.436255E-05  0.318E-02    1.90       1.0  T
   3   -176.2527586  0.673637E-05  0.896E-03    1.90       1.0  T
   4   -176.2527667 -0.804360E-05  0.141E-03    1.90       6.6  T
   5   -176.2527668 -0.111242E-06  0.703E-04    1.90      13.2  T
   6   -176.2527668 -0.189150E-07  0.409E-04    1.90      22.7  T
     SCC iter.                  ...        0 min,  0.087 sec
     gradient                   ...        0 min,  0.021 sec
 * total energy  :  -173.1806385 Eh     change       -0.1202512E-02 Eh
   gradient norm :     0.0066153 Eh/α   predicted    -0.1086853E-02 (  -9.62%)
   displ. norm   :     0.6112432 α      lambda       -0.1085147E-02
   maximum displ.:     0.4135397 α      in ANC's #11, #38, #39, ...

........................................................................
.............................. CYCLE   11 ..............................
........................................................................

 iter      E             dE          RMSdq      gap      omega  full diag
   1   -176.2445720 -0.176245E+03  0.588E-02    1.90       0.0  T
   2   -176.2445858 -0.137468E-04  0.342E-02    1.90       1.0  T
   3   -176.2445828  0.299848E-05  0.883E-03    1.90       1.1  T
   4   -176.2445869 -0.408277E-05  0.272E-03    1.90       3.4  T
   5   -176.2445874 -0.580673E-06  0.103E-03    1.90       9.0  T
   6   -176.2445874  0.160877E-07  0.558E-04    1.90      16.6  T
   7   -176.2445875 -0.314155E-07  0.130E-04    1.90      71.2  T
     SCC iter.                  ...        0 min,  0.101 sec
     gradient                   ...        0 min,  0.020 sec
 * total energy  :  -173.1810883 Eh     change       -0.4498679E-03 Eh
   gradient norm :     0.0163686 Eh/α   predicted    -0.7452906E-03 (  65.67%)
   displ. norm   :     0.2786248 α      lambda       -0.9440512E-03
   maximum displ.:     0.2169953 α      in ANC's #11, #12, #8, ...

........................................................................
.............................. CYCLE   12 ..............................
........................................................................

 iter      E             dE          RMSdq      gap      omega  full diag
   1   -176.2539228 -0.176254E+03  0.362E-02    1.90       0.0  T
   2   -176.2539331 -0.102248E-04  0.205E-02    1.90       1.0  T
   3   -176.2539326  0.402907E-06  0.619E-03    1.90       1.5  T
   4   -176.2539335 -0.851134E-06  0.203E-03    1.90       4.6  T
   5   -176.2539338 -0.343702E-06  0.799E-04    1.90      11.6  T
   6   -176.2539338  0.219399E-08  0.331E-04    1.90      28.0  T
     SCC iter.                  ...        0 min,  0.097 sec
     gradient                   ...        0 min,  0.023 sec
 * total energy  :  -173.1816202 Eh     change       -0.5318213E-03 Eh
   gradient norm :     0.0045261 Eh/α   predicted    -0.5086737E-03 (  -4.35%)
   displ. norm   :     0.3121833 α      lambda       -0.3406444E-03
   maximum displ.:     0.2128907 α      in ANC's #11, #8, #12, ...

........................................................................
.............................. CYCLE   13 ..............................
........................................................................

 iter      E             dE          RMSdq      gap      omega  full diag
   1   -176.2533683 -0.176253E+03  0.322E-02    1.90       0.0  T
   2   -176.2533725 -0.418693E-05  0.186E-02    1.90       1.0  T
   3   -176.2533723  0.238483E-06  0.390E-03    1.90       2.4  T
   4   -176.2533728 -0.489126E-06  0.129E-03    1.90       7.2  T
   5   -176.2533729 -0.126494E-06  0.570E-04    1.90      16.3  T
   6   -176.2533729  0.215809E-08  0.206E-04    1.90      45.1  T
     SCC iter.                  ...        0 min,  0.087 sec
     gradient                   ...        0 min,  0.020 sec
 * total energy  :  -173.1817729 Eh     change       -0.1527560E-03 Eh
   gradient norm :     0.0103564 Eh/α   predicted    -0.1869266E-03 (  22.37%)
   displ. norm   :     0.3907413 α      lambda       -0.4986170E-03
   maximum displ.:     0.2551718 α      in ANC's #11, #8, #12, ...

........................................................................
.............................. CYCLE   14 ..............................
........................................................................

 iter      E             dE          RMSdq      gap      omega  full diag
   1   -176.2515865 -0.176252E+03  0.400E-02    1.90       0.0  T
   2   -176.2515902 -0.366910E-05  0.234E-02    1.90       1.0  T
   3   -176.2515899  0.321922E-06  0.338E-03    1.90       2.7  T
   4   -176.2515904 -0.557977E-06  0.124E-03    1.90       7.5  T
   5   -176.2515906 -0.121977E-06  0.553E-04    1.90      16.8  T
   6   -176.2515906 -0.372580E-09  0.169E-04    1.90      55.0  T
     SCC iter.                  ...        0 min,  0.086 sec
     gradient                   ...        0 min,  0.020 sec
 * total energy  :  -173.1820818 Eh     change       -0.3088636E-03 Eh
   gradient norm :     0.0074930 Eh/α   predicted    -0.2873745E-03 (  -6.96%)
   displ. norm   :     0.3140025 α      lambda       -0.3864038E-03
   maximum displ.:     0.1899901 α      in ANC's #8, #11, #22, ...

........................................................................
.............................. CYCLE   15 ..............................
........................................................................

 iter      E             dE          RMSdq      gap      omega  full diag
   1   -176.2493168 -0.176249E+03  0.401E-02    1.90       0.0  T
   2   -176.2493206 -0.385152E-05  0.234E-02    1.90       1.0  T
   3   -176.2493201  0.578108E-06  0.405E-03    1.90       2.3  T
   4   -176.2493209 -0.820158E-06  0.137E-03    1.90       6.8  T
   5   -176.2493210 -0.145114E-06  0.567E-04    1.90      16.4  T
   6   -176.2493210  0.292187E-08  0.259E-04    1.90      35.8  T
     SCC iter.                  ...        0 min,  0.087 sec
     gradient                   ...        0 min,  0.020 sec
 * total energy  :  -173.1822634 Eh     change       -0.1816572E-03 Eh
   gradient norm :     0.0079351 Eh/α   predicted    -0.2122522E-03 (  16.84%)
   displ. norm   :     0.3583258 α      lambda       -0.4455257E-03
   maximum displ.:     0.2282018 α      in ANC's #8, #22, #11, ...

........................................................................
.............................. CYCLE   16 ..............................
........................................................................

 iter      E             dE          RMSdq      gap      omega  full diag
   1   -176.2515136 -0.176252E+03  0.481E-02    1.90       0.0  T
   2   -176.2515169 -0.325436E-05  0.282E-02    1.90       1.0  T
   3   -176.2515156  0.124326E-05  0.462E-03    1.90       2.0  T
   4   -176.2515172 -0.160504E-05  0.145E-03    1.90       6.4  T
   5   -176.2515174 -0.146238E-06  0.617E-04    1.90      15.1  T
   6   -176.2515174  0.560692E-08  0.343E-04    1.90      27.1  T
     SCC iter.                  ...        0 min,  0.087 sec
     gradient                   ...        0 min,  0.020 sec
 * total energy  :  -173.1825106 Eh     change       -0.2471305E-03 Eh
   gradient norm :     0.0088778 Eh/α   predicted    -0.2513680E-03 (   1.71%)
   displ. norm   :     0.3479907 α      lambda       -0.3293761E-03
   maximum displ.:     0.2359785 α      in ANC's #8, #11, #22, ...

........................................................................
.............................. CYCLE   17 ..............................
........................................................................

 iter      E             dE          RMSdq      gap      omega  full diag
   1   -176.2490952 -0.176249E+03  0.423E-02    1.90       0.0  T
   2   -176.2490968 -0.160423E-05  0.249E-02    1.90       1.0  T
   3   -176.2490965  0.336135E-06  0.268E-03    1.90       3.5  T
   4   -176.2490970 -0.551832E-06  0.101E-03    1.90       9.2  T
   5   -176.2490971 -0.633575E-07  0.488E-04    1.90      19.0  T
   6   -176.2490971  0.287753E-08  0.226E-04    1.90      41.0  T
     SCC iter.                  ...        0 min,  0.087 sec
     gradient                   ...        0 min,  0.020 sec
 * total energy  :  -173.1827004 Eh     change       -0.1898060E-03 Eh
   gradient norm :     0.0064943 Eh/α   predicted    -0.1846320E-03 (  -2.73%)
   displ. norm   :     0.2411622 α      lambda       -0.2181318E-03
   maximum displ.:     0.1673961 α      in ANC's #8, #20, #35, ...

........................................................................
.............................. CYCLE   18 ..............................
........................................................................

 iter      E             dE          RMSdq      gap      omega  full diag
   1   -176.2495620 -0.176250E+03  0.335E-02    1.90       0.0  T
   2   -176.2495625 -0.547881E-06  0.197E-02    1.90       1.0  T
   3   -176.2495622  0.347249E-06  0.202E-03    1.90       4.6  T
   4   -176.2495627 -0.476235E-06  0.624E-04    1.90      14.9  T
   5   -176.2495627 -0.234598E-07  0.322E-04    1.90      28.8  T
     SCC iter.                  ...        0 min,  0.073 sec
     gradient                   ...        0 min,  0.020 sec
 * total energy  :  -173.1828566 Eh     change       -0.1562259E-03 Eh
   gradient norm :     0.0048270 Eh/α   predicted    -0.1154112E-03 ( -26.13%)
   displ. norm   :     0.2792722 α      lambda       -0.1803950E-03
   maximum displ.:     0.1985837 α      in ANC's #8, #20, #2, ...

........................................................................
.............................. CYCLE   19 ..............................
........................................................................

 iter      E             dE          RMSdq      gap      omega  full diag
   1   -176.2503410 -0.176250E+03  0.375E-02    1.90       0.0  T
   2   -176.2503417 -0.656510E-06  0.221E-02    1.90       1.0  T
   3   -176.2503411  0.626073E-06  0.266E-03    1.90       3.5  T
   4   -176.2503419 -0.828506E-06  0.694E-04    1.90      13.4  T
   5   -176.2503419 -0.218267E-07  0.376E-04    1.90      24.7  T
     SCC iter.                  ...        0 min,  0.073 sec
     gradient                   ...        0 min,  0.020 sec
 * total energy  :  -173.1829623 Eh     change       -0.1057234E-03 Eh
   gradient norm :     0.0041629 Eh/α   predicted    -0.9723646E-04 (  -8.03%)
   displ. norm   :     0.2106048 α      lambda       -0.9493392E-04
   maximum displ.:     0.1388640 α      in ANC's #8, #11, #2, ...

........................................................................
.............................. CYCLE   20 ..............................
........................................................................

 iter      E             dE          RMSdq      gap      omega  full diag
   1   -176.2497295 -0.176250E+03  0.252E-02    1.90       0.0  T
   2   -176.2497305 -0.101701E-05  0.148E-02    1.90       1.0  T
   3   -176.2497299  0.657556E-06  0.299E-03    1.90       3.1  T
   4   -176.2497307 -0.814436E-06  0.730E-04    1.90      12.7  T
   5   -176.2497307 -0.388142E-07  0.313E-04    1.90      29.6  T
     SCC iter.                  ...        0 min,  0.073 sec
     gradient                   ...        0 min,  0.020 sec
 * total energy  :  -173.1830034 Eh     change       -0.4103359E-04 Eh
   gradient norm :     0.0043112 Eh/α   predicted    -0.4957522E-04 (  20.82%)
   displ. norm   :     0.0962965 α      lambda       -0.7254373E-04
   maximum displ.:     0.0385592 α      in ANC's #22, #8, #2, ...
 * RMSD in coord.:     0.5892082 α      energy gain  -0.1096036E+00 Eh

generating ANC from exact Hessian ...
Using Lindh-Hessian (1995)
 Shifting diagonal of input Hessian by   9.981858311226907E-003
 Lowest  eigenvalues of input Hessian
    0.000000    0.000000    0.000000    0.000000    0.000000    0.000000
    0.010000    0.010027    0.010048    0.010157    0.010251    0.010272
    0.010347    0.010571    0.010614    0.010676    0.010767    0.011099
 Highest eigenvalues
    2.146727    2.166256    2.166496    2.172333    2.198111    2.216431
 

........................................................................
.............................. CYCLE   21 ..............................
........................................................................

 iter      E             dE          RMSdq      gap      omega  full diag
   1   -176.2526118 -0.176253E+03  0.139E-02    1.90       0.0  T
   2   -176.2526125 -0.694298E-06  0.809E-03    1.90       1.1  T
   3   -176.2526122  0.227898E-06  0.216E-03    1.90       4.3  T
   4   -176.2526125 -0.304819E-06  0.565E-04    1.90      16.4  T
   5   -176.2526126 -0.236856E-07  0.221E-04    1.90      42.1  T
     SCC iter.                  ...        0 min,  0.075 sec
     gradient                   ...        0 min,  0.021 sec
 * total energy  :  -173.1830402 Eh     change       -0.3683886E-04 Eh
   gradient norm :     0.0032556 Eh/α   predicted     0.0000000E+00 (-100.00%)
   displ. norm   :     0.0343622 α      lambda       -0.1060449E-04
   maximum displ.:     0.0150410 α      in ANC's #38, #2, #41, ...

........................................................................
.............................. CYCLE   22 ..............................
........................................................................

 iter      E             dE          RMSdq      gap      omega  full diag
   1   -176.2521598 -0.176252E+03  0.569E-03    1.90       0.0  T
   2   -176.2521599 -0.697837E-07  0.334E-03    1.90       2.8  T
   3   -176.2521598  0.581286E-07  0.787E-04    1.90      11.8  T
   4   -176.2521599 -0.680731E-07  0.235E-04    1.90      39.6  T
     SCC iter.                  ...        0 min,  0.058 sec
     gradient                   ...        0 min,  0.021 sec
 * total energy  :  -173.1830668 Eh     change       -0.2657987E-04 Eh
   gradient norm :     0.0013061 Eh/α   predicted    -0.1693155E-04 ( -36.30%)
   displ. norm   :     0.1317509 α      lambda       -0.4570952E-04
   maximum displ.:     0.0588918 α      in ANC's #38, #2, #41, ...

........................................................................
.............................. CYCLE   23 ..............................
........................................................................

 iter      E             dE          RMSdq      gap      omega  full diag
   1   -176.2515156 -0.176252E+03  0.168E-02    1.90       0.0  T
   2   -176.2515159 -0.281475E-06  0.990E-03    1.90       1.0  T
   3   -176.2515155  0.405667E-06  0.192E-03    1.90       4.8  T
   4   -176.2515160 -0.475283E-06  0.479E-04    1.90      19.4  T
   5   -176.2515160 -0.192462E-07  0.237E-04    1.90      39.2  T
     SCC iter.                  ...        0 min,  0.073 sec
     gradient                   ...        0 min,  0.020 sec
 * total energy  :  -173.1831007 Eh     change       -0.3393484E-04 Eh
   gradient norm :     0.0032280 Eh/α   predicted    -0.2303156E-04 ( -32.13%)
   displ. norm   :     0.0426103 α      lambda       -0.1726157E-04
   maximum displ.:     0.0200012 α      in ANC's #2, #38, #21, ...

........................................................................
.............................. CYCLE   24 ..............................
........................................................................

 iter      E             dE          RMSdq      gap      omega  full diag
   1   -176.2519033 -0.176252E+03  0.502E-03    1.90       0.0  T
   2   -176.2519033 -0.164379E-07  0.298E-03    1.90       3.1  T
   3   -176.2519033  0.121057E-07  0.406E-04    1.90      22.9  T
   4   -176.2519033 -0.164426E-07  0.115E-04    1.90      81.1  T
     SCC iter.                  ...        0 min,  0.058 sec
     gradient                   ...        0 min,  0.020 sec
 * total energy  :  -173.1831164 Eh     change       -0.1566136E-04 Eh
   gradient norm :     0.0024963 Eh/α   predicted    -0.8646683E-05 ( -44.79%)
   displ. norm   :     0.1903602 α      lambda       -0.6297685E-04
   maximum displ.:     0.0891480 α      in ANC's #2, #38, #21, ...

........................................................................
.............................. CYCLE   25 ..............................
........................................................................

 iter      E             dE          RMSdq      gap      omega  full diag
   1   -176.2529521 -0.176253E+03  0.222E-02    1.90       0.0  T
   2   -176.2529523 -0.177817E-06  0.131E-02    1.90       1.0  T
   3   -176.2529519  0.372385E-06  0.176E-03    1.90       5.3  T
   4   -176.2529523 -0.445826E-06  0.478E-04    1.90      19.4  T
   5   -176.2529523 -0.137066E-07  0.275E-04    1.90      33.8  T
     SCC iter.                  ...        0 min,  0.074 sec
     gradient                   ...        0 min,  0.021 sec
 * total energy  :  -173.1831572 Eh     change       -0.4079453E-04 Eh
   gradient norm :     0.0009905 Eh/α   predicted    -0.3264576E-04 ( -19.98%)
   displ. norm   :     0.1771311 α      lambda       -0.1748724E-04
   maximum displ.:     0.0883740 α      in ANC's #2, #7, #21, ...

........................................................................
.............................. CYCLE   26 ..............................
........................................................................

 iter      E             dE          RMSdq      gap      omega  full diag
   1   -176.2533289 -0.176253E+03  0.198E-02    1.90       0.0  T
   2   -176.2533290 -0.943971E-07  0.117E-02    1.90       1.0  T
   3   -176.2533288  0.159882E-06  0.122E-03    1.90       7.6  T
   4   -176.2533290 -0.208525E-06  0.343E-04    1.90      27.1  T
   5   -176.2533291 -0.311749E-08  0.214E-04    1.90      43.3  T
     SCC iter.                  ...        0 min,  0.073 sec
     gradient                   ...        0 min,  0.021 sec
 * total energy  :  -173.1831749 Eh     change       -0.1774331E-04 Eh
   gradient norm :     0.0016304 Eh/α   predicted    -0.8871138E-05 ( -50.00%)
   displ. norm   :     0.1289145 α      lambda       -0.1510765E-04
   maximum displ.:     0.0674322 α      in ANC's #2, #7, #21, ...

........................................................................
.............................. CYCLE   27 ..............................
........................................................................

 iter      E             dE          RMSdq      gap      omega  full diag
   1   -176.2535421 -0.176254E+03  0.143E-02    1.90       0.0  T
   2   -176.2535422 -0.558661E-07  0.842E-03    1.90       1.1  T
   3   -176.2535421  0.112017E-06  0.984E-04    1.90       9.4  T
   4   -176.2535422 -0.140336E-06  0.206E-04    1.90      45.1  T
     SCC iter.                  ...        0 min,  0.059 sec
     gradient                   ...        0 min,  0.021 sec
 * total energy  :  -173.1831952 Eh     change       -0.2027655E-04 Eh
   gradient norm :     0.0011855 Eh/α   predicted    -0.7610262E-05 ( -62.47%)
   displ. norm   :     0.3040834 α      lambda       -0.3920343E-04
   maximum displ.:     0.1551989 α      in ANC's #2, #7, #21, ...

........................................................................
.............................. CYCLE   28 ..............................
........................................................................

 iter      E             dE          RMSdq      gap      omega  full diag
   1   -176.2529177 -0.176253E+03  0.341E-02    1.90       0.0  T
   2   -176.2529180 -0.315629E-06  0.201E-02    1.90       1.0  T
   3   -176.2529171  0.908360E-06  0.267E-03    1.90       3.5  T
   4   -176.2529182 -0.108984E-05  0.453E-04    1.90      20.5  T
   5   -176.2529182 -0.704290E-08  0.262E-04    1.90      35.5  T
   6   -176.2529182 -0.242395E-08  0.113E-04    1.90      81.8  T
     SCC iter.                  ...        0 min,  0.087 sec
     gradient                   ...        0 min,  0.021 sec
 * total energy  :  -173.1832463 Eh     change       -0.5108622E-04 Eh
   gradient norm :     0.0014715 Eh/α   predicted    -0.2040715E-04 ( -60.05%)
   displ. norm   :     0.5709331 α      lambda       -0.6637342E-04
   maximum displ.:     0.2894643 α      in ANC's #2, #7, #21, ...

........................................................................
.............................. CYCLE   29 ..............................
........................................................................

 iter      E             dE          RMSdq      gap      omega  full diag
   1   -176.2507045 -0.176251E+03  0.639E-02    1.90       0.0  T
   2   -176.2507056 -0.106350E-05  0.376E-02    1.90       1.0  T
   3   -176.2507028  0.273359E-05  0.468E-03    1.90       2.0  T
   4   -176.2507062 -0.332156E-05  0.811E-04    1.90      11.4  T
   5   -176.2507062 -0.233183E-07  0.473E-04    1.90      19.6  T
   6   -176.2507062 -0.824141E-08  0.213E-04    1.90      43.6  T
     SCC iter.                  ...        0 min,  0.088 sec
     gradient                   ...        0 min,  0.021 sec
 * total energy  :  -173.1833312 Eh     change       -0.8487926E-04 Eh
   gradient norm :     0.0029338 Eh/α   predicted    -0.3799394E-04 ( -55.24%)
   displ. norm   :     0.4541692 α      lambda       -0.7992131E-04
   maximum displ.:     0.2304762 α      in ANC's #2, #7, #21, ...

........................................................................
.............................. CYCLE   30 ..............................
........................................................................

 iter      E             dE          RMSdq      gap      omega  full diag
   1   -176.2492973 -0.176249E+03  0.507E-02    1.90       0.0  T
   2   -176.2492980 -0.618771E-06  0.298E-02    1.90       1.0  T
   3   -176.2492966  0.141077E-05  0.341E-03    1.90       2.7  T
   4   -176.2492983 -0.174887E-05  0.614E-04    1.90      15.1  T
   5   -176.2492983 -0.116193E-07  0.364E-04    1.90      25.5  T
   6   -176.2492983 -0.539029E-08  0.159E-04    1.90      58.3  T
     SCC iter.                  ...        0 min,  0.088 sec
     gradient                   ...        0 min,  0.021 sec
 * total energy  :  -173.1834047 Eh     change       -0.7354195E-04 Eh
   gradient norm :     0.0035871 Eh/α   predicted    -0.4820264E-04 ( -34.46%)
   displ. norm   :     0.5703669 α      lambda       -0.1245063E-03
   maximum displ.:     0.2886747 α      in ANC's #2, #7, #21, ...

........................................................................
.............................. CYCLE   31 ..............................
........................................................................

 iter      E             dE          RMSdq      gap      omega  full diag
   1   -176.2480115 -0.176248E+03  0.636E-02    1.90       0.0  T
   2   -176.2480124 -0.909519E-06  0.374E-02    1.90       1.0  T
   3   -176.2480106  0.178982E-05  0.395E-03    1.90       2.3  T
   4   -176.2480129 -0.227936E-05  0.737E-04    1.90      12.6  T
   5   -176.2480129 -0.131970E-07  0.442E-04    1.90      21.0  T
   6   -176.2480129 -0.857884E-08  0.185E-04    1.90      50.3  T
     SCC iter.                  ...        0 min,  0.088 sec
     gradient                   ...        0 min,  0.021 sec
 * total energy  :  -173.1835215 Eh     change       -0.1167977E-03 Eh
   gradient norm :     0.0040006 Eh/α   predicted    -0.8250469E-04 ( -29.36%)
   displ. norm   :     0.6710703 α      lambda       -0.1975417E-03
   maximum displ.:     0.3415388 α      in ANC's #7, #2, #16, ...

........................................................................
.............................. CYCLE   32 ..............................
........................................................................

 iter      E             dE          RMSdq      gap      omega  full diag
   1   -176.2474073 -0.176247E+03  0.752E-02    1.90       0.0  T
   2   -176.2474085 -0.119229E-05  0.442E-02    1.89       1.0  T
   3   -176.2474067  0.177573E-05  0.421E-03    1.90       2.2  T
   4   -176.2474091 -0.239018E-05  0.834E-04    1.89      11.1  T
   5   -176.2474091 -0.101374E-07  0.502E-04    1.90      18.5  T
   6   -176.2474091 -0.115510E-07  0.199E-04    1.89      46.6  T
     SCC iter.                  ...        0 min,  0.087 sec
     gradient                   ...        0 min,  0.021 sec
 * total energy  :  -173.1837037 Eh     change       -0.1821500E-03 Eh
   gradient norm :     0.0040391 Eh/α   predicted    -0.1432442E-03 ( -21.36%)
   displ. norm   :     0.6503758 α      lambda       -0.2869660E-03
   maximum displ.:     0.3389170 α      in ANC's #7, #2, #16, ...

........................................................................
.............................. CYCLE   33 ..............................
........................................................................

 iter      E             dE          RMSdq      gap      omega  full diag
   1   -176.2503457 -0.176250E+03  0.748E-02    1.89       0.0  T
   2   -176.2503470 -0.129628E-05  0.439E-02    1.89       1.0  T
   3   -176.2503455  0.152485E-05  0.428E-03    1.89       2.2  T
   4   -176.2503476 -0.212616E-05  0.833E-04    1.89      11.2  T
   5   -176.2503476 -0.902941E-08  0.483E-04    1.89      19.2  T
   6   -176.2503476 -0.581559E-08  0.193E-04    1.89      48.0  T
     SCC iter.                  ...        0 min,  0.088 sec
     gradient                   ...        0 min,  0.021 sec
 * total energy  :  -173.1839440 Eh     change       -0.2403667E-03 Eh
   gradient norm :     0.0035140 Eh/α   predicted    -0.2041646E-03 ( -15.06%)
   displ. norm   :     0.6865930 α      lambda       -0.2893863E-03
   maximum displ.:     0.3616067 α      in ANC's #7, #2, #16, ...

........................................................................
.............................. CYCLE   34 ..............................
........................................................................

 iter      E             dE          RMSdq      gap      omega  full diag
   1   -176.2486562 -0.176249E+03  0.810E-02    1.89       0.0  T
   2   -176.2486580 -0.179256E-05  0.476E-02    1.89       1.0  T
   3   -176.2486559  0.210581E-05  0.489E-03    1.89       1.9  T
   4   -176.2486587 -0.283747E-05  0.961E-04    1.89       9.7  T
   5   -176.2486587 -0.251158E-07  0.540E-04    1.89      17.2  T
   6   -176.2486587 -0.447545E-08  0.277E-04    1.89      33.5  T
     SCC iter.                  ...        0 min,  0.087 sec
     gradient                   ...        0 min,  0.021 sec
 * total energy  :  -173.1841883 Eh     change       -0.2443158E-03 Eh
   gradient norm :     0.0050194 Eh/α   predicted    -0.2128919E-03 ( -12.86%)
   displ. norm   :     0.5555495 α      lambda       -0.3764812E-03
   maximum displ.:     0.2584449 α      in ANC's #7, #16, #23, ...

........................................................................
.............................. CYCLE   35 ..............................
........................................................................

 iter      E             dE          RMSdq      gap      omega  full diag
   1   -176.2591666 -0.176259E+03  0.800E-02    1.89       0.0  T
   2   -176.2591702 -0.361961E-05  0.472E-02    1.90       1.0  T
   3   -176.2591610  0.915497E-05  0.888E-03    1.89       1.0  T
   4   -176.2591716 -0.105696E-04  0.140E-03    1.90       6.6  T
   5   -176.2591717 -0.164253E-06  0.708E-04    1.89      13.1  T
   6   -176.2591718 -0.225405E-07  0.378E-04    1.89      24.5  T
     SCC iter.                  ...        0 min,  0.087 sec
     gradient                   ...        0 min,  0.021 sec
 * total energy  :  -173.1843619 Eh     change       -0.1736097E-03 Eh
   gradient norm :     0.0073872 Eh/α   predicted    -0.2463287E-03 (  41.89%)
   displ. norm   :     0.6875846 α      lambda       -0.3602375E-03
   maximum displ.:     0.3650037 α      in ANC's #7, #2, #16, ...

........................................................................
.............................. CYCLE   36 ..............................
........................................................................

 iter      E             dE          RMSdq      gap      omega  full diag
   1   -176.2487864 -0.176249E+03  0.839E-02    1.89       0.0  T
   2   -176.2487888 -0.241142E-05  0.493E-02    1.89       1.0  T
   3   -176.2487857  0.313299E-05  0.550E-03    1.90       1.7  T
   4   -176.2487897 -0.397188E-05  0.126E-03    1.89       7.4  T
   5   -176.2487898 -0.985659E-07  0.707E-04    1.89      13.1  T
   6   -176.2487898 -0.217488E-07  0.343E-04    1.89      27.0  T
     SCC iter.                  ...        0 min,  0.088 sec
     gradient                   ...        0 min,  0.021 sec
 * total energy  :  -173.1846145 Eh     change       -0.2525724E-03 Eh
   gradient norm :     0.0074384 Eh/α   predicted    -0.2652716E-03 (   5.03%)
   displ. norm   :     0.4090382 α      lambda       -0.2047314E-03
   maximum displ.:     0.2219771 α      in ANC's #7, #2, #16, ...

........................................................................
.............................. CYCLE   37 ..............................
........................................................................

 iter      E             dE          RMSdq      gap      omega  full diag
   1   -176.2460974 -0.176246E+03  0.536E-02    1.89       0.0  T
   2   -176.2460983 -0.953810E-06  0.315E-02    1.90       1.0  T
   3   -176.2460963  0.202416E-05  0.419E-03    1.90       2.2  T
   4   -176.2460987 -0.239760E-05  0.839E-04    1.90      11.1  T
   5   -176.2460988 -0.549260E-07  0.448E-04    1.90      20.7  T
   6   -176.2460988 -0.902716E-08  0.218E-04    1.90      42.7  T
     SCC iter.                  ...        0 min,  0.088 sec
     gradient                   ...        0 min,  0.021 sec
 * total energy  :  -173.1847780 Eh     change       -0.1635061E-03 Eh
   gradient norm :     0.0078901 Eh/α   predicted    -0.1194943E-03 ( -26.92%)
   displ. norm   :     0.3644376 α      lambda       -0.3681820E-03
   maximum displ.:     0.1754878 α      in ANC's #7, #16, #2, ...

........................................................................
.............................. CYCLE   38 ..............................
........................................................................

 iter      E             dE          RMSdq      gap      omega  full diag
   1   -176.2493758 -0.176249E+03  0.598E-02    1.90       0.0  T
   2   -176.2493775 -0.170946E-05  0.352E-02    1.90       1.0  T
   3   -176.2493730  0.451303E-05  0.662E-03    1.90       1.4  T
   4   -176.2493782 -0.523210E-05  0.111E-03    1.90       8.4  T
   5   -176.2493783 -0.917958E-07  0.582E-04    1.90      15.9  T
   6   -176.2493783 -0.164171E-07  0.286E-04    1.90      32.5  T
     SCC iter.                  ...        0 min,  0.089 sec
     gradient                   ...        0 min,  0.021 sec
 * total energy  :  -173.1850278 Eh     change       -0.2497910E-03 Eh
   gradient norm :     0.0068775 Eh/α   predicted    -0.2085402E-03 ( -16.51%)
   displ. norm   :     0.6289794 α      lambda       -0.2993058E-03
   maximum displ.:     0.3278904 α      in ANC's #7, #16, #2, ...

........................................................................
.............................. CYCLE   39 ..............................
........................................................................

 iter      E             dE          RMSdq      gap      omega  full diag
   1   -176.2474794 -0.176247E+03  0.942E-02    1.90       0.0  T
   2   -176.2474818 -0.239097E-05  0.554E-02    1.90       1.0  T
   3   -176.2474781  0.370498E-05  0.585E-03    1.90       1.6  T
   4   -176.2474827 -0.462923E-05  0.126E-03    1.90       7.4  T
   5   -176.2474828 -0.885290E-07  0.730E-04    1.90      12.7  T
   6   -176.2474828 -0.291924E-07  0.342E-04    1.90      27.2  T
     SCC iter.                  ...        0 min,  0.088 sec
     gradient                   ...        0 min,  0.021 sec
 * total energy  :  -173.1852589 Eh     change       -0.2310523E-03 Eh
   gradient norm :     0.0072404 Eh/α   predicted    -0.2088609E-03 (  -9.60%)
   displ. norm   :     0.4356574 α      lambda       -0.3542952E-03
   maximum displ.:     0.2005243 α      in ANC's #7, #16, #2, ...

........................................................................
.............................. CYCLE   40 ..............................
........................................................................

 iter      E             dE          RMSdq      gap      omega  full diag
   1   -176.2544204 -0.176254E+03  0.772E-02    1.90       0.0  T
   2   -176.2544221 -0.166107E-05  0.454E-02    1.90       1.0  T
   3   -176.2544197  0.236687E-05  0.509E-03    1.90       1.8  T
   4   -176.2544227 -0.303849E-05  0.104E-03    1.90       8.9  T
   5   -176.2544228 -0.391273E-07  0.616E-04    1.90      15.1  T
   6   -176.2544228 -0.130522E-07  0.292E-04    1.90      31.7  T
     SCC iter.                  ...        0 min,  0.088 sec
     gradient                   ...        0 min,  0.023 sec
 * total energy  :  -173.1854809 Eh     change       -0.2220555E-03 Eh
   gradient norm :     0.0058629 Eh/α   predicted    -0.2107685E-03 (  -5.08%)
   displ. norm   :     0.6228505 α      lambda       -0.2699985E-03
   maximum displ.:     0.3346597 α      in ANC's #7, #2, #16, ...

........................................................................
.............................. CYCLE   41 ..............................
........................................................................

 iter      E             dE          RMSdq      gap      omega  full diag
   1   -176.2500010 -0.176250E+03  0.911E-02    1.90       0.0  T
   2   -176.2500034 -0.244000E-05  0.535E-02    1.91       1.0  T
   3   -176.2500005  0.293674E-05  0.589E-03    1.91       1.6  T
   4   -176.2500043 -0.382424E-05  0.111E-03    1.91       8.4  T
   5   -176.2500043 -0.400318E-07  0.626E-04    1.91      14.8  T
   6   -176.2500043 -0.120466E-07  0.341E-04    1.91      27.3  T
     SCC iter.                  ...        0 min,  0.087 sec
     gradient                   ...        0 min,  0.021 sec
 * total energy  :  -173.1856868 Eh     change       -0.2058947E-03 Eh
   gradient norm :     0.0057282 Eh/α   predicted    -0.1873779E-03 (  -8.99%)
   displ. norm   :     0.4535183 α      lambda       -0.2766198E-03
   maximum displ.:     0.2298748 α      in ANC's #7, #16, #2, ...

........................................................................
.............................. CYCLE   42 ..............................
........................................................................

 iter      E             dE          RMSdq      gap      omega  full diag
   1   -176.2534736 -0.176253E+03  0.718E-02    1.91       0.0  T
   2   -176.2534756 -0.199860E-05  0.421E-02    1.91       1.0  T
   3   -176.2534724  0.315738E-05  0.624E-03    1.91       1.5  T
   4   -176.2534763 -0.390327E-05  0.939E-04    1.91       9.9  T
   5   -176.2534763 -0.336086E-07  0.524E-04    1.91      17.7  T
   6   -176.2534764 -0.574252E-08  0.295E-04    1.91      31.5  T
     SCC iter.                  ...        0 min,  0.087 sec
     gradient                   ...        0 min,  0.021 sec
 * total energy  :  -173.1858665 Eh     change       -0.1797207E-03 Eh
   gradient norm :     0.0048630 Eh/α   predicted    -0.1667589E-03 (  -7.21%)
   displ. norm   :     0.5113692 α      lambda       -0.1747023E-03
   maximum displ.:     0.2525335 α      in ANC's #7, #16, #2, ...
 * RMSD in coord.:     0.7872725 α      energy gain  -0.2863169E-02 Eh

generating ANC from exact Hessian ...
Using Lindh-Hessian (1995)
 Shifting diagonal of input Hessian by   1.003136126864495E-002
 Lowest  eigenvalues of input Hessian
    0.010000    0.000000    0.000000    0.000000    0.000000    0.000000
    0.000000    0.010075    0.010090    0.010195    0.010300    0.010321
    0.010424    0.010608    0.010692    0.010769    0.010842    0.011225
 Highest eigenvalues
    2.144793    2.162448    2.167649    2.173901    2.199358    2.217231
 

........................................................................
.............................. CYCLE   43 ..............................
........................................................................

 iter      E             dE          RMSdq      gap      omega  full diag
   1   -176.2490280 -0.176249E+03  0.805E-02    1.91       0.0  T
   2   -176.2490303 -0.232014E-05  0.473E-02    1.91       1.0  T
   3   -176.2490283  0.202946E-05  0.483E-03    1.91       1.9  T
   4   -176.2490310 -0.269082E-05  0.116E-03    1.91       8.0  T
   5   -176.2490311 -0.713981E-07  0.574E-04    1.91      16.2  T
   6   -176.2490311 -0.987313E-09  0.302E-04    1.91      30.7  T
     SCC iter.                  ...        0 min,  0.087 sec
     gradient                   ...        0 min,  0.021 sec
 * total energy  :  -173.1859499 Eh     change       -0.8332629E-04 Eh
   gradient norm :     0.0062357 Eh/α   predicted     0.0000000E+00 (-100.00%)
   displ. norm   :     0.0495194 α      lambda       -0.1168123E-03
   maximum displ.:     0.0175487 α      in ANC's #13, #9, #41, ...

........................................................................
.............................. CYCLE   44 ..............................
........................................................................

 iter      E             dE          RMSdq      gap      omega  full diag
   1   -176.2538604 -0.176254E+03  0.116E-02    1.91       0.0  T
   2   -176.2538610 -0.559898E-06  0.677E-03    1.91       1.4  T
   3   -176.2538608  0.196020E-06  0.207E-03    1.91       4.5  T
   4   -176.2538610 -0.260865E-06  0.543E-04    1.91      17.1  T
   5   -176.2538611 -0.211611E-07  0.209E-04    1.91      44.4  T
     SCC iter.                  ...        0 min,  0.072 sec
     gradient                   ...        0 min,  0.021 sec
 * total energy  :  -173.1860290 Eh     change       -0.7911753E-04 Eh
   gradient norm :     0.0020900 Eh/α   predicted    -0.5862146E-04 ( -25.91%)
   displ. norm   :     0.0724277 α      lambda       -0.5130784E-04
   maximum displ.:     0.0296798 α      in ANC's #13, #9, #7, ...

........................................................................
.............................. CYCLE   45 ..............................
........................................................................

 iter      E             dE          RMSdq      gap      omega  full diag
   1   -176.2562475 -0.176256E+03  0.103E-02    1.91       0.0  T
   2   -176.2562477 -0.199056E-06  0.606E-03    1.91       1.5  T
   3   -176.2562475  0.203837E-06  0.180E-03    1.91       5.1  T
   4   -176.2562478 -0.257062E-06  0.283E-04    1.91      32.8  T
   5   -176.2562478 -0.386396E-08  0.133E-04    1.91      69.9  T
     SCC iter.                  ...        0 min,  0.072 sec
     gradient                   ...        0 min,  0.021 sec
 * total energy  :  -173.1860653 Eh     change       -0.3636101E-04 Eh
   gradient norm :     0.0013339 Eh/α   predicted    -0.2579077E-04 ( -29.07%)
   displ. norm   :     0.1626040 α      lambda       -0.4298773E-04
   maximum displ.:     0.0703882 α      in ANC's #13, #7, #9, ...

........................................................................
.............................. CYCLE   46 ..............................
........................................................................

 iter      E             dE          RMSdq      gap      omega  full diag
   1   -176.2574193 -0.176257E+03  0.203E-02    1.91       0.0  T
   2   -176.2574195 -0.260665E-06  0.120E-02    1.91       1.0  T
   3   -176.2574190  0.555396E-06  0.263E-03    1.91       3.5  T
   4   -176.2574196 -0.669082E-06  0.354E-04    1.91      26.2  T
   5   -176.2574196 -0.502229E-08  0.208E-04    1.91      44.7  T
     SCC iter.                  ...        0 min,  0.072 sec
     gradient                   ...        0 min,  0.021 sec
 * total energy  :  -173.1861086 Eh     change       -0.4321729E-04 Eh
   gradient norm :     0.0031967 Eh/α   predicted    -0.2176607E-04 ( -49.64%)
   displ. norm   :     0.1145531 α      lambda       -0.3990572E-04
   maximum displ.:     0.0502229 α      in ANC's #13, #7, #9, ...

........................................................................
.............................. CYCLE   47 ..............................
........................................................................

 iter      E             dE          RMSdq      gap      omega  full diag
   1   -176.2565970 -0.176257E+03  0.140E-02    1.91       0.0  T
   2   -176.2565971 -0.643720E-07  0.821E-03    1.91       1.1  T
   3   -176.2565970  0.652865E-07  0.895E-04    1.91      10.4  T
   4   -176.2565971 -0.912629E-07  0.194E-04    1.91      47.9  T
     SCC iter.                  ...        0 min,  0.059 sec
     gradient                   ...        0 min,  0.021 sec
 * total energy  :  -173.1861435 Eh     change       -0.3493821E-04 Eh
   gradient norm :     0.0026648 Eh/α   predicted    -0.2026930E-04 ( -41.99%)
   displ. norm   :     0.2554567 α      lambda       -0.7938683E-04
   maximum displ.:     0.1116284 α      in ANC's #7, #13, #4, ...

........................................................................
.............................. CYCLE   48 ..............................
........................................................................

 iter      E             dE          RMSdq      gap      omega  full diag
   1   -176.2546114 -0.176255E+03  0.315E-02    1.91       0.0  T
   2   -176.2546117 -0.281448E-06  0.185E-02    1.91       1.0  T
   3   -176.2546115  0.178361E-06  0.153E-03    1.91       6.1  T
   4   -176.2546118 -0.285055E-06  0.434E-04    1.91      21.4  T
   5   -176.2546118 -0.513811E-08  0.244E-04    1.91      38.1  T
     SCC iter.                  ...        0 min,  0.072 sec
     gradient                   ...        0 min,  0.021 sec
 * total energy  :  -173.1862019 Eh     change       -0.5840629E-04 Eh
   gradient norm :     0.0015822 Eh/α   predicted    -0.4228576E-04 ( -27.60%)
   displ. norm   :     0.3373799 α      lambda       -0.4675502E-04
   maximum displ.:     0.1553424 α      in ANC's #7, #13, #4, ...

........................................................................
.............................. CYCLE   49 ..............................
........................................................................

 iter      E             dE          RMSdq      gap      omega  full diag
   1   -176.2528555 -0.176253E+03  0.421E-02    1.91       0.0  T
   2   -176.2528559 -0.410072E-06  0.247E-02    1.91       1.0  T
   3   -176.2528556  0.284617E-06  0.203E-03    1.91       4.6  T
   4   -176.2528561 -0.468017E-06  0.532E-04    1.91      17.4  T
   5   -176.2528561 -0.315273E-08  0.318E-04    1.91      29.2  T
     SCC iter.                  ...        0 min,  0.072 sec
     gradient                   ...        0 min,  0.021 sec
 * total energy  :  -173.1862459 Eh     change       -0.4398160E-04 Eh
   gradient norm :     0.0023268 Eh/α   predicted    -0.2456808E-04 ( -44.14%)
   displ. norm   :     0.1092859 α      lambda       -0.3090657E-04
   maximum displ.:     0.0542469 α      in ANC's #7, #4, #6, ...

........................................................................
.............................. CYCLE   50 ..............................
........................................................................

 iter      E             dE          RMSdq      gap      omega  full diag
   1   -176.2535979 -0.176254E+03  0.141E-02    1.91       0.0  T
   2   -176.2535979 -0.643992E-07  0.827E-03    1.91       1.1  T
   3   -176.2535979  0.726133E-07  0.944E-04    1.91       9.8  T
   4   -176.2535980 -0.978789E-07  0.202E-04    1.91      46.0  T
     SCC iter.                  ...        0 min,  0.058 sec
     gradient                   ...        0 min,  0.023 sec
 * total energy  :  -173.1862739 Eh     change       -0.2805828E-04 Eh
   gradient norm :     0.0019762 Eh/α   predicted    -0.1563796E-04 ( -44.27%)
   displ. norm   :     0.4574742 α      lambda       -0.9144938E-04
   maximum displ.:     0.2297270 α      in ANC's #7, #4, #6, ...

........................................................................
.............................. CYCLE   51 ..............................
........................................................................

 iter      E             dE          RMSdq      gap      omega  full diag
   1   -176.2552916 -0.176255E+03  0.593E-02    1.91       0.0  T
   2   -176.2552927 -0.106985E-05  0.349E-02    1.91       1.0  T
   3   -176.2552897  0.302552E-05  0.502E-03    1.91       1.8  T
   4   -176.2552933 -0.358717E-05  0.970E-04    1.91       9.6  T
   5   -176.2552933 -0.504437E-07  0.564E-04    1.91      16.5  T
   6   -176.2552933 -0.110726E-07  0.250E-04    1.91      37.1  T
     SCC iter.                  ...        0 min,  0.089 sec
     gradient                   ...        0 min,  0.021 sec
 * total energy  :  -173.1863645 Eh     change       -0.9060374E-04 Eh
   gradient norm :     0.0023970 Eh/α   predicted    -0.4998906E-04 ( -44.83%)
   displ. norm   :     0.2570994 α      lambda       -0.4535242E-04
   maximum displ.:     0.1334846 α      in ANC's #7, #4, #6, ...

........................................................................
.............................. CYCLE   52 ..............................
........................................................................

 iter      E             dE          RMSdq      gap      omega  full diag
   1   -176.2544736 -0.176254E+03  0.329E-02    1.91       0.0  T
   2   -176.2544738 -0.247064E-06  0.193E-02    1.91       1.0  T
   3   -176.2544733  0.541740E-06  0.212E-03    1.91       4.4  T
   4   -176.2544740 -0.680275E-06  0.472E-04    1.91      19.7  T
   5   -176.2544740 -0.552990E-08  0.290E-04    1.91      32.0  T
     SCC iter.                  ...        0 min,  0.073 sec
     gradient                   ...        0 min,  0.021 sec
 * total energy  :  -173.1864041 Eh     change       -0.3959899E-04 Eh
   gradient norm :     0.0021630 Eh/α   predicted    -0.2418648E-04 ( -38.92%)
   displ. norm   :     0.2940539 α      lambda       -0.6388967E-04
   maximum displ.:     0.1552798 α      in ANC's #7, #6, #4, ...

........................................................................
.............................. CYCLE   53 ..............................
........................................................................

 iter      E             dE          RMSdq      gap      omega  full diag
   1   -176.2539729 -0.176254E+03  0.384E-02    1.92       0.0  T
   2   -176.2539733 -0.358232E-06  0.226E-02    1.92       1.0  T
   3   -176.2539726  0.642957E-06  0.242E-03    1.92       3.8  T
   4   -176.2539735 -0.832566E-06  0.551E-04    1.92      16.9  T
   5   -176.2539735 -0.530818E-08  0.339E-04    1.92      27.4  T
     SCC iter.                  ...        0 min,  0.073 sec
     gradient                   ...        0 min,  0.021 sec
 * total energy  :  -173.1864599 Eh     change       -0.5578589E-04 Eh
   gradient norm :     0.0013491 Eh/α   predicted    -0.3470724E-04 ( -37.78%)
   displ. norm   :     0.6183166 α      lambda       -0.9279798E-04
   maximum displ.:     0.3279634 α      in ANC's #7, #6, #4, ...

........................................................................
.............................. CYCLE   54 ..............................
........................................................................

 iter      E             dE          RMSdq      gap      omega  full diag
   1   -176.2517339 -0.176252E+03  0.817E-02    1.92       0.0  T
   2   -176.2517355 -0.167514E-05  0.480E-02    1.92       1.0  T
   3   -176.2517332  0.232705E-05  0.494E-03    1.92       1.9  T
   4   -176.2517364 -0.315731E-05  0.115E-03    1.92       8.0  T
   5   -176.2517364 -0.167865E-07  0.699E-04    1.92      13.3  T
   6   -176.2517364 -0.244598E-07  0.298E-04    1.92      31.1  T
     SCC iter.                  ...        0 min,  0.086 sec
     gradient                   ...        0 min,  0.021 sec
 * total energy  :  -173.1865670 Eh     change       -0.1070473E-03 Eh
   gradient norm :     0.0024239 Eh/α   predicted    -0.5428545E-04 ( -49.29%)
   displ. norm   :     0.3875518 α      lambda       -0.8464032E-04
   maximum displ.:     0.2032489 α      in ANC's #7, #6, #4, ...

........................................................................
.............................. CYCLE   55 ..............................
........................................................................

 iter      E             dE          RMSdq      gap      omega  full diag
   1   -176.2511812 -0.176251E+03  0.508E-02    1.92       0.0  T
   2   -176.2511818 -0.639317E-06  0.299E-02    1.92       1.0  T
   3   -176.2511813  0.576361E-06  0.268E-03    1.92       3.5  T
   4   -176.2511821 -0.869649E-06  0.707E-04    1.92      13.1  T
   5   -176.2511821 -0.770032E-08  0.397E-04    1.92      23.4  T
     SCC iter.                  ...        0 min,  0.072 sec
     gradient                   ...        0 min,  0.021 sec
 * total energy  :  -173.1866403 Eh     change       -0.7327967E-04 Eh
   gradient norm :     0.0031858 Eh/α   predicted    -0.4867750E-04 ( -33.57%)
   displ. norm   :     0.5105046 α      lambda       -0.1340749E-03
   maximum displ.:     0.2585673 α      in ANC's #7, #6, #4, ...

........................................................................
.............................. CYCLE   56 ..............................
........................................................................

 iter      E             dE          RMSdq      gap      omega  full diag
   1   -176.2518206 -0.176252E+03  0.660E-02    1.92       0.0  T
   2   -176.2518218 -0.116496E-05  0.388E-02    1.93       1.0  T
   3   -176.2518208  0.995257E-06  0.357E-03    1.93       2.6  T
   4   -176.2518223 -0.150845E-05  0.923E-04    1.93      10.1  T
   5   -176.2518223 -0.170633E-07  0.475E-04    1.93      19.6  T
   6   -176.2518223 -0.462762E-09  0.222E-04    1.93      41.7  T
     SCC iter.                  ...        0 min,  0.087 sec
     gradient                   ...        0 min,  0.021 sec
 * total energy  :  -173.1867487 Eh     change       -0.1084022E-03 Eh
   gradient norm :     0.0035508 Eh/α   predicted    -0.8450898E-04 ( -22.04%)
   displ. norm   :     0.4829039 α      lambda       -0.1264254E-03
   maximum displ.:     0.2408771 α      in ANC's #6, #7, #4, ...

........................................................................
.............................. CYCLE   57 ..............................
........................................................................

 iter      E             dE          RMSdq      gap      omega  full diag
   1   -176.2527274 -0.176253E+03  0.608E-02    1.93       0.0  T
   2   -176.2527285 -0.105110E-05  0.358E-02    1.93       1.0  T
   3   -176.2527274  0.103894E-05  0.340E-03    1.93       2.7  T
   4   -176.2527289 -0.149014E-05  0.886E-04    1.93      10.5  T
   5   -176.2527289 -0.204822E-07  0.474E-04    1.93      19.6  T
   6   -176.2527289 -0.121810E-08  0.250E-04    1.93      37.2  T
     SCC iter.                  ...        0 min,  0.087 sec
     gradient                   ...        0 min,  0.021 sec
 * total energy  :  -173.1868488 Eh     change       -0.1001719E-03 Eh
   gradient norm :     0.0029979 Eh/α   predicted    -0.7795378E-04 ( -22.18%)
   displ. norm   :     0.4025142 α      lambda       -0.1054977E-03
   maximum displ.:     0.2091629 α      in ANC's #6, #7, #4, ...

........................................................................
.............................. CYCLE   58 ..............................
........................................................................

 iter      E             dE          RMSdq      gap      omega  full diag
   1   -176.2551238 -0.176255E+03  0.491E-02    1.93       0.0  T
   2   -176.2551245 -0.730492E-06  0.289E-02    1.93       1.0  T
   3   -176.2551235  0.100844E-05  0.317E-03    1.94       2.9  T
   4   -176.2551248 -0.133401E-05  0.744E-04    1.94      12.5  T
   5   -176.2551248 -0.148562E-07  0.429E-04    1.94      21.7  T
   6   -176.2551249 -0.528289E-08  0.214E-04    1.94      43.4  T
     SCC iter.                  ...        0 min,  0.087 sec
     gradient                   ...        0 min,  0.021 sec
 * total energy  :  -173.1869286 Eh     change       -0.7979688E-04 Eh
   gradient norm :     0.0018794 Eh/α   predicted    -0.6129577E-04 ( -23.19%)
   displ. norm   :     0.6631930 α      lambda       -0.8101501E-04
   maximum displ.:     0.3605192 α      in ANC's #6, #7, #4, ...

........................................................................
.............................. CYCLE   59 ..............................
........................................................................

 iter      E             dE          RMSdq      gap      omega  full diag
   1   -176.2520805 -0.176252E+03  0.801E-02    1.94       0.0  T
   2   -176.2520827 -0.222745E-05  0.471E-02    1.94       1.0  T
   3   -176.2520798  0.292879E-05  0.557E-03    1.94       1.7  T
   4   -176.2520837 -0.389801E-05  0.118E-03    1.94       7.8  T
   5   -176.2520837 -0.309304E-07  0.646E-04    1.94      14.4  T
   6   -176.2520837 -0.490596E-08  0.314E-04    1.94      29.6  T
     SCC iter.                  ...        0 min,  0.086 sec
     gradient                   ...        0 min,  0.021 sec
 * total energy  :  -173.1869927 Eh     change       -0.6406275E-04 Eh
   gradient norm :     0.0038558 Eh/α   predicted    -0.4843142E-04 ( -24.40%)
   displ. norm   :     0.2048241 α      lambda       -0.9416698E-04
   maximum displ.:     0.1080272 α      in ANC's #6, #13, #1, ...

[...]
eigval :     3067.35  3068.36  3068.50  3069.21  3069.35  3074.99
eigval :     3075.16  3075.67  3077.42  3077.74  3078.75  3079.30
eigval :     3079.58  3082.96  3083.56  3085.38  3087.48  3087.76
eigval :     3088.86  3089.77  3090.95  3098.16  3104.55  3105.07
eigval :     3107.95  3108.97  3110.82  3113.68  3116.08  3116.81
 reduced masses (amu)
   1: 11.43   2: 11.50   3: 11.38   4: 11.30   5: 11.21   6: 11.04   7: 10.96   8: 10.94
   9: 10.81  10: 10.89  11: 10.70  12:  9.11  13: 10.63  14: 10.84  15:  9.44  16: 10.83
  17: 10.59  18: 10.75  19: 10.68  20: 10.27  21: 10.21  22: 10.57  23: 10.14  24: 10.09
  25:  9.91  26: 10.39  27: 11.16  28: 11.21  29: 10.50  30: 10.84  31: 10.47  32: 10.55
  33: 10.72  34: 10.68  35: 10.38  36:  2.69  37:  3.19  38: 10.33  39: 10.87  40: 10.97
  41:  7.27  42:  9.05  43:  3.59  44:  9.45  45:  5.06  46: 10.02  47:  9.97  48: 10.49
  49: 11.06  50: 10.47  51: 10.30  52: 10.56  53: 10.32  54: 10.70  55: 10.41  56: 10.81
  57: 10.23  58:  9.24  59:  3.32  60:  2.18  61: 10.15  62: 10.60  63: 10.63  64:  8.57
  65:  8.58  66: 10.85  67:  9.48  68:  9.02  69: 10.63  70:  9.10  71:  9.81  72: 10.70
  73: 10.52  74: 11.44  75:  9.72  76:  9.37  77:  9.97  78: 10.12  79: 10.28  80: 10.11
  81:  9.40  82: 10.16  83: 10.22  84: 10.24  85: 10.30  86: 10.25  87: 10.15  88: 10.71
  89: 10.99  90: 11.07  91: 11.60  92: 10.97  93: 11.28  94: 10.87  95: 11.07  96: 10.51
  97: 11.29  98: 11.38  99: 11.40 100: 11.42 101: 11.24 102: 11.35 103: 11.31 104: 11.38
 105: 11.18 106: 11.21 107: 11.35 108: 11.72 109: 11.38 110: 11.24 111: 11.54 112: 11.06
 113: 10.96 114: 10.33 115:  9.95 116: 11.64 117: 11.38 118: 13.10 119: 11.66 120: 11.63
 121: 11.55 122: 11.24 123: 11.09 124:  7.25 125: 11.13 126:  6.78 127:  6.03 128:  7.17
 129:  4.63 130:  3.80 131: 10.04 132:  8.65 133: 10.04 134:  6.55 135:  6.66 136:  8.92
 137:  4.19 138:  3.68 139: 11.12 140:  3.45 141:  3.54 142:  9.00 143:  3.28 144:  3.27
 145:  7.74 146:  6.45 147:  4.07 148:  5.94 149:  7.31 150:  5.68 151:  3.98 152:  6.30
 153:  4.02 154:  3.97 155:  6.83 156:  3.64 157:  3.66 158:  2.98 159:  3.00 160: 11.19
 161:  4.22 162:  4.03 163:  2.92 164:  2.79 165:  3.99 166:  3.02 167:  9.45 168:  5.41
 169:  5.38 170:  5.05 171:  4.26 172:  3.79 173:  3.23 174:  8.90 175: 11.30 176: 11.17
 177: 10.92 178: 10.79 179:  4.04 180:  4.54 181:  7.77 182:  4.29 183:  5.76 184: 12.40
 185:  6.85 186:  6.18 187:  6.75 188:  9.47 189:  7.43 190:  6.71 191:  7.22 192:  8.07
 193:  4.22 194:  4.93 195:  5.94 196:  6.61 197:  5.35 198:  4.94 199:  6.64 200:  5.12
 201:  4.63 202:  2.83 203:  1.88 204:  2.82 205:  5.55 206:  1.31 207:  1.38 208:  3.19
 209:  2.82 210:  1.96 211:  2.09 212:  7.43 213:  8.75 214:  9.00 215:  9.11 216:  9.14
 217:  8.25 218:  7.50 219:  7.72 220:  7.04 221:  4.43 222:  9.44 223:  7.41 224:  8.06
 225:  7.37 226:  5.67 227:  5.91 228:  6.22 229:  4.12 230:  8.69 231:  9.72 232: 10.03
 233: 10.01 234: 11.79 235: 11.75 236: 11.79 237: 11.00 238: 10.28 239: 11.95 240: 11.72
 241: 11.89 242: 11.19 243: 11.25 244: 11.22 245: 10.95 246: 11.40 247:  7.15 248:  6.55
 249: 10.26 250:  3.18 251:  3.31 252:  7.11 253:  7.97 254:  2.97 255:  2.97 256:  9.77
 257:  8.79 258:  8.85 259:  9.86 260:  9.12 261:  9.75 262:  9.99 263:  9.74 264: 10.82
 265:  9.30 266: 10.35 267: 10.05 268: 10.12 269:  1.61 270:  1.61 271:  1.58 272:  1.58
 273:  1.66 274:  1.78 275:  1.69 276:  1.64 277:  1.58 278:  1.59 279:  1.69 280:  1.66
 281: 11.78 282: 11.59 283: 11.47 284: 11.67 285: 11.87 286: 11.98 287: 11.71 288: 11.56
 289: 11.51 290: 11.51 291: 11.58 292: 11.65 293: 11.56 294: 11.51 295: 11.56 296: 11.50
 297: 11.50 298: 11.64 299: 11.69 300:  1.93 301:  1.94 302:  1.96 303:  1.96 304:  1.79
 305:  1.79 306:  1.91 307:  1.90 308:  1.65 309:  1.65 310:  1.81 311:  1.83 312:  1.29
 313:  1.29 314:  1.51 315:  1.52 316:  1.55 317:  1.55 318:  1.76 319:  1.76 320:  1.76
 321:  1.76 322:  1.76 323:  1.76 324:  1.83 325:  1.76 326:  1.83 327:  1.82 328:  1.82
 329:  1.88 330:  1.78 331:  1.88 332:  1.81 333:  1.81 334:  1.85 335:  1.89 336:  1.88
 337:  1.92 338:  1.92 339:  1.87 340:  1.92 341:  1.83 342:  1.85 343:  1.85 344:  1.82
 345:  1.83 346:  1.80 347:  1.84 348:  1.84
 IR intensities (km·mol⁻¹)
   1:  0.00   2:  0.00   3:  0.00   4:  0.00   5:  0.01   6:  0.01   7:  0.06   8:  0.15
   9:  0.04  10:  0.05  11:  0.26  12:  0.04  13:  0.50  14:  0.03  15:  0.07  16:  0.11
  17:  0.62  18:  0.24  19:  0.08  20:  0.34  21:  0.10  22:  0.04  23:  0.25  24:  0.15
  25:  0.51  26:  0.11  27:  0.39  28:  0.47  29:  0.12  30:  0.06  31:  0.53  32:  0.63
  33:  0.32  34:  0.71  35:  1.53  36:  0.16  37:  0.09  38:  0.23  39:  0.03  40:  0.31
  41:  0.07  42:  0.05  43:  0.21  44:  1.11  45:  0.39  46:  1.77  47:  0.92  48:  0.32
  49:  3.74  50:  0.79  51:  0.93  52:  0.25  53:  1.78  54:  3.01  55:  0.36  56:  0.24
  57:  0.24  58:  0.27  59:  0.40  60:  0.05  61:  0.33  62:  2.89  63:  0.01  64:  0.69
  65:  1.36  66:  0.93  67:  0.30  68:  0.18  69:  0.03  70:  1.97  71:  0.94  72:  0.09
  73:  0.25  74:  2.53  75:  2.21  76:  0.05  77:  9.43  78:  0.92  79:  0.06  80:  2.94
  81:  0.05  82:  0.72  83:  0.17  84:  0.73  85:  0.91  86:  0.89  87:  4.57  88:  4.39
  89:  2.88  90:  3.45  91:  0.70  92:  1.46  93:  4.07  94:  1.64  95: 17.24  96:  0.01
  97:  7.44  98: 14.05  99:  6.78 100:  7.99 101:  0.26 102:  4.91 103:  0.33 104:  0.28
 105:  0.14 106:  3.19 107:  3.19 108:  2.54 109:  1.21 110:  0.48 111:  2.65 112:  3.17
 113:  3.17 114:  3.89 115:  8.30 116:  0.20 117:  3.00 118: 20.42 119:  3.46 120:  0.07
 121: 10.03 122: 34.77 123: 13.74 124:  6.47 125:  9.46 126: 17.22 127: 14.75 128:  7.69
 129: 27.09 130: 14.47 131: 14.59 132:  1.48 133:  1.36 134: 15.26 135:  6.77 136: 19.81
 137: 24.85 138:  0.36 139: 54.75 140:  0.57 141:  0.15 142:  7.59 143:  0.35 144:  1.39
 145:  2.86 146:  0.50 147:  0.89 148:  0.44 149:  2.60 150:  5.58 151:  0.76 152:  5.71
 153:  1.98 154:  1.18 155:  7.94 156:  0.26 157:  0.17 158:  0.02 159:  0.04 160:  0.65
 161:  0.89 162:  0.19 163:  0.05 164:  0.07 165:  0.51 166:  0.06 167:  0.79 168:  2.27
 169:  1.69 170:  2.72 171:  0.73 172:  1.20 173:  0.80 174:  7.18 175:  0.09 176: 24.89
 177:  0.72 178:  4.72 179:  0.09 180:  0.12 181:  0.40 182:  1.12 183:  0.68 184:275.27
 185: 20.84 186:  7.54 187:  0.46 188: 49.22 189:  8.00 190:  2.03 191: 85.06 192: 63.17
 193:  4.91 194:  3.93 195:  5.46 196: 33.06 197:  4.89 198:126.07 199:  1.82 200: 32.25
 201: 40.41 202: 14.25 203: 14.54 204: 39.19 205:  1.10 206:  0.06 207:  0.83 208:  7.45
 209:  4.96 210:  0.30 211:  1.32 212: 27.34 213:  0.27 214: 67.71 215: 29.00 216:  1.30
 217:  3.23 218: 33.11 219: 31.73 220: 26.20 221: 26.11 222:196.17 223:118.30 224: 35.95
 225:  1.04 226: 38.82 227:185.01 228:137.93 229: 28.61 230: 62.81 231: 83.03 232:209.04
 233:210.85 234:  5.41 235: 24.27 236:  6.84 237:170.58 238: 27.59 239: 55.35 240:187.01
 241: 37.16 242:149.44 243:  3.05 244: 17.89 245: 23.71 246:842.91 247:103.96 248: 39.37
 249:321.33 250:  8.41 251:  4.34 252:  6.07 253: 90.52 254:  0.54 255:  5.82 256:178.99
 257:  3.61 258: 11.43 259: 46.36 260:  3.45 261:127.64 262:446.90 263:136.03 264: 76.81
 265: 43.29 266:  1.31 267: 71.65 268:134.12 269:  0.13 270:  0.13 271:  0.02 272:  0.22
 273:  2.35 274:  4.75 275:  1.10 276:  1.48 277:  2.36 278:  1.78 279:  9.67 280: 15.65
 281:122.14 282: 65.84 283: 86.51 284:390.52 285:  1.46 286: 59.91 287:724.87 288:  3.83
 289:  0.39 290:  1.46 291:  0.62 292:  1.03 293: 31.53 294: 79.71 295:  1.80 296:  8.50
 297: 15.55 298:  1.03 299: 84.52 300:  8.65 301: 14.59 302: 19.75 303: 18.57 304:  2.28
 305:  2.61 306: 26.00 307:145.45 308: 55.58 309:137.86 310: 85.98 311:129.07 312: 89.13
 313: 83.82 314: 20.70 315: 19.85 316: 54.92 317: 37.62 318:  9.95 319:  8.86 320:  2.03
 321: 10.90 322:  4.33 323:  7.27 324: 74.85 325: 10.84 326: 40.73 327:100.79 328: 95.48
 329:196.37 330:  4.83 331:154.48 332: 50.00 333: 45.69 334: 83.32 335:237.49 336: 72.54
 337: 91.57 338: 45.11 339:148.86 340: 52.98 341: 33.01 342: 75.82 343: 69.03 344: 42.14
 345: 29.52 346: 33.64 347: 90.26 348: 29.39
 Raman intensities (Ä⁴*amu⁻¹)
   1:  0.00   2:  0.00   3:  0.00   4:  0.00   5:  0.00   6:  0.00   7:  0.00   8:  0.00
   9:  0.00  10:  0.00  11:  0.00  12:  0.00  13:  0.00  14:  0.00  15:  0.00  16:  0.00
  17:  0.00  18:  0.00  19:  0.00  20:  0.00  21:  0.00  22:  0.00  23:  0.00  24:  0.00
  25:  0.00  26:  0.00  27:  0.00  28:  0.00  29:  0.00  30:  0.00  31:  0.00  32:  0.00
  33:  0.00  34:  0.00  35:  0.00  36:  0.00  37:  0.00  38:  0.00  39:  0.00  40:  0.00
  41:  0.00  42:  0.00  43:  0.00  44:  0.00  45:  0.00  46:  0.00  47:  0.00  48:  0.00
  49:  0.00  50:  0.00  51:  0.00  52:  0.00  53:  0.00  54:  0.00  55:  0.00  56:  0.00
  57:  0.00  58:  0.00  59:  0.00  60:  0.00  61:  0.00  62:  0.00  63:  0.00  64:  0.00
  65:  0.00  66:  0.00  67:  0.00  68:  0.00  69:  0.00  70:  0.00  71:  0.00  72:  0.00
  73:  0.00  74:  0.00  75:  0.00  76:  0.00  77:  0.00  78:  0.00  79:  0.00  80:  0.00
  81:  0.00  82:  0.00  83:  0.00  84:  0.00  85:  0.00  86:  0.00  87:  0.00  88:  0.00
  89:  0.00  90:  0.00  91:  0.00  92:  0.00  93:  0.00  94:  0.00  95:  0.00  96:  0.00
  97:  0.00  98:  0.00  99:  0.00 100:  0.00 101:  0.00 102:  0.00 103:  0.00 104:  0.00
 105:  0.00 106:  0.00 107:  0.00 108:  0.00 109:  0.00 110:  0.00 111:  0.00 112:  0.00
 113:  0.00 114:  0.00 115:  0.00 116:  0.00 117:  0.00 118:  0.00 119:  0.00 120:  0.00
 121:  0.00 122:  0.00 123:  0.00 124:  0.00 125:  0.00 126:  0.00 127:  0.00 128:  0.00
 129:  0.00 130:  0.00 131:  0.00 132:  0.00 133:  0.00 134:  0.00 135:  0.00 136:  0.00
 137:  0.00 138:  0.00 139:  0.00 140:  0.00 141:  0.00 142:  0.00 143:  0.00 144:  0.00
 145:  0.00 146:  0.00 147:  0.00 148:  0.00 149:  0.00 150:  0.00 151:  0.00 152:  0.00
 153:  0.00 154:  0.00 155:  0.00 156:  0.00 157:  0.00 158:  0.00 159:  0.00 160:  0.00
 161:  0.00 162:  0.00 163:  0.00 164:  0.00 165:  0.00 166:  0.00 167:  0.00 168:  0.00
 169:  0.00 170:  0.00 171:  0.00 172:  0.00 173:  0.00 174:  0.00 175:  0.00 176:  0.00
 177:  0.00 178:  0.00 179:  0.00 180:  0.00 181:  0.00 182:  0.00 183:  0.00 184:  0.00
 185:  0.00 186:  0.00 187:  0.00 188:  0.00 189:  0.00 190:  0.00 191:  0.00 192:  0.00
 193:  0.00 194:  0.00 195:  0.00 196:  0.00 197:  0.00 198:  0.00 199:  0.00 200:  0.00
 201:  0.00 202:  0.00 203:  0.00 204:  0.00 205:  0.00 206:  0.00 207:  0.00 208:  0.00
 209:  0.00 210:  0.00 211:  0.00 212:  0.00 213:  0.00 214:  0.00 215:  0.00 216:  0.00
 217:  0.00 218:  0.00 219:  0.00 220:  0.00 221:  0.00 222:  0.00 223:  0.00 224:  0.00
 225:  0.00 226:  0.00 227:  0.00 228:  0.00 229:  0.00 230:  0.00 231:  0.00 232:  0.00
 233:  0.00 234:  0.00 235:  0.00 236:  0.00 237:  0.00 238:  0.00 239:  0.00 240:  0.00
 241:  0.00 242:  0.00 243:  0.00 244:  0.00 245:  0.00 246:  0.00 247:  0.00 248:  0.00
 249:  0.00 250:  0.00 251:  0.00 252:  0.00 253:  0.00 254:  0.00 255:  0.00 256:  0.00
 257:  0.00 258:  0.00 259:  0.00 260:  0.00 261:  0.00 262:  0.00 263:  0.00 264:  0.00
 265:  0.00 266:  0.00 267:  0.00 268:  0.00 269:  0.00 270:  0.00 271:  0.00 272:  0.00
 273:  0.00 274:  0.00 275:  0.00 276:  0.00 277:  0.00 278:  0.00 279:  0.00 280:  0.00
 281:  0.00 282:  0.00 283:  0.00 284:  0.00 285:  0.00 286:  0.00 287:  0.00 288:  0.00
 289:  0.00 290:  0.00 291:  0.00 292:  0.00 293:  0.00 294:  0.00 295:  0.00 296:  0.00
 297:  0.00 298:  0.00 299:  0.00 300:  0.00 301:  0.00 302:  0.00 303:  0.00 304:  0.00
 305:  0.00 306:  0.00 307:  0.00 308:  0.00 309:  0.00 310:  0.00 311:  0.00 312:  0.00
 313:  0.00 314:  0.00 315:  0.00 316:  0.00 317:  0.00 318:  0.00 319:  0.00 320:  0.00
 321:  0.00 322:  0.00 323:  0.00 324:  0.00 325:  0.00 326:  0.00 327:  0.00 328:  0.00
 329:  0.00 330:  0.00 331:  0.00 332:  0.00 333:  0.00 334:  0.00 335:  0.00 336:  0.00
 337:  0.00 338:  0.00 339:  0.00 340:  0.00 341:  0.00 342:  0.00 343:  0.00 344:  0.00
 345:  0.00 346:  0.00 347:  0.00 348:  0.00
 output can be read by thermo (or use thermo option).
 writing <g98.out> molden fake output.
 recommended (thermochemical) frequency scaling factor: 1.0
           -------------------------------------------------
          |             Thermodynamic Functions             |
           -------------------------------------------------

Molecule has no symmetry elements
It seems to be the C1 point group
c1  symmetry found (for desy threshold:  0.10E+00) used in thermo

          ...................................................
          :                      SETUP                      :
          :.................................................:
          :  # frequencies                         342      :
          :  # imaginary freq.                       0      :
          :  linear?                             false      :
          :  only rotor calc.                    false      :
          :  symmetry                               c1      :
          :  rotational number                       1      :
          :  scaling factor                  1.0000000      :
          :  rotor cutoff                   50.0000000 cm⁻¹ :
          :  imag. cutoff                  -20.0000000 cm⁻¹ :
          :.................................................:

    mode    ω/cm⁻¹     T·S(HO)/kcal·mol⁻¹    T·S(FR)/kcal·mol⁻¹   T·S(vib)
   ------------------------------------------------------------------------
       1      9.88    -2.39555 (  0.15%)    -1.53684 ( 99.85%)    -1.53815
       2     12.05    -2.27813 (  0.34%)    -1.47812 ( 99.66%)    -1.48081
       3     12.99    -2.23346 (  0.45%)    -1.45578 ( 99.55%)    -1.45931
       4     24.02    -1.86951 (  5.06%)    -1.27369 ( 94.94%)    -1.30384
       5     27.26    -1.79470 (  8.12%)    -1.23624 ( 91.88%)    -1.28158
       6     28.08    -1.77714 (  9.05%)    -1.22745 ( 90.95%)    -1.27719
       7     34.05    -1.66324 ( 17.69%)    -1.17040 ( 82.31%)    -1.25760
       8     41.48    -1.54661 ( 32.13%)    -1.11192 ( 67.87%)    -1.25159
       9     46.51    -1.47899 ( 42.81%)    -1.07799 ( 57.19%)    -1.24967
      10     47.38    -1.46807 ( 44.63%)    -1.07250 ( 55.37%)    -1.24906
      11     52.55    -1.40701 ( 54.95%)    -1.04182 ( 45.05%)    -1.24250
      12     55.56    -1.37416 ( 60.39%)    -1.02531 ( 39.61%)    -1.23598
      13     58.54    -1.34342 ( 65.26%)    -1.00984 ( 34.74%)    -1.22755
      14     62.75    -1.30250 ( 71.28%)    -0.98924 ( 28.72%)    -1.21252
      15     62.96    -1.30058 ( 71.54%)    -0.98827 ( 28.46%)    -1.21171
      16     66.98    -1.26418 ( 76.31%)    -0.96992 ( 23.69%)    -1.19447
      17     73.92    -1.20637 ( 82.69%)    -0.94073 ( 17.31%)    -1.16039
      18     76.15    -1.18898 ( 84.32%)    -0.93194 ( 15.68%)    -1.14868
      19     87.16    -1.10996 ( 90.23%)    -0.89192 (  9.77%)    -1.08866
      20     92.38    -1.07603 ( 92.10%)    -0.87469 (  7.90%)    -1.06012
      21    100.88    -1.02484 ( 94.31%)    -0.84863 (  5.69%)    -1.01481
      22    104.82    -1.00256 ( 95.08%)    -0.83726 (  4.92%)    -0.99442
      23    110.78    -0.97054 ( 96.02%)    -0.82088 (  3.98%)    -0.96457
      24    117.35    -0.93725 ( 96.81%)    -0.80381 (  3.19%)    -0.93299
      25    123.86    -0.90616 ( 97.41%)    -0.78783 (  2.59%)    -0.90310
      26    130.82    -0.87476 ( 97.91%)    -0.77162 (  2.09%)    -0.87260
      27    134.97    -0.85687 ( 98.15%)    -0.76237 (  1.85%)    -0.85512
      28    149.96    -0.79686 ( 98.78%)    -0.73116 (  1.22%)    -0.79606
      29    156.52    -0.77262 ( 98.97%)    -0.71848 (  1.03%)    -0.77206
      30    171.86    -0.72003 ( 99.29%)    -0.69078 (  0.71%)    -0.71982
      31    180.41    -0.69295 ( 99.41%)    -0.67641 (  0.59%)    -0.69285
      32    187.80    -0.67066 ( 99.50%)    -0.66451 (  0.50%)    -0.67063
      33    195.82    -0.64758 ( 99.58%)    -0.65213 (  0.42%)    -0.64760
      34    198.48    -0.64016 ( 99.60%)    -0.64812 (  0.40%)    -0.64019
      35    209.42    -0.61082 ( 99.68%)    -0.63223 (  0.32%)    -0.61089
      36    210.04    -0.60922 ( 99.68%)    -0.63136 (  0.32%)    -0.60929
      37    220.03    -0.58402 ( 99.73%)    -0.61759 (  0.27%)    -0.58411
      38    223.60    -0.57534 ( 99.75%)    -0.61282 (  0.25%)    -0.57544
      39    228.07    -0.56471 ( 99.77%)    -0.60696 (  0.23%)    -0.56481
      40    232.70    -0.55397 ( 99.79%)    -0.60101 (  0.21%)    -0.55407
      41    237.70    -0.54263 ( 99.80%)    -0.59471 (  0.20%)    -0.54274
      42    241.79    -0.53358 ( 99.82%)    -0.58965 (  0.18%)    -0.53368
      43    246.55    -0.52330 ( 99.83%)    -0.58389 (  0.17%)    -0.52340
      44    248.72    -0.51868 ( 99.84%)    -0.58129 (  0.16%)    -0.51878
      45    258.20    -0.49908 ( 99.86%)    -0.57021 (  0.14%)    -0.49918
      46    271.78    -0.47252 ( 99.89%)    -0.55502 (  0.11%)    -0.47262
      47    272.39    -0.47137 ( 99.89%)    -0.55435 (  0.11%)    -0.47146
      48    278.44    -0.46012 ( 99.90%)    -0.54785 (  0.10%)    -0.46021
      49    285.94    -0.44659 ( 99.91%)    -0.53998 (  0.09%)    -0.44668
      50    289.57    -0.44021 ( 99.91%)    -0.53624 (  0.09%)    -0.44030
   ------------------------------------------------------------------------

   temp. (K)  partition function   enthalpy   heat capacity  entropy
                                   cal/mol     cal/K/mol   cal/K/mol   J/K/mol
 298.15  VIB  0.261E+26            33704.960    211.975    209.289
         ROT  0.198E+09              888.752      2.981     40.944
         INT  0.517E+34            34593.713    214.956    250.234
         TR   0.246E+29             1481.254      4.968     46.128
         TOT                       36074.9665   219.9240   296.3615  1239.9766

       T/K    H(0)-H(T)+PV         H(T)/Eh          T*S/Eh         G(T)/Eh
   ------------------------------------------------------------------------
    298.15    0.574891E-01    0.974040E+00    0.140811E+00    0.833230E+00
   ------------------------------------------------------------------------

         :::::::::::::::::::::::::::::::::::::::::::::::::::::
         ::                  THERMODYNAMIC                  ::
         :::::::::::::::::::::::::::::::::::::::::::::::::::::
         :: total free energy        -172.355368184463 Eh   ::
         ::.................................................::
         :: total energy             -173.188597738162 Eh   ::
         :: zero point energy           0.916551359872 Eh   ::
         :: G(RRHO) w/o ZPVE           -0.083321806172 Eh   ::
         :: G(RRHO) contrib.            0.833229553699 Eh   ::
         :::::::::::::::::::::::::::::::::::::::::::::::::::::

optimized geometry written to: xtbopt.xyz


           -------------------------------------------------
          | TOTAL ENERGY             -173.188597738162 Eh   |
          | TOTAL ENTHALPY           -172.214557259880 Eh   |
          | TOTAL FREE ENERGY        -172.355368184463 Eh   |
          | GRADIENT NORM               0.000065894393 Eh/α |
          | HOMO-LUMO GAP               1.994174221411 eV   |
           -------------------------------------------------

------------------------------------------------------------------------
 * finished run on 2025/07/18 at 01:49:40.226     
------------------------------------------------------------------------
 total:
 * wall-time:     0 d,  0 h,  0 min, 30.588 sec
 *  cpu-time:     0 d,  0 h, 19 min, 23.968 sec
 * ratio c/w:    38.054 speedup
 SCF:
 * wall-time:     0 d,  0 h,  0 min,  0.306 sec
 *  cpu-time:     0 d,  0 h,  0 min, 11.683 sec
 * ratio c/w:    38.146 speedup
 ANC optimizer:
 * wall-time:     0 d,  0 h,  0 min, 20.068 sec
 *  cpu-time:     0 d,  0 h, 13 min, 22.650 sec
 * ratio c/w:    39.997 speedup
 analytical hessian:
 * wall-time:     0 d,  0 h,  0 min,  9.876 sec
 *  cpu-time:     0 d,  0 h,  5 min, 40.430 sec
 * ratio c/w:    34.469 speedup

