$hessian                                                                        
        0.5253058771   0.0035163661   0.0082329528  -0.0656805398   0.0111593153
        0.0122537924  -0.0109336957   0.0191344885   0.0178406390  -0.0000279996
        0.0014746551   0.0028378376   0.0018266051  -0.0145709889  -0.0140597254
       -0.0013044483  -0.0002140534  -0.0005461131   0.0005176216   0.0003776652
        0.0003736351   0.0004475903  -0.0001470645   0.0000603279  -0.0005449684
       -0.0004851270   0.0009909667  -0.0017291059  -0.0010090739  -0.0006942194
       -0.0000475798  -0.0000237706   0.0000894476  -0.0001081344   0.0001219563
       -0.0000301485  -0.0000606521  -0.0000725245  -0.0000117754  -0.0000261938
        0.0000027851  -0.0000035550   0.0000176626  -0.0000066592  -0.0000008049
        0.0000170612  -0.0000065216   0.0000084943   0.0000103715  -0.0000067420
        0.0000031068   0.0000536265  -0.0000567621   0.0000097938  -0.0000017784
        0.0000553049  -0.0000311761  -0.0001689949  -0.0000887013  -0.0000212091
       -0.0002984337  -0.0003304835  -0.0000687983   0.0003093586  -0.0000765043
        0.0000282763  -0.0000726340   0.0001022592  -0.0000369427   0.0000935413
        0.0000131272   0.0000097371  -0.0001161815   0.0000076725  -0.0000304780
       -0.0000298912  -0.0000776527   0.0000110788  -0.0000229339  -0.0000501192
        0.0000029076  -0.0000533254  -0.0001110164   0.0000192127   0.0001531494
        0.0001034935  -0.0000154928  -0.0001721300  -0.0001468241   0.0000253296
        0.0001126004   0.0001987069  -0.0000262087  -0.0000821672  -0.0001960251
        0.0000304908   0.0001230164   0.0000628587  -0.0000197481   0.0000007034
        0.0000016615  -0.0000055609  -0.0000157670   0.0000492610   0.0000102552
        0.0000208017   0.0000003802   0.0000116974  -0.0000502577   0.0000022305
       -0.0000009483   0.0000548514  -0.0000312015   0.0000043146   0.0000379320
       -0.0000285157  -0.0000089191  -0.0000686052   0.0000466451   0.0000022956
       -0.0000447065  -0.0000328105   0.0000152410   0.0000191395  -0.0000154161
       -0.0000004081  -0.0000093891   0.0000033799   0.0000018042  -0.0000006397
       -0.0000038282   0.0000023121  -0.0000011292   0.0000029120  -0.0000008888
        0.0000039118  -0.0000030087  -0.0000034645  -0.0000099665   0.0000111702
        0.0000009115   0.0000396338   0.0000662445  -0.0000119380  -0.0000158971
       -0.0000479965  -0.0000015263   0.0000028045   0.0000151164  -0.0000028747
       -0.0000039845  -0.0000034369   0.0000005575  -0.0000023188  -0.0000003540
        0.0000021420  -0.0000020599  -0.0000051306  -0.0000047582   0.0000035508
        0.0000155171  -0.0000024122   0.0000257022  -0.0000053684  -0.0000174324
       -0.0000230746  -0.0000443230  -0.0000075567  -0.0000156564   0.0000985974
        0.0000128595   0.0001072658   0.0001290251  -0.0000126606  -0.0001717718
       -0.0001023290   0.0000096792   0.0001791346   0.0001441834  -0.0000107804
       -0.0001061528  -0.0001808659   0.0000188424   0.0000624539   0.0001570120
        0.0000072518   0.0000026084   0.0000009791  -0.0000084881  -0.0000084149
       -0.0000166812  -0.0000102138   0.0000791369  -0.0000167052   0.0000358184
       -0.0001174595  -0.0000622774   0.0000082069  -0.2125366656   0.1058212235
       -0.0311518426  -0.0463633294  -0.0117829415   0.0185050821  -0.1850643475
       -0.1161591277  -0.0157599230   0.0006431669   0.0011481202   0.0009723033
       -0.0048616535   0.0035285309   0.0003717033   0.0005711626  -0.0001889717
        0.0007526531   0.0003545116  -0.0000408361   0.0005685533   0.0001785589
        0.0004866673   0.0003866477   0.0004005694  -0.0003183315  -0.0006923382
       -0.0007480257  -0.0010850020  -0.0009570352   0.0000241407  -0.0000227269
       -0.0000083672  -0.0000184287  -0.0000869205  -0.0002547473   0.0000023237
       -0.0000016571   0.0000003762  -0.0000010329  -0.0000076797   0.0000053448
        0.0000015591   0.0000062728  -0.0000016779  -0.0000039423  -0.0000001958
       -0.0000002775  -0.0000003706  -0.0000082461  -0.0000036359  -0.0000045839
       -0.0000003535  -0.0000018111   0.0000009017   0.0000064287   0.0000029297
       -0.0000063426  -0.0000018956   0.0000053880  -0.0000056302  -0.0000039508
       -0.0000062209   0.0000020998  -0.0000054672   0.0000009560  -0.0000024305
       -0.0000134996   0.0000053543  -0.0000139021  -0.0000205118  -0.0000010267
        0.0000108376  -0.0000113255   0.0000003088  -0.0000102291  -0.0000056430
       -0.0000041295   0.0000090825   0.0000137747   0.0000000355  -0.0000152819
        0.0000145812  -0.0000040666  -0.0000093471   0.0000174566  -0.0000093524
       -0.0000190495   0.0000042481  -0.0000027031   0.0000075041  -0.0000086510
       -0.0000017277  -0.0000097551  -0.0000064693  -0.0000025250   0.0000045517
       -0.0000017120   0.0000001504  -0.0000001404   0.0000023874  -0.0000012689
       -0.0000024784   0.0000014767   0.0000005009  -0.0000033548  -0.0000009322
        0.0000018987   0.0000029429  -0.0000017756  -0.0000012680   0.0000023515
       -0.0000033098   0.0000033476   0.0000022830  -0.0000015197  -0.0000002853
        0.0000020097   0.0000005003  -0.0000005123   0.0000002700   0.0000017711
        0.0000026083  -0.0000012550  -0.0000033879   0.0000011817  -0.0000080904
        0.0000100567   0.0000080560   0.0000071752   0.0000039133  -0.0000026322
       -0.0000151037  -0.0000184630   0.0000054962   0.0000096216  -0.0000219534
       -0.0000034160   0.0000042176  -0.0000211164  -0.0000009900   0.0000150793
       -0.0000100982  -0.0000002628  -0.0000104758  -0.0000009860  -0.0000013834
       -0.0000003481   0.0000001422   0.0000095614
        0.0035163661   0.4914717949  -0.0396162024   0.0157015561  -0.1059902435
       -0.0583464692   0.0089584289  -0.0141537946  -0.0128506293  -0.0014216645
        0.0061976174   0.0081678336  -0.0051455343  -0.0200335861  -0.0161403120
        0.0008716731  -0.0005854795  -0.0007036111  -0.0000110527  -0.0002379616
        0.0005630586   0.0003238057  -0.0000004985   0.0001176388  -0.0006535726
       -0.0007268615   0.0010340894  -0.0016714692  -0.0000899515  -0.0008389263
       -0.0001018836   0.0000188316   0.0000879972   0.0000199019   0.0000525827
        0.0000052171  -0.0000111508  -0.0000334400  -0.0000093662  -0.0000045917
        0.0000211021  -0.0000030726   0.0000057697   0.0000067935  -0.0000040030
        0.0000041727   0.0000149790   0.0000074146  -0.0000023451   0.0000253692
       -0.0000018779  -0.0000033782  -0.0000138170   0.0000012232  -0.0000115621
       -0.0000192651  -0.0000147797  -0.0001060858  -0.0000042159  -0.0000496274
       -0.0002377653  -0.0002087748  -0.0001129179   0.0002479302  -0.0000439036
        0.0000308151  -0.0000354508   0.0000518258  -0.0000199542   0.0000471701
        0.0000132147   0.0000096067  -0.0000291259   0.0000019636  -0.0000091962
        0.0000021586  -0.0000189592   0.0000036250   0.0000031827  -0.0000082939
        0.0000028149  -0.0000195661  -0.0000099906   0.0000009591   0.0000414574
        0.0000181672  -0.0000013267  -0.0000543227  -0.0000246840   0.0000028224
        0.0000166497   0.0000553494  -0.0000063900  -0.0000135063  -0.0000453112
        0.0000060141   0.0000376036   0.0000117088  -0.0000065048  -0.0000247552
        0.0000028412   0.0000013788  -0.0000030635   0.0000102726  -0.0000041771
       -0.0000001602   0.0000051866   0.0000086702  -0.0000054702  -0.0000010031
       -0.0000027352   0.0000133287  -0.0000088037   0.0000025523   0.0000131180
       -0.0000051407  -0.0000012889  -0.0000182395   0.0000106170   0.0000006966
       -0.0000097795  -0.0000074961   0.0000015090   0.0000028870  -0.0000013352
        0.0000001814  -0.0000034093  -0.0000024106   0.0000025571  -0.0000010551
       -0.0000016693   0.0000005041   0.0000011594  -0.0000005160   0.0000012915
        0.0000006471  -0.0000005538  -0.0000019207  -0.0000007599   0.0000033829
       -0.0000012922   0.0000115027   0.0000170978  -0.0000043433  -0.0000057987
       -0.0000143828  -0.0000007824  -0.0000010428   0.0000012912   0.0000027613
       -0.0000008712  -0.0000019794  -0.0000000099  -0.0000006109  -0.0000003433
        0.0000012328  -0.0000000627  -0.0000021593   0.0000002048   0.0000023242
        0.0000011108  -0.0000023231  -0.0000032463  -0.0000065326  -0.0000097595
       -0.0000048718  -0.0000094252   0.0000023871  -0.0000077877   0.0000098997
        0.0000075812   0.0000328246   0.0000110194  -0.0000050406  -0.0000422902
       -0.0000190033  -0.0000002620   0.0000515719   0.0000281927  -0.0000015074
       -0.0000063820  -0.0000524461   0.0000043160   0.0000006117   0.0000389346
        0.0000042344  -0.0000004843  -0.0000031564   0.0000002374   0.0000020789
       -0.0000003750  -0.0000039740   0.0000360336  -0.0000181514   0.0000189396
       -0.0000469676  -0.0000252720  -0.0000076766   0.1059157538  -0.1092318995
        0.0204186627  -0.0117245737  -0.1088912125   0.1067318042  -0.1158476939
       -0.1375362235  -0.0114788301  -0.0010191874   0.0006166090   0.0000464413
        0.0030818258  -0.0016990445  -0.0000653750  -0.0003376144   0.0002858615
       -0.0008403608  -0.0003675551  -0.0004944571   0.0032852468   0.0001784505
        0.0007444282   0.0006438427  -0.0003099751   0.0006181172   0.0005703866
        0.0002564221  -0.0000925563  -0.0001882785   0.0000174611   0.0000146731
       -0.0000425656   0.0000043500   0.0000901169  -0.0003859875  -0.0000165652
       -0.0000022879  -0.0000139036  -0.0000004789  -0.0000081090   0.0000047965
       -0.0000076728  -0.0000052953   0.0000023172   0.0000006097  -0.0000040715
       -0.0000008770   0.0000026782  -0.0000083826  -0.0000041623  -0.0000012100
       -0.0000004000   0.0000041191  -0.0000080144  -0.0000054141  -0.0000040182
       -0.0000028516  -0.0000091063  -0.0000088984  -0.0000052890  -0.0000028462
        0.0000069107   0.0000036576  -0.0000120871  -0.0000001852  -0.0000134959
       -0.0000205652  -0.0000003671  -0.0000198953  -0.0000201701  -0.0000059592
        0.0000011490  -0.0000076468   0.0000079590  -0.0000089596  -0.0000022688
       -0.0000073524   0.0000002947  -0.0000012487   0.0000010538  -0.0000016171
       -0.0000018548  -0.0000000225   0.0000005935  -0.0000026604  -0.0000011610
        0.0000029897   0.0000022026  -0.0000004862   0.0000033371   0.0000016797
        0.0000016015   0.0000015941  -0.0000021777  -0.0000009215   0.0000013160
       -0.0000008109  -0.0000005911   0.0000001443   0.0000008647  -0.0000001440
       -0.0000006553  -0.0000000449   0.0000001491  -0.0000008328  -0.0000007888
        0.0000003041   0.0000010882  -0.0000012715  -0.0000008440   0.0000008474
        0.0000001528   0.0000005936   0.0000008452   0.0000014972   0.0000010805
        0.0000011738   0.0000000236   0.0000005459   0.0000006733   0.0000002256
        0.0000009028   0.0000008951  -0.0000015811   0.0000007435  -0.0000005873
        0.0000025190   0.0000016007   0.0000005667  -0.0000000043  -0.0000028927
        0.0000009001   0.0000042180  -0.0000002569  -0.0000020841   0.0000054097
       -0.0000035093  -0.0000017639   0.0000044058  -0.0000002535  -0.0000071346
        0.0000010766   0.0000003310  -0.0000142935   0.0000011680   0.0000045599
       -0.0000043941   0.0000012797   0.0000021446
        0.0082329528  -0.0396162024   0.4712988290   0.0170615269  -0.0542924312
       -0.1289277429   0.0022748074  -0.0019625750  -0.0004573289   0.0059820370
       -0.0132372486  -0.0293763107  -0.0041648148  -0.0082384807  -0.0038373086
        0.0005530407   0.0002049815   0.0002671240   0.0000361070  -0.0002389413
        0.0001368932  -0.0000520614  -0.0000820713   0.0000414806  -0.0003211244
       -0.0002962930   0.0001555418   0.0001519716   0.0009473318  -0.0007238074
       -0.0000176019   0.0000789637   0.0000578428   0.0000333325  -0.0000301824
       -0.0000004167   0.0000193806   0.0000109192   0.0000037917   0.0000005405
        0.0000105794  -0.0000075212  -0.0000022446   0.0000038850  -0.0000095969
        0.0000015190   0.0000063459  -0.0000073186   0.0000000053   0.0000089154
       -0.0000140645  -0.0000235754   0.0000173350  -0.0000030801   0.0000043293
       -0.0000319753   0.0000059344  -0.0000348661   0.0000475739  -0.0000232889
        0.0000383285  -0.0000386297  -0.0000228536   0.0000103358   0.0000006209
        0.0000134620   0.0000187940   0.0000181909  -0.0000028250  -0.0000083315
        0.0000063264   0.0000070553   0.0000314198   0.0000010979   0.0000029192
        0.0000028786   0.0000090162  -0.0000023740   0.0000179104   0.0000158158
       -0.0000006640   0.0000071899   0.0000365208  -0.0000038554  -0.0000242080
       -0.0000266169   0.0000014496   0.0000246471   0.0000395932  -0.0000042101
       -0.0000311524  -0.0000301625   0.0000035065   0.0000240757   0.0000424160
       -0.0000048753  -0.0000207572  -0.0000166191  -0.0000020382  -0.0000191944
        0.0000013746  -0.0000006021   0.0000008658  -0.0000130730  -0.0000042905
       -0.0000054174   0.0000038941  -0.0000010029   0.0000126279  -0.0000020545
        0.0000026879  -0.0000105961   0.0000058275  -0.0000012207  -0.0000039074
        0.0000036876   0.0000027323   0.0000096162  -0.0000080929   0.0000019387
        0.0000097784   0.0000082091  -0.0000038505  -0.0000068374  -0.0000000932
       -0.0000046301   0.0000038352  -0.0000029072  -0.0000008080   0.0000041727
        0.0000018341   0.0000026839  -0.0000033290  -0.0000021743  -0.0000049011
       -0.0000011717   0.0000001843   0.0000033921   0.0000047396  -0.0000008812
        0.0000014709  -0.0000084451  -0.0000144455   0.0000011007   0.0000019896
        0.0000077238  -0.0000006584  -0.0000002038  -0.0000027676   0.0000015664
        0.0000015083  -0.0000005363   0.0000010021   0.0000015891   0.0000011865
       -0.0000006537  -0.0000010342   0.0000008664   0.0000012298   0.0000002389
       -0.0000031375  -0.0000017359  -0.0000092526  -0.0000017267   0.0000005451
        0.0000028039   0.0000114146   0.0000049069   0.0000009235  -0.0000316504
        0.0000021062  -0.0000146281  -0.0000379261   0.0000038602   0.0000316854
        0.0000256384  -0.0000034924  -0.0000254577  -0.0000286163   0.0000056691
        0.0000337076   0.0000257912  -0.0000092494  -0.0000219249  -0.0000230493
        0.0000038699  -0.0000043061  -0.0000035299   0.0000007082   0.0000080033
        0.0000055039   0.0000012706  -0.0000168076  -0.0000022541  -0.0000069404
        0.0000231552   0.0000076463  -0.0000121360  -0.0314888372   0.0206073456
       -0.0483542153   0.0186251985   0.1063206628  -0.2129995435  -0.0155008480
       -0.0111040454  -0.0445062666  -0.0004702272   0.0003620449   0.0001720258
       -0.0006451092   0.0004100136   0.0005816186  -0.0007693153   0.0005477217
        0.0007879416   0.0006864234   0.0021432310  -0.0055730713  -0.0003813024
       -0.0009674201   0.0007699613   0.0003826684  -0.0010920396   0.0009280034
       -0.0001580800  -0.0004336892  -0.0003405506   0.0000207081  -0.0000076146
       -0.0000290810  -0.0000899618  -0.0000526524  -0.0000355852  -0.0000142350
       -0.0000066967   0.0000012541   0.0000009265  -0.0000017956   0.0000032498
       -0.0000028576  -0.0000004496   0.0000018088  -0.0000008109   0.0000021739
       -0.0000019609  -0.0000001954  -0.0000000770   0.0000003566  -0.0000011491
        0.0000002836   0.0000095782  -0.0000010013  -0.0000001388   0.0000012040
        0.0000010091   0.0000033481   0.0000041006  -0.0000075954  -0.0000036830
        0.0000067065   0.0000018610  -0.0000035022   0.0000026889  -0.0000019219
       -0.0000061368   0.0000021626  -0.0000011704  -0.0000035957  -0.0000011978
        0.0000012662  -0.0000052810   0.0000059159  -0.0000001413  -0.0000039712
       -0.0000034100  -0.0000073036  -0.0000100605  -0.0000000321   0.0000023760
       -0.0000086886   0.0000016157   0.0000022258  -0.0000101672   0.0000019804
        0.0000085691  -0.0000001184   0.0000007691  -0.0000015033   0.0000023096
        0.0000023008   0.0000039108   0.0000021527  -0.0000000220  -0.0000001996
        0.0000005707   0.0000007629  -0.0000005431  -0.0000006275   0.0000004963
        0.0000001856  -0.0000008709   0.0000002363   0.0000003109  -0.0000000615
       -0.0000006186  -0.0000004423  -0.0000002177   0.0000010410  -0.0000010519
        0.0000003898  -0.0000005923  -0.0000007094  -0.0000005262  -0.0000003541
       -0.0000010395   0.0000002319   0.0000014160  -0.0000002699  -0.0000000769
       -0.0000002291  -0.0000000974   0.0000002000   0.0000011884   0.0000024875
       -0.0000018379  -0.0000022351  -0.0000018208  -0.0000024138  -0.0000004283
        0.0000062897   0.0000088325  -0.0000017421  -0.0000044447   0.0000101586
       -0.0000010184  -0.0000033974   0.0000086008   0.0000007510  -0.0000095723
        0.0000033557  -0.0000007207  -0.0000041564  -0.0000009397   0.0000083918
       -0.0000002254  -0.0000040974   0.0000024303
       -0.0656805398   0.0157015561   0.0170615269   0.4925132234  -0.0039944178
        0.0059222313  -0.1568018655   0.0473637682  -0.0168459165  -0.0628802553
       -0.0017679823   0.0037977658  -0.1315450098  -0.0585429500  -0.0073012191
       -0.0290884354  -0.0144006662  -0.0032395526  -0.0029379977   0.0025654647
       -0.0012219128  -0.0011006325  -0.0005086633  -0.0001527456   0.0010490794
        0.0015615539  -0.0009567994   0.0025318237  -0.0054824425   0.0005544516
        0.0001382469   0.0002254573  -0.0000347809   0.0001226129  -0.0000624071
        0.0000245720   0.0000788380   0.0000440187   0.0000039932  -0.0000183738
        0.0000052337  -0.0000057986  -0.0000260122   0.0000179802  -0.0000017201
       -0.0000223653   0.0000174815  -0.0000073215  -0.0000433590   0.0000119021
       -0.0000013088  -0.0000950200   0.0000627278  -0.0000167265   0.0000039062
       -0.0000646161   0.0000190980   0.0000428962   0.0003170017  -0.0000009897
        0.0005332848   0.0005963395   0.0001574389  -0.0001659912   0.0000517479
       -0.0000130878   0.0000794548  -0.0000537276   0.0000315495  -0.0000286960
        0.0000095503  -0.0000056426   0.0000865575   0.0000012967   0.0000197216
       -0.0000027640   0.0000312406  -0.0000125274   0.0000431527   0.0000381102
        0.0000061119   0.0000047999   0.0000775617  -0.0000178123  -0.0000429517
       -0.0000581512   0.0000104212   0.0000433651   0.0000807454  -0.0000159185
       -0.0000749175  -0.0000493793   0.0000052795   0.0000509609   0.0000803907
       -0.0000119988  -0.0000174755  -0.0000382530   0.0000015584  -0.0000815705
        0.0000069694   0.0000101268   0.0000211457  -0.0000183426  -0.0000187584
       -0.0000264392   0.0000140021   0.0000129353   0.0000577955  -0.0000107269
       -0.0000037907  -0.0000405248   0.0000201316   0.0000046264  -0.0000155930
        0.0000106233   0.0000108401   0.0000319164  -0.0000339422   0.0000016777
        0.0000333046   0.0000249443  -0.0000162864  -0.0000207305   0.0000150229
       -0.0000000614   0.0000086962  -0.0000135027   0.0000042027   0.0000011021
        0.0000023748  -0.0000015817   0.0000031658  -0.0000035061  -0.0000000344
       -0.0000041141   0.0000018952   0.0000036065   0.0000159324  -0.0000026447
       -0.0000062512  -0.0000253627  -0.0000426421   0.0000023608   0.0000056841
        0.0000298033   0.0000010347  -0.0000059684  -0.0000147488   0.0000078610
        0.0000065214   0.0000024839  -0.0000004156   0.0000035240   0.0000012068
       -0.0000021147   0.0000023115   0.0000030295   0.0000033267   0.0000039251
       -0.0000158215  -0.0000058544  -0.0000392535  -0.0000137476  -0.0000048972
        0.0000234672   0.0000183102   0.0000107948  -0.0000078196  -0.0000708961
        0.0000070627  -0.0000181531  -0.0000984483   0.0000029720   0.0000622407
        0.0000569652  -0.0000090844  -0.0000388339  -0.0000731278   0.0000085693
        0.0000720702   0.0000495585  -0.0000044392  -0.0000541050  -0.0000533180
       -0.0000046930  -0.0000064636  -0.0000064743   0.0000085939   0.0000204566
        0.0000166042  -0.0000003641  -0.0000371457  -0.0000097034   0.0000043204
        0.0001243505   0.0000380817  -0.0000388585  -0.0067706162   0.0168384286
        0.0182241743  -0.0005024194   0.0017057984   0.0025862659   0.0015641583
       -0.0149656979  -0.0169013314  -0.0260210362   0.0070128047  -0.0042570426
       -0.0079296526   0.0058097429   0.0013214362  -0.0011567558   0.0021030813
       -0.0025255706  -0.0006454640  -0.0018746895   0.0049720782  -0.0040866378
       -0.0136300021   0.0192722248  -0.0005176844   0.0135445290  -0.0209913482
        0.0005758779  -0.0008061155   0.0004468269  -0.0009276066  -0.0005981053
       -0.0001180123  -0.0004113697   0.0011437726   0.0002061108  -0.0000070868
        0.0000096139  -0.0000019334  -0.0000131627   0.0000210480  -0.0000009002
        0.0000016457  -0.0000022329   0.0000009911   0.0000127652  -0.0000133717
       -0.0000117382  -0.0000126306   0.0000199206  -0.0000063565   0.0000082753
       -0.0000113350   0.0000160410   0.0000003582  -0.0000021724   0.0000039042
        0.0000203580   0.0000066183  -0.0000106101   0.0000163624   0.0000088526
        0.0000145377  -0.0000032827   0.0000026384  -0.0000028751   0.0000132094
        0.0000001561   0.0000002939   0.0000256929   0.0000096849   0.0000111712
       -0.0000202715  -0.0000061374   0.0000098069  -0.0000035631  -0.0000071078
       -0.0000075543  -0.0000116006  -0.0000235223   0.0000009050   0.0000103094
       -0.0000263735   0.0000007081   0.0000082484  -0.0000280696   0.0000043456
        0.0000240184   0.0000022564  -0.0000012026  -0.0000023744   0.0000101627
        0.0000078861   0.0000120877  -0.0000007548   0.0000017565  -0.0000004150
        0.0000003313  -0.0000021344  -0.0000002341  -0.0000018539   0.0000007171
        0.0000004868  -0.0000022081  -0.0000000996   0.0000008844  -0.0000006536
       -0.0000006584  -0.0000010994  -0.0000020757   0.0000028982  -0.0000017376
        0.0000010420  -0.0000032851  -0.0000012025   0.0000012580   0.0000020780
       -0.0000009997  -0.0000008679   0.0000002176   0.0000004700  -0.0000003594
       -0.0000015513   0.0000015502   0.0000015267   0.0000018528   0.0000071436
       -0.0000046065  -0.0000059537  -0.0000093662  -0.0000066939  -0.0000053868
        0.0000168513   0.0000251915  -0.0000011313  -0.0000147238   0.0000325829
       -0.0000020944  -0.0000100363   0.0000263606  -0.0000004105  -0.0000296861
        0.0000028228   0.0000004909  -0.0000085627   0.0000049739   0.0000075866
       -0.0000245482   0.0000019211   0.0000025086
        0.0111593153  -0.1059902435  -0.0542924312  -0.0039944178   0.4648086959
       -0.0009286178   0.0494424744  -0.0893330523   0.0089772589  -0.0042957384
       -0.0909484475   0.0495932161  -0.0531560738  -0.1105820057  -0.0041070431
       -0.0019833855   0.0070004097  -0.0007091049   0.0034477057   0.0009421174
        0.0007593019  -0.0005553507  -0.0016123987   0.0000001964   0.0016983927
       -0.0039971526   0.0010793334  -0.0196097879  -0.0240480072  -0.0012668035
       -0.0008965392  -0.0004181407  -0.0000960128   0.0000159540   0.0000735391
       -0.0000045365   0.0000038607  -0.0000624311  -0.0000012519  -0.0000011338
        0.0000100811  -0.0000048824   0.0000028744   0.0000230977  -0.0000132828
        0.0000030339   0.0000246798   0.0000076786   0.0000028795   0.0000612495
        0.0000014755   0.0000361282   0.0000087004   0.0000085771  -0.0000991672
        0.0000570844  -0.0000293082  -0.0000277643  -0.0003173371   0.0000074181
        0.0004327086   0.0005453362   0.0000048757   0.0000769257  -0.0000024875
       -0.0000054955  -0.0000172387   0.0000651568   0.0000219374   0.0000791512
        0.0000215285  -0.0000138081  -0.0000653185   0.0000102833  -0.0000239277
       -0.0000448284  -0.0000698366   0.0000009893   0.0000167396  -0.0000358968
        0.0000106194  -0.0000761558  -0.0000741425   0.0000070581   0.0001632188
        0.0000777446  -0.0000091988  -0.0001955458  -0.0001196152   0.0000181210
        0.0000754773   0.0002215086  -0.0000312023  -0.0000641403  -0.0001892250
        0.0000301005   0.0001657330   0.0000447881  -0.0000258394  -0.0000988901
        0.0000117700   0.0000032350   0.0000128706   0.0000478772  -0.0000062862
       -0.0000108853   0.0000216225   0.0000309611   0.0000096923  -0.0000102569
       -0.0000069353   0.0000153623  -0.0000197481   0.0000108509   0.0000316507
       -0.0000152517   0.0000016723  -0.0000442723   0.0000254074   0.0000040806
       -0.0000224311  -0.0000190204   0.0000014186   0.0000001357  -0.0000009724
       -0.0000006040  -0.0000035112  -0.0000080035   0.0000053135  -0.0000007033
       -0.0000016078   0.0000018016   0.0000020219  -0.0000014465   0.0000001669
        0.0000004850   0.0000000995  -0.0000015898   0.0000018445   0.0000095907
       -0.0000029151   0.0000256223   0.0000322492  -0.0000127565  -0.0000118067
       -0.0000261880  -0.0000013548  -0.0000033490   0.0000026448   0.0000064775
        0.0000001912  -0.0000036892  -0.0000003332  -0.0000003516   0.0000010870
        0.0000013160  -0.0000003645  -0.0000035045  -0.0000006707   0.0000083632
        0.0000026526  -0.0000082550  -0.0000206196  -0.0000245575  -0.0000281615
        0.0000035948  -0.0000469332  -0.0000019634  -0.0000388123   0.0000665536
        0.0000259290   0.0001351116   0.0000742763  -0.0000149271  -0.0001793551
       -0.0000856151   0.0000049849   0.0002105355   0.0001151414  -0.0000072627
       -0.0000760607  -0.0001984008   0.0000220713   0.0000345678   0.0001553304
        0.0000061691  -0.0000002254   0.0000015730  -0.0000046593   0.0000099658
       -0.0000074802  -0.0000133095   0.0000715998  -0.0000199337   0.0000451578
       -0.0000194569  -0.0000567713  -0.0000113900   0.0056576296  -0.0121764555
       -0.0117270820  -0.0020563551   0.0082444906   0.0094776476   0.0001924645
       -0.0161380530  -0.0165558883  -0.0175284318   0.0073761129  -0.0030695935
        0.0179380113  -0.0107147828   0.0007241355   0.0142662269  -0.0087156023
        0.0049754664   0.0013130188   0.0083135261  -0.0142182350  -0.0045222750
       -0.0133456541   0.0177081752   0.0016534170  -0.0099315855   0.0138424448
        0.0009213457  -0.0002524095   0.0000359796   0.0008081689   0.0002714337
        0.0000963484  -0.0002594405   0.0009949016  -0.0002779026  -0.0000315643
       -0.0000453803  -0.0000063545  -0.0000172660   0.0000101036   0.0000025341
       -0.0000070052  -0.0000037792   0.0000084158   0.0000000444  -0.0000150689
       -0.0000048061  -0.0000159556   0.0000083009  -0.0000085116  -0.0000022503
       -0.0000141361   0.0000082032  -0.0000061263  -0.0000055658  -0.0000022517
       -0.0000063575  -0.0000209850  -0.0000014628  -0.0000063830  -0.0000207171
        0.0000026872  -0.0000155031  -0.0000038414  -0.0000037293  -0.0000070816
       -0.0000121836   0.0000026819  -0.0000161133  -0.0000289772   0.0000058996
       -0.0000126852  -0.0000011276  -0.0000253545  -0.0000070118  -0.0000062659
       -0.0000025360  -0.0000012826   0.0000042271   0.0000013515  -0.0000008388
       -0.0000086021  -0.0000037393   0.0000013710  -0.0000049858  -0.0000056772
        0.0000049783   0.0000097020  -0.0000046588   0.0000078520   0.0000011387
        0.0000068206   0.0000015999  -0.0000078596  -0.0000012027   0.0000047892
       -0.0000020610  -0.0000014669   0.0000009959   0.0000014418  -0.0000006913
       -0.0000009460   0.0000002442   0.0000001978  -0.0000013549  -0.0000008109
        0.0000010947   0.0000034945  -0.0000025526   0.0000003900   0.0000020577
       -0.0000011891   0.0000008293   0.0000020266   0.0000010067   0.0000019284
        0.0000026348  -0.0000002314  -0.0000002908   0.0000021164   0.0000019836
        0.0000002828   0.0000020309  -0.0000021474   0.0000026540  -0.0000011089
        0.0000089607   0.0000038169   0.0000004201   0.0000000690  -0.0000088643
        0.0000002071   0.0000041265   0.0000054791  -0.0000020051   0.0000084559
       -0.0000065109  -0.0000035319   0.0000026558  -0.0000028516  -0.0000105625
       -0.0000084974   0.0000011318  -0.0000095538   0.0000077588  -0.0000007241
       -0.0000204180   0.0000067915   0.0000101473
        0.0122537924  -0.0583464692  -0.1289277429   0.0059222313  -0.0009286178
        0.4565176981  -0.0170062559   0.0087091342  -0.0661075882   0.0090680714
        0.0547478445  -0.1467213562  -0.0075856659  -0.0047785354  -0.0557900239
       -0.0039231821  -0.0026317954  -0.0013649942  -0.0013840820   0.0006061979
        0.0050441557  -0.0001998292   0.0000409423   0.0002598505  -0.0011046378
        0.0009997914   0.0069060005   0.0014390617   0.0008155203   0.0016400161
        0.0000505240   0.0000797817   0.0003498416   0.0000015573  -0.0000165209
       -0.0000145309   0.0000068916   0.0000101485   0.0000066750  -0.0000038097
        0.0000007330  -0.0000006570  -0.0000040406   0.0000030265  -0.0000065337
       -0.0000027316   0.0000012517  -0.0000077488  -0.0000067424  -0.0000023696
       -0.0000069727  -0.0000046226   0.0000084229   0.0000036824   0.0000107320
       -0.0000094789  -0.0000666870   0.0000360159   0.0000068647  -0.0003458062
        0.0000449245   0.0000296176  -0.0009338342   0.0001330803  -0.0000882148
       -0.0000639911   0.0000327157   0.0000241471   0.0000061227  -0.0000121593
        0.0000178320   0.0000101322   0.0000144322   0.0000178822  -0.0000276678
        0.0000168955   0.0000006443  -0.0000006201   0.0000076708   0.0000109871
       -0.0000083405   0.0000089581   0.0000234132  -0.0000043511  -0.0000171883
       -0.0000179839  -0.0000002192   0.0000173481   0.0000242797  -0.0000017102
       -0.0000179230  -0.0000201109   0.0000021702   0.0000126781   0.0000252359
       -0.0000031852  -0.0000109381  -0.0000099648  -0.0000036356  -0.0000119409
        0.0000009793  -0.0000000375   0.0000004516  -0.0000068782  -0.0000021445