60
 energy: -90.373937576412 gnorm: 0.000038961225 xtb: 6.7.1 (edcfbbe)
C           -0.04655715183672       -2.20476271636697       -2.06212023078492
C           -0.54088799636696       -1.13368621674581       -1.13861830321861
C           -1.90004005838775       -1.00546652696714       -0.94154080659939
C           -2.44423258606716       -0.05692174536123       -0.07236474142729
N           -3.83626236525774        0.02209361633261        0.04892955145860
C           -4.66349176487620       -1.02210682767781        0.40418354673742
C           -4.33178354194452       -2.32311271980006        0.76152336057046
C           -5.36312952173857       -3.17515289060316        1.11395167123128
C           -6.68748057990080       -2.74501132577934        1.12270903891973
C           -7.02093707525715       -1.44135300089796        0.78851059285828
C           -6.00548770916559       -0.57115911911884        0.42789713762375
C           -5.97325186752438        0.81759882167962        0.04111411663541
C           -6.95034137046297        1.77970697578331       -0.15403241410118
C           -6.56200711819961        3.03927874307038       -0.58366665780428
C           -5.22513215965987        3.33219354109261       -0.84161410606525
C           -4.23247967924601        2.38755539409756       -0.65473809368057
C           -4.61229066504276        1.13581411383063       -0.18638853678644
C           -1.59225014763719        0.75893561886710        0.69442346031174
C           -2.11422138210515        1.70679791545794        1.73138816204335
C           -0.23367392536393        0.61590372752492        0.50594260076437
C            0.33111013123951       -0.28032260176823       -0.41780117956564
C            1.77220606904725       -0.30093564264270       -0.56447828375225
C            2.60134859079870       -0.20459777246775        0.57458749645258
C            3.96525720702235       -0.21850487456238        0.47706954413029
C            4.60374122488055       -0.26828293605397       -0.78405117467447
C            6.03039218957453       -0.28935731649487       -0.96413194792545
O            6.54269844998411       -0.70629551309798       -2.04658421372208
C            6.91381531222585        0.14297408595670        0.12928887709505
C            8.16305875556625       -0.47145342111683        0.27635281197442
C            9.03048326864168       -0.06553153072535        1.26912714857504
C            8.68262743658137        0.97260369863810        2.12129990435956
C            7.46316650388278        1.61404892774945        1.95752735255063
C            6.58532883845847        1.21103789941108        0.97091413063859
C            3.77293136409843       -0.39823085875954       -1.92616351724976
C            2.41171768619493       -0.40201064424179       -1.81775813600657
H           -0.73195740663686       -3.05015734315995       -2.05372879615635
H            0.00876410322664       -1.83765485994809       -3.08731838328447
H            0.94304795063612       -2.54772571222948       -1.77088127583613
H           -2.57731952588511       -1.64110513848469       -1.49449986551554
H           -3.30493473968464       -2.65463620186565        0.76996085189478
H           -5.13574779833928       -4.19345097310642        1.39157208562255
H           -7.46604384589315       -3.43870180569039        1.40258960549068
H           -8.04777697395421       -1.11034171881973        0.81218729852403
H           -7.99091466683041        1.55063480993326        0.01694806910591
H           -7.30891772476593        3.80358018191353       -0.73748354720090
H           -4.95914322061512        4.31491522174282       -1.20104305033736
H           -3.20118441154983        2.60807879795943       -0.88151236199731
H           -2.22939064053193        2.70958135329911        1.32121527593086
H           -1.41384846614983        1.76793007539084        2.56134169693047
H           -3.08117734356359        1.38594938740090        2.11191386852861
H            0.43334407778880        1.24250644363822        1.07966855060871
H            2.14523228280126       -0.19067245918458        1.55435574273951
H            4.56319497379648       -0.22460552411467        1.37629370191507
H            8.42555244451527       -1.27596900345347       -0.39591590023027
H            9.98481236586090       -0.56092185101089        1.37893241361233
H            9.36266590309372        1.28936644219806        2.89820117114604
H            7.19874510912365        2.44306326879801        2.59859483037695
H            5.65764028303387        1.74456418382940        0.82428884833075
H            4.25667046249517       -0.45400013453890       -2.89114971152475
H            1.81536398798773       -0.42014670239486       -2.71675874207517
