$hessian                                                                        
        0.5263622420   0.0094343443   0.0112599353  -0.0837271819   0.0338426454
        0.0349655874  -0.0170277751   0.0198835869   0.0222962809  -0.0039273028
       -0.0012338623  -0.0000929218  -0.0013426629   0.0011317387   0.0009223501
        0.0002262213   0.0003384077  -0.0001330357   0.0000312374  -0.0001175021
        0.0000101436   0.0000720861   0.0000456996  -0.0000346919  -0.0000302220
        0.0000128557  -0.0000002872   0.0000110262  -0.0000237653  -0.0000013738
       -0.0001007045   0.0000471844  -0.0000252807  -0.0002013733  -0.0000074864
       -0.0000205163   0.0000173184  -0.0000161969  -0.0000169596  -0.0000275452
       -0.0000138795   0.0000135526   0.0000508209  -0.0000407635  -0.0000005860
       -0.0000087540   0.0000970070  -0.0000285142   0.0000569217  -0.0003452839
        0.0002931525   0.0001954576   0.0002521182   0.0002888580   0.0001456318
        0.0001472379  -0.0000004957  -0.0021768104  -0.0017957439  -0.0016022582
        0.0065729789  -0.0088716917  -0.0102835605  -0.0005721279  -0.0006825664
       -0.0008522966   0.0005664970  -0.0001510307   0.0002270247  -0.0003115922
        0.0000008314   0.0002075171  -0.0003256653   0.0001293696  -0.0003326563
        0.0003665179   0.0000318579  -0.0000382857  -0.0001263970  -0.0000045395
        0.0000720288  -0.0000893982  -0.0000312575  -0.0000659029   0.0000448884
       -0.0000219217  -0.0000218169   0.0000053116  -0.0000023960   0.0000005253
        0.0000065522   0.0000023629   0.0000091035  -0.0000088433   0.0000124937
        0.0000047014  -0.0000271560   0.0000256198   0.0000359364   0.0006109555
       -0.0001068595   0.0000019190  -0.0006303352  -0.0012760188  -0.0000598018
       -0.1262505018  -0.1133104216   0.0001716592  -0.0409879801   0.0026443193
       -0.0077592586  -0.2581194182   0.0593200731  -0.0494519868   0.0011122809
        0.0012713493   0.0009737999  -0.0000741524   0.0000864304   0.0000035506
       -0.0000215654  -0.0000290466   0.0000125638  -0.0000325061  -0.0000183287
        0.0000087703  -0.0000351610  -0.0000017552   0.0000035942  -0.0000385090
        0.0000113438   0.0000009443  -0.0000229118   0.0000262297   0.0000008326
       -0.0000105443   0.0000302245  -0.0000067535  -0.0000293138  -0.0000306084
        0.0000200931  -0.0000275622   0.0000163480   0.0000188193  -0.0000161059
        0.0000445261   0.0000757874   0.0000325148  -0.0000089514  -0.0000405610
        0.0002057257  -0.0006424863  -0.0006878497  -0.0000037737   0.0000000413
       -0.0000586823  -0.0000024466   0.0000029802  -0.0000296624  -0.0000065048
        0.0000029204   0.0000023104  -0.0000130864  -0.0000001183  -0.0000080556
       -0.0000069913  -0.0000037960  -0.0000067047  -0.0000033323  -0.0000089453
       -0.0000098614   0.0000044852  -0.0000009332  -0.0000005907   0.0000299969
       -0.0000445126  -0.0000309175  -0.0003634538  -0.0000494781  -0.0001992156
        0.0094343443   0.4853580922  -0.0088767290   0.0347430001  -0.1295696566
       -0.0720839815   0.0070377844  -0.0049432262  -0.0063029929   0.0000557205
        0.0040031264  -0.0021292639   0.0001146490  -0.0000470788  -0.0001416011
       -0.0001294374  -0.0001344951   0.0001050454   0.0000099172   0.0000120269
       -0.0000211333  -0.0000046616  -0.0000033035   0.0000226884   0.0000127492
        0.0000019367   0.0000110391  -0.0000222029  -0.0000155784   0.0000128785
        0.0000672468   0.0000132112  -0.0000070095   0.0000176919  -0.0000150048
        0.0000114046   0.0000057100  -0.0000036236  -0.0000016264  -0.0000013807
        0.0000046074   0.0000036721  -0.0000084929   0.0000209205  -0.0000109788
       -0.0000645674  -0.0000451425   0.0000419244  -0.0000657361   0.0000917181
       -0.0000889540  -0.0003068412  -0.0003044155  -0.0002871862   0.0001238690
       -0.0007194041   0.0005661247  -0.0025429657   0.0021453285  -0.0043789714
        0.0036494287  -0.0137062012  -0.0153602127   0.0004692094  -0.0011963954
        0.0009090554   0.0006335094  -0.0000768756   0.0002232015  -0.0001218662
       -0.0000038605   0.0000807578  -0.0001896852   0.0000716995  -0.0000877082
        0.0002298362  -0.0000156886  -0.0001361877  -0.0001015746   0.0000613939
        0.0001239495  -0.0000419740  -0.0000135593  -0.0000144109   0.0000150295
       -0.0000155062  -0.0000200626   0.0000039487   0.0000015516  -0.0000019636
        0.0000047215   0.0000015990   0.0000060861  -0.0000100677   0.0000105718
       -0.0000004959   0.0000104674  -0.0000073982   0.0000185412   0.0002713944
       -0.0001892320  -0.0000058745  -0.0004386783  -0.0005229209   0.0001620547
       -0.1130620562  -0.2008049223   0.0024221000   0.0019497717  -0.0774447734
        0.0908475189   0.0593393155  -0.0604857548   0.0142061395  -0.0009161291
       -0.0004636597   0.0014215047   0.0000353942  -0.0000144356   0.0000104109
        0.0000096716   0.0000262755  -0.0000117240   0.0000059214   0.0000168692
       -0.0000028755   0.0000130773   0.0000113543  -0.0000048666   0.0000238331
       -0.0000027549  -0.0000064698   0.0000226712  -0.0000117402  -0.0000088092
        0.0000091435  -0.0000103827  -0.0000057149   0.0000414204   0.0000219895
       -0.0000351321   0.0001092002  -0.0001604838  -0.0001289223   0.0000529608
        0.0000244948   0.0000473429  -0.0000561091   0.0000508835   0.0000496343
        0.0003675311  -0.0005924647  -0.0006711617  -0.0000069671  -0.0000190614
       -0.0000624904  -0.0000233711   0.0000179545  -0.0000226902  -0.0000075135
        0.0000078238   0.0000057005  -0.0000091085   0.0000046935  -0.0000012663
       -0.0000068638   0.0000063419  -0.0000051398   0.0000013999   0.0000076548
       -0.0000049052  -0.0000000691   0.0000129758  -0.0000004676  -0.0000911482
       -0.0000023903  -0.0000016111  -0.0006620721  -0.0004457040  -0.0003771843
        0.0112599353  -0.0088767290   0.4721490071   0.0334017709  -0.0663089099
       -0.1271121741   0.0091655515  -0.0072258080  -0.0057038020  -0.0000340953
       -0.0026037942   0.0048817054   0.0007138540  -0.0000502508  -0.0002306187
       -0.0002022407  -0.0003004439   0.0000171366  -0.0000594880   0.0001315514
       -0.0000238083  -0.0000697656  -0.0000676016   0.0000260127   0.0000349554
       -0.0000280101   0.0000064980   0.0000018176   0.0000483086  -0.0000088855
        0.0000503518  -0.0000637264   0.0000156758   0.0001062787   0.0000515282
       -0.0000317176  -0.0000299524  -0.0000278578   0.0000205542   0.0000345834
        0.0000325038  -0.0000249344  -0.0000499781   0.0000432260  -0.0000097737
        0.0000073337  -0.0000838426   0.0000818408  -0.0001950548   0.0003130805
       -0.0000904065   0.0001097466  -0.0003391072  -0.0002255755   0.0001090444
        0.0007247733  -0.0006929377  -0.0019907158  -0.0040988744   0.0025927855
        0.0015613991  -0.0149462504  -0.0136065471   0.0011790776   0.0011462229
       -0.0012692784  -0.0002832292  -0.0000457751  -0.0000264263   0.0001566926
       -0.0001902939  -0.0001239064  -0.0003348781   0.0000175662  -0.0000999643
        0.0003478008  -0.0000282542  -0.0001865951  -0.0001442037   0.0000685192
        0.0002808495  -0.0000044165  -0.0000036444  -0.0000068311   0.0000144196
       -0.0000137992  -0.0000076747   0.0000076941  -0.0000010896   0.0000094653
        0.0000092949   0.0000039251   0.0000068377  -0.0000094632   0.0000116382
        0.0000008042   0.0000077553   0.0000037755   0.0000129372   0.0002317544
       -0.0001620726   0.0000543903  -0.0002560080   0.0001061008  -0.0004043520
        0.0009385869   0.0020429589  -0.0396556652  -0.0060046049   0.0862490106
       -0.2371105158  -0.0495326727   0.0133388831  -0.0523084097  -0.0008361300
        0.0017086929  -0.0009927562   0.0000537679  -0.0000598519   0.0000196268
        0.0000137440   0.0000175428  -0.0000043231   0.0000399253   0.0000153360
       -0.0000065305   0.0000380996  -0.0000042058  -0.0000033622   0.0000357703
       -0.0000058437  -0.0000039598   0.0000261709  -0.0000259051   0.0000001113
        0.0000098735  -0.0000271185   0.0000052467   0.0000218933   0.0000240141
       -0.0000436000  -0.0000867727   0.0000489589   0.0000702678   0.0000174008
       -0.0000309595  -0.0000797316   0.0000600754  -0.0000965568  -0.0001749751
        0.0002811372  -0.0003923261  -0.0005994955   0.0000094779  -0.0000464930
        0.0001727556  -0.0000510352   0.0000060666   0.0000361660  -0.0000058087
        0.0000048036   0.0000092959  -0.0000070307   0.0000054182   0.0000005078
       -0.0000035818   0.0000007532   0.0000001408   0.0000046617  -0.0000001537
        0.0000035345   0.0000053781   0.0000056798  -0.0000027141  -0.0000569682
       -0.0000436416   0.0000592522   0.0001810194   0.0000283528   0.0003388424
       -0.0837271819   0.0347430001   0.0334017709   0.6381792536   0.0177046193
       -0.0138349857  -0.3134800226  -0.0122610148   0.0052143464  -0.0205136345
        0.0613767652   0.0655112879   0.0021617605   0.0011138159  -0.0000875351
       -0.0005440833  -0.0004354153  -0.0001760157   0.0002144869   0.0002614554
       -0.0001811192  -0.0000684711  -0.0001222924   0.0000069821   0.0001524973
       -0.0001222092   0.0000372991  -0.0000054005   0.0001958894  -0.0000530202
        0.0000113596  -0.0002239885  -0.0000357494   0.0000193252   0.0002453619
       -0.0000921593  -0.0000406083  -0.0001739987   0.0000009501   0.0000857406
        0.0001029737  -0.0000461664  -0.0001488747   0.0000504257  -0.0000894677
        0.0000901055  -0.0001444356   0.0001484358  -0.0006756113   0.0006434425
        0.0006614843  -0.0552282725  -0.0185478329  -0.0163099915  -0.0000255597
        0.0003889052  -0.0001131232   0.0546627783  -0.0284873917  -0.0324378832
       -0.1588884295  -0.0515101752  -0.0420981091  -0.0307726664  -0.0155837404
       -0.0143027767  -0.0020861472  -0.0002715661   0.0023441281  -0.0011585422
        0.0014621476  -0.0003817697   0.0006402242  -0.0001330514   0.0001276742
        0.0000004913  -0.0003297708   0.0000310439   0.0000794888   0.0000283309
       -0.0001466547  -0.0000526961   0.0000228492  -0.0000201056   0.0000142097
       -0.0000091366  -0.0000165237  -0.0000031487  -0.0000095338  -0.0000048746
       -0.0000029472   0.0000126572   0.0000117510  -0.0000057204   0.0000036357
        0.0000096710  -0.0000125942  -0.0000114616   0.0000147047  -0.0008472682
        0.0011394080   0.0002212397   0.0009484865   0.0000095011  -0.0029982070
        0.0056777134  -0.0106944128  -0.0103378851   0.0006506295   0.0006077245
        0.0031588812  -0.0139843417   0.0195885941   0.0198753162  -0.0213379212
       -0.0015088039   0.0007053256  -0.0001189486  -0.0002337657   0.0002593795
        0.0000055176   0.0000159069  -0.0000138447   0.0000348985   0.0000235545
        0.0000056736   0.0000360181  -0.0000028398   0.0000119725   0.0000221224
        0.0000051799  -0.0000294019   0.0000242943  -0.0000085202   0.0000177854
       -0.0000070774  -0.0000053754   0.0000084837  -0.0000243591  -0.0000121259
        0.0000655614   0.0002051006   0.0001191024   0.0001507856   0.0002833807
       -0.0001947776  -0.0000301268   0.0000123390   0.0002088830  -0.0001577739
       -0.0001166217   0.0019633027   0.0019748823   0.0000521185  -0.0004463331
       -0.0001501216  -0.0003090909  -0.0000171552  -0.0000155797   0.0000025560
        0.0000000520   0.0000020953  -0.0000033414  -0.0000003824   0.0000010409
        0.0000008509   0.0000021875  -0.0000016420   0.0000017376   0.0000032106
        0.0000030754   0.0000041863   0.0000230675   0.0000112003  -0.0000509641
        0.0000340218  -0.0000098964  -0.0000331250  -0.0005984639   0.0001782814
        0.0338426454  -0.1295696566  -0.0663089099   0.0177046193   0.3818427662
        0.2375124545   0.0414771018  -0.0697442931  -0.0243562918   0.0201767020
        0.0064389015   0.0080642287   0.0024722865   0.0017250063  -0.0062359192
        0.0009819144  -0.0001539416  -0.0005732135  -0.0001275971  -0.0000936464
        0.0000636313   0.0000237111   0.0000507712   0.0000120348  -0.0000181656
       -0.0000101458  -0.0000015534   0.0000795415   0.0000004316   0.0000488872
        0.0002196258   0.0000818677   0.0000677393  -0.0000633853   0.0002609519
        0.0000736528   0.0000001689  -0.0000527974   0.0000855428   0.0000079603
        0.0000137932  -0.0000098218   0.0000148619  -0.0000174955   0.0000473518
       -0.0000887166   0.0000344683   0.0000129436  -0.0002709910  -0.0003987331
       -0.0002836480  -0.0180437699  -0.0054604346  -0.0003784255   0.0002688168
       -0.0002308460  -0.0002205090   0.0091977519  -0.0303431852  -0.0327640934
       -0.0993984433  -0.1378048313  -0.0839757564  -0.0054500258   0.0010714527
        0.0004698075   0.0023934246  -0.0000342638   0.0005855749  -0.0002813699
        0.0000053579   0.0002331967   0.0004004384   0.0000704406  -0.0003295671
       -0.0005051593   0.0000507898   0.0001556593   0.0001701909  -0.0000384871
       -0.0002324531   0.0000618976   0.0000256092   0.0000454132  -0.0000475197
        0.0000233661   0.0000254624  -0.0000005847   0.0000034869  -0.0000024471
       -0.0000014072  -0.0000087308  -0.0000066645   0.0000200557  -0.0000119721
        0.0000048959   0.0000427141  -0.0000352355  -0.0000444946   0.0002201357
       -0.0000824048  -0.0001201066   0.0005241125  -0.0010820140  -0.0003770949
        0.0054902318  -0.0210942482  -0.0205858102  -0.0023698541   0.0070260085
        0.0011657155   0.0068202915  -0.0059047175  -0.0069512869  -0.0169838791
        0.0005203918   0.0006491198  -0.0000518961   0.0001375492  -0.0000245535
       -0.0000173356  -0.0000344094   0.0000231580  -0.0000272264  -0.0000168931
        0.0000068615  -0.0000255550   0.0000165720   0.0000081723  -0.0000542824
        0.0000125809   0.0000131189  -0.0000285542   0.0000166710  -0.0000105253
       -0.0000077797   0.0000393056  -0.0000112758   0.0000530050  -0.0001007538
        0.0000047595  -0.0000655509   0.0003384072   0.0000717347   0.0000889322
        0.0001153954   0.0002322757  -0.0001338679   0.0001124296   0.0001740611
        0.0011792215   0.0019394872  -0.0059639887  -0.0000839516   0.0000482569
       -0.0001419806   0.0001314593  -0.0000428756   0.0000687642   0.0000041838
       -0.0000010014  -0.0000092853   0.0000071714   0.0000012218   0.0000028095
       -0.0000012959   0.0000041164   0.0000007051  -0.0000067545   0.0000068512
        0.0000035557  -0.0000298486   0.0000042035  -0.0000036594   0.0001232534
        0.0000612321  -0.0000510546  -0.0000136594   0.0002678722   0.0000411020
        0.0349655874  -0.0720839815  -0.1271121741  -0.0138349857   0.2375124545
        0.3851561040   0.0603578230  -0.0219818355  -0.0739848813   0.0225856592
        0.0062999987   0.0021554011   0.0007435553  -0.0068417908   0.0014643113
       -0.0001754688   0.0008022432   0.0001187044   0.0000102486  -0.0001856475
        0.0000229836   0.0001351224   0.0000788933  -0.0001080168  -0.0000529503
        0.0000122138  -0.0000049867  -0.0000087631   0.0000103306  -0.0000319794
       -0.0002956608  -0.0000467800   0.0000017413   0.0001268022  -0.0004051618
        0.0002192842   0.0001352216   0.0000789133   0.0000053784  -0.0000865104
       -0.0000071746   0.0000145213   0.0000818377  -0.0000629881   0.0000351382
       -0.0000284486   0.0002186985  -0.0000584971   0.0017581397  -0.0006455003
       -0.0004765021  -0.0156876229  -0.0004438819  -0.0030026741   0.0001893901
       -0.0001712391  -0.0003444345   0.0057199782  -0.0305494885  -0.0305878123
       -0.0865069039  -0.0849627155  -0.1319564215  -0.0102843442   0.0019767285
        0.0032516131   0.0026663264  -0.0001963791   0.0013062821  -0.0011586038
        0.0000662351   0.0006344771   0.0014584469   0.0000939987  -0.0003013669
       -0.0014577416   0.0001617397   0.0005342046   0.0004875622  -0.0001089302
       -0.0007120524   0.0001581370  -0.0000022096   0.0001625218  -0.0001060578
        0.0000588366   0.0000707260  -0.0000058882   0.0000261700   0.0000097031
       -0.0000100866  -0.0000165895  -0.0000207781   0.0000438188  -0.0000314890
        0.0000046707   0.0001014639  -0.0000616838  -0.0000907487  -0.0009307862
       -0.0003555094  -0.0004986869   0.0024540403  -0.0018757816  -0.0016965913
       -0.0019284037  -0.0050043954  -0.0036945974   0.0105255296  -0.0193067557
       -0.0258451239   0.0019332244   0.0031883999   0.0026548746  -0.0158479804
       -0.0004397447   0.0019523519   0.0000233494   0.0001198323   0.0000134265
       -0.0000181811  -0.0000404751   0.0000301714  -0.0000406013  -0.0000160249
        0.0000236147  -0.0000679366  -0.0000032808   0.0000128027  -0.0000120395
       -0.0000219469   0.0000148379  -0.0000244408   0.0000222007  -0.0000004661
        0.0000014664   0.0000327222  -0.0000077200   0.0000250020  -0.0000619908
        0.0000230947  -0.0000743360   0.0003482915   0.0000940260   0.0001258847
        0.0000551032   0.0002247989  -0.0001461604   0.0000969376   0.0001675199
        0.0015310887  -0.0059663498   0.0005997781  -0.0001337444   0.0000636329
       -0.0002289355   0.0001317933  -0.0000419286   0.0000480036   0.0000018462
       -0.0000085004  -0.0000189976   0.0000192849  -0.0000038924   0.0000064734
        0.0000044812  -0.0000002085   0.0000108935  -0.0000078897   0.0000057175
        0.0000178033  -0.0000405420  -0.0000132512  -0.0000090429   0.0001239339
        0.0001562452  -0.0000527008   0.0003470330   0.0004789648  -0.0002160493
       -0.0170277751   0.0070377844   0.0091655515  -0.3134800226   0.0414771018
        0.0603578230   0.6615912977   0.0156112125  -0.0162806102  -0.1112376266
        0.0240112097   0.0281454323  -0.0351770299   0.0236336266   0.0235829435
        0.0012594758   0.0039645723   0.0014074129  -0.0004389267   0.0000053370
        0.0000465707   0.0002877642   0.0001518517  -0.0002051241  -0.0001492929
        0.0000879152   0.0000134324   0.0000439776  -0.0001274641  -0.0002315076
       -0.0006917898   0.0003599051  -0.0004248165  -0.0016775041  -0.0000158593
       -0.0005354298  -0.0001011094  -0.0001781119  -0.0001555037  -0.0001560061
       -0.0000720134   0.0000672898   0.0004008029  -0.0002999176  -0.0000910645
       -0.0000968838   0.0001061861  -0.0000393846  -0.0010715456  -0.0028211418
        0.0035931579   0.0529591537   0.0092756652   0.0068269083  -0.0020655586
       -0.0026859740  -0.0022228275  -0.0377445323   0.0202112509   0.0237644033
       -0.0501122114  -0.0490202731  -0.0480833757   0.0010031784  -0.0022422183
       -0.0024206947  -0.0013742080   0.0000429114  -0.0004863489   0.0000894462
        0.0001480128  -0.0001412891  -0.0000666078  -0.0000133818  -0.0000107539
       -0.0000446219   0.0000000407   0.0000216592   0.0000096616  -0.0000180156
       -0.0000013702   0.0000134678   0.0000142548  -0.0000106066  -0.0000043595
        0.0000045112   0.0000072748   0.0000007715  -0.0000021151   0.0000019993
       -0.0000030390   0.0000035527   0.0000012376  -0.0000033751   0.0000043929
        0.0000051142   0.0000155294  -0.0000140349  -0.0000028875   0.0003668948
        0.0001021816   0.0001441129  -0.0003362135   0.0004129734   0.0005952067
        0.0002578054  -0.0014867969  -0.0010043785  -0.0006439490  -0.0000179161
       -0.0010993023  -0.0007965091   0.0014886571   0.0012102512  -0.1427549492
       -0.0887788705  -0.0864920570   0.0000310214  -0.0003484768   0.0003680796
        0.0000190123  -0.0000626077   0.0000391771  -0.0000256391  -0.0000323899
        0.0000632736  -0.0000840637  -0.0000211457  -0.0000091276  -0.0001488673
        0.0000728095   0.0000219038  -0.0000330986   0.0000622414   0.0000039587
        0.0000087823   0.0000751298  -0.0000514196   0.0001098116   0.0002793115
       -0.0000036015  -0.0003835234   0.0001235845  -0.0000931809   0.0000310517
       -0.0004768420  -0.0007930253  -0.0003578878  -0.0000189815   0.0003345152
       -0.0000898049   0.0001566539   0.0006773380  -0.0000082949  -0.0000705929
        0.0002175409  -0.0000235347  -0.0000089996   0.0000370639  -0.0000018036
       -0.0000004874  -0.0000015525  -0.0000017053   0.0000010495  -0.0000001468
       -0.0000020251   0.0000019451  -0.0000026374   0.0000012214   0.0000016265
        0.0000010688   0.0000061911   0.0000087839  -0.0000014161   0.0000408039
       -0.0000293330  -0.0000272691  -0.0001312274  -0.0000742819   0.0002010085
        0.0198835869  -0.0049432262  -0.0072258080  -0.0122610148  -0.0697442931
       -0.0219818355   0.0156112125   0.3797765484   0.2730458119   0.0720248155
       -0.1620957826  -0.1227747326   0.0138297962  -0.0006508629  -0.0046843882
       -0.0013851524  -0.0014966518  -0.0001366987  -0.0002385284  -0.0003836078
       -0.0000372421   0.0001030475   0.0000915463   0.0000720604  -0.0000403705
        0.0000119256  -0.0000298895   0.0000060017  -0.0000043014   0.0000404703
       -0.0000115064  -0.0001189956   0.0000800344  -0.0002598000   0.0002169800
        0.0000637694   0.0000719340  -0.0001741840  -0.0000164678   0.0000186517
        0.0000658153  -0.0000278044  -0.0000621952   0.0000056977  -0.0000536055
        0.0001356240   0.0004054153  -0.0000127905   0.0001317618   0.0005758586
        0.0004574261  -0.0275875228  -0.0295008037  -0.0300633497  -0.0024611236
        0.0026616023  -0.0042566854   0.0206712840  -0.0110040668  -0.0092560087
       -0.0110641055   0.0170357373   0.0185347542  -0.0031727223   0.0017422641
       -0.0049910726  -0.0009344906   0.0001033153   0.0003327410  -0.0004556834
        0.0001151523  -0.0001543792   0.0003005884   0.0000320543  -0.0001088680
       -0.0002853312   0.0000136855   0.0000969660   0.0000958991  -0.0000082235
       -0.0001306817   0.0000421895  -0.0000049381   0.0000400246  -0.0000143398
        0.0000103053   0.0000132736  -0.0000057387   0.0000099347   0.0000024981
       -0.0000085282  -0.0000033150  -0.0000074647   0.0000119771  -0.0000106111
        0.0000004716   0.0000156289  -0.0000101182  -0.0000102790  -0.0000804108
       -0.0001520956  -0.0002092939   0.0007543045  -0.0002006801  -0.0003986320
        0.0019880395   0.0008240603  -0.0002727751   0.0014008414  -0.0000268763
       -0.0003431223   0.0023136508  -0.0024681880  -0.0030462811  -0.0895969088
       -0.1206928905  -0.0822141508  -0.0002097115   0.0002287208  -0.0000020251
       -0.0000173153  -0.0000007347   0.0000222544  -0.0000605008  -0.0000191159
       -0.0000242398  -0.0000363530   0.0000238321   0.0000101310  -0.0000277270
       -0.0000059365  -0.0000057079  -0.0000251367   0.0000287997   0.0000216238
       -0.0000136192   0.0000193052   0.0000011095  -0.0000078465  -0.0002842549
       -0.0000201969  -0.0002220530   0.0007946259   0.0006237430   0.0004982379
       -0.0007422667  -0.0008586176   0.0001332818  -0.0001925516  -0.0002552403
        0.0004953273   0.0002029632   0.0002550267  -0.0000548269  -0.0000234835
        0.0000241775  -0.0000962683  -0.0000265648  -0.0000190219  -0.0000050105
       -0.0000006045  -0.0000059167   0.0000029046  -0.0000037091  -0.0000012739
        0.0000023916  -0.0000016702  -0.0000000905   0.0000023753   0.0000002998
       -0.0000004596   0.0000067965  -0.0000091079  -0.0000050746   0.0000419479
        0.0000283324  -0.0000061500   0.0001077440  -0.0000200650  -0.0000900460
        0.0222962809  -0.0063029929  -0.0057038020   0.0052143464  -0.0243562918
       -0.0739848813  -0.0162806102   0.2730458119   0.3921105543   0.0815778751
       -0.1197636971  -0.1721398189   0.0122011364  -0.0046989105  -0.0029244264
       -0.0004570943   0.0001839252  -0.0002553048   0.0000906536  -0.0002938661
       -0.0002254755  -0.0000770398  -0.0001230497  -0.0000567663   0.0000836427
       -0.0000396972   0.0000202251   0.0000808006   0.0000862009  -0.0000370526
       -0.0004461903  -0.0000444152   0.0001371871   0.0002420349  -0.0001097189
        0.0001268296  -0.0000002770   0.0001398913  -0.0000678796  -0.0001051213
       -0.0001003369   0.0000547935   0.0000489483  -0.0001098343   0.0000239352
       -0.0000484174   0.0002950246  -0.0001179769  -0.0008415228   0.0010079530
       -0.0001967998  -0.0335654060  -0.0324678681  -0.0327809732  -0.0017082909
       -0.0038388339   0.0019554259   0.0238376844  -0.0089208904  -0.0143722831
       -0.0092988334   0.0184028784   0.0212189408  -0.0018888078  -0.0053541739
        0.0020150197   0.0005575056   0.0001476929   0.0001299954   0.0000369077
        0.0004671308   0.0002074543   0.0000334182  -0.0000495951   0.0001122165
        0.0000669129  -0.0001460853  -0.0000616689   0.0000005695   0.0000318104
        0.0000142946  -0.0000184552   0.0000143293  -0.0000084728   0.0000099388
       -0.0000051345  -0.0000086046  -0.0000079902  -0.0000012365  -0.0000050281
       -0.0000043724   0.0000014637  -0.0000036200   0.0000008172  -0.0000037344
        0.0000024295  -0.0000127974   0.0000051140   0.0000099671  -0.0002654975
        0.0003885258   0.0001667668  -0.0005955223   0.0001832269  -0.0001875661
        0.0014736117   0.0002096378   0.0002489517   0.0009521378  -0.0007881156
       -0.0002283465   0.0014258066  -0.0028673704  -0.0020043769  -0.0860562404
       -0.0833129989  -0.1129862068   0.0004700741   0.0002968094  -0.0000321591
       -0.0000038500  -0.0000481371   0.0000002457  -0.0000082959  -0.0000329705
        0.0000192099  -0.0000418183  -0.0000091449   0.0000044029  -0.0000538158
       -0.0000156724  -0.0000100011  -0.0000487936   0.0000261514   0.0000150253
       -0.0000181261   0.0000267799   0.0000079307  -0.0000457551  -0.0003472256
        0.0000915502   0.0005629643  -0.0007764694  -0.0006806564   0.0002590425
       -0.0004836468  -0.0000165817  -0.0001002161   0.0004705162   0.0005220731
        0.0005413602   0.0003545010   0.0001007265   0.0000185682  -0.0001611588
       -0.0000476439   0.0000321986  -0.0000391197  -0.0000273971  -0.0000012018
        0.0000021550  -0.0000015612  -0.0000013728  -0.0000017485  -0.0000042379
        0.0000016263  -0.0000042840   0.0000001225   0.0000043604  -0.0000056003
        0.0000007810   0.0000157801  -0.0000014966   0.0000019749  -0.0000861733
        0.0000018335   0.0000230442  -0.0000490988  -0.0001638409  -0.0001645043
       -0.0039273028   0.0000557205  -0.0000340953  -0.0205136345   0.0201767020
        0.0225856592  -0.1112376266   0.0720248155   0.0815778751   0.6120888254
        0.0090753358  -0.0154589113  -0.2394275168   0.0093064600   0.0218476965
       -0.0261179960  -0.0116818414   0.0018538075   0.0013087137   0.0015389620
       -0.0007436889  -0.0007835789  -0.0003124485   0.0006674009   0.0002894984
       -0.0002811679  -0.0000126791  -0.0011911665   0.0007589946   0.0002809388
        0.0001462365  -0.0021713001   0.0011596668   0.0002484852   0.0023975785
       -0.0003631992  -0.0011847653  -0.0007613504   0.0002466387   0.0004757023
        0.0003613344  -0.0001789002  -0.0011237206   0.0005006547  -0.0002771038
        0.0018730975  -0.0016455938   0.0003480638  -0.0236378286   0.0130831514
        0.0025517274  -0.1471606915  -0.0903986706  -0.0957600109   0.0060531923
        0.0031568657   0.0020087431  -0.0506571108  -0.0096318087  -0.0076344248
        0.0049994962  -0.0063700357  -0.0077977590  -0.0029565942   0.0001507534
        0.0002186697   0.0011257913   0.0002496474   0.0002564883  -0.0005440694
        0.0001349684   0.0002801026   0.0011414637   0.0000285108  -0.0000364523
       -0.0013940421   0.0001010100   0.0004811560   0.0005025891  -0.0000900203
       -0.0006166496   0.0001731758   0.0000174831   0.0001342783  -0.0000805503
        0.0000526006   0.0000798772  -0.0000094573   0.0000425066   0.0000287135
       -0.0000125862  -0.0000201857  -0.0000270864   0.0000738014  -0.0000380585
        0.0000207571   0.0001012994  -0.0000436544  -0.0000823424  -0.0005748945
       -0.0001527501  -0.0001891737   0.0011892035  -0.0001604671  -0.0004649011
       -0.0000371529  -0.0003817961  -0.0001950563  -0.0000467828   0.0000623758
       -0.0001958972  -0.0002711935   0.0005486784   0.0008172651   0.0053677188
       -0.0126979920  -0.0120784376   0.0003626562   0.0002358276  -0.0003932666
        0.0001248750   0.0004733477  -0.0002015374   0.0002785118   0.0002377387
       -0.0002355148   0.0003591953  -0.0001037083   0.0000565462   0.0003452317
        0.0000567258  -0.0001512523   0.0002853833  -0.0002733845   0.0001356757
        0.0001203166  -0.0004582505   0.0002326834   0.0002848319  -0.0003368536
        0.0001305245  -0.0004457583   0.0018034798   0.0008181181  -0.0008984783
        0.0014432779   0.0018608022  -0.0003897437   0.0001258280   0.0012553968
       -0.0045917805  -0.0001299870   0.0011467243  -0.0001104116  -0.0000404804
        0.0001184719   0.0000973055  -0.0000896224   0.0000780323  -0.0000186706
       -0.0000063154  -0.0000289085   0.0000162517  -0.0000084118  -0.0000004173
        0.0000039218   0.0000028763   0.0000093353  -0.0000181508   0.0000087765
        0.0000099547  -0.0000358019  -0.0000303262  -0.0000271300   0.0000915758
        0.0000641128  -0.0000818358  -0.0001292892   0.0000393806  -0.0000311589
       -0.0012338623   0.0040031264  -0.0026037942   0.0613767652   0.0064389015
        0.0062999987   0.0240112097  -0.1620957826  -0.1197636971   0.0090753358
        0.3957770861   0.2472521086   0.0093050665  -0.0712692106   0.0040897202
       -0.0192070457   0.0041209249  -0.0008880507  -0.0008357136  -0.0001486263
       -0.0001058728   0.0000271384   0.0000669807  -0.0000074268   0.0001103890
       -0.0000738774  -0.0000466721  -0.0008393322   0.0006981510   0.0001230356
       -0.0036105214  -0.0028698298   0.0026333936   0.0039475528  -0.0034142143
        0.0019644106   0.0009904666   0.0007240653  -0.0000759722  -0.0001536129
       -0.0000704347  -0.0000107570  -0.0000545879   0.0000239652   0.0000524228