$hessian                                                                        
        0.6653099005  -0.0388755077  -0.0542497610  -0.2098294711  -0.1238964902
        0.0961724408  -0.0603110758   0.0029852334   0.0073779727   0.0035952210
       -0.0161484986   0.0082036561  -0.0041949669   0.0024468711  -0.0000899262
        0.0021700750  -0.0019894662   0.0006966446  -0.0016812721  -0.0005972966
       -0.0002979264   0.0011440668   0.0007194311   0.0000807688  -0.0008798021
       -0.0002690000  -0.0000374534   0.0002941884  -0.0001219337   0.0000528077
       -0.0001450868  -0.0000164201   0.0000085953  -0.0001547768  -0.0000254519
        0.0000066697   0.0004450989   0.0000528723   0.0000079936  -0.0004993805
        0.0002186626   0.0000165359   0.0004676157   0.0004690352  -0.0000098589
       -0.0010763732  -0.0002102959   0.0000498299   0.0011099544   0.0003823675
       -0.0000168160  -0.0005294314  -0.0005410207   0.0000291114   0.0005360243
       -0.0003385110  -0.0000784567  -0.0000234089  -0.0001012468  -0.0000183253
        0.0000503118   0.0001051410   0.0000125799  -0.0000521411  -0.0000922288
       -0.0000116768   0.0000147644  -0.0000709617  -0.0000127565  -0.0000435861
        0.0000416636   0.0000077120  -0.0000122761   0.0000261839   0.0000076680
       -0.0001762414  -0.0001369178  -0.0000069201   0.0000548341  -0.0000949590
       -0.0000211868  -0.0001408342  -0.0000093419   0.0000061276   0.0001393483
        0.0001016041   0.0000100433  -0.0000858070   0.0001587544   0.0000347611
        0.0003879427  -0.0000457678  -0.0000405844  -0.0003126305   0.0004286929
        0.0000500538  -0.0003478145   0.0003689356   0.0000440672  -0.0000190899
       -0.0000586403  -0.0000001519  -0.0000155996   0.0000031554   0.0000109408
       -0.0000120761  -0.0000140180  -0.0000271471   0.0000046340   0.0000326995
        0.0000076232   0.0000109215  -0.0000301729   0.0000149071   0.0000176822
        0.0000091327  -0.0000106787   0.0005397952  -0.0003238386  -0.0000452847
       -0.0004105025  -0.0003418772   0.0000056792  -0.0001551879  -0.0000539772
       -0.0000183431   0.0002422937   0.0002616793  -0.0000213978   0.0007941292
        0.0005639909  -0.0003275695  -0.0001929361  -0.0000272318   0.0000778844
        0.0000356363  -0.0000142063   0.0000163557   0.0000413083   0.0000502518
       -0.0000490381   0.0000053024  -0.0000675954   0.0000195301  -0.0000260305
        0.0000573271   0.0000379844   0.0000251504  -0.0000611130  -0.0000447791
       -0.0000253548   0.0000621811   0.0000694326  -0.0000161884  -0.0000644625
        0.0000333548   0.0000195273   0.0000311648  -0.0000294848   0.0000906421
        0.0000804497  -0.0000763507  -0.0058626572   0.0291272316  -0.0163767533
       -0.1087644830   0.0856310692  -0.0416644303  -0.2798041190   0.0708520031
       -0.0076098629   0.0045909078   0.0029810095  -0.0028111983  -0.0052884331
        0.0021136578   0.0005573697   0.0000130051  -0.0000349772  -0.0000154733
        0.0000021536  -0.0000042538  -0.0000191914   0.0000026182   0.0000021242
       -0.0000116309  -0.0000009452   0.0000062779  -0.0000153326  -0.0000103887
        0.0000040130   0.0000010116  -0.0000058981   0.0000125946   0.0000033252
        0.0000097796   0.0000116237   0.0000017554   0.0000124459   0.0000003269
        0.0000000839   0.0000068425   0.0000074232   0.0000007520   0.0000165520
       -0.0000033282  -0.0000029381   0.0000032041  -0.0000120192  -0.0000022256
       -0.0000027216  -0.0000073351  -0.0000038570  -0.0000013866   0.0000021959
       -0.0000021666   0.0000043434   0.0000003832   0.0000024780   0.0000004064
       -0.0000055893  -0.0000020114  -0.0000012667   0.0000029521  -0.0000029512
        0.0000010917   0.0000017736   0.0000026606   0.0000063435  -0.0000142074
        0.0000045259   0.0000037292  -0.0000025951   0.0000063202  -0.0000002349
        0.0000049050   0.0000118437   0.0000033034   0.0000173839   0.0000183480
       -0.0000828044   0.0000045764  -0.0000302910  -0.0000107037  -0.0000309522
       -0.0000148170  -0.0000010699   0.0000117852  -0.0000114358  -0.0000062726
        0.0000047469   0.0000015178   0.0000000381  -0.0000041863  -0.0000077625
       -0.0000036346  -0.0000078987  -0.0000055417   0.0000081235  -0.0000356828
       -0.0000371206  -0.0051416562   0.0024229585   0.0003411344   0.0041267605
       -0.0180790221   0.0100660074
       -0.0388755077   0.5150247923  -0.2273353412  -0.0556862985  -0.1571180772
        0.0734967565  -0.0488238501   0.0389187791  -0.0160331165  -0.0160682964
       -0.0420489679   0.0228903208   0.0016019547  -0.0010627187  -0.0001179968
       -0.0005864600   0.0004282395  -0.0004808434   0.0006257598   0.0002900099
        0.0001741864  -0.0002596836  -0.0003054048   0.0000411830   0.0002281674
        0.0001191493  -0.0000165039  -0.0000750482   0.0000156643   0.0000047088
        0.0000087351  -0.0000076863  -0.0000021313   0.0001021345   0.0000154571
       -0.0000059196  -0.0001857030  -0.0000269385   0.0000023695   0.0001704069
       -0.0000827342  -0.0000039082  -0.0001644055  -0.0001653218   0.0000063362
        0.0003765787   0.0000704222  -0.0000220424  -0.0003973205  -0.0001197500
        0.0000035682   0.0001490150   0.0002002376  -0.0000049876  -0.0001320115
        0.0000418802   0.0000143875   0.0000049354   0.0000413737   0.0000075232
       -0.0000069729  -0.0000369207  -0.0000047087   0.0000086765   0.0000254339
        0.0000028771   0.0000039746   0.0000088743   0.0000011914   0.0000160415
        0.0000126744   0.0000013735   0.0000041042  -0.0000350688  -0.0000080497
        0.0000603315   0.0000755873   0.0000065058  -0.0000094776   0.0000169845
        0.0000031252   0.0000584505   0.0000229725   0.0000007238  -0.0000650527
       -0.0000365855  -0.0000024440   0.0000441440  -0.0000615083  -0.0000142577
       -0.0001435799   0.0000142973   0.0000164124   0.0001505844  -0.0000463330
       -0.0000059935   0.0000682034  -0.0001803540  -0.0000152256   0.0000064034
        0.0000456995   0.0000018984   0.0000074065  -0.0000101141  -0.0000029764
        0.0000054233   0.0000084848   0.0000094866  -0.0000015140  -0.0000120548
       -0.0000032621  -0.0000038877   0.0000143278  -0.0000039488  -0.0000089102
       -0.0000127471   0.0000004477  -0.0001981828   0.0001137331   0.0000124711
        0.0001442780   0.0001175385  -0.0000008915   0.0000152049   0.0000412695
        0.0000095964  -0.0000627628  -0.0000920875  -0.0000304993  -0.0005151133
       -0.0002783197   0.0000351106  -0.0001089897  -0.0000130670   0.0000636098
        0.0000453882   0.0001567349   0.0000133071  -0.0000381900  -0.0001245060
        0.0000795384   0.0000473068   0.0000198225  -0.0000761917  -0.0000258270
       -0.0000054424   0.0000366735  -0.0000103641   0.0000093965   0.0000008056
       -0.0000004743  -0.0000440310  -0.0000109165   0.0000157933   0.0000468715
       -0.0000501114  -0.0000702648   0.0000193231   0.0000869578   0.0001459082
        0.0000465548  -0.0001006618   0.0807047771  -0.0104965947  -0.0030383397
        0.0170177427  -0.2521091699   0.1144433380   0.0707814737  -0.0623847898
        0.0068423096  -0.0173213571  -0.0172468038   0.0127124203   0.0026423007
        0.0025755893   0.0029539734  -0.0000147859   0.0000177981   0.0000031798
       -0.0000016207   0.0000076165   0.0000008692  -0.0000014401   0.0000003322
        0.0000028776  -0.0000006761   0.0000004883   0.0000034290   0.0000027416
       -0.0000027315  -0.0000007304   0.0000015529  -0.0000008448  -0.0000008381
       -0.0000014516  -0.0000014197  -0.0000005759  -0.0000034461   0.0000001590
       -0.0000002965  -0.0000015830  -0.0000015891  -0.0000004556  -0.0000046620
        0.0000009366   0.0000004027  -0.0000003265   0.0000023959  -0.0000000737
        0.0000011173   0.0000040558   0.0000009499   0.0000006594   0.0000007340
       -0.0000012185  -0.0000012608  -0.0000010405  -0.0000001024  -0.0000001766
        0.0000006883   0.0000004811   0.0000002066  -0.0000018759  -0.0000001032
       -0.0000004966   0.0000004064   0.0000014881  -0.0000010922  -0.0000007342
        0.0000003846   0.0000013310   0.0000010281  -0.0000007770   0.0000036365
       -0.0000031524   0.0000031439   0.0000100190   0.0000167571   0.0000097804
       -0.0000173526  -0.0000457928   0.0000618087  -0.0000045637  -0.0000023600
        0.0000053388   0.0000032449  -0.0000030314   0.0000039333  -0.0000037235
       -0.0000003741   0.0000033011   0.0000008165  -0.0000021926   0.0000025612
        0.0000008477  -0.0000035571   0.0000058166   0.0000190120  -0.0000357081
       -0.0000099689   0.0020817179   0.0024946708   0.0033213142   0.0025156562
       -0.0168357408   0.0099998558
       -0.0542497610  -0.2273353412   0.2558394176   0.0548952755   0.0820829764
       -0.1048068242   0.0375547523  -0.0230221913   0.0096727168   0.0078033213
        0.0233370559  -0.0210319869  -0.0002173755   0.0001299912  -0.0002189824
       -0.0000681821   0.0001057150   0.0001793260  -0.0000631803  -0.0000755497
       -0.0000251923  -0.0000623862   0.0000377378  -0.0000260779   0.0000240399
       -0.0000223451   0.0000194862  -0.0000137161   0.0000144171  -0.0000086024
        0.0000244203   0.0000125626   0.0000006926  -0.0000456688  -0.0000068815
        0.0000009756   0.0000446511   0.0000072523  -0.0000027860  -0.0000212930
        0.0000154136   0.0000012698   0.0000205351   0.0000206701  -0.0000019841
       -0.0000460239  -0.0000077476   0.0000048432   0.0000538197   0.0000087194
        0.0000005625   0.0000021418  -0.0000289376  -0.0000015350  -0.0000121091
        0.0000328491   0.0000047956  -0.0000007371  -0.0000084519  -0.0000013612
       -0.0000036946   0.0000034663   0.0000008204   0.0000028372   0.0000001999
        0.0000006264  -0.0000052803   0.0000071584   0.0000019486  -0.0000016196
       -0.0000145538  -0.0000017075  -0.0000009714   0.0000165872   0.0000036762
       -0.0000051885  -0.0000217816  -0.0000025825  -0.0000038446   0.0000053706
        0.0000020420  -0.0000118076  -0.0000114058  -0.0000008536   0.0000163379
        0.0000051170   0.0000001323  -0.0000115950   0.0000087192   0.0000026522
        0.0000190283  -0.0000002465  -0.0000026676  -0.0000379744  -0.0000439050
       -0.0000048677   0.0000172276   0.0000470979   0.0000023168  -0.0000010668
       -0.0000180349  -0.0000013186  -0.0000018168   0.0000052405   0.0000004671
       -0.0000012786  -0.0000030741  -0.0000014524   0.0000003352   0.0000019817
        0.0000007540   0.0000006956  -0.0000041233  -0.0000003337   0.0000023610
        0.0000060312   0.0000008329   0.0000307484  -0.0000136034  -0.0000001927
       -0.0000211951  -0.0000155250  -0.0000010246   0.0000230257  -0.0000196258
       -0.0000034501  -0.0000088481   0.0000006829   0.0000204010   0.0001600751
        0.0000872597   0.0000337024   0.0001939957   0.0000344164  -0.0000050924
        0.0001017913  -0.0000067236   0.0000086575   0.0000259612  -0.0000068637
       -0.0000257177  -0.0000141612   0.0000022482   0.0000129100   0.0000054860
        0.0000088375  -0.0000105131   0.0000011238   0.0000056952   0.0000115472
        0.0000058469   0.0000174924  -0.0000064570  -0.0000036016  -0.0000209623
        0.0000162263   0.0000348243  -0.0000165284  -0.0000450521  -0.0001086457
       -0.0000597455   0.0001127354  -0.0462948792   0.0029470690   0.0054421297
       -0.0011485855   0.1056952656  -0.1081563271  -0.0075741640   0.0068603218
       -0.0369574785   0.0099463974   0.0104819000  -0.0064035963   0.0003237539
        0.0032415355   0.0062178514   0.0000066782  -0.0000044956   0.0000001415
        0.0000002971  -0.0000033822   0.0000018496   0.0000003018  -0.0000006063
       -0.0000001304   0.0000007184  -0.0000011237   0.0000000157  -0.0000003194
        0.0000011277   0.0000001927   0.0000002197  -0.0000014767  -0.0000001398
       -0.0000006782  -0.0000010828  -0.0000000163  -0.0000001989  -0.0000001123
        0.0000000982  -0.0000000473  -0.0000001672   0.0000000791   0.0000002320
       -0.0000002453   0.0000001322  -0.0000005188   0.0000005957   0.0000003455
        0.0000000154  -0.0000010565   0.0000000110  -0.0000000583  -0.0000007282
        0.0000012538   0.0000000942   0.0000005666  -0.0000002638   0.0000000063
        0.0000006504   0.0000000561   0.0000000804   0.0000007875   0.0000007041
        0.0000001135  -0.0000006697  -0.0000012356  -0.0000001308   0.0000026054
       -0.0000009891  -0.0000011297  -0.0000000583  -0.0000006521  -0.0000017334
        0.0000015099  -0.0000033562  -0.0000096113  -0.0000110182  -0.0000089082
        0.0000335754   0.0000204323  -0.0000166169   0.0000083796   0.0000169037
        0.0000080880  -0.0000013219   0.0000013939  -0.0000023281   0.0000038412
        0.0000000443  -0.0000037841  -0.0000011216   0.0000008675  -0.0000001463
       -0.0000015521   0.0000037462  -0.0000020631  -0.0000112787   0.0000228907
        0.0000091283   0.0005509369   0.0028882354   0.0063305540  -0.0018499473
        0.0125529599  -0.0061725180
       -0.2098294711  -0.0556862985   0.0548952755   0.6465540130  -0.0372976136
       -0.0506150852  -0.3157655694   0.0338662739   0.0161449474  -0.0113647084
        0.0768548735  -0.0436105198   0.0078127377  -0.0026266098   0.0006289418
       -0.0036094021   0.0038239442  -0.0008904946   0.0024966718   0.0011653168
        0.0004168206  -0.0020443942  -0.0011605126  -0.0002339685   0.0016891785
        0.0004142899   0.0001118697  -0.0005882098   0.0004000607  -0.0000921757
        0.0002873889   0.0001082834  -0.0000161693   0.0001170339   0.0000101928
       -0.0000119986  -0.0006982096  -0.0000782116  -0.0000064234   0.0007715108
       -0.0003508963  -0.0000238355  -0.0007474049  -0.0007884167   0.0000204515
        0.0018327372   0.0003147730  -0.0000945633  -0.0018765242  -0.0006024269
        0.0000315813   0.0008850605   0.0009853335  -0.0000331396  -0.0008314859
        0.0004671897   0.0001287572   0.0000110808   0.0001332101   0.0000234927
       -0.0000501271  -0.0001494694  -0.0000177790   0.0001193677   0.0001040609
        0.0000123200  -0.0000855201   0.0000797286   0.0000162120   0.0000155622
       -0.0000693087  -0.0000106774   0.0000410217  -0.0000208353  -0.0000098883
        0.0003140903   0.0002184883   0.0000068514  -0.0001392306   0.0001268102
        0.0000327163   0.0001564076   0.0000108306  -0.0000063350  -0.0002205425
       -0.0001040154  -0.0000061151   0.0001848764  -0.0002593856  -0.0000571479
       -0.0006373460   0.0000954200   0.0000693190   0.0006117779  -0.0005502041
       -0.0000752451   0.0004923301  -0.0007242154  -0.0000851366   0.0000169712
        0.0001231444   0.0000102867   0.0000315247  -0.0000493051  -0.0000005013
        0.0000143179   0.0000277409   0.0000167337  -0.0000032205  -0.0000186883
       -0.0000076733  -0.0000108180   0.0000310214  -0.0000031670  -0.0000392976
       -0.0000402758  -0.0000154955  -0.0009110020   0.0005662963   0.0000693457
        0.0006143791   0.0005041298  -0.0000046003   0.0002797372   0.0000007194
        0.0000038353  -0.0004827804  -0.0005640761   0.0000527089  -0.0005013963
       -0.0016564655   0.0006733755   0.0000434858   0.0001609960  -0.0001118844
       -0.0000100419  -0.0002305857   0.0000172757   0.0000576887   0.0000440346
       -0.0000782191  -0.0000481281   0.0000214960   0.0000823875   0.0000136064
        0.0000731104  -0.0000400631  -0.0000070414   0.0000207047   0.0000244363
        0.0000244127   0.0000253010  -0.0000532392  -0.0000043860  -0.0000450936
        0.0000172288   0.0000685598  -0.0000472450  -0.0001256063  -0.0002815495
       -0.0001590154   0.0000906537  -0.0570493859  -0.0089109531   0.0124440579
        0.0500586898  -0.0549203864   0.0262307539  -0.0241857350  -0.0154191055
        0.0124565080  -0.0599466218   0.0555316696  -0.0287346600  -0.0240871086
        0.0043849660   0.0008698830  -0.0000042380  -0.0000015087   0.0000139853
        0.0000066086  -0.0000129963   0.0000381159   0.0000033735   0.0000029962
        0.0000177419  -0.0000013934   0.0000024083   0.0000217592  -0.0000004275
       -0.0000070471  -0.0000007993   0.0000015661   0.0000005901  -0.0000017346
        0.0000009615   0.0000029589   0.0000001642  -0.0000019402  -0.0000032398
       -0.0000012404   0.0000005486   0.0000003141  -0.0000003974   0.0000012482
       -0.0000000546   0.0000006951  -0.0000013244   0.0000026165  -0.0000011130
       -0.0000048116   0.0000022824   0.0000017815  -0.0000000450   0.0000007786
       -0.0000007330  -0.0000044477  -0.0000046830   0.0000036489  -0.0000015302
       -0.0000026908   0.0000001569  -0.0000002148  -0.0000040697  -0.0000035264
       -0.0000030201  -0.0000000405   0.0000037227  -0.0000067973   0.0000015886
       -0.0000062529   0.0000036008  -0.0000001246  -0.0000085471   0.0000038589
        0.0000170551  -0.0000325203  -0.0000164668   0.0000258844  -0.0000029313
        0.0000258942   0.0000668380  -0.0000930336  -0.0000020636  -0.0000121353
       -0.0000046780   0.0000097097   0.0000238154  -0.0000165422  -0.0000045934
        0.0000029758   0.0000082629  -0.0000053012  -0.0000002653   0.0000032725
       -0.0000050258  -0.0000010016   0.0000145365  -0.0000225677  -0.0000139778
       -0.0000049684  -0.0004606397  -0.0003995802  -0.0001007202   0.0009299173
        0.0021455178  -0.0003753253
       -0.1238964902  -0.1571180772   0.0820829764  -0.0372976136   0.5268699549
       -0.2420308463   0.1017014643  -0.1007295195   0.0190946801   0.0281649448
       -0.0092613486   0.0026621282   0.0018145261  -0.0025822177   0.0055683591
        0.0004183244   0.0002667968   0.0001808379   0.0001519977   0.0001651146
       -0.0004325418  -0.0000660834  -0.0002343996  -0.0003635363   0.0002116328
        0.0000536776  -0.0000162209  -0.0000923121   0.0000070924  -0.0000269359
        0.0000798305   0.0000344194  -0.0000106191  -0.0001026634   0.0000071439
       -0.0000161896   0.0000426803   0.0000141497   0.0000064967   0.0000381962
       -0.0000310945   0.0000041030  -0.0000358644  -0.0000534380  -0.0000059797
        0.0000956901   0.0000232135   0.0000012627  -0.0000839439  -0.0000616400
        0.0000079134   0.0001024781   0.0000464265  -0.0000097391  -0.0001225933
        0.0001590270   0.0000267896   0.0000033750  -0.0000014088  -0.0000005973
       -0.0000332695  -0.0000138821  -0.0000012660   0.0000053559   0.0000412591
        0.0000062364   0.0000010742   0.0000529860   0.0000088608   0.0000261042
       -0.0000546006  -0.0000096208  -0.0000036906   0.0000339737   0.0000066043
        0.0000226471  -0.0000186386  -0.0000040908  -0.0000068471   0.0000535828
        0.0000107345   0.0000320590  -0.0000282926  -0.0000074804   0.0000090313
       -0.0000363521  -0.0000082329  -0.0000236026  -0.0000222474  -0.0000030329
       -0.0000256522   0.0000081285   0.0000020123  -0.0000366959  -0.0001946002
       -0.0000230848   0.0001092520   0.0000526260  -0.0000016578  -0.0000019870
       -0.0000586611  -0.0000088443  -0.0000018958   0.0000275532  -0.0000031156
        0.0000025988  -0.0000102393   0.0000123665  -0.0000013528  -0.0000145733
       -0.0000014415  -0.0000041170  -0.0000032768  -0.0000138955   0.0000045907
        0.0000235585   0.0000118692  -0.0000228573   0.0000463926   0.0000058233
        0.0000166335   0.0000361877   0.0000040661   0.0001086865  -0.0000002561
        0.0000013780  -0.0000897854  -0.0000776701   0.0000859143   0.0000327745
       -0.0005155622   0.0001134803  -0.0000173840  -0.0000920937  -0.0000266545
       -0.0002976450   0.0000256996  -0.0000468530  -0.0000761088   0.0000924495
        0.0000761966   0.0000296477   0.0000781612   0.0000097757   0.0000031350
        0.0000541765  -0.0000508939   0.0000048078   0.0000542200   0.0000250576
        0.0000199339  -0.0000322353  -0.0000344404   0.0000145607   0.0000303625
       -0.0000222323  -0.0000066849  -0.0000355135  -0.0000416963  -0.0000097368
        0.0000209123  -0.0001257989  -0.0110960126  -0.0000016601  -0.0016363218
       -0.0054281129  -0.0401699720   0.0249124108   0.0052443994   0.0044911400
       -0.0027558781   0.0549406733  -0.2235796546   0.1068282058  -0.0159885983
        0.0042865049   0.0005913412   0.0000016305   0.0000184753   0.0000198959
       -0.0000074934   0.0000025390   0.0000106368   0.0000003436   0.0000044389
        0.0000036011  -0.0000015153   0.0000005502   0.0000019912   0.0000074348
        0.0000014574  -0.0000002962   0.0000058072  -0.0000168160  -0.0000034208
       -0.0000120059  -0.0000142160  -0.0000024464  -0.0000116010   0.0000012271
        0.0000000676  -0.0000083344  -0.0000076221  -0.0000009260  -0.0000163704
        0.0000029824   0.0000021906  -0.0000046415   0.0000149788   0.0000036671
        0.0000040162   0.0000035740   0.0000024729   0.0000003581  -0.0000031082
        0.0000036503  -0.0000019073   0.0000057529  -0.0000055663   0.0000005548
        0.0000103391   0.0000019237   0.0000024093   0.0000032815   0.0000075581
        0.0000006041  -0.0000026488  -0.0000047418  -0.0000026339   0.0000045825
       -0.0000044978   0.0000046249  -0.0000026515  -0.0000015486  -0.0000029922
        0.0000024977  -0.0000222829   0.0000285173  -0.0000128758  -0.0000051601
        0.0000454538  -0.0000562955   0.0000388038   0.0000133232  -0.0000096592
       -0.0000246839  -0.0000050118  -0.0000555287   0.0000073812  -0.0000165506
       -0.0000341258   0.0000068806  -0.0000150219  -0.0000093712   0.0000156966
       -0.0000099392  -0.0000034450   0.0000146838   0.0000056308  -0.0000380518
       -0.0000012350  -0.0002436605   0.0005311504  -0.0003729988   0.0016554659
       -0.0024651768   0.0057005611
        0.0961724408   0.0734967565  -0.1048068242  -0.0506150852  -0.2420308463
        0.2682449013  -0.0234897253   0.0284493618  -0.0603123931  -0.0158031218
       -0.0046969939   0.0054701168  -0.0005711523   0.0064169991   0.0037579635
       -0.0009772974  -0.0004817045   0.0004007368  -0.0004256294   0.0001975452
       -0.0004671565   0.0005956200   0.0001856385  -0.0002279879  -0.0003597795
       -0.0001176557  -0.0000515528   0.0001616607  -0.0000653991   0.0000590628
       -0.0000906322  -0.0000460992  -0.0000005918   0.0000462900  -0.0000023365
       -0.0000161328   0.0000875989   0.0000019226   0.0000070909  -0.0001499180
        0.0000760579   0.0000041622   0.0001433768   0.0001590315  -0.0000014807
       -0.0003576567  -0.0000633031   0.0000155634   0.0003654343   0.0001375556
       -0.0000095156  -0.0001984339  -0.0001939684   0.0000099062   0.0002008985
       -0.0001677587  -0.0000346636  -0.0000056894  -0.0000215675  -0.0000037030
        0.0000287876   0.0000305801   0.0000034200  -0.0000221658  -0.0000418033
       -0.0000056143   0.0000113051  -0.0000431536  -0.0000074677  -0.0000186804
        0.0000408427   0.0000072711  -0.0000061271  -0.0000129444  -0.0000015366
       -0.0000655740  -0.0000291855   0.0000007039   0.0000250616  -0.0000519467
       -0.0000110182  -0.0000481185   0.0000138575   0.0000059216   0.0000340075
        0.0000400690   0.0000063693  -0.0000182767   0.0000586653   0.0000122764
        0.0001250862  -0.0000209258  -0.0000135158  -0.0000934646   0.0001985042
        0.0000256544  -0.0001386895   0.0000963470   0.0000156967  -0.0000021413
        0.0000128607   0.0000036245  -0.0000044586  -0.0000079964   0.0000023748
       -0.0000039717   0.0000017638  -0.0000100630   0.0000015964   0.0000120365
        0.0000024896   0.0000043891  -0.0000042959   0.0000084976   0.0000036558
       -0.0000063610  -0.0000047977   0.0001642231  -0.0001204478  -0.0000173383
       -0.0001151269  -0.0001027868   0.0000099546  -0.0001170631   0.0000064491
       -0.0000003842   0.0001334581   0.0001210091  -0.0000043214   0.0005816328
        0.0002190285   0.0000677452  -0.0001444655  -0.0001572523  -0.0000230252
        0.0000170377   0.0000067896   0.0000302388   0.0000076246  -0.0001293159
       -0.0000025636   0.0000113828   0.0000000821  -0.0000468246   0.0000191619
       -0.0000726151  -0.0000219866  -0.0000246296  -0.0000198937   0.0000263615
       -0.0000009703  -0.0000512210  -0.0000074130   0.0000178044   0.0000544009
       -0.0000330302  -0.0000455992   0.0000370803   0.0001140613   0.0001096465
        0.0000070283  -0.0000311746   0.0135217867  -0.0020850261  -0.0064103273
       -0.0033342378   0.0314586230  -0.0167968192   0.0003357246  -0.0000430592
        0.0008014909  -0.0293873333   0.1064737472  -0.0950621470   0.0135805870
       -0.0025853073   0.0006303481   0.0000040293  -0.0000114510  -0.0000064677
        0.0000046777   0.0000015440  -0.0000155070  -0.0000005412  -0.0000032176
       -0.0000033759   0.0000010032  -0.0000000273  -0.0000058797  -0.0000049621
        0.0000010642   0.0000002483  -0.0000035034   0.0000101449   0.0000021620
        0.0000070129   0.0000080560   0.0000013187   0.0000071790  -0.0000000541
        0.0000000669   0.0000051064   0.0000046209   0.0000005528   0.0000098728
       -0.0000019945  -0.0000015501   0.0000028589  -0.0000092906  -0.0000020061
       -0.0000014181  -0.0000029745  -0.0000020106  -0.0000000250   0.0000016531
       -0.0000015406   0.0000019446  -0.0000026373   0.0000028617  -0.0000000995
       -0.0000055271  -0.0000011647  -0.0000013700  -0.0000009620  -0.0000036308
        0.0000001458   0.0000012614   0.0000019028   0.0000024780  -0.0000037449
        0.0000011621  -0.0000030660   0.0000015885   0.0000006440   0.0000040651
        0.0000007031   0.0000071894  -0.0000116989  -0.0000007624  -0.0000013366
       -0.0000173073   0.0000176387   0.0000121690  -0.0000065296   0.0000319282
        0.0000481499   0.0000106697   0.0000409550   0.0000029239   0.0000103960
        0.0000240148  -0.0000064946   0.0000070932   0.0000061336  -0.0000061527
        0.0000053578   0.0000051975  -0.0000060782  -0.0000030165   0.0000281510
       -0.0000001817   0.0001489389  -0.0003742698   0.0000089305  -0.0000513559
        0.0056947953   0.0046724614
       -0.0603110758  -0.0488238501   0.0375547523  -0.3157655694   0.1017014643
       -0.0234897253   0.6590808176  -0.0247508558  -0.0637087360  -0.0957640254
        0.0174106436  -0.0050277487  -0.0183754912   0.0301346245  -0.0133984027
       -0.0003279741  -0.0039559236   0.0002129244  -0.0054968157   0.0003474693
        0.0002016632   0.0017748808   0.0018752952   0.0004915466  -0.0013333553
       -0.0003351660  -0.0000511831   0.0004708155  -0.0003725689   0.0000302160
       -0.0002638646  -0.0001486671   0.0000166683   0.0000571936   0.0000020899
        0.0000248919   0.0003809225   0.0000547875   0.0000016928  -0.0005038949
        0.0002001106   0.0000141618   0.0005157346   0.0005322241  -0.0000130489
       -0.0012459598  -0.0002324615   0.0000691987   0.0013545774   0.0004155384
       -0.0000218768  -0.0005937455  -0.0006877696   0.0000255705   0.0005475817
       -0.0002609911  -0.0000790101  -0.0000202782  -0.0001105423  -0.0000184187
        0.0000186934   0.0001049378   0.0000136324  -0.0000866988  -0.0000534247
       -0.0000036602   0.0000589314  -0.0000222721  -0.0000053497  -0.0000009013
        0.0000041010   0.0000004519  -0.0000366490   0.0000523198   0.0000142271
       -0.0002328865  -0.0001972726  -0.0000101570   0.0000908326  -0.0000554473
       -0.0000156214  -0.0001086617  -0.0000362655  -0.0000016835   0.0001817774
        0.0000576595  -0.0000026888  -0.0001646445   0.0002008895   0.0000483969
        0.0004937854  -0.0000721283  -0.0000566836  -0.0005052189   0.0003114783
        0.0000375801  -0.0003103551   0.0005712982   0.0000633012  -0.0000175795
       -0.0001474220  -0.0000112349  -0.0000276830   0.0000565954  -0.0000035289
       -0.0000100569  -0.0000280762  -0.0000072960   0.0000016261   0.0000087270
        0.0000051699   0.0000052501  -0.0000293862  -0.0000075876   0.0000355881
        0.0000504945   0.0000191000   0.0006264599  -0.0003684709  -0.0000483976
       -0.0004336401  -0.0003134824  -0.0000014351  -0.0003078317   0.0000353347
       -0.0000093823   0.0004098056   0.0005709788  -0.0000001775   0.0023817699
        0.0018895994  -0.0008081595  -0.0026023578   0.0002330696  -0.0007772711
       -0.0002193783  -0.0003421867  -0.0004148525   0.0000790123   0.0000594127
       -0.0001647700   0.0000434651  -0.0001483691   0.0001180365  -0.0000710843
       -0.0001406616   0.0001026689   0.0000789545  -0.0000893734  -0.0001449793
       -0.0000543664   0.0001386842   0.0001526996  -0.0000626815  -0.0001181406
        0.0001008762   0.0001080380   0.0001746125   0.0000841601   0.0003413738
        0.0001819525  -0.0002846432   0.0447208065  -0.0080643300  -0.0024378752
       -0.0293182232   0.0306792804  -0.0149627868  -0.0023480079  -0.0022595400
        0.0027387602  -0.0098888965   0.0045031025  -0.0020105797  -0.1644428436
       -0.0985678752   0.0834227220   0.0000446394  -0.0000243590  -0.0000311243
       -0.0000199552   0.0000042548  -0.0000299818   0.0000062890  -0.0000032243
       -0.0000147716  -0.0000019649   0.0000004002  -0.0000156697   0.0000045329
        0.0000062505   0.0000004588   0.0000039073  -0.0000131318  -0.0000007643
       -0.0000094148  -0.0000111840  -0.0000011179  -0.0000055263   0.0000021511
        0.0000010938  -0.0000076339  -0.0000059439  -0.0000002367  -0.0000091563
        0.0000011530   0.0000001984  -0.0000022267   0.0000115936   0.0000037079
        0.0000037952  -0.0000042778  -0.0000015057   0.0000000674  -0.0000028579
        0.0000041168   0.0000024359   0.0000069226  -0.0000060186   0.0000014586
        0.0000084988   0.0000001589   0.0000017520   0.0000070868   0.0000072992
        0.0000019671  -0.0000020624  -0.0000058150   0.0000001209  -0.0000020033
        0.0000042727   0.0000041508  -0.0000003068   0.0000061084  -0.0000225253
       -0.0000178903   0.0000253167   0.0000158035  -0.0000164919  -0.0000143067