 Entering Gaussian System
 *********************************************
 Gaussian 98:
 frequency output generated by the xtb code
 *********************************************
                         Standard orientation:
 --------------------------------------------------------------------
  Center     Atomic     Atomic              Coordinates (Angstroms)
  Number     Number      Type              X           Y           Z
 --------------------------------------------------------------------
    1          6             0        6.685967    1.417591    4.168730
    2          6             0        7.016178    0.950196    2.743929
    3          6             0        7.956355   -0.254054    2.844868
    4          6             0        7.751729    2.065699    1.987425
    5          6             0        5.722948    0.623004    2.013073
    6          6             0        4.769839    1.635800    1.839563
    7          6             0        3.574529    1.433190    1.181698
    8          6             0        3.319806    0.172499    0.664254
    9          6             0        4.249245   -0.873210    0.851564
   10          6             0        5.443114   -0.642851    1.519189
   11          6             0        3.666896   -2.044212    0.252123
   12          6             0        4.100897   -3.354302    0.112622
   13          6             0        3.303021   -4.277462   -0.547568
   14          6             0        3.710675   -5.731679   -0.728561
   15          6             0        3.803204   -6.046342   -2.228528
   16          6             0        2.656379   -6.633975   -0.071258
   17          6             0        5.067414   -6.046530   -0.092615
   18          6             0        2.078118   -3.848114   -1.076045
   19          6             0        1.623944   -2.551409   -0.953213
   20          6             0        2.416275   -1.644976   -0.266241
   21          7             0        2.216245   -0.305220   -0.009477
   22          6             0        1.097842    0.449139   -0.395823
   23          6             0        1.281104    1.615681   -1.122818
   24          6             0        0.175703    2.376561   -1.524222
   25          6             0        0.276994    3.571847   -2.362535
   26          8             0       -0.676495    3.871949   -3.128918
   27          6             0        1.463075    4.391207   -2.294992
   28          6             0        2.391046    4.440294   -1.235030
   29          6             0        3.469209    5.293349   -1.301703
   30          6             0        3.608596    6.113996   -2.419631
   31          7             0        2.701235    6.106910   -3.385404
   32          6             0        1.673994    5.315749   -3.347888
   33          6             0       -1.110362    1.909322   -1.212597
   34          6             0       -1.283304    0.752057   -0.474312
   35          7             0       -2.577568    0.332911   -0.138149
   36          6             0       -3.099499   -0.929238   -0.324268
   37          6             0       -2.533390   -2.058027   -0.896971
   38          6             0       -3.301228   -3.201345   -0.977163
   39          6             0       -4.622657   -3.263323   -0.515373
   40          6             0       -5.385800   -4.572276   -0.646935
   41          6             0       -4.640220   -5.669461    0.126418
   42          6             0       -6.809115   -4.482886   -0.089772
   43          6             0       -5.478218   -4.952858   -2.131643
   44          6             0       -5.187639   -2.120346    0.033200
   45          6             0       -4.437143   -0.958280    0.126544
   46          6             0       -4.730188    0.364913    0.610532
   47          6             0       -5.858499    0.936436    1.178854
   48          6             0       -5.832041    2.267638    1.570555
   49          6             0       -7.033816    2.962362    2.191747
   50          6             0       -7.434619    4.153859    1.310203
   51          6             0       -8.247342    2.037546    2.320999
   52          6             0       -6.659906    3.456538    3.596663
   53          6             0       -4.647710    2.995383    1.391420
   54          6             0       -3.510596    2.451711    0.830202
   55          6             0       -3.557376    1.127042    0.420791
   56          6             0       -0.179439    0.012383   -0.049250
   57          1             0        6.143917    0.639963    4.702961
   58          1             0        6.073835    2.315043    4.161526
   59          1             0        7.602552    1.635750    4.712709
   60          1             0        8.865149    0.039050    3.366633
   61          1             0        8.237682   -0.614630    1.858135
   62          1             0        7.495885   -1.064793    3.404743
   63          1             0        7.967476    1.749668    0.968852
   64          1             0        7.158539    2.974716    1.943231
   65          1             0        8.691801    2.297508    2.483572
   66          1             0        4.965326    2.619819    2.237242
   67          1             0        2.854071    2.231170    1.088617
   68          1             0        6.131742   -1.461641    1.643693
   69          1             0        5.059210   -3.627366    0.521510
   70          1             0        4.116245   -7.077828   -2.375848
   71          1             0        2.846476   -5.907885   -2.724118
   72          1             0        4.531119   -5.392991   -2.705067
   73          1             0        2.941843   -7.678829   -0.173351
   74          1             0        2.570747   -6.401265    0.988227
   75          1             0        1.679609   -6.502835   -0.528276
   76          1             0        5.303567   -7.097687   -0.245499
   77          1             0        5.050647   -5.859072    0.978587
   78          1             0        5.859531   -5.456139   -0.547275
   79          1             0        1.456148   -4.551032   -1.608619
   80          1             0        0.686274   -2.250927   -1.394182
   81          1             0        2.279208    1.886282   -1.430241
   82          1             0        2.231750    3.846045   -0.348727
   83          1             0        4.189160    5.344070   -0.498763
   84          1             0        4.436386    6.796572   -2.535295
   85          1             0        0.953162    5.359109   -4.153480
   86          1             0       -1.963345    2.462245   -1.573153
   87          1             0       -1.527236   -2.044045   -1.285110
   88          1             0       -2.854559   -4.077064   -1.422314
   89          1             0       -3.640371   -5.825855   -0.268485
   90          1             0       -5.183246   -6.609744    0.058451
   91          1             0       -4.553040   -5.396109    1.176007
   92          1             0       -6.800286   -4.231593    0.968375
   93          1             0       -7.395049   -3.742275   -0.629054
   94          1             0       -7.302682   -5.446189   -0.201664
   95          1             0       -5.983697   -4.167524   -2.689749
   96          1             0       -6.041926   -5.876235   -2.246846
   97          1             0       -4.493721   -5.099339   -2.566879
   98          1             0       -6.204797   -2.108510    0.387182
   99          1             0       -6.737783    0.327770    1.307455
  100          1             0       -6.630465    4.879977    1.233003
  101          1             0       -8.305275    4.653525    1.729704
  102          1             0       -7.682003    3.812314    0.307283
  103          1             0       -8.569131    1.675740    1.347212
  104          1             0       -8.026443    1.188456    2.963813
  105          1             0       -9.075194    2.586990    2.764643
  106          1             0       -7.516789    3.936880    4.064260
  107          1             0       -6.350536    2.619629    4.219513
  108          1             0       -5.845448    4.174483    3.562234
  109          1             0       -4.609341    4.027557    1.703452
  110          1             0       -2.614112    3.042278    0.719915
  111          1             0       -0.308392   -0.869418    0.558254
 --------------------------------------------------------------------
     1 basis functions        1 primitive gaussians
     1 alpha electrons        1 beta electrons
 
 Harmonic frequencies (cm**-1), IR intensities (km*mol⁻¹),
 Raman scattering activities (A**4/amu), Raman depolarization ratios,
 reduced masses (AMU), force constants (mDyne/A) and normal coordinates:
                      1                      2                      3
                        a                      a                      a 
 Frequencies --     8.0010                10.8313                12.4223
 Red. masses --    10.3194                10.6115                10.6424
 Frc consts  --     0.0000                 0.0000                 0.0000
 IR Inten    --     0.0465                 1.3343                 1.5154
 Raman Activ --     0.0000                 0.0000                 0.0000
 Depolar     --     0.0000                 0.0000                 0.0000
 Atom AN      X      Y      Z        X      Y      Z        X      Y      Z
   1   6    -0.06  -0.11   0.09    -0.23  -0.03   0.18     0.03   0.03   0.01
   2   6    -0.03  -0.07   0.08    -0.14  -0.01   0.20     0.01   0.08  -0.02
   3   6    -0.03  -0.07   0.06    -0.15  -0.01   0.24     0.06   0.12  -0.08
   4   6    -0.03  -0.05   0.12    -0.10  -0.00   0.26    -0.06   0.13  -0.01
   5   6    -0.02  -0.05   0.05    -0.10  -0.00   0.12    -0.00   0.05   0.01
   6   6    -0.02  -0.05   0.06    -0.09  -0.00   0.08    -0.05   0.01   0.06
   7   6    -0.01  -0.03   0.04    -0.06   0.00   0.02    -0.06  -0.02   0.09
   8   6    -0.01  -0.02   0.01    -0.03   0.01  -0.00    -0.02  -0.02   0.07
   9   6    -0.00  -0.02  -0.01    -0.04   0.01   0.03     0.02   0.01   0.03
  10   6    -0.01  -0.04   0.01    -0.07   0.00   0.09     0.03   0.05  -0.00
  11   6     0.01  -0.01  -0.05    -0.01   0.01  -0.01     0.05   0.00   0.01
  12   6     0.01  -0.00  -0.09    -0.01   0.01  -0.01     0.10   0.03  -0.04
  13   6     0.02   0.02  -0.13     0.02   0.02  -0.05     0.12   0.01  -0.04
  14   6     0.04   0.03  -0.18     0.03   0.02  -0.05     0.18   0.04  -0.10
  15   6     0.06   0.09  -0.19     0.09   0.05  -0.05     0.14   0.09  -0.12
  16   6     0.03  -0.00  -0.23     0.01   0.01  -0.11     0.25  -0.03  -0.09
  17   6     0.03   0.01  -0.18     0.01   0.02  -0.00     0.22   0.08  -0.16
  18   6     0.03   0.03  -0.13     0.04   0.02  -0.09     0.08  -0.02   0.01
  19   6     0.02   0.02  -0.09     0.03   0.02  -0.09     0.03  -0.05   0.06
  20   6     0.01   0.00  -0.05     0.01   0.01  -0.06     0.02  -0.03   0.06
  21   7     0.00  -0.01  -0.01    -0.00   0.01  -0.06    -0.02  -0.05   0.10
  22   6     0.00  -0.00  -0.00    -0.00   0.01  -0.06    -0.02  -0.05   0.08
  23   6     0.00   0.00  -0.00    -0.00   0.01  -0.07    -0.02  -0.06   0.07
  24   6     0.00  -0.00  -0.00     0.00   0.01  -0.07    -0.01  -0.05   0.07
  25   6     0.00   0.01   0.01    -0.00   0.00  -0.07    -0.01  -0.07   0.05
  26   8     0.01   0.01   0.00    -0.02   0.02  -0.06    -0.02  -0.06   0.09
  27   6    -0.01   0.01   0.03     0.02  -0.02  -0.12     0.02  -0.10   0.00
  28   6    -0.01   0.00   0.03     0.05  -0.02  -0.15     0.05  -0.10  -0.02
  29   6    -0.02   0.01   0.05     0.06  -0.04  -0.20     0.08  -0.13  -0.08
  30   6    -0.02   0.03   0.07     0.05  -0.07  -0.22     0.07  -0.17  -0.11
  31   7    -0.01   0.04   0.06     0.02  -0.07  -0.21     0.05  -0.18  -0.09
  32   6    -0.01   0.03   0.04     0.00  -0.05  -0.15     0.02  -0.14  -0.03
  33   6     0.00  -0.01  -0.01     0.00   0.02  -0.05    -0.01  -0.04   0.08
  34   6     0.00  -0.00  -0.00    -0.00   0.02  -0.06    -0.02  -0.04   0.08
  35   7     0.00   0.00   0.01     0.00   0.02  -0.05    -0.03  -0.03   0.09
  36   6     0.01  -0.01   0.06     0.00   0.02  -0.04    -0.05  -0.01   0.06
  37   6     0.02  -0.03   0.11    -0.01   0.02  -0.06    -0.06  -0.02   0.06
  38   6     0.03  -0.04   0.16    -0.00   0.02  -0.04    -0.09  -0.00   0.03
  39   6     0.03  -0.03   0.16     0.01   0.01  -0.00    -0.10   0.03  -0.02
  40   6     0.04  -0.04   0.22     0.01   0.01   0.01    -0.13   0.05  -0.06
  41   6     0.05   0.00   0.28     0.04   0.01  -0.02    -0.19   0.02  -0.05
  42   6     0.04  -0.03   0.21     0.03  -0.00   0.05    -0.15   0.08  -0.11
  43   6     0.05  -0.12   0.24    -0.03   0.02   0.01    -0.09   0.08  -0.07
  44   6     0.02  -0.01   0.10     0.02   0.01   0.02    -0.09   0.03  -0.02
  45   6     0.01   0.00   0.05     0.02   0.01   0.00    -0.06   0.01   0.02
  46   6    -0.00   0.02  -0.01     0.03   0.00   0.02    -0.05   0.02   0.02
  47   6    -0.01   0.03  -0.04     0.05  -0.01   0.07    -0.05   0.04  -0.00
  48   6    -0.03   0.05  -0.10     0.06  -0.01   0.09    -0.03   0.04   0.01
  49   6    -0.04   0.07  -0.14     0.08  -0.03   0.15    -0.03   0.06  -0.02
  50   6    -0.03   0.03  -0.20     0.04  -0.01   0.18     0.02   0.08  -0.03
  51   6    -0.03   0.07  -0.12     0.09  -0.03   0.18    -0.06   0.09  -0.07
  52   6    -0.06   0.13  -0.16     0.14  -0.04   0.14    -0.06   0.04  -0.01
  53   6    -0.03   0.05  -0.11     0.04  -0.00   0.05    -0.01   0.01   0.04
  54   6    -0.02   0.03  -0.08     0.03   0.01   0.00    -0.00  -0.01   0.07
  55   6    -0.01   0.02  -0.03     0.02   0.01  -0.01    -0.02  -0.01   0.06
  56   6     0.00  -0.00  -0.00    -0.00   0.01  -0.06    -0.03  -0.05   0.09
  57   1    -0.02  -0.04   0.02    -0.08  -0.01   0.04     0.02  -0.00   0.00
  58   1    -0.02  -0.03   0.03    -0.07  -0.01   0.05    -0.00   0.00   0.01
  59   1    -0.02  -0.04   0.03    -0.08  -0.01   0.07     0.01   0.02  -0.00
  60   1    -0.01  -0.02   0.02    -0.05  -0.01   0.09     0.02   0.04  -0.03
  61   1    -0.01  -0.01   0.02    -0.03  -0.00   0.07     0.01   0.05  -0.03
  62   1    -0.01  -0.02   0.01    -0.05  -0.01   0.06     0.03   0.03  -0.02
  63   1    -0.00  -0.00   0.03    -0.01   0.00   0.08    -0.02   0.05  -0.01
  64   1    -0.01  -0.01   0.04    -0.03  -0.00   0.07    -0.03   0.03   0.01
  65   1    -0.01  -0.02   0.04    -0.04  -0.00   0.09    -0.02   0.05  -0.01
  66   1    -0.01  -0.02   0.03    -0.03  -0.00   0.03    -0.02   0.00   0.02
  67   1    -0.00  -0.01   0.02    -0.02   0.00  -0.00    -0.03  -0.01   0.04
  68   1    -0.00  -0.01  -0.00    -0.02   0.00   0.03     0.02   0.02  -0.01
  69   1     0.00  -0.00  -0.03    -0.01   0.00   0.01     0.04   0.02  -0.02
  70   1     0.02   0.03  -0.07     0.03   0.01  -0.02     0.05   0.03  -0.05
  71   1     0.02   0.03  -0.06     0.03   0.01  -0.03     0.03   0.02  -0.02
  72   1     0.02   0.03  -0.05     0.03   0.02  -0.00     0.03   0.04  -0.04
  73   1     0.01   0.00  -0.08     0.00   0.00  -0.03     0.09  -0.01  -0.04
  74   1     0.00  -0.01  -0.06    -0.01  -0.00  -0.03     0.08  -0.02  -0.02
  75   1     0.01   0.00  -0.07     0.01   0.00  -0.04     0.07  -0.02  -0.02
  76   1     0.01   0.01  -0.06     0.00   0.01  -0.00     0.08   0.03  -0.06
  77   1     0.00  -0.01  -0.05    -0.01   0.00   0.00     0.07   0.01  -0.05
  78   1     0.01   0.01  -0.04     0.01   0.01   0.01     0.05   0.04  -0.05
  79   1     0.01   0.01  -0.05     0.02   0.01  -0.03     0.03  -0.01   0.00
  80   1     0.01   0.01  -0.03     0.01   0.01  -0.03     0.00  -0.02   0.03
  81   1     0.00   0.00   0.00     0.00  -0.00  -0.02    -0.00  -0.02   0.02
  82   1    -0.00  -0.00   0.01     0.02   0.00  -0.04     0.02  -0.02  -0.00
  83   1    -0.01   0.00   0.02     0.03  -0.01  -0.07     0.03  -0.04  -0.03
  84   1    -0.01   0.01   0.02     0.02  -0.02  -0.08     0.03  -0.06  -0.04
  85   1    -0.00   0.01   0.01    -0.01  -0.01  -0.04     0.00  -0.04  -0.00
  86   1     0.00  -0.00  -0.00     0.00   0.01  -0.01    -0.00  -0.01   0.02
  87   1     0.01  -0.01   0.03    -0.00   0.01  -0.02    -0.01  -0.01   0.03
  88   1     0.01  -0.02   0.06    -0.00   0.01  -0.02    -0.03  -0.00   0.01
  89   1     0.01  -0.00   0.09     0.01   0.00  -0.02    -0.05  -0.00  -0.01
  90   1     0.02  -0.00   0.09     0.01   0.00  -0.00    -0.06   0.01  -0.02
  91   1     0.01   0.02   0.08     0.02  -0.00  -0.01    -0.06  -0.00  -0.01
  92   1     0.01   0.01   0.06     0.02  -0.00   0.02    -0.05   0.02  -0.03
  93   1     0.01  -0.02   0.05     0.00  -0.00   0.02    -0.03   0.03  -0.03
  94   1     0.01  -0.01   0.07     0.01  -0.00   0.02    -0.05   0.03  -0.04
  95   1     0.01  -0.05   0.06    -0.02   0.01   0.01    -0.01   0.03  -0.02
  96   1     0.02  -0.04   0.08    -0.01   0.01   0.01    -0.03   0.03  -0.03
  97   1     0.02  -0.04   0.07    -0.01   0.01  -0.01    -0.02   0.02  -0.01
  98   1     0.00   0.00   0.03     0.01  -0.00   0.01    -0.03   0.02  -0.01
  99   1    -0.00   0.01  -0.01     0.02  -0.00   0.03    -0.02   0.02  -0.01
 100   1    -0.01   0.01  -0.06     0.01  -0.00   0.05     0.01   0.02   0.00
 101   1    -0.01   0.01  -0.07     0.01  -0.01   0.07     0.01   0.03  -0.01
 102   1    -0.01  -0.00  -0.06    -0.00  -0.00   0.05     0.01   0.03  -0.01
 103   1    -0.01   0.01  -0.03     0.01  -0.01   0.06    -0.01   0.03  -0.02
 104   1    -0.01   0.03  -0.02     0.03  -0.01   0.05    -0.03   0.02  -0.02
 105   1    -0.01   0.02  -0.05     0.03  -0.01   0.07    -0.02   0.03  -0.03
 106   1    -0.02   0.04  -0.06     0.04  -0.02   0.05    -0.02   0.02  -0.01
 107   1    -0.02   0.05  -0.03     0.05  -0.01   0.03    -0.03   0.01  -0.00
 108   1    -0.02   0.04  -0.05     0.04  -0.01   0.03    -0.01   0.01   0.01
 109   1    -0.01   0.02  -0.04     0.02  -0.00   0.02     0.00   0.00   0.02
 110   1    -0.01   0.01  -0.03     0.01   0.00  -0.01     0.00  -0.01   0.03
 111   1     0.00   0.00   0.00    -0.00   0.00  -0.02    -0.01  -0.01   0.03
                      4                      5                      6
                        a                      a                      a 
 Frequencies --    17.2079                21.1509                29.9812
 Red. masses --    11.2119                11.1450                 9.0633
 Frc consts  --     0.0000                 0.0000                 0.0000
 IR Inten    --     0.5176                 0.1841                 0.1046
 Raman Activ --     0.0000                 0.0000                 0.0000
 Depolar     --     0.0000                 0.0000                 0.0000
 Atom AN      X      Y      Z        X      Y      Z        X      Y      Z
   1   6    -0.08   0.05   0.01     0.00  -0.04   0.06    -0.10  -0.29   0.11
   2   6    -0.05   0.05   0.02     0.04  -0.08   0.07    -0.04  -0.01   0.03
   3   6    -0.03   0.07   0.04    -0.00  -0.10   0.13     0.07   0.06  -0.17
   4   6    -0.05   0.06   0.02     0.10  -0.11   0.09    -0.12   0.19   0.24
   5   6    -0.03   0.03  -0.00     0.06  -0.05   0.03    -0.01  -0.00  -0.03
   6   6    -0.04   0.01  -0.02     0.09  -0.02  -0.01    -0.03  -0.02   0.01
   7   6    -0.03  -0.01  -0.04     0.10  -0.00  -0.03    -0.02  -0.02  -0.01
   8   6    -0.00  -0.02  -0.03     0.08  -0.00  -0.02     0.01  -0.01  -0.05
   9   6     0.01  -0.00  -0.01     0.06  -0.02  -0.00     0.03   0.00  -0.08
  10   6    -0.00   0.02   0.00     0.04  -0.04   0.03     0.03   0.01  -0.07
  11   6     0.03  -0.02  -0.01     0.05  -0.01  -0.01     0.04  -0.00  -0.07
  12   6     0.05  -0.01   0.01     0.02  -0.02   0.01     0.04  -0.00  -0.06
  13   6     0.07  -0.03   0.01     0.01  -0.01  -0.00     0.02  -0.02  -0.01
  14   6     0.10  -0.03   0.03    -0.01  -0.02   0.02     0.00  -0.04   0.05
  15   6     0.11  -0.04   0.03     0.03  -0.02   0.02    -0.24  -0.20   0.07
  16   6     0.11  -0.04   0.03    -0.05   0.01  -0.01     0.10   0.04   0.32
  17   6     0.10   0.00   0.04    -0.04  -0.05   0.06     0.10   0.03  -0.14
  18   6     0.07  -0.06  -0.00     0.03   0.02  -0.03     0.00  -0.04   0.02
  19   6     0.05  -0.06  -0.02     0.06   0.02  -0.04     0.01  -0.04  -0.01
  20   6     0.03  -0.04  -0.03     0.06   0.01  -0.03     0.02  -0.02  -0.05
  21   7     0.01  -0.04  -0.05     0.09   0.02  -0.04     0.02  -0.02  -0.06
  22   6     0.01  -0.06  -0.07     0.06   0.01   0.00     0.01  -0.02  -0.04
  23   6     0.01  -0.06  -0.07     0.01   0.01  -0.01     0.01  -0.00  -0.02
  24   6     0.00  -0.08  -0.09    -0.02  -0.02   0.03     0.01   0.01   0.01
  25   6     0.01  -0.07  -0.10    -0.09  -0.02   0.02    -0.01   0.04   0.05
  26   8     0.06  -0.15  -0.20    -0.16  -0.07   0.07    -0.05   0.08   0.11
  27   6    -0.05  -0.01   0.01    -0.12   0.03  -0.05    -0.00   0.03   0.02
  28   6    -0.13   0.01   0.08    -0.05   0.06  -0.11     0.06  -0.01  -0.03
  29   6    -0.18   0.09   0.20    -0.10   0.12  -0.17     0.05  -0.00  -0.06
  30   6    -0.16   0.15   0.25    -0.22   0.15  -0.16    -0.01   0.04  -0.04
  31   7    -0.10   0.14   0.20    -0.31   0.13  -0.11    -0.08   0.08   0.02
  32   6    -0.04   0.06   0.07    -0.24   0.06  -0.04    -0.07   0.07   0.04
  33   6     0.01  -0.08  -0.11     0.01  -0.04   0.09     0.01   0.01   0.02
  34   6     0.01  -0.07  -0.09     0.05  -0.03   0.10     0.01  -0.00  -0.00
  35   7     0.01  -0.06  -0.08     0.07  -0.05   0.15     0.01  -0.00   0.01
  36   6    -0.03  -0.04  -0.05     0.05  -0.04   0.11     0.01  -0.00   0.01
  37   6    -0.06  -0.06  -0.04     0.05  -0.05   0.13     0.00   0.01  -0.02
  38   6    -0.10  -0.04  -0.02     0.02  -0.02   0.07     0.00   0.01  -0.02
  39   6    -0.09  -0.00  -0.00    -0.00   0.01  -0.00     0.01   0.00   0.01
  40   6    -0.13   0.02   0.02    -0.04   0.03  -0.08     0.01   0.00  -0.00
  41   6    -0.15  -0.00   0.01    -0.13  -0.00  -0.04     0.07  -0.04  -0.13
  42   6    -0.12   0.06   0.04    -0.08   0.07  -0.18     0.05  -0.03   0.12
  43   6    -0.16   0.01   0.02     0.05   0.06  -0.09    -0.11   0.10  -0.02
  44   6    -0.05   0.01  -0.00     0.00   0.01  -0.01     0.02  -0.01   0.03
  45   6    -0.02  -0.00  -0.02     0.03  -0.01   0.05     0.02  -0.00   0.02
  46   6     0.02   0.01  -0.02     0.04  -0.01   0.05     0.02  -0.00   0.02
  47   6     0.05   0.04   0.00     0.02   0.01  -0.00     0.02  -0.00   0.02
  48   6     0.10   0.04   0.00     0.03   0.01   0.00     0.01   0.00  -0.00
  49   6     0.14   0.07   0.04     0.01   0.04  -0.07    -0.00   0.02  -0.04
  50   6     0.15   0.08   0.05     0.10   0.06  -0.08    -0.02  -0.05  -0.12
  51   6     0.12   0.11   0.07    -0.02   0.08  -0.16     0.02  -0.00   0.02
  52   6     0.20   0.06   0.03    -0.06   0.01  -0.04    -0.01   0.12  -0.07
  53   6     0.11   0.01  -0.04     0.06  -0.01   0.07     0.01   0.01  -0.01
  54   6     0.08  -0.02  -0.06     0.07  -0.04   0.12     0.01   0.00   0.00
  55   6     0.04  -0.03  -0.06     0.06  -0.03   0.10     0.02  -0.00   0.01
  56   6     0.01  -0.07  -0.08     0.08  -0.01   0.06     0.01  -0.01  -0.03
  57   1    -0.02   0.01   0.00    -0.01  -0.01   0.01    -0.00  -0.13  -0.01
  58   1    -0.03   0.01  -0.00     0.01  -0.01   0.01    -0.06  -0.11   0.07
  59   1    -0.03   0.02   0.01    -0.00  -0.02   0.03    -0.04  -0.08   0.04
  60   1    -0.01   0.02   0.02    -0.00  -0.04   0.05     0.02   0.02  -0.05
  61   1    -0.00   0.02   0.01     0.01  -0.04   0.04     0.02   0.06  -0.07
  62   1    -0.01   0.02   0.01    -0.01  -0.02   0.03     0.05  -0.02  -0.08
  63   1    -0.01   0.02   0.01     0.04  -0.04   0.03    -0.03   0.12   0.05
  64   1    -0.02   0.01   0.00     0.04  -0.03   0.01    -0.05   0.05   0.12
  65   1    -0.02   0.02   0.01     0.03  -0.04   0.03    -0.04   0.04   0.08
  66   1    -0.02   0.00  -0.01     0.03  -0.01  -0.00    -0.02  -0.01   0.02
  67   1    -0.01  -0.01  -0.02     0.04   0.01  -0.02    -0.01  -0.01   0.00
  68   1     0.00   0.01   0.01     0.01  -0.02   0.01     0.01   0.01  -0.03
  69   1     0.02   0.00   0.01     0.00  -0.01   0.01     0.01   0.00  -0.02
  70   1     0.04  -0.01   0.01     0.00  -0.01   0.01    -0.07  -0.06   0.04
  71   1     0.03  -0.02   0.01     0.01   0.00  -0.00    -0.09  -0.08   0.06
  72   1     0.03  -0.01   0.01     0.02  -0.01   0.01    -0.10  -0.07  -0.03
  73   1     0.04  -0.01   0.01    -0.02   0.00   0.00     0.02   0.01   0.10
  74   1     0.03  -0.01   0.01    -0.02   0.00  -0.01     0.09   0.04   0.09
  75   1     0.03  -0.02   0.01    -0.01   0.01  -0.01     0.01   0.01   0.14
  76   1     0.04   0.00   0.01    -0.02  -0.02   0.02     0.03   0.01  -0.04
  77   1     0.03   0.00   0.01    -0.02  -0.01   0.02     0.08   0.02  -0.04
  78   1     0.03   0.00   0.01    -0.00  -0.02   0.02     0.01   0.01  -0.08
  79   1     0.02  -0.02   0.00     0.01   0.01  -0.01    -0.01  -0.02   0.02
  80   1     0.01  -0.02  -0.01     0.02   0.01  -0.02    -0.00  -0.02   0.00
  81   1     0.00  -0.01  -0.01    -0.00   0.01  -0.01     0.00  -0.00  -0.01
  82   1    -0.04  -0.01   0.01     0.02   0.01  -0.03     0.03  -0.01  -0.01
  83   1    -0.07   0.03   0.07    -0.01   0.04  -0.06     0.03  -0.01  -0.03
  84   1    -0.06   0.06   0.10    -0.08   0.06  -0.06    -0.01   0.01  -0.02
  85   1     0.00   0.01   0.01    -0.09   0.01   0.00    -0.03   0.03   0.03
  86   1     0.00  -0.03  -0.03    -0.00  -0.02   0.03     0.00   0.01   0.01
  87   1    -0.02  -0.03  -0.02     0.02  -0.02   0.05    -0.00   0.00  -0.01
  88   1    -0.04  -0.02  -0.00     0.01  -0.01   0.02    -0.00   0.00  -0.01
  89   1    -0.05  -0.01   0.00    -0.03  -0.01   0.01     0.01  -0.01  -0.07
  90   1    -0.05   0.00   0.01    -0.05   0.00  -0.03     0.01  -0.01  -0.04
  91   1    -0.04   0.00   0.00    -0.06  -0.01  -0.01     0.05  -0.03  -0.04
  92   1    -0.03   0.02   0.01    -0.04   0.01  -0.05     0.04  -0.02   0.04
  93   1    -0.03   0.02   0.01    -0.00   0.03  -0.06    -0.00  -0.01   0.06
  94   1    -0.04   0.02   0.01    -0.03   0.03  -0.07     0.02  -0.01   0.04
  95   1    -0.04   0.01   0.01     0.04   0.03  -0.03    -0.05   0.04   0.02
  96   1    -0.06   0.01   0.01     0.01   0.03  -0.04    -0.03   0.03  -0.01
  97   1    -0.05  -0.01   0.00     0.02   0.01  -0.01    -0.04   0.04  -0.03
  98   1    -0.01   0.01   0.01    -0.00   0.01  -0.02     0.01  -0.00   0.01
  99   1     0.01   0.02   0.01     0.00   0.01  -0.01     0.01  -0.00   0.01
 100   1     0.05   0.02   0.01     0.04   0.01  -0.00    -0.01  -0.01  -0.05
 101   1     0.05   0.03   0.02     0.03   0.02  -0.04    -0.01  -0.01  -0.04
 102   1     0.03   0.03   0.02     0.05   0.02  -0.03    -0.01  -0.03  -0.03
 103   1     0.02   0.03   0.02     0.01   0.03  -0.05     0.00  -0.02   0.01
 104   1     0.03   0.03   0.02    -0.03   0.02  -0.04     0.01   0.01   0.02
 105   1     0.04   0.04   0.03    -0.01   0.03  -0.06     0.00   0.00   0.00
 106   1     0.07   0.02   0.02    -0.02   0.01  -0.03    -0.01   0.03  -0.03
 107   1     0.06   0.02   0.00    -0.04  -0.00  -0.01     0.00   0.05  -0.01
 108   1     0.06   0.01  -0.00    -0.01  -0.00   0.01    -0.01   0.04  -0.03
 109   1     0.04   0.00  -0.01     0.02  -0.01   0.02     0.00   0.00  -0.01
 110   1     0.03  -0.01  -0.03     0.03  -0.02   0.05     0.00   0.00   0.00
 111   1     0.00  -0.02  -0.02     0.04  -0.00   0.02     0.00  -0.01  -0.01
                      7                      8                      9
                        a                      a                      a 
 Frequencies --    30.3654                32.4916                33.1934
 Red. masses --     8.9320                10.0125                 8.5512
 Frc consts  --     0.0000                 0.0000                 0.0000
 IR Inten    --     0.3964                 0.7597                 0.0100
 Raman Activ --     0.0000                 0.0000                 0.0000
 Depolar     --     0.0000                 0.0000                 0.0000
 Atom AN      X      Y      Z        X      Y      Z        X      Y      Z
   1   6     0.06   0.11  -0.03     0.03   0.00   0.04     0.02  -0.19   0.04
   2   6     0.03  -0.02   0.01     0.03  -0.05   0.05     0.02   0.01  -0.03
   3   6    -0.02  -0.05   0.10    -0.02  -0.09   0.10     0.10   0.06  -0.20
   4   6     0.08  -0.11  -0.08     0.09  -0.10   0.03    -0.07   0.14   0.09
   5   6     0.02  -0.01   0.03     0.03  -0.02   0.04     0.01   0.01  -0.02
   6   6     0.03  -0.00   0.01     0.05  -0.00   0.04    -0.00  -0.00   0.01
   7   6     0.03   0.00   0.02     0.04   0.02   0.05    -0.00  -0.00   0.02
   8   6     0.01  -0.00   0.04     0.02   0.02   0.06     0.00   0.00   0.01
   9   6     0.00  -0.01   0.04     0.01   0.01   0.03     0.00   0.00  -0.00
  10   6     0.00  -0.02   0.04     0.01  -0.01   0.03     0.01   0.01  -0.02
  11   6    -0.01  -0.00   0.04    -0.01   0.02   0.03     0.00   0.00   0.00
  12   6    -0.01  -0.00   0.03    -0.01   0.03  -0.02    -0.01  -0.00   0.01
  13   6    -0.00   0.01   0.01    -0.03   0.04  -0.02    -0.01  -0.00   0.02
  14   6     0.01   0.02  -0.04    -0.03   0.05  -0.07    -0.02  -0.01   0.03
  15   6     0.06   0.09  -0.05    -0.33  -0.01  -0.08     0.13   0.04   0.03
  16   6    -0.00  -0.02  -0.11     0.11   0.06   0.18    -0.11  -0.01  -0.11
  17   6    -0.01  -0.00  -0.01     0.11   0.09  -0.34    -0.10  -0.05   0.17
  18   6    -0.00   0.01   0.02    -0.05   0.05   0.05     0.00   0.01  -0.01
  19   6    -0.00   0.01   0.04    -0.05   0.04   0.09     0.01   0.01  -0.02
  20   6    -0.00   0.00   0.05    -0.02   0.03   0.07     0.00   0.00  -0.00
  21   7     0.00   0.00   0.05    -0.01   0.04   0.09     0.00   0.00   0.00
  22   6     0.00   0.00   0.04     0.00   0.03   0.06     0.00   0.00   0.00
  23   6     0.00  -0.01   0.02     0.01   0.01   0.02     0.00   0.00   0.00
  24   6     0.00  -0.02  -0.00     0.01  -0.03  -0.04     0.00  -0.00  -0.00
  25   6     0.00  -0.04  -0.03     0.03  -0.08  -0.12     0.00  -0.00  -0.00
  26   8     0.02  -0.10  -0.08     0.09  -0.20  -0.25    -0.00   0.00   0.00
  27   6    -0.01  -0.02  -0.02    -0.01  -0.04  -0.08     0.00  -0.00  -0.00
  28   6    -0.04   0.01  -0.00    -0.09   0.04  -0.00     0.00  -0.00  -0.00
  29   6    -0.05   0.03   0.01    -0.12   0.08   0.05     0.00  -0.00  -0.00
  30   6    -0.04   0.02   0.00    -0.06   0.03   0.02     0.00   0.00  -0.00
  31   7    -0.02  -0.02  -0.02     0.02  -0.06  -0.06    -0.00   0.00  -0.00
  32   6    -0.00  -0.04  -0.03     0.05  -0.09  -0.11    -0.00   0.00   0.00
  33   6     0.00  -0.02   0.01     0.00  -0.02  -0.04     0.00  -0.00  -0.00
  34   6     0.00  -0.00   0.03    -0.00   0.02   0.01     0.00  -0.00  -0.00
  35   7     0.01  -0.00   0.04    -0.00   0.02   0.00     0.00  -0.00   0.00
  36   6     0.01  -0.00   0.04     0.01   0.02   0.01     0.00  -0.00   0.01
  37   6    -0.00   0.01   0.00     0.02   0.02   0.02     0.01  -0.01   0.03
  38   6    -0.01   0.02  -0.02     0.03   0.01   0.01     0.00  -0.01   0.02
  39   6     0.01   0.00   0.02     0.02   0.01  -0.02    -0.01   0.01  -0.03
  40   6    -0.01   0.02  -0.05     0.02   0.01  -0.04    -0.02   0.01  -0.05
  41   6     0.08  -0.10  -0.31    -0.05   0.05   0.10    -0.15   0.07   0.15
  42   6     0.07  -0.05   0.17    -0.03   0.04  -0.18    -0.10   0.09  -0.28
  43   6    -0.22   0.24  -0.09     0.17  -0.07  -0.02     0.19  -0.11  -0.03
  44   6     0.02  -0.01   0.07     0.00   0.01  -0.03    -0.01   0.01  -0.02
  45   6     0.02  -0.01   0.07     0.00   0.01  -0.01     0.00  -0.00   0.00
  46   6     0.02  -0.01   0.07    -0.01   0.01  -0.01     0.00  -0.00   0.01
  47   6     0.02  -0.02   0.07    -0.01  -0.00   0.01     0.01  -0.01   0.03
  48   6    -0.00  -0.00   0.03    -0.01  -0.01   0.01     0.01  -0.01   0.03
  49   6    -0.02   0.01  -0.03    -0.00  -0.02   0.05     0.02  -0.02   0.04
  50   6    -0.15  -0.19  -0.23    -0.07  -0.06   0.03    -0.15  -0.19  -0.12
  51   6     0.06  -0.06   0.21     0.03  -0.05   0.12     0.11  -0.10   0.31
  52   6    -0.00   0.30  -0.13     0.04   0.03   0.02     0.09   0.24  -0.07
  53   6    -0.02   0.01  -0.02    -0.02   0.01  -0.01    -0.01   0.00  -0.02
  54   6    -0.01   0.01  -0.00    -0.02   0.02  -0.02    -0.01   0.01  -0.03
  55   6     0.00  -0.00   0.04    -0.01   0.02  -0.01     0.00  -0.00  -0.00
  56   6     0.00   0.01   0.04    -0.00   0.04   0.06     0.00   0.00   0.00
  57   1     0.00   0.05   0.01    -0.00   0.01   0.01     0.03  -0.09  -0.01
  58   1     0.03   0.04  -0.03     0.02   0.01   0.00    -0.02  -0.07   0.04
  59   1     0.02   0.03  -0.01     0.01  -0.01   0.01     0.00  -0.04   0.01
  60   1    -0.01  -0.02   0.03    -0.01  -0.03   0.04     0.03   0.02  -0.07
  61   1    -0.00  -0.04   0.04     0.00  -0.03   0.03     0.01   0.05  -0.07
  62   1    -0.02  -0.00   0.04    -0.02  -0.02   0.03     0.06  -0.01  -0.07
  63   1     0.02  -0.06  -0.01     0.03  -0.04   0.01    -0.03   0.09   0.01
  64   1     0.03  -0.03  -0.05     0.03  -0.02  -0.00    -0.03   0.04   0.07
  65   1     0.02  -0.03  -0.03     0.02  -0.03   0.01    -0.02   0.03   0.02
  66   1     0.02   0.00  -0.00     0.02  -0.00   0.01    -0.00  -0.00   0.01
  67   1     0.01   0.00   0.00     0.02   0.01   0.01    -0.00  -0.00   0.01
  68   1    -0.00  -0.01   0.01     0.00  -0.01   0.01     0.01   0.00  -0.01
  69   1    -0.00  -0.00   0.01     0.00   0.01  -0.02    -0.00  -0.00   0.01
  70   1     0.02   0.03  -0.02    -0.09   0.00  -0.03     0.03   0.01   0.01
  71   1     0.02   0.03  -0.02    -0.13  -0.03   0.03     0.06   0.03  -0.02
  72   1     0.02   0.03   0.00    -0.14   0.00  -0.07     0.06   0.01   0.04
  73   1     0.00  -0.00  -0.04     0.02   0.02   0.03    -0.03  -0.00  -0.03
  74   1    -0.01  -0.02  -0.03     0.10   0.02   0.06    -0.07  -0.01  -0.03
  75   1     0.00  -0.00  -0.04     0.00   0.02   0.12    -0.01  -0.00  -0.07
  76   1    -0.00   0.00  -0.01     0.04   0.03  -0.12    -0.03  -0.02   0.06
  77   1    -0.01  -0.01  -0.00     0.09   0.02  -0.10    -0.06  -0.01   0.05
  78   1     0.00   0.00   0.01    -0.00   0.04  -0.14    -0.01  -0.02   0.07
  79   1     0.00   0.01   0.00    -0.02   0.01   0.02     0.00   0.00  -0.01
  80   1    -0.00   0.00   0.01    -0.02   0.01   0.04     0.00   0.00  -0.01
  81   1     0.00  -0.00   0.01     0.00   0.00   0.01     0.00   0.00   0.00
  82   1    -0.01   0.01   0.00    -0.04   0.02   0.00     0.00  -0.00  -0.00
  83   1    -0.02   0.02   0.01    -0.06   0.04   0.03     0.00  -0.00  -0.00
  84   1    -0.02   0.01   0.00    -0.02   0.02   0.02    -0.00   0.00  -0.00
  85   1     0.00  -0.02  -0.01     0.03  -0.05  -0.05    -0.00   0.00   0.00
  86   1     0.00  -0.01  -0.00     0.00  -0.01  -0.02     0.00  -0.00  -0.00
  87   1    -0.00   0.01  -0.01     0.01   0.01   0.01     0.01  -0.01   0.01
  88   1    -0.01   0.01  -0.02     0.01   0.00   0.01     0.00  -0.00   0.01
  89   1     0.00  -0.03  -0.14    -0.00   0.02   0.06    -0.02   0.02   0.10
  90   1     0.01  -0.02  -0.10    -0.01   0.01   0.02    -0.04   0.02   0.03
  91   1     0.08  -0.07  -0.08    -0.05   0.03   0.03    -0.10   0.04   0.04
  92   1     0.06  -0.04   0.06    -0.04   0.02  -0.05    -0.08   0.03  -0.08
  93   1    -0.01  -0.01   0.09     0.01   0.01  -0.07     0.00   0.03  -0.11
  94   1     0.02  -0.02   0.05    -0.01   0.01  -0.06    -0.04   0.03  -0.10
  95   1    -0.09   0.09   0.03     0.07  -0.03  -0.03     0.09  -0.04  -0.05
  96   1    -0.06   0.07  -0.04     0.04  -0.02  -0.01     0.05  -0.03  -0.01
  97   1    -0.08   0.10  -0.07     0.06  -0.04   0.02     0.07  -0.06   0.04
  98   1     0.01  -0.01   0.03    -0.00   0.00  -0.01    -0.00   0.00  -0.01
  99   1     0.01  -0.01   0.03     0.00  -0.00   0.00     0.01  -0.01   0.02
 100   1    -0.06  -0.05  -0.13    -0.03  -0.01  -0.01    -0.06  -0.05  -0.10
 101   1    -0.04  -0.04  -0.08    -0.02  -0.02   0.02    -0.04  -0.05  -0.03
 102   1    -0.06  -0.12  -0.04    -0.03  -0.03   0.02    -0.07  -0.11  -0.01
 103   1    -0.00  -0.06   0.08    -0.00  -0.02   0.04    -0.00  -0.06   0.11
 104   1     0.05   0.01   0.09     0.02  -0.01   0.04     0.08  -0.00   0.11
 105   1     0.02  -0.02   0.06     0.01  -0.02   0.05     0.04  -0.03   0.11
 106   1    -0.01   0.08  -0.05     0.01   0.00   0.01     0.02   0.06  -0.02
 107   1     0.04   0.13  -0.00     0.03   0.02   0.01     0.08   0.11   0.01
 108   1    -0.03   0.11  -0.09     0.00   0.02  -0.01    -0.00   0.10  -0.07
 109   1    -0.01   0.01  -0.02    -0.01   0.00  -0.01    -0.00   0.00  -0.01
 110   1    -0.01   0.01  -0.01    -0.01   0.01  -0.01    -0.00   0.00  -0.01
 111   1     0.00   0.00   0.02    -0.00   0.02   0.03     0.00   0.00   0.00
                     10                     11                     12
                        a                      a                      a 
 Frequencies --    34.2715                41.4911                45.4484
 Red. masses --    10.1649                11.0974                11.3179
 Frc consts  --     0.0000                 0.0000                 0.0000
 IR Inten    --     0.8083                 0.1615                 0.6654
 Raman Activ --     0.0000                 0.0000                 0.0000
 Depolar     --     0.0000                 0.0000                 0.0000
 Atom AN      X      Y      Z        X      Y      Z        X      Y      Z
   1   6    -0.09   0.29  -0.09     0.13  -0.00  -0.01     0.12  -0.02   0.04
   2   6    -0.07   0.03   0.00     0.03  -0.03  -0.03     0.09  -0.01   0.03
   3   6    -0.16  -0.02   0.25     0.05  -0.02  -0.07     0.07  -0.03  -0.01
   4   6     0.04  -0.15  -0.16    -0.03  -0.04  -0.10     0.09  -0.02   0.03
   5   6    -0.05   0.01  -0.01    -0.01  -0.05   0.06     0.06   0.02   0.05
   6   6    -0.05   0.00  -0.06    -0.03  -0.06   0.10     0.08   0.04   0.07
   7   6    -0.03  -0.01  -0.08    -0.05  -0.06   0.14     0.07   0.07   0.08
   8   6    -0.01  -0.02  -0.07    -0.05  -0.06   0.13     0.04   0.08   0.07
   9   6    -0.01  -0.01  -0.05    -0.04  -0.06   0.11     0.02   0.06   0.05
  10   6    -0.03   0.00  -0.01    -0.02  -0.05   0.08     0.03   0.03   0.04
  11   6     0.01  -0.02  -0.05    -0.04  -0.06   0.11     0.01   0.07   0.04
  12   6     0.03  -0.01  -0.03    -0.02  -0.04   0.08    -0.02   0.07   0.02
  13   6     0.05  -0.03  -0.03    -0.01  -0.04   0.06    -0.03   0.09  -0.00
  14   6     0.06  -0.03   0.02     0.04  -0.02  -0.02    -0.08   0.08  -0.01
  15   6    -0.05  -0.13   0.03     0.02   0.07  -0.04    -0.12   0.08  -0.01
  16   6     0.11  -0.01   0.15     0.08  -0.10  -0.05    -0.09   0.12   0.02
  17   6     0.11   0.02  -0.07     0.06  -0.00  -0.06    -0.07   0.05  -0.04
  18   6     0.04  -0.05  -0.04    -0.03  -0.05   0.10    -0.02   0.13  -0.01
  19   6     0.03  -0.05  -0.06    -0.05  -0.06   0.13     0.00   0.13   0.01
  20   6     0.02  -0.03  -0.07    -0.05  -0.06   0.13     0.01   0.10   0.04
  21   7     0.00  -0.03  -0.10    -0.06  -0.06   0.14     0.03   0.10   0.07
  22   6    -0.00  -0.03  -0.07    -0.02  -0.04   0.08     0.01   0.07   0.06
  23   6    -0.01  -0.00  -0.03     0.04  -0.05   0.07    -0.01   0.10   0.11
  24   6    -0.01   0.03   0.04     0.07  -0.02   0.02    -0.04   0.05   0.06
  25   6    -0.03   0.09   0.13     0.08  -0.01   0.03    -0.07   0.08   0.11
  26   8    -0.09   0.23   0.27     0.05  -0.02   0.08    -0.12   0.15   0.20
  27   6     0.01   0.05   0.08     0.05   0.03  -0.01    -0.04   0.05   0.06
  28   6     0.10  -0.04   0.01     0.20  -0.01  -0.14    -0.04   0.08   0.05
  29   6     0.14  -0.09  -0.04     0.12   0.09  -0.21     0.00   0.02  -0.02
  30   6     0.08  -0.04  -0.01    -0.11   0.23  -0.13     0.05  -0.08  -0.09
  31   7    -0.00   0.06   0.07    -0.26   0.27  -0.01     0.04  -0.11  -0.09
  32   6    -0.04   0.10   0.11    -0.16   0.15   0.05    -0.01  -0.04  -0.01
  33   6    -0.00   0.02   0.04     0.05   0.00  -0.02    -0.03  -0.06  -0.04
  34   6    -0.00  -0.01  -0.02    -0.01   0.01  -0.04     0.00  -0.09  -0.08
  35   7     0.00  -0.01  -0.01    -0.03   0.03  -0.11    -0.00  -0.13  -0.12
  36   6    -0.00  -0.01  -0.01    -0.03   0.03  -0.10    -0.02  -0.11  -0.09
  37   6    -0.01  -0.02  -0.01    -0.03   0.03  -0.10    -0.05  -0.15  -0.06
  38   6    -0.02  -0.01  -0.00    -0.02   0.03  -0.08    -0.08  -0.13  -0.03
  39   6    -0.02  -0.00  -0.01    -0.01   0.01  -0.05    -0.08  -0.09  -0.02
  40   6    -0.03   0.00  -0.00     0.02  -0.01   0.02    -0.12  -0.07   0.03
  41   6    -0.09   0.04   0.11     0.07   0.04   0.05    -0.13  -0.09   0.01
  42   6    -0.07   0.05  -0.11     0.03  -0.02   0.05    -0.10  -0.03   0.08
  43   6     0.07  -0.08   0.02    -0.01  -0.07   0.04    -0.19  -0.09   0.04
  44   6    -0.01   0.00  -0.01    -0.02   0.02  -0.06    -0.05  -0.06  -0.05
  45   6    -0.00  -0.00  -0.00    -0.03   0.03  -0.09    -0.02  -0.08  -0.08
  46   6     0.01  -0.01   0.00    -0.03   0.03  -0.09     0.01  -0.07  -0.09
  47   6     0.01  -0.01   0.01    -0.02   0.02  -0.06     0.03  -0.04  -0.07
  48   6     0.01  -0.01   0.01    -0.01   0.02  -0.04     0.08  -0.04  -0.07
  49   6     0.01   0.00  -0.00     0.01  -0.00   0.02     0.12  -0.01  -0.03
  50   6    -0.06  -0.10  -0.10    -0.04   0.01   0.06     0.11  -0.00  -0.02
  51   6     0.05  -0.04   0.13     0.03  -0.01   0.07     0.10   0.02   0.03
  52   6     0.03   0.15  -0.06     0.08  -0.03   0.01     0.19  -0.00  -0.05
  53   6     0.01  -0.01   0.00    -0.02   0.02  -0.07     0.09  -0.07  -0.10
  54   6     0.01  -0.01  -0.00    -0.03   0.03  -0.10     0.06  -0.10  -0.11
  55   6     0.01  -0.01  -0.00    -0.03   0.03  -0.10     0.02  -0.10  -0.11
  56   6     0.00  -0.04  -0.06    -0.04  -0.01   0.02     0.02  -0.03  -0.03
  57   1    -0.06   0.13   0.00     0.05   0.00   0.01     0.04  -0.01   0.01
  58   1     0.01   0.11  -0.07     0.04  -0.00   0.00     0.04  -0.00   0.02
  59   1    -0.02   0.08  -0.02     0.05   0.00  -0.02     0.04  -0.01   0.01
  60   1    -0.06  -0.01   0.09     0.02  -0.00  -0.04     0.02  -0.02  -0.01
  61   1    -0.02  -0.05   0.09    -0.00  -0.01  -0.02     0.01  -0.01  -0.00
  62   1    -0.08   0.02   0.09     0.03  -0.00  -0.01     0.02  -0.01  -0.00
  63   1     0.03  -0.10  -0.02    -0.03  -0.02  -0.03     0.02  -0.00   0.01
  64   1     0.02  -0.04  -0.11    -0.01  -0.01  -0.02     0.03  -0.00   0.02
  65   1     0.00  -0.03  -0.04     0.00  -0.01  -0.05     0.03  -0.01   0.00
  66   1    -0.02   0.00  -0.02    -0.01  -0.02   0.03     0.03   0.01   0.02
  67   1    -0.01  -0.01  -0.03    -0.02  -0.02   0.05     0.02   0.02   0.03
  68   1    -0.01   0.00   0.00    -0.00  -0.01   0.02     0.01   0.00   0.01
  69   1     0.01   0.00  -0.01    -0.00  -0.01   0.02    -0.01   0.01   0.00
  70   1    -0.01  -0.04   0.02     0.02   0.03  -0.03    -0.04   0.02  -0.00
  71   1    -0.03  -0.06   0.03     0.00   0.02  -0.00    -0.04   0.03   0.00
  72   1    -0.03  -0.04  -0.02    -0.00   0.04  -0.00    -0.04   0.02  -0.01
  73   1     0.03  -0.00   0.05     0.03  -0.02  -0.03    -0.04   0.03   0.00
  74   1     0.06   0.01   0.04     0.03  -0.05  -0.01    -0.01   0.03   0.01
  75   1     0.02  -0.01   0.07     0.02  -0.03  -0.01    -0.03   0.04   0.01
  76   1     0.04   0.01  -0.02     0.03   0.00  -0.04    -0.03   0.01  -0.02
  77   1     0.05   0.01  -0.02     0.02  -0.02  -0.02    -0.01   0.01  -0.01
  78   1     0.02   0.01  -0.04     0.01   0.01  -0.01    -0.02   0.01  -0.02
  79   1     0.01  -0.02  -0.01    -0.01  -0.02   0.03    -0.01   0.04  -0.01
  80   1     0.01  -0.02  -0.02    -0.02  -0.02   0.04     0.01   0.05   0.00
  81   1    -0.00  -0.00  -0.01     0.02  -0.02   0.03    -0.00   0.05   0.05
  82   1     0.04  -0.02  -0.00     0.11  -0.03  -0.05    -0.02   0.05   0.03
  83   1     0.06  -0.05  -0.03     0.07   0.02  -0.09     0.00   0.01  -0.01
  84   1     0.03  -0.02  -0.01    -0.05   0.09  -0.05     0.03  -0.04  -0.04
  85   1    -0.03   0.05   0.05    -0.08   0.05   0.05    -0.00  -0.02  -0.00
  86   1    -0.00   0.01   0.02     0.02   0.01  -0.02    -0.01  -0.03  -0.02
  87   1    -0.00  -0.01  -0.00    -0.01   0.01  -0.04    -0.01  -0.05  -0.02
  88   1    -0.01  -0.01   0.00    -0.01   0.01  -0.02    -0.03  -0.04  -0.00
  89   1    -0.02   0.01   0.06     0.02   0.01   0.01    -0.04  -0.04  -0.01
  90   1    -0.02   0.01   0.03     0.03   0.01   0.03    -0.05  -0.02   0.01
  91   1    -0.05   0.03   0.03     0.03   0.03   0.01    -0.02  -0.02   0.00
  92   1    -0.04   0.02  -0.03     0.02   0.01   0.01    -0.01  -0.00   0.02
  93   1    -0.00   0.01  -0.05    -0.00  -0.02   0.01    -0.03  -0.01   0.03
  94   1    -0.02   0.02  -0.04     0.01  -0.01   0.03    -0.04  -0.01   0.04
  95   1     0.04  -0.03  -0.02    -0.01  -0.03   0.01    -0.06  -0.02   0.01
  96   1     0.01  -0.02   0.01     0.00  -0.03   0.03    -0.06  -0.02   0.02
  97   1     0.03  -0.04   0.03    -0.01  -0.02   0.01    -0.06  -0.03  -0.00
  98   1    -0.00   0.00  -0.00    -0.00   0.00  -0.01    -0.01  -0.01  -0.01
  99   1     0.00  -0.00   0.00    -0.00   0.01  -0.01     0.01  -0.00  -0.02
 100   1    -0.02  -0.03  -0.06    -0.01   0.00   0.01     0.04  -0.01  -0.02
 101   1    -0.01  -0.02  -0.03    -0.00   0.00   0.03     0.04   0.01   0.00
 102   1    -0.03  -0.06  -0.02    -0.03   0.01   0.02     0.02  -0.00  -0.00
 103   1     0.00  -0.03   0.05    -0.01   0.00   0.02     0.01   0.01   0.01
 104   1     0.04   0.00   0.05     0.02  -0.01   0.01     0.03   0.01   0.01
 105   1     0.02  -0.01   0.04     0.01  -0.01   0.03     0.04   0.01   0.02
 106   1     0.01   0.04  -0.02     0.03  -0.01   0.02     0.06   0.00  -0.00
 107   1     0.03   0.07   0.00     0.04  -0.01  -0.01     0.06  -0.00  -0.02
 108   1    -0.00   0.06  -0.04     0.02  -0.00  -0.00     0.06  -0.00  -0.03
 109   1     0.00  -0.00  -0.00    -0.00   0.01  -0.02     0.04  -0.02  -0.03
 110   1     0.00  -0.00   0.00    -0.01   0.01  -0.03     0.02  -0.04  -0.04
 111   1     0.00  -0.02  -0.03    -0.02  -0.00   0.00     0.01  -0.01  -0.02
                     13                     14                     15
                        a                      a                      a 
 Frequencies --    59.2332                60.8789                66.7349
 Red. masses --    10.0233                10.1050                10.2228
 Frc consts  --     0.0000                 0.0000                 0.0000
 IR Inten    --     0.0338                 1.2945                 0.3348
 Raman Activ --     0.0000                 0.0000                 0.0000
 Depolar     --     0.0000                 0.0000                 0.0000
 Atom AN      X      Y      Z        X      Y      Z        X      Y      Z
   1   6    -0.09  -0.09   0.00     0.10   0.16  -0.00    -0.14   0.05  -0.02
   2   6     0.01  -0.04   0.00    -0.05   0.09  -0.01    -0.05   0.08  -0.01
   3   6    -0.02  -0.06   0.02     0.02   0.14  -0.06    -0.02   0.10   0.01
   4   6     0.08  -0.02   0.10    -0.19   0.09  -0.17    -0.04   0.11   0.05
   5   6     0.04   0.00  -0.07    -0.10   0.01   0.12    -0.01   0.05  -0.06
   6   6     0.08   0.03  -0.13    -0.15  -0.03   0.19     0.02   0.07  -0.14
   7   6     0.07   0.04  -0.13    -0.14  -0.06   0.18     0.02   0.05  -0.13
   8   6     0.02   0.02  -0.06    -0.07  -0.04   0.11    -0.00   0.01  -0.04
   9   6     0.01   0.01  -0.04    -0.05  -0.03   0.10    -0.03  -0.00   0.03
  10   6     0.01  -0.00  -0.05    -0.06   0.00   0.11    -0.03   0.02   0.03
  11   6    -0.02  -0.00   0.03    -0.02  -0.02   0.02    -0.07  -0.03   0.10
  12   6    -0.01   0.00   0.04    -0.04  -0.02  -0.01    -0.10  -0.04   0.10
  13   6    -0.02  -0.02   0.09    -0.02   0.01  -0.08    -0.12  -0.03   0.12
  14   6     0.04   0.01   0.01    -0.10  -0.01  -0.05    -0.09   0.00  -0.05
  15   6     0.06   0.12  -0.01    -0.14  -0.09  -0.04    -0.13   0.20  -0.10
  16   6     0.09  -0.10  -0.06    -0.14   0.08   0.01    -0.02  -0.13  -0.13
  17   6     0.06   0.03  -0.00    -0.10  -0.06  -0.06    -0.05  -0.02  -0.14
  18   6    -0.07  -0.05   0.16     0.02   0.05  -0.16    -0.16  -0.03   0.19
  19   6    -0.08  -0.05   0.15     0.04   0.06  -0.13    -0.13  -0.03   0.18
  20   6    -0.04  -0.02   0.06     0.01   0.00  -0.04    -0.07  -0.02   0.10
  21   7    -0.01   0.01  -0.00    -0.01  -0.02   0.03    -0.02   0.00   0.00
  22   6    -0.01   0.00   0.00    -0.00  -0.02   0.01    -0.01  -0.00  -0.02
  23   6    -0.02   0.02   0.03     0.00  -0.02   0.01    -0.01  -0.03  -0.07
  24   6    -0.03   0.02   0.03     0.00  -0.02   0.00    -0.02  -0.03  -0.06
  25   6    -0.04   0.02   0.03     0.01  -0.04  -0.02    -0.03   0.01  -0.01
  26   8    -0.05   0.01   0.03     0.02  -0.07  -0.04    -0.06   0.08   0.05
  27   6    -0.03   0.02   0.01    -0.00  -0.03  -0.01    -0.02  -0.01   0.01
  28   6    -0.07   0.06   0.03    -0.00  -0.02  -0.00     0.02  -0.10  -0.02
  29   6    -0.06   0.05   0.03    -0.02  -0.00   0.00     0.05  -0.14  -0.01
  30   6    -0.02  -0.01  -0.01    -0.02   0.00   0.00     0.03  -0.06   0.04
  31   7     0.01  -0.06  -0.05    -0.02  -0.01  -0.00    -0.02   0.04   0.09
  32   6     0.00  -0.04  -0.03    -0.00  -0.03  -0.01    -0.04   0.07   0.07
  33   6    -0.02   0.02   0.03     0.00  -0.02   0.01    -0.02  -0.04  -0.06
  34   6    -0.01  -0.00   0.00     0.01  -0.02   0.01    -0.00  -0.02  -0.03
  35   7    -0.02  -0.01  -0.01     0.02  -0.03   0.02     0.01  -0.03  -0.00
  36   6    -0.06   0.03  -0.12     0.01  -0.01  -0.02     0.04  -0.05   0.07
  37   6    -0.09   0.08  -0.26     0.00   0.02  -0.09     0.07  -0.05   0.10
  38   6    -0.09   0.08  -0.27     0.01   0.02  -0.10     0.09  -0.06   0.10
  39   6    -0.04   0.04  -0.15     0.03  -0.01  -0.05     0.08  -0.06   0.07
  40   6     0.03  -0.02   0.00     0.07  -0.04  -0.03     0.08  -0.05  -0.05
  41   6     0.14   0.13   0.11     0.11   0.01   0.00     0.02  -0.12  -0.09
  42   6     0.04  -0.05   0.05     0.07  -0.07  -0.05     0.04  -0.07  -0.12
  43   6    -0.01  -0.22   0.06     0.09  -0.08  -0.02     0.16   0.07  -0.08
  44   6    -0.03   0.01  -0.08     0.03  -0.04   0.01     0.06  -0.07   0.09
  45   6    -0.04   0.02  -0.07     0.02  -0.03   0.02     0.04  -0.06   0.09
  46   6    -0.00  -0.01   0.04     0.04  -0.04   0.08     0.03  -0.04   0.05
  47   6     0.01  -0.00   0.05     0.06  -0.01   0.09     0.05  -0.01   0.05
  48   6     0.05  -0.02   0.11     0.09  -0.01   0.10     0.06   0.02  -0.02
  49   6     0.02   0.04  -0.01     0.08   0.07  -0.02     0.09   0.06  -0.02
  50   6     0.12  -0.03  -0.15     0.20   0.02  -0.14     0.14   0.09  -0.01
  51   6    -0.01   0.07  -0.04     0.03   0.12  -0.06     0.05   0.12  -0.02
  52   6    -0.10   0.15  -0.02    -0.02   0.15  -0.02     0.12   0.05  -0.02
  53   6     0.09  -0.06   0.21     0.12  -0.05   0.16     0.05   0.01  -0.07
  54   6     0.08  -0.07   0.20     0.11  -0.07   0.15     0.04  -0.01  -0.07
  55   6     0.02  -0.03   0.09     0.05  -0.05   0.09     0.02  -0.03  -0.01
  56   6    -0.02  -0.01  -0.02     0.00  -0.02   0.00     0.00   0.01   0.01
  57   1    -0.04  -0.03  -0.02     0.06   0.05   0.03    -0.04   0.00  -0.02
  58   1    -0.02  -0.02  -0.00     0.02   0.04   0.01    -0.05   0.01  -0.01
  59   1    -0.04  -0.04   0.02     0.05   0.07  -0.04    -0.05   0.02   0.01
  60   1    -0.01  -0.03   0.02     0.02   0.06  -0.04    -0.01   0.04   0.01
  61   1     0.00  -0.01   0.01    -0.02   0.04  -0.02    -0.00   0.03   0.01
  62   1    -0.02  -0.02  -0.00     0.03   0.04   0.00    -0.00   0.03   0.00
  63   1     0.04   0.00   0.03    -0.09   0.01  -0.05     0.00   0.04   0.02
  64   1     0.03  -0.00   0.03    -0.07   0.02  -0.04    -0.01   0.03   0.02
  65   1     0.01  -0.02   0.05    -0.04   0.04  -0.09    -0.02   0.03   0.03
  66   1     0.03   0.01  -0.05    -0.06  -0.01   0.07     0.01   0.03  -0.06
  67   1     0.03   0.02  -0.04    -0.05  -0.03   0.06     0.01   0.01  -0.05
  68   1    -0.00  -0.01  -0.00    -0.01   0.01   0.02    -0.01   0.01   0.03
  69   1     0.00   0.01   0.00    -0.02  -0.02   0.01    -0.03  -0.02   0.02
  70   1     0.03   0.04  -0.03    -0.05  -0.03   0.00    -0.02   0.07  -0.07
  71   1     0.02   0.03  -0.00    -0.04  -0.02  -0.01    -0.05   0.06  -0.01
  72   1     0.01   0.06   0.01    -0.04  -0.04  -0.02    -0.06   0.09  -0.01
  73   1     0.05  -0.02  -0.04    -0.06   0.02   0.01     0.00  -0.03  -0.08
  74   1     0.02  -0.05  -0.01    -0.03   0.04   0.00     0.00  -0.08  -0.03
  75   1     0.02  -0.04  -0.02    -0.04   0.04   0.01    -0.01  -0.03  -0.02
  76   1     0.03   0.01  -0.01    -0.04  -0.02  -0.02    -0.01   0.00  -0.08
  77   1     0.01  -0.00   0.00    -0.02  -0.02  -0.02    -0.00  -0.04  -0.04
  78   1     0.01   0.02   0.00    -0.03  -0.03  -0.02    -0.03   0.02  -0.03
  79   1    -0.03  -0.02   0.06     0.01   0.02  -0.06    -0.05  -0.01   0.07
  80   1    -0.03  -0.02   0.06     0.02   0.03  -0.05    -0.04  -0.00   0.06
  81   1    -0.01   0.01   0.01     0.00  -0.00   0.01    -0.01  -0.01  -0.03
  82   1    -0.03   0.03   0.02     0.00  -0.01  -0.00     0.01  -0.04  -0.01
  83   1    -0.02   0.03   0.01    -0.01   0.00   0.00     0.03  -0.06  -0.01
  84   1    -0.00  -0.01  -0.01    -0.01   0.00   0.00     0.02  -0.03   0.01
  85   1     0.01  -0.02  -0.02    -0.00  -0.01  -0.00    -0.02   0.04   0.03
  86   1    -0.01   0.01   0.02     0.00  -0.01   0.00    -0.01  -0.02  -0.02
  87   1    -0.04   0.04  -0.10    -0.00   0.02  -0.03     0.02  -0.01   0.03
  88   1    -0.03   0.03  -0.10     0.00   0.01  -0.04     0.03  -0.02   0.03
  89   1     0.04   0.05   0.03     0.04   0.01   0.00     0.01  -0.03  -0.01
  90   1     0.06   0.02   0.07     0.04  -0.00   0.00     0.00  -0.03  -0.06
  91   1     0.05   0.08   0.02     0.02   0.01  -0.00    -0.02  -0.06  -0.02
  92   1     0.02   0.01   0.01     0.01  -0.02  -0.01    -0.00  -0.04  -0.03
  93   1    -0.00  -0.03   0.01     0.02  -0.02  -0.02     0.03  -0.01  -0.03
  94   1     0.03  -0.02   0.04     0.03  -0.02  -0.02     0.01  -0.02  -0.06
  95   1    -0.03  -0.09  -0.01     0.02  -0.03  -0.02     0.06   0.04  -0.02
  96   1     0.01  -0.08   0.06     0.03  -0.03   0.00     0.04   0.03  -0.05
  97   1    -0.01  -0.06   0.01     0.03  -0.02  -0.00     0.05   0.02  -0.01
  98   1    -0.00  -0.01  -0.00     0.01  -0.02   0.01     0.02  -0.03   0.02
  99   1    -0.01   0.01  -0.00     0.01   0.01   0.02     0.01   0.00   0.03
 100   1     0.04  -0.02  -0.04     0.07  -0.00  -0.03     0.04   0.02   0.00
 101   1     0.03   0.01  -0.08     0.05   0.02  -0.07     0.04   0.03  -0.01
 102   1     0.06  -0.03  -0.04     0.08  -0.01  -0.04     0.04   0.03  -0.01
 103   1     0.01   0.01  -0.01     0.02   0.03  -0.02     0.02   0.03  -0.01
 104   1    -0.02   0.03   0.00    -0.01   0.04  -0.00     0.00   0.03  -0.00
 105   1    -0.01   0.03  -0.03     0.01   0.05  -0.04     0.02   0.05  -0.01
 106   1    -0.04   0.05  -0.04    -0.01   0.06  -0.04     0.04   0.03  -0.01
 107   1    -0.05   0.06   0.02    -0.03   0.05   0.02     0.02   0.01  -0.00
 108   1    -0.03   0.04  -0.00     0.00   0.03  -0.00     0.05  -0.00  -0.01
 109   1     0.04  -0.02   0.08     0.04  -0.02   0.06     0.02   0.01  -0.03
 110   1     0.03  -0.03   0.08     0.04  -0.03   0.05     0.01  -0.01  -0.04
 111   1    -0.01  -0.01  -0.01     0.00  -0.01  -0.00     0.00   0.01   0.02
                     16                     17                     18
                        a                      a                      a 
 Frequencies --    74.2288                78.2775                80.5920
 Red. masses --    10.5070                10.3581                10.5964
 Frc consts  --     0.0000                 0.0000                 0.0000
 IR Inten    --     0.0810                 0.3559                 0.8343
 Raman Activ --     0.0000                 0.0000                 0.0000
 Depolar     --     0.0000                 0.0000                 0.0000
 Atom AN      X      Y      Z        X      Y      Z        X      Y      Z
   1   6    -0.05   0.09   0.01    -0.10   0.09   0.00    -0.17   0.14  -0.03
   2   6     0.01   0.08   0.03     0.03   0.07   0.03    -0.06   0.12  -0.00
   3   6     0.03   0.10   0.07     0.01   0.07   0.14     0.00   0.18   0.08
   4   6     0.02   0.10   0.05     0.09   0.07   0.09    -0.09   0.15   0.01
   5   6     0.04   0.05  -0.01     0.08   0.06  -0.06    -0.01   0.02  -0.05
   6   6     0.04   0.05  -0.03     0.04   0.03  -0.01    -0.03  -0.00  -0.07
   7   6     0.04   0.03  -0.02     0.03   0.01   0.03    -0.02  -0.06  -0.07
   8   6     0.05   0.02  -0.00     0.06   0.02  -0.00     0.03  -0.08  -0.04
   9   6     0.05   0.02  -0.01     0.12   0.05  -0.12     0.05  -0.06  -0.04
  10   6     0.05   0.05  -0.01     0.14   0.08  -0.14     0.05   0.00  -0.04
  11   6     0.04   0.01   0.01     0.12   0.04  -0.11     0.04  -0.08  -0.02
  12   6     0.00   0.00  -0.01     0.10   0.04  -0.16     0.01  -0.09  -0.03
  13   6    -0.04   0.02   0.00     0.02   0.04  -0.07    -0.03  -0.09  -0.00
  14   6    -0.09   0.01  -0.04    -0.08   0.01  -0.03    -0.07  -0.10  -0.05
  15   6    -0.12   0.06  -0.05    -0.06  -0.04  -0.02    -0.09  -0.04  -0.07
  16   6    -0.12   0.03  -0.06    -0.16   0.10  -0.04    -0.09  -0.10  -0.08
  17   6    -0.10  -0.06  -0.06    -0.12  -0.08   0.02    -0.07  -0.16  -0.08
  18   6    -0.04   0.04   0.03    -0.01   0.04   0.00    -0.04  -0.08   0.04
  19   6    -0.01   0.05   0.05     0.00   0.04   0.05    -0.02  -0.08   0.04
  20   6     0.03   0.02   0.03     0.06   0.02   0.01     0.02  -0.08   0.01
  21   7     0.04   0.02   0.03     0.02  -0.01   0.09     0.03  -0.09  -0.01
  22   6     0.04   0.00  -0.00    -0.00  -0.03   0.10     0.04  -0.04   0.04
  23   6     0.06  -0.03  -0.05    -0.01  -0.08   0.02     0.06   0.02   0.16
  24   6     0.07  -0.02  -0.06    -0.01  -0.09   0.02     0.07   0.04   0.17
  25   6     0.11  -0.03  -0.07    -0.01  -0.11  -0.01     0.07   0.01   0.13
  26   8     0.17  -0.05  -0.13     0.00  -0.16  -0.04     0.07  -0.03   0.14
  27   6     0.10  -0.01  -0.03    -0.02  -0.09   0.02     0.07   0.03   0.05
  28   6     0.16  -0.09  -0.08     0.05  -0.19  -0.04    -0.00   0.24   0.10
  29   6     0.14  -0.06  -0.06     0.05  -0.20  -0.03    -0.07   0.33   0.05
  30   6     0.06   0.06   0.02    -0.02  -0.09   0.04    -0.05   0.16  -0.08
  31   7    -0.00   0.15   0.08    -0.11   0.02   0.12     0.05  -0.10  -0.18
  32   6     0.03   0.10   0.05    -0.10   0.02   0.10     0.10  -0.16  -0.10
  33   6     0.06  -0.00  -0.05    -0.00  -0.07   0.05     0.06   0.03   0.13
  34   6     0.04   0.00  -0.04    -0.00  -0.03   0.10     0.04  -0.01   0.06
  35   7     0.04  -0.01  -0.04    -0.02  -0.02   0.07     0.04  -0.01   0.02
  36   6     0.04  -0.02  -0.03    -0.04   0.01  -0.01     0.03  -0.00   0.01
  37   6    -0.03  -0.04  -0.07    -0.01   0.02   0.01     0.03  -0.02   0.05
  38   6    -0.08  -0.02  -0.05    -0.00   0.02  -0.03     0.02  -0.02   0.04
  39   6    -0.06   0.01   0.02    -0.02   0.02  -0.09     0.01   0.01   0.00
  40   6    -0.14   0.05   0.06     0.04  -0.03  -0.02    -0.01   0.01   0.01
  41   6    -0.21   0.03   0.09     0.14   0.05  -0.01    -0.01   0.00   0.01
  42   6    -0.14   0.17   0.07     0.07  -0.09   0.05     0.00   0.03   0.04
  43   6    -0.19   0.01   0.07     0.00  -0.09  -0.00    -0.03   0.02   0.02
  44   6     0.02   0.01   0.07    -0.08   0.04  -0.17    -0.00   0.03  -0.06
  45   6     0.06  -0.02   0.04    -0.08   0.04  -0.13     0.01   0.02  -0.05
  46   6     0.08  -0.04   0.07    -0.08   0.04  -0.12     0.00   0.02  -0.07
  47   6     0.07  -0.10   0.08    -0.09   0.07  -0.15    -0.01   0.02  -0.09
  48   6     0.02  -0.10   0.08    -0.04   0.05  -0.06    -0.00   0.01  -0.06
  49   6    -0.06  -0.15  -0.02     0.01   0.05   0.02     0.00  -0.02  -0.01
  50   6    -0.03  -0.18  -0.08    -0.04   0.06   0.05    -0.05  -0.01   0.02
  51   6    -0.03  -0.20  -0.12     0.01   0.06   0.11     0.03  -0.04   0.02
  52   6    -0.21  -0.11   0.01     0.11   0.05  -0.00     0.05  -0.04  -0.02
  53   6     0.01  -0.08   0.10    -0.01   0.02   0.00     0.00   0.01  -0.03
  54   6     0.03  -0.04   0.08    -0.01  -0.01   0.03     0.01   0.01  -0.01
  55   6     0.06  -0.03   0.04    -0.04   0.00  -0.00     0.02   0.01  -0.02
  56   6     0.04   0.01  -0.02    -0.00  -0.01   0.15     0.03  -0.06   0.01
  57   1    -0.02   0.02  -0.00    -0.06   0.03  -0.02    -0.05   0.04  -0.01
  58   1    -0.02   0.02  -0.00    -0.01   0.04  -0.02    -0.06   0.03  -0.03
  59   1    -0.02   0.03   0.01    -0.04   0.01   0.03    -0.06   0.06   0.01
  60   1     0.00   0.03   0.03    -0.01   0.02   0.07    -0.01   0.07   0.03
  61   1     0.02   0.03   0.02     0.04   0.02   0.05     0.02   0.05   0.03
  62   1     0.01   0.03   0.02    -0.02   0.02   0.02     0.01   0.05   0.02
  63   1     0.02   0.03   0.02     0.07   0.01   0.04    -0.00   0.04   0.01
  64   1     0.00   0.02   0.01     0.02   0.01  -0.00    -0.04   0.03  -0.02
  65   1    -0.00   0.03   0.03     0.01   0.03   0.06    -0.04   0.07   0.02
  66   1     0.01   0.02  -0.01     0.00   0.01   0.01    -0.02   0.00  -0.03
  67   1     0.01   0.01  -0.01    -0.00  -0.01   0.03    -0.02  -0.03  -0.02
  68   1     0.02   0.02   0.00     0.05   0.03  -0.06     0.02   0.01  -0.00
  69   1     0.00  -0.01  -0.01     0.04   0.01  -0.07     0.01  -0.03  -0.02
  70   1    -0.05   0.02  -0.03    -0.05  -0.02   0.00    -0.04  -0.01  -0.03
  71   1    -0.03   0.03  -0.01    -0.01   0.02  -0.02    -0.03   0.00  -0.02
  72   1    -0.03   0.01  -0.01     0.01  -0.04  -0.00    -0.02  -0.01  -0.02
  73   1    -0.04   0.01  -0.03    -0.06   0.02   0.02    -0.03  -0.03  -0.04
  74   1    -0.03  -0.00  -0.02    -0.06   0.05  -0.02    -0.02  -0.04  -0.02
  75   1    -0.03   0.02  -0.02    -0.04   0.03  -0.03    -0.02  -0.02  -0.02
  76   1    -0.04  -0.02  -0.03    -0.06  -0.03   0.03    -0.03  -0.05  -0.03
  77   1    -0.02  -0.02  -0.02    -0.04  -0.00   0.00    -0.02  -0.05  -0.02
  78   1    -0.02  -0.02  -0.02    -0.02  -0.05   0.00    -0.02  -0.05  -0.02
  79   1    -0.02   0.02   0.01    -0.01   0.01   0.01    -0.02  -0.02   0.02
  80   1    -0.00   0.02   0.02    -0.01   0.02   0.04    -0.01  -0.02   0.02
  81   1     0.02  -0.02  -0.02    -0.00  -0.04  -0.01     0.02   0.02   0.06
  82   1     0.07  -0.05  -0.03     0.03  -0.08  -0.02    -0.00   0.10   0.05
  83   1     0.06  -0.04  -0.03     0.03  -0.08  -0.02    -0.04   0.15   0.03
  84   1     0.01   0.03   0.01    -0.01  -0.03   0.01    -0.03   0.06  -0.03
  85   1    -0.01   0.05   0.03    -0.05   0.03   0.05     0.05  -0.10  -0.05
  86   1     0.02   0.00  -0.02    -0.00  -0.02   0.01     0.02   0.02   0.04
  87   1    -0.02  -0.02  -0.04     0.00   0.01   0.02     0.01  -0.01   0.02
  88   1    -0.03  -0.01  -0.02     0.01   0.01   0.00     0.01  -0.01   0.02
  89   1    -0.06  -0.01   0.03     0.03   0.01  -0.03    -0.01  -0.01  -0.01
  90   1    -0.07   0.02   0.03     0.05   0.01   0.03    -0.01   0.00   0.01
  91   1    -0.06   0.02   0.03     0.07   0.03  -0.01     0.01   0.00   0.00
  92   1    -0.03   0.05   0.02     0.03  -0.01   0.01     0.01   0.02   0.01
  93   1    -0.02   0.06   0.02    -0.01  -0.05   0.01    -0.00   0.00   0.01
  94   1    -0.06   0.06   0.02     0.04  -0.04   0.04    -0.00   0.01   0.02
  95   1    -0.04   0.01   0.02    -0.03  -0.05  -0.00    -0.01   0.00   0.01
  96   1    -0.08   0.01   0.03     0.03  -0.05   0.02    -0.01   0.00   0.01
  97   1    -0.06  -0.03   0.02    -0.00   0.00  -0.01    -0.01   0.01   0.00
  98   1     0.01   0.01   0.04    -0.03   0.01  -0.07    -0.00   0.02  -0.03
  99   1     0.03  -0.04   0.02    -0.03   0.03  -0.06    -0.00   0.01  -0.04
 100   1    -0.02  -0.04   0.00    -0.01   0.01  -0.01    -0.02  -0.00  -0.00
 101   1    -0.03  -0.07  -0.05     0.01   0.03   0.04    -0.01  -0.01   0.02
 102   1     0.03  -0.06  -0.03    -0.05   0.02   0.02    -0.03  -0.00   0.01
 103   1     0.02  -0.06  -0.04    -0.03   0.03   0.04    -0.00  -0.01   0.01
 104   1    -0.02  -0.05  -0.03     0.02   0.01   0.02     0.02  -0.02  -0.00
 105   1    -0.03  -0.07  -0.06     0.02   0.02   0.06     0.01  -0.02   0.02
 106   1    -0.08  -0.03  -0.03     0.04   0.00   0.02     0.02  -0.03   0.01
 107   1    -0.08  -0.03   0.02     0.06   0.01  -0.01     0.03  -0.01  -0.01
 108   1    -0.06  -0.03   0.02     0.02   0.02  -0.02     0.01  -0.00  -0.01
 109   1    -0.00  -0.02   0.03     0.00   0.00   0.01    -0.00   0.00  -0.01
 110   1     0.00  -0.00   0.02     0.01  -0.01   0.03     0.00   0.00   0.01
 111   1     0.01   0.01  -0.00    -0.00   0.01   0.06     0.01  -0.03  -0.02
                     19                     20                     21
                        a                      a                      a 
 Frequencies --    89.6048               106.7741               112.4061
 Red. masses --    10.0593                10.4062                10.4980
 Frc consts  --     0.0000                 0.0000                 0.0000
 IR Inten    --     0.7193                 1.1628                 1.1252
 Raman Activ --     0.0000                 0.0000                 0.0000
 Depolar     --     0.0000                 0.0000                 0.0000
 Atom AN      X      Y      Z        X      Y      Z        X      Y      Z
   1   6     0.06   0.02   0.02    -0.02  -0.05  -0.02     0.12   0.04   0.06
   2   6     0.01   0.03   0.01    -0.04  -0.04  -0.03    -0.02  -0.02   0.05
   3   6     0.06   0.07  -0.06    -0.08  -0.07  -0.04    -0.00  -0.01   0.02
   4   6    -0.06   0.06  -0.02    -0.02  -0.06  -0.03    -0.11  -0.04  -0.08
   5   6    -0.01  -0.01   0.07    -0.05  -0.00  -0.03    -0.05  -0.04   0.11
   6   6     0.05   0.03  -0.08    -0.07  -0.01   0.04    -0.14  -0.10   0.30
   7   6     0.08   0.03  -0.12    -0.07   0.01   0.04    -0.09  -0.07   0.19
   8   6     0.03  -0.01  -0.01    -0.05   0.03  -0.02     0.04   0.00  -0.05
   9   6    -0.06  -0.06   0.18    -0.04   0.04  -0.08     0.09   0.03  -0.16
  10   6    -0.08  -0.06   0.23    -0.03   0.02  -0.09     0.07   0.02  -0.12
  11   6    -0.06  -0.06   0.18    -0.04   0.04  -0.07     0.09   0.04  -0.17
  12   6    -0.09  -0.08   0.22    -0.02   0.05  -0.06     0.07   0.03  -0.14
  13   6    -0.02  -0.03   0.06    -0.04   0.02   0.01    -0.04  -0.04   0.08
  14   6    -0.01  -0.02  -0.02     0.01   0.04   0.03    -0.03  -0.03   0.04
  15   6    -0.07   0.05  -0.03     0.04   0.04   0.03    -0.02   0.10   0.01
  16   6     0.03  -0.06  -0.01     0.04  -0.01   0.02     0.01  -0.12  -0.04
  17   6     0.03  -0.03  -0.10     0.02   0.09   0.05    -0.02  -0.03   0.02
  18   6     0.05   0.02  -0.08    -0.07  -0.01   0.06    -0.14  -0.08   0.27
  19   6     0.08   0.03  -0.11    -0.08  -0.01   0.04    -0.09  -0.06   0.18
  20   6     0.04  -0.01  -0.01    -0.06   0.02  -0.02     0.03   0.01  -0.05
  21   7     0.09   0.01  -0.11    -0.06   0.02  -0.00     0.06   0.02  -0.09
  22   6     0.07   0.00  -0.09    -0.04   0.04   0.00     0.05   0.02  -0.07
  23   6     0.02  -0.02  -0.14    -0.02   0.04   0.01     0.02   0.01  -0.11
  24   6    -0.02  -0.02  -0.06    -0.00   0.05   0.01    -0.01  -0.00  -0.09
  25   6    -0.08   0.00  -0.04     0.08   0.03  -0.03    -0.10   0.03  -0.04
  26   8    -0.12   0.02   0.01     0.15  -0.00  -0.13    -0.19   0.10   0.07
  27   6    -0.08  -0.00  -0.02     0.08   0.03  -0.01    -0.10   0.02  -0.05
  28   6    -0.09  -0.06  -0.01     0.10   0.04  -0.02    -0.15  -0.01  -0.00
  29   6    -0.05  -0.12   0.03     0.08   0.06  -0.03    -0.11  -0.06   0.04
  30   6     0.00  -0.10   0.05     0.05   0.09  -0.02    -0.03  -0.09   0.03
  31   7     0.00  -0.02   0.05     0.05   0.07  -0.01     0.01  -0.05  -0.01
  32   6    -0.04   0.03   0.01     0.07   0.04  -0.01    -0.03   0.01  -0.04
  33   6     0.01  -0.00   0.04    -0.02   0.06  -0.00     0.01  -0.02  -0.05
  34   6     0.06  -0.00   0.06    -0.03   0.04  -0.03     0.05   0.01  -0.01
  35   7     0.08   0.00   0.10    -0.03  -0.01  -0.05     0.08   0.01   0.03
  36   6     0.04   0.03   0.00    -0.01  -0.02  -0.04     0.07   0.02   0.01
  37   6     0.06  -0.01   0.10     0.07  -0.11   0.22     0.06   0.02  -0.00
  38   6     0.04   0.01   0.06     0.10  -0.13   0.29     0.04   0.03  -0.01
  39   6    -0.01   0.06  -0.06     0.02  -0.07   0.08     0.04   0.05  -0.02
  40   6    -0.01   0.05   0.02     0.00  -0.05   0.03     0.01   0.07   0.01
  41   6     0.04   0.09   0.03    -0.06  -0.14  -0.04    -0.00   0.07   0.03
  42   6     0.03   0.07   0.11    -0.00  -0.05   0.03     0.02   0.11   0.04
  43   6    -0.09  -0.00   0.04     0.02   0.06   0.00    -0.03   0.04   0.02
  44   6    -0.05   0.11  -0.21    -0.06   0.01  -0.17     0.04   0.05  -0.03
  45   6    -0.02   0.08  -0.17    -0.07   0.02  -0.18     0.06   0.03  -0.02
  46   6    -0.01   0.07  -0.16    -0.07   0.02  -0.18     0.07   0.03  -0.02
  47   6    -0.04   0.06  -0.21    -0.07   0.02  -0.17     0.05   0.01  -0.05
  48   6    -0.01   0.01  -0.05     0.03  -0.05   0.07     0.04   0.01  -0.04
  49   6    -0.02  -0.05  -0.00     0.04  -0.01   0.03     0.02  -0.05  -0.03
  50   6    -0.10  -0.06   0.02     0.11  -0.06  -0.07    -0.04  -0.05  -0.00
  51   6     0.03  -0.11   0.04     0.02   0.01   0.04     0.05  -0.10  -0.04
  52   6     0.00  -0.04  -0.01    -0.04   0.07   0.02     0.00  -0.07  -0.02
  53   6     0.03  -0.02   0.10     0.11  -0.12   0.29     0.04   0.02  -0.02
  54   6     0.05  -0.01   0.13     0.08  -0.11   0.21     0.05   0.03   0.00
  55   6     0.04   0.03   0.02    -0.02  -0.02  -0.04     0.07   0.03   0.01
  56   6     0.09   0.01  -0.00    -0.04   0.04  -0.02     0.07   0.03  -0.01
  57   1     0.06  -0.01   0.02    -0.02  -0.01  -0.01     0.05   0.02   0.04
  58   1    -0.01  -0.02   0.01     0.01  -0.00  -0.00     0.04   0.01   0.03
  59   1     0.02   0.04  -0.01    -0.00  -0.03  -0.00     0.05   0.01  -0.01
  60   1     0.03   0.03  -0.05    -0.02  -0.03  -0.01    -0.00  -0.00   0.01
  61   1    -0.01   0.01  -0.02    -0.02  -0.02  -0.01     0.00   0.00   0.01
  62   1     0.05   0.02   0.00    -0.03  -0.02  -0.02     0.00  -0.01   0.00
  63   1    -0.05   0.03  -0.02    -0.00  -0.02  -0.01    -0.06  -0.03  -0.02
  64   1    -0.01   0.02   0.03    -0.00  -0.02  -0.01    -0.05  -0.02  -0.02
  65   1    -0.00   0.01  -0.03    -0.01  -0.02  -0.01    -0.02   0.01  -0.05
  66   1     0.03   0.02  -0.05    -0.02  -0.01   0.03    -0.07  -0.05   0.15
  67   1     0.04   0.02  -0.07    -0.03  -0.00   0.03    -0.04  -0.03   0.09
  68   1    -0.04  -0.03   0.11    -0.00   0.01  -0.04     0.04   0.02  -0.07
  69   1    -0.05  -0.04   0.10     0.00   0.03  -0.03     0.04   0.02  -0.08
  70   1     0.01   0.02  -0.03     0.02   0.01   0.01    -0.01   0.03  -0.03
  71   1    -0.03  -0.01   0.01     0.01   0.01   0.01    -0.01   0.05   0.01
  72   1    -0.05   0.04  -0.02     0.01   0.02   0.01    -0.01   0.04   0.02
  73   1    -0.00  -0.02  -0.04     0.03   0.00   0.01     0.03  -0.03  -0.03
  74   1     0.04  -0.05   0.01     0.00   0.00   0.00    -0.01  -0.06  -0.01
  75   1    -0.00   0.01   0.03     0.01  -0.02  -0.00     0.00  -0.05  -0.01
  76   1     0.02  -0.00  -0.06     0.01   0.03   0.02    -0.01  -0.01   0.01
  77   1     0.02  -0.04  -0.02     0.00   0.04   0.01    -0.00  -0.00   0.00
  78   1    -0.01   0.02  -0.02     0.00   0.03   0.01    -0.00  -0.01  -0.00
  79   1     0.03   0.01  -0.05    -0.03  -0.01   0.03    -0.07  -0.04   0.14
  80   1     0.05   0.02  -0.07    -0.03  -0.01   0.02    -0.05  -0.03   0.09
  81   1    -0.00  -0.01  -0.06    -0.00   0.01   0.01     0.00   0.01  -0.04
  82   1    -0.04  -0.02  -0.01     0.04   0.01  -0.01    -0.06  -0.00  -0.00
  83   1    -0.02  -0.05   0.01     0.03   0.02  -0.01    -0.04  -0.02   0.02
  84   1     0.01  -0.04   0.02     0.01   0.03  -0.00     0.00  -0.04   0.02
  85   1    -0.01   0.03   0.00     0.02   0.01  -0.00     0.00   0.01  -0.02
  86   1    -0.00   0.00   0.03    -0.00   0.02   0.00    -0.00  -0.01  -0.01
  87   1     0.03  -0.02   0.06     0.04  -0.05   0.11     0.02   0.00   0.00
  88   1     0.02  -0.01   0.04     0.05  -0.06   0.15     0.01   0.01  -0.01
  89   1    -0.00   0.00  -0.02    -0.02  -0.06  -0.02    -0.01   0.01   0.00
  90   1    -0.00   0.03   0.05    -0.04  -0.03  -0.02    -0.01   0.02   0.02
  91   1     0.05   0.05  -0.00    -0.01  -0.06  -0.01     0.01   0.03   0.00
  92   1     0.03   0.05   0.02    -0.00  -0.00   0.01     0.01   0.04   0.01
  93   1    -0.01   0.00   0.02    -0.00  -0.02   0.00     0.01   0.03   0.01
  94   1     0.01   0.01   0.07     0.00  -0.02   0.02    -0.00   0.04   0.02
  95   1    -0.06  -0.02   0.02     0.00   0.03   0.02    -0.01   0.01   0.00
  96   1    -0.00  -0.02   0.03     0.01   0.02  -0.02    -0.01   0.01   0.01
  97   1    -0.03   0.02  -0.01     0.01   0.04   0.00    -0.01   0.01   0.00
  98   1    -0.03   0.05  -0.10    -0.03   0.02  -0.09     0.01   0.02  -0.01
  99   1    -0.02   0.02  -0.10    -0.04   0.02  -0.09     0.02   0.00  -0.02
 100   1    -0.03  -0.02  -0.02     0.05  -0.04  -0.03    -0.02  -0.01  -0.00
 101   1    -0.02  -0.01   0.03     0.04   0.01  -0.04    -0.01  -0.02   0.00
 102   1    -0.05  -0.02   0.01     0.03  -0.04  -0.01    -0.01  -0.01  -0.00
 103   1    -0.01  -0.02   0.02    -0.00   0.01   0.01     0.02  -0.03  -0.01
 104   1     0.04  -0.04  -0.01     0.01  -0.00   0.00     0.03  -0.03  -0.02
 105   1     0.01  -0.05   0.04     0.01   0.01   0.02     0.01  -0.04  -0.01
 106   1    -0.01  -0.04   0.02    -0.02   0.02  -0.01    -0.00  -0.04   0.00
 107   1     0.04  -0.01  -0.01    -0.01   0.03   0.02     0.02  -0.02  -0.01
 108   1    -0.02   0.02  -0.01    -0.02   0.03   0.01    -0.01  -0.01  -0.00
 109   1     0.01  -0.01   0.06     0.06  -0.05   0.15     0.01   0.01  -0.00
 110   1     0.02  -0.01   0.07     0.04  -0.05   0.10     0.01   0.01   0.01
 111   1     0.04   0.01   0.01    -0.01   0.01  -0.00     0.03   0.02   0.01
                     22                     23                     24
                        a                      a                      a 
 Frequencies --   132.3212               144.8305               153.3303
 Red. masses --    11.9778                10.0246                 9.5695
 Frc consts  --     0.0000                 0.0000                 0.0000
 IR Inten    --     5.4137                 7.6210                 1.7471
 Raman Activ --     0.0000                 0.0000                 0.0000
 Depolar     --     0.0000                 0.0000                 0.0000
 Atom AN      X      Y      Z        X      Y      Z        X      Y      Z
   1   6    -0.02   0.00  -0.01     0.09  -0.00   0.05     0.18   0.07   0.12
   2   6    -0.04  -0.01  -0.01    -0.03  -0.02   0.04     0.07   0.02   0.11
   3   6    -0.03   0.00  -0.01    -0.03  -0.03  -0.02     0.13   0.06   0.10
   4   6    -0.07  -0.01  -0.04    -0.07  -0.04  -0.04    -0.01   0.03   0.03
   5   6    -0.04  -0.02   0.01    -0.05  -0.00   0.07     0.06  -0.03   0.12
   6   6    -0.04  -0.02   0.01    -0.04   0.01   0.05     0.07  -0.03   0.06
   7   6    -0.02  -0.00  -0.03     0.01   0.04  -0.05     0.12  -0.01  -0.04
   8   6     0.01   0.00  -0.05     0.04   0.06  -0.12     0.11   0.01  -0.08
   9   6    -0.01  -0.01  -0.04     0.02   0.05  -0.07     0.11   0.01  -0.04
  10   6    -0.03  -0.02  -0.01    -0.02   0.02   0.01     0.07  -0.01   0.06
  11   6    -0.02   0.00  -0.04     0.02   0.05  -0.07     0.12  -0.01  -0.04
  12   6    -0.04  -0.01   0.00    -0.02   0.03   0.02     0.09  -0.04   0.01
  13   6    -0.04  -0.02   0.03    -0.06   0.02   0.08     0.05  -0.06   0.07
  14   6    -0.00  -0.01   0.02    -0.03   0.03   0.05    -0.01  -0.07   0.02
  15   6     0.01   0.03   0.01    -0.04   0.14   0.03    -0.06   0.03  -0.01
  16   6     0.04  -0.06   0.00     0.02  -0.06   0.01    -0.02  -0.10  -0.03
  17   6     0.01   0.03   0.01    -0.01   0.05   0.02    -0.01  -0.18  -0.04
  18   6    -0.03  -0.02   0.02    -0.04   0.01   0.05     0.06  -0.04   0.07
  19   6    -0.02  -0.01  -0.03     0.01   0.04  -0.06     0.10  -0.02  -0.01
  20   6    -0.01   0.01  -0.06     0.05   0.05  -0.12     0.13   0.00  -0.06
  21   7     0.02   0.02  -0.08     0.08   0.06  -0.17     0.10   0.01  -0.12
  22   6     0.01   0.05   0.02     0.02   0.02  -0.07     0.03  -0.02  -0.09
  23   6    -0.00   0.15   0.17    -0.02   0.01  -0.09     0.00   0.02  -0.04
  24   6    -0.02   0.12   0.19    -0.04   0.02   0.01    -0.00   0.02  -0.03
  25   6    -0.02   0.05   0.04     0.08  -0.00  -0.02    -0.00   0.04  -0.01
  26   8     0.16  -0.39  -0.34     0.15   0.08  -0.06     0.04   0.01  -0.08
  27   6    -0.15   0.19   0.17     0.15  -0.08  -0.04    -0.03   0.08   0.03
  28   6    -0.08   0.15   0.12     0.18  -0.05  -0.06    -0.02   0.08   0.03
  29   6     0.10  -0.08  -0.07     0.08   0.08  -0.01     0.02   0.02  -0.02
  30   6     0.16  -0.21  -0.16    -0.01   0.17   0.05     0.06  -0.03  -0.05
  31   7    -0.02  -0.01   0.01     0.04   0.06   0.01     0.03   0.02  -0.02
  32   6    -0.17   0.21   0.17     0.14  -0.07  -0.04    -0.02   0.08   0.02
  33   6    -0.00   0.10   0.17    -0.03   0.03   0.12    -0.01  -0.00  -0.06
  34   6     0.02   0.02   0.07     0.01   0.00   0.11    -0.03  -0.03  -0.10
  35   7     0.04  -0.02   0.04     0.04  -0.08   0.21    -0.09   0.03  -0.11
  36   6     0.04  -0.02   0.02     0.01  -0.08   0.14    -0.12   0.03  -0.07
  37   6     0.01  -0.01  -0.03    -0.03  -0.06   0.06    -0.11   0.01  -0.02
  38   6    -0.00  -0.00  -0.05    -0.08  -0.02  -0.08    -0.07  -0.02   0.07
  39   6     0.01  -0.01  -0.02    -0.08  -0.04  -0.09    -0.07  -0.03   0.08
  40   6    -0.01   0.00  -0.01    -0.06  -0.06  -0.06    -0.01  -0.07   0.03
  41   6    -0.02   0.01   0.01     0.02   0.02  -0.02    -0.00  -0.11  -0.03
  42   6    -0.00   0.03   0.01    -0.05  -0.10  -0.03    -0.03  -0.18  -0.03
  43   6    -0.03  -0.02   0.00    -0.10  -0.19  -0.03     0.08   0.02  -0.01
  44   6     0.03  -0.02   0.02    -0.04  -0.06   0.00    -0.09  -0.01   0.02
  45   6     0.04  -0.02   0.03    -0.01  -0.08   0.11    -0.12   0.02  -0.04
  46   6     0.03  -0.02   0.02    -0.02  -0.08   0.11    -0.10   0.03  -0.04
  47   6     0.02  -0.02  -0.01    -0.06  -0.03   0.00    -0.08   0.03   0.03
  48   6     0.01  -0.00  -0.06    -0.09  -0.00  -0.09    -0.08   0.01   0.10
  49   6     0.02  -0.00  -0.04    -0.04   0.05  -0.05    -0.08   0.05   0.09
  50   6    -0.01   0.01   0.00    -0.08   0.10   0.05    -0.01   0.04   0.04
  51   6     0.03  -0.00  -0.01    -0.07   0.10   0.04    -0.11   0.10   0.09
  52   6     0.08  -0.04  -0.04     0.13  -0.01  -0.06    -0.15   0.12   0.09
  53   6    -0.00   0.00  -0.07    -0.08  -0.02  -0.08    -0.07  -0.00   0.07
  54   6     0.02  -0.01  -0.02    -0.03  -0.06   0.06    -0.10   0.02  -0.03
  55   6     0.03  -0.02   0.02    -0.00  -0.09   0.15    -0.09   0.03  -0.08
  56   6     0.03  -0.01  -0.03     0.05   0.01   0.02     0.00  -0.04  -0.15
  57   1     0.00  -0.00   0.01     0.07  -0.01   0.04     0.15  -0.01   0.09
  58   1    -0.01  -0.00  -0.00    -0.00  -0.02   0.03    -0.03  -0.03   0.04
  59   1    -0.00   0.01  -0.01     0.04   0.04  -0.02     0.06   0.12  -0.02
  60   1    -0.01   0.00  -0.01    -0.01  -0.02  -0.01     0.03   0.03   0.04
  61   1    -0.01   0.00  -0.01    -0.02  -0.00  -0.01     0.04   0.03   0.03
  62   1    -0.00  -0.00  -0.00    -0.01  -0.01  -0.01     0.04   0.01   0.02
  63   1    -0.04  -0.00  -0.01    -0.08  -0.00  -0.03    -0.08   0.03  -0.01
  64   1    -0.02  -0.00  -0.00    -0.00   0.00   0.04     0.02   0.02   0.07
  65   1    -0.01  -0.00  -0.02     0.01  -0.04  -0.06     0.04  -0.03  -0.05
  66   1    -0.01  -0.01   0.01    -0.02  -0.00   0.03     0.01  -0.01   0.02
  67   1    -0.01  -0.00  -0.01     0.01   0.01  -0.02     0.04   0.00  -0.02
  68   1    -0.01  -0.00  -0.00    -0.01   0.00   0.01     0.02  -0.01   0.02
  69   1    -0.01   0.00   0.01    -0.01   0.00   0.01     0.02  -0.02   0.01
[...]
  95   1     0.00  -0.00   0.00    -0.00   0.00   0.00     0.00  -0.00   0.00
  96   1    -0.00  -0.00  -0.00    -0.00  -0.00   0.00     0.00  -0.00  -0.00
  97   1    -0.00   0.00   0.00     0.01  -0.00  -0.00    -0.03   0.00   0.01
  98   1    -0.01   0.00   0.00     0.00   0.00  -0.00    -0.01  -0.00   0.00
  99   1     0.01   0.01  -0.00    -0.00  -0.00   0.00     0.01   0.00  -0.00
 100   1     0.04   0.04  -0.00    -0.00  -0.00   0.00    -0.00  -0.00   0.00
 101   1    -0.00  -0.00  -0.00    -0.00   0.00   0.00     0.00   0.00   0.00
 102   1    -0.00  -0.00  -0.00     0.00   0.00   0.00     0.00   0.00   0.00
 103   1     0.00   0.00   0.01    -0.00  -0.00  -0.00    -0.00   0.00  -0.00
 104   1    -0.00   0.00  -0.00     0.00  -0.00   0.00     0.00  -0.00   0.00
 105   1    -0.00   0.00   0.00    -0.00   0.00   0.00     0.00  -0.00  -0.00
 106   1    -0.00  -0.00   0.00    -0.00   0.00   0.00     0.00   0.00  -0.00
 107   1    -0.00  -0.00   0.00     0.00   0.00  -0.00     0.00  -0.00   0.00
 108   1     0.04   0.04  -0.00    -0.00  -0.00   0.00    -0.00  -0.00   0.00
 109   1     0.02   0.74   0.22    -0.00  -0.05  -0.02    -0.00  -0.02  -0.01
 110   1     0.46   0.31  -0.06    -0.04  -0.03   0.00    -0.02  -0.01   0.00
 111   1    -0.00  -0.00   0.00     0.01   0.10  -0.07    -0.03  -0.17   0.12
                    322                    323                    324
                        a                      a                      a 
 Frequencies --  3105.1351              3111.3803              3117.4131
 Red. masses --     1.8311                 1.8286                 1.8219
 Frc consts  --     0.0000                 0.0000                 0.0000
 IR Inten    --    28.5720                52.1284                 1.3767
 Raman Activ --     0.0000                 0.0000                 0.0000
 Depolar     --     0.0000                 0.0000                 0.0000
 Atom AN      X      Y      Z        X      Y      Z        X      Y      Z
   1   6    -0.00  -0.00   0.00    -0.00   0.00   0.00     0.00  -0.00   0.00
   2   6    -0.00  -0.00   0.00     0.00   0.00   0.00     0.00  -0.00  -0.00
   3   6    -0.00  -0.00   0.00    -0.00  -0.00  -0.00    -0.00  -0.00  -0.00
   4   6    -0.00   0.00  -0.00    -0.00   0.00  -0.00     0.00  -0.00  -0.00
   5   6     0.00   0.00   0.00     0.00  -0.00  -0.00     0.01   0.00   0.00
   6   6     0.00   0.00   0.00     0.00   0.00   0.00    -0.00   0.01   0.00
   7   6    -0.00   0.00  -0.00    -0.00   0.00  -0.00    -0.00   0.00  -0.00
   8   6    -0.00  -0.00   0.00    -0.00   0.00  -0.00    -0.00   0.00  -0.00
   9   6     0.00   0.00   0.00    -0.00  -0.00  -0.00     0.00  -0.01  -0.00
  10   6     0.00  -0.00   0.00    -0.00   0.00  -0.00     0.12  -0.15   0.02
  11   6     0.00  -0.00   0.00     0.00   0.00   0.00    -0.00  -0.00  -0.00
  12   6     0.00  -0.00   0.00    -0.00   0.00  -0.00    -0.17   0.05  -0.07
  13   6     0.00  -0.00   0.00     0.00   0.00   0.00    -0.00   0.01   0.00
  14   6    -0.00  -0.00  -0.00    -0.00  -0.00  -0.00    -0.00   0.00  -0.00
  15   6    -0.00   0.00  -0.00    -0.00   0.00  -0.00    -0.00  -0.00  -0.00
  16   6    -0.00   0.00  -0.00    -0.00   0.00  -0.00    -0.00  -0.00  -0.00
  17   6     0.00   0.00   0.00     0.00   0.00   0.00    -0.00  -0.00  -0.00
  18   6    -0.01  -0.01  -0.01    -0.00  -0.00  -0.00     0.00   0.00   0.00
  19   6    -0.02   0.01  -0.01    -0.00   0.00  -0.00     0.00  -0.00   0.00
  20   6    -0.00   0.00   0.00    -0.00   0.00   0.00     0.00  -0.00   0.00
  21   7    -0.00   0.00  -0.00    -0.00   0.00  -0.00    -0.00  -0.00  -0.00
  22   6     0.01  -0.01   0.00     0.00   0.00  -0.00     0.00   0.00   0.00
  23   6     0.02   0.01  -0.01    -0.00   0.00   0.00    -0.00  -0.00   0.00
  24   6     0.00   0.00  -0.00     0.00  -0.01   0.00    -0.00  -0.00  -0.00
  25   6     0.00   0.00   0.00     0.00  -0.00   0.00    -0.00   0.00  -0.00
  26   8    -0.00  -0.00  -0.00    -0.00  -0.00   0.00     0.00   0.00   0.00
  27   6    -0.00  -0.00  -0.00     0.00   0.00   0.00    -0.00  -0.00  -0.00
  28   6     0.00   0.00  -0.00    -0.00  -0.00   0.00     0.00   0.00  -0.00
  29   6    -0.00  -0.00   0.00     0.00   0.00   0.00    -0.00  -0.00  -0.00
  30   6     0.00   0.00  -0.00    -0.00  -0.00  -0.00    -0.00  -0.00   0.00
  31   7    -0.00  -0.00   0.00     0.00  -0.00   0.00    -0.00  -0.00   0.00
  32   6     0.00   0.00  -0.00     0.00  -0.00   0.00     0.00   0.00   0.00
  33   6     0.01  -0.00   0.00     0.21  -0.14   0.09    -0.00   0.00  -0.00
  34   6    -0.01  -0.00   0.00     0.01   0.00  -0.00    -0.00  -0.00  -0.00
  35   7     0.00   0.00  -0.00    -0.00  -0.00  -0.00     0.00   0.00   0.00
  36   6     0.00   0.00   0.00    -0.00  -0.00   0.00     0.00  -0.00  -0.00
  37   6     0.05   0.00  -0.02     0.00   0.00  -0.00     0.00  -0.00  -0.00
  38   6     0.01  -0.02  -0.01     0.00  -0.00  -0.00     0.00  -0.00  -0.00
  39   6    -0.00  -0.00   0.00    -0.00   0.00   0.00    -0.00  -0.00  -0.00
  40   6     0.00  -0.00  -0.00     0.00  -0.00  -0.00    -0.00   0.00   0.00
  41   6     0.00  -0.00  -0.00     0.00  -0.00  -0.00     0.00  -0.00   0.00
  42   6     0.00  -0.00   0.00     0.00  -0.00  -0.00    -0.00   0.00   0.00
  43   6     0.00  -0.00  -0.00     0.00  -0.00   0.00     0.00  -0.00  -0.00
  44   6    -0.00  -0.00   0.00     0.00  -0.00  -0.00    -0.00   0.00   0.00
  45   6    -0.00  -0.00   0.00     0.00   0.00  -0.00    -0.00   0.00   0.00
  46   6     0.00   0.00  -0.00     0.00   0.00   0.00     0.00   0.00   0.00
  47   6    -0.00  -0.00   0.00     0.00   0.00  -0.00     0.01   0.00  -0.00
  48   6     0.00  -0.00  -0.00     0.00  -0.00  -0.00     0.00  -0.00  -0.00
  49   6    -0.00  -0.00   0.00    -0.00   0.00   0.00     0.00   0.00  -0.00
  50   6    -0.00  -0.00   0.00    -0.00  -0.00   0.00     0.00   0.00   0.00
  51   6     0.00  -0.00   0.00    -0.00   0.00   0.00    -0.00   0.00   0.00
  52   6     0.00  -0.00   0.00    -0.00   0.00   0.00     0.00   0.00   0.00
  53   6    -0.00  -0.00  -0.00    -0.00  -0.00  -0.00    -0.00  -0.00  -0.00
  54   6    -0.00  -0.00   0.00    -0.01  -0.01   0.00    -0.00  -0.00   0.00
  55   6     0.00  -0.00   0.00    -0.00   0.00   0.00    -0.00  -0.00  -0.00
  56   6    -0.03  -0.21   0.15    -0.00   0.01  -0.01    -0.00  -0.00   0.00
  57   1     0.00   0.00  -0.00     0.00   0.00  -0.00     0.00   0.00  -0.00
  58   1     0.00  -0.00   0.00     0.00  -0.00   0.00    -0.00   0.00   0.00
  59   1     0.00   0.00   0.00     0.00   0.00   0.00     0.00  -0.00   0.00
  60   1     0.00  -0.00   0.00     0.00   0.00   0.00     0.00   0.00   0.00
  61   1    -0.00   0.00   0.00    -0.00   0.00   0.00    -0.00   0.00   0.01
  62   1     0.00   0.00  -0.00     0.00   0.00  -0.00     0.01   0.01  -0.01
  63   1    -0.00   0.00   0.00    -0.00   0.00   0.00    -0.00  -0.00   0.00
  64   1     0.00  -0.00   0.00     0.00  -0.00   0.00    -0.00   0.00  -0.00
  65   1     0.00   0.00  -0.00     0.00   0.00   0.00     0.00   0.00   0.00
  66   1     0.00  -0.00  -0.00    -0.00  -0.00  -0.00    -0.00  -0.02  -0.01
  67   1     0.00  -0.00   0.00     0.00  -0.01   0.00     0.00  -0.00   0.00
  68   1    -0.00   0.00  -0.00     0.00  -0.00   0.00    -0.44   0.52  -0.08
  69   1    -0.00   0.00  -0.00     0.00  -0.00   0.00     0.60  -0.18   0.25
  70   1     0.00  -0.00  -0.00    -0.00  -0.00  -0.00    -0.00   0.00   0.00
  71   1     0.00  -0.00   0.00     0.00  -0.00   0.00     0.00  -0.00   0.00
  72   1    -0.00  -0.00   0.00    -0.00  -0.00   0.00     0.00   0.00  -0.00
  73   1     0.00  -0.00  -0.00     0.00  -0.00  -0.00    -0.00   0.00  -0.00
  74   1    -0.00  -0.00  -0.00    -0.00  -0.00  -0.00    -0.00   0.00   0.00
  75   1     0.00  -0.00   0.00     0.00  -0.00   0.00     0.00  -0.00   0.00
  76   1     0.00  -0.00  -0.00     0.00   0.00   0.00    -0.00   0.00   0.00
  77   1     0.00  -0.00  -0.00     0.00   0.00  -0.00     0.00   0.00   0.01
  78   1     0.00  -0.00  -0.00    -0.00  -0.00   0.00     0.01   0.01  -0.00
  79   1     0.02   0.02   0.02     0.00   0.00   0.00    -0.01  -0.01  -0.01
  80   1     0.09  -0.03   0.04     0.01  -0.00   0.00    -0.00   0.00  -0.00
  81   1    -0.07  -0.02   0.02     0.01   0.00  -0.00     0.00   0.00  -0.00
  82   1    -0.00  -0.00   0.00     0.00   0.00  -0.00    -0.00  -0.00   0.00
  83   1     0.00   0.00   0.00    -0.00  -0.00  -0.00     0.00   0.00   0.00
  84   1    -0.00  -0.00   0.00     0.00   0.00  -0.00     0.00   0.00  -0.00
  85   1    -0.00  -0.00  -0.00    -0.00   0.00  -0.00    -0.00  -0.00  -0.00
  86   1    -0.03   0.02  -0.01    -0.76   0.49  -0.32     0.00  -0.00   0.00
  87   1    -0.19  -0.00   0.07    -0.00   0.00   0.00    -0.00  -0.00   0.00
  88   1    -0.03   0.07   0.03    -0.00   0.00   0.00    -0.00   0.00   0.00
  89   1    -0.00   0.00   0.00    -0.00   0.00   0.00    -0.00   0.00   0.00
  90   1    -0.00  -0.00  -0.00     0.00   0.00   0.00     0.00   0.00   0.00
  91   1     0.00  -0.00  -0.00     0.00   0.00   0.00    -0.00  -0.00  -0.00
  92   1    -0.00   0.00   0.00     0.00   0.00   0.00     0.00  -0.00  -0.00
  93   1    -0.00   0.00  -0.00    -0.00   0.00  -0.00     0.00  -0.00   0.00
  94   1     0.00   0.00   0.00     0.00   0.00   0.00    -0.00  -0.00  -0.00
  95   1     0.00  -0.00   0.00    -0.00   0.00  -0.00     0.00  -0.00   0.00
  96   1    -0.00  -0.00  -0.00     0.00   0.00   0.00     0.00   0.00   0.00
  97   1    -0.00   0.00   0.00    -0.00  -0.00   0.00    -0.00   0.00   0.00
  98   1     0.00  -0.00  -0.00    -0.00   0.00   0.00     0.02   0.00  -0.01
  99   1     0.00   0.00  -0.00    -0.01  -0.01   0.00    -0.02  -0.01   0.00
 100   1     0.00   0.00  -0.00     0.00   0.00  -0.00    -0.00  -0.00   0.00
 101   1     0.00  -0.00  -0.00     0.00  -0.00  -0.00     0.00  -0.00  -0.00
 102   1    -0.00  -0.00  -0.00     0.00  -0.00  -0.00     0.00   0.00   0.00
 103   1     0.00   0.00   0.00    -0.00  -0.00  -0.00    -0.00  -0.00  -0.00
 104   1    -0.00   0.00  -0.00     0.00  -0.00   0.00     0.00  -0.00   0.00
 105   1     0.00  -0.00  -0.00     0.00  -0.00  -0.00     0.00  -0.00  -0.00
 106   1    -0.00   0.00   0.00     0.00  -0.00  -0.00     0.00  -0.00  -0.00
 107   1    -0.00   0.00  -0.00     0.00  -0.00   0.00     0.00  -0.00   0.00
 108   1     0.00   0.00   0.00     0.00   0.00  -0.00    -0.00  -0.00   0.00
 109   1     0.00   0.01   0.00     0.00   0.01   0.00     0.00   0.00   0.00
 110   1     0.01   0.00  -0.00     0.04   0.03  -0.00     0.00   0.00  -0.00
 111   1     0.11   0.76  -0.52    -0.00  -0.03   0.02     0.00   0.00  -0.00
                    325                    326                    327
                        a                      a                      a 
 Frequencies --  3117.5256              3120.6871              3120.8808
 Red. masses --     1.8220                 1.8175                 1.8177
 Frc consts  --     0.0000                 0.0000                 0.0000
 IR Inten    --     0.6770                29.6467                33.8538
 Raman Activ --     0.0000                 0.0000                 0.0000
 Depolar     --     0.0000                 0.0000                 0.0000
 Atom AN      X      Y      Z        X      Y      Z        X      Y      Z
   1   6    -0.00   0.00  -0.00     0.00  -0.00   0.00     0.00  -0.00   0.00
   2   6    -0.00   0.00  -0.00     0.00  -0.00   0.00     0.00  -0.00   0.00
   3   6     0.00   0.00   0.00    -0.00  -0.00  -0.00    -0.00  -0.00  -0.00
   4   6    -0.00   0.00   0.00     0.00  -0.00  -0.00     0.00  -0.00  -0.00
   5   6    -0.00  -0.00  -0.00     0.01   0.00   0.00     0.00   0.00   0.00
   6   6     0.00  -0.00  -0.00    -0.00   0.00   0.00    -0.00   0.00   0.00
   7   6     0.00  -0.00   0.00     0.00  -0.00   0.00     0.00   0.00   0.00
   8   6     0.00  -0.00   0.00    -0.00   0.00   0.00    -0.00   0.00   0.00
   9   6    -0.00   0.00   0.00     0.00  -0.01  -0.00     0.00  -0.00  -0.00
  10   6    -0.00   0.00  -0.00     0.12  -0.14   0.02     0.03  -0.04   0.01
  11   6     0.00   0.00   0.00     0.00   0.00   0.00     0.00   0.00   0.00
  12   6     0.01  -0.00   0.00     0.17  -0.05   0.07     0.04  -0.01   0.02
  13   6     0.00  -0.00  -0.00     0.00  -0.01  -0.00     0.00  -0.00  -0.00
  14   6     0.00   0.00   0.00     0.00  -0.00   0.00     0.00  -0.00   0.00
  15   6     0.00   0.00   0.00     0.00   0.00   0.00     0.00  -0.00   0.00
  16   6     0.00   0.00   0.00     0.00   0.00   0.00     0.00  -0.00   0.00
  17   6     0.00   0.00   0.00     0.00   0.00   0.00     0.00   0.00   0.00
  18   6     0.00   0.00   0.00    -0.00  -0.00  -0.00    -0.00  -0.00  -0.00
  19   6     0.00  -0.00   0.00     0.00  -0.00   0.00     0.00  -0.00   0.00
  20   6    -0.00   0.00  -0.00    -0.00  -0.00  -0.00    -0.00  -0.00  -0.00
  21   7     0.00  -0.00   0.00     0.00  -0.00   0.00     0.00  -0.00   0.00
  22   6    -0.00   0.00   0.00    -0.00   0.00  -0.00    -0.00   0.00  -0.00
  23   6    -0.00  -0.00   0.00    -0.00  -0.00   0.00    -0.00  -0.00   0.00
  24   6    -0.00   0.00   0.00     0.00  -0.00   0.00    -0.00  -0.00   0.00
  25   6    -0.00   0.00  -0.00     0.00  -0.00   0.00     0.00  -0.00   0.00
  26   8     0.00  -0.00   0.00    -0.00   0.00  -0.00    -0.00   0.00  -0.00
  27   6     0.00   0.00   0.00    -0.00  -0.00  -0.00    -0.00  -0.00  -0.00
  28   6    -0.00  -0.00   0.00    -0.00  -0.00   0.00    -0.00  -0.00   0.00
  29   6    -0.00  -0.00  -0.00     0.00   0.00   0.00     0.00   0.00   0.00
  30   6    -0.00  -0.00  -0.00     0.00   0.00   0.00     0.00   0.00   0.00
  31   7    -0.00  -0.00   0.00     0.00   0.00  -0.00     0.00   0.00  -0.00
  32   6     0.00   0.00   0.00    -0.00  -0.00  -0.00    -0.00  -0.00  -0.00
  33   6    -0.00   0.00  -0.00    -0.00   0.00  -0.00     0.00  -0.00   0.00
  34   6    -0.00  -0.00  -0.00    -0.00  -0.00   0.00     0.00   0.00  -0.00
  35   7     0.00   0.00   0.00     0.00   0.00  -0.00    -0.00  -0.00   0.00
  36   6     0.00  -0.00  -0.00    -0.00   0.00   0.00     0.00  -0.00  -0.00
  37   6     0.00   0.00  -0.00     0.00   0.00  -0.00    -0.00  -0.00   0.00
  38   6     0.00  -0.00  -0.00    -0.00   0.00   0.00     0.00  -0.00  -0.00
  39   6    -0.00  -0.00  -0.00     0.00   0.00   0.00    -0.00  -0.01  -0.00
  40   6    -0.00   0.00   0.00     0.00  -0.00  -0.00    -0.00   0.00   0.00
  41   6    -0.00   0.00   0.00     0.00  -0.00  -0.00    -0.00   0.00   0.00
  42   6    -0.00   0.00   0.00     0.00  -0.00  -0.00    -0.00   0.00   0.00
  43   6    -0.00   0.00   0.00     0.00  -0.00  -0.00    -0.00   0.00   0.00
  44   6    -0.16   0.00   0.05     0.05  -0.00  -0.02    -0.20   0.00   0.07
  45   6    -0.00   0.00   0.00     0.00  -0.00  -0.00    -0.00   0.00   0.00
  46   6     0.00   0.01   0.00     0.00   0.00   0.00    -0.00  -0.00  -0.00
  47   6     0.17   0.12  -0.03     0.03   0.02  -0.00    -0.13  -0.09   0.02
  48   6     0.01  -0.00  -0.00     0.00  -0.00  -0.00    -0.00   0.00   0.00
  49   6     0.00   0.00  -0.00     0.00   0.00   0.00    -0.00  -0.00   0.00
  50   6     0.00   0.00   0.00     0.00   0.00   0.00    -0.00  -0.00  -0.00
  51   6     0.00   0.00   0.00    -0.00   0.00   0.00     0.00  -0.00  -0.00
  52   6     0.00   0.00  -0.00     0.00   0.00   0.00    -0.00  -0.00   0.00
  53   6    -0.00  -0.01  -0.00    -0.00  -0.00   0.00     0.00   0.00   0.00
  54   6    -0.00  -0.00   0.00     0.00   0.00  -0.00    -0.00  -0.00   0.00
  55   6    -0.00  -0.00   0.00    -0.00  -0.00  -0.00     0.00   0.00   0.00
  56   6     0.00   0.00  -0.00     0.00   0.00  -0.00     0.00   0.00  -0.00
  57   1    -0.00  -0.00   0.00     0.00   0.00  -0.00     0.00   0.00  -0.00
  58   1     0.00  -0.00  -0.00    -0.00   0.00   0.00    -0.00   0.00   0.00
  59   1     0.00   0.00   0.00     0.00  -0.00   0.00    -0.00  -0.00  -0.00
  60   1    -0.00  -0.00  -0.00     0.00   0.00   0.00     0.00   0.00   0.00
  61   1     0.00  -0.00  -0.00    -0.00   0.00   0.01    -0.00   0.00   0.00
  62   1    -0.00  -0.00   0.00     0.01   0.01  -0.01     0.00   0.00  -0.00
  63   1     0.00  -0.00  -0.00    -0.00   0.00   0.00    -0.00   0.00   0.00
  64   1     0.00  -0.00   0.00    -0.00   0.00  -0.00    -0.00   0.00  -0.00
  65   1     0.00   0.00   0.00     0.00   0.00   0.00    -0.00  -0.00  -0.00
  66   1     0.00   0.00   0.00    -0.00  -0.01  -0.00    -0.00  -0.00  -0.00
  67   1    -0.00   0.00  -0.00    -0.00   0.00  -0.00    -0.00   0.00  -0.00
  68   1     0.01  -0.01   0.00    -0.42   0.49  -0.08    -0.11   0.13  -0.02
  69   1    -0.02   0.01  -0.01    -0.59   0.18  -0.25    -0.15   0.05  -0.06
  70   1     0.00  -0.00  -0.00     0.00  -0.00  -0.00    -0.00   0.00   0.00
  71   1    -0.00   0.00  -0.00    -0.00   0.00  -0.00    -0.00   0.00  -0.00
  72   1    -0.00  -0.00   0.00    -0.00  -0.00   0.00    -0.00  -0.00   0.00
  73   1     0.00  -0.00  -0.00     0.00  -0.00   0.00    -0.00   0.00   0.00
  74   1     0.00   0.00   0.00     0.00  -0.00  -0.00     0.00  -0.00  -0.00
  75   1    -0.00   0.00  -0.00    -0.00   0.00  -0.00    -0.00   0.00  -0.00
  76   1     0.00  -0.00  -0.00     0.00  -0.01  -0.00     0.00  -0.00  -0.00
  77   1    -0.00  -0.00  -0.00    -0.00  -0.00  -0.01    -0.00  -0.00  -0.00
  78   1    -0.00  -0.00   0.00    -0.01  -0.01   0.00    -0.00  -0.00   0.00
  79   1    -0.00  -0.00  -0.00     0.01   0.01   0.01     0.00   0.00   0.00
  80   1    -0.00   0.00  -0.00    -0.00   0.00  -0.00    -0.00   0.00  -0.00
  81   1     0.00   0.00  -0.00     0.00   0.00  -0.00     0.00   0.00  -0.00
  82   1     0.00   0.00  -0.00     0.00   0.00  -0.00     0.00   0.00  -0.00
  83   1     0.00   0.00   0.00    -0.00  -0.00  -0.00    -0.00  -0.00  -0.00
  84   1     0.00   0.00  -0.00    -0.00  -0.00   0.00    -0.00  -0.00   0.00
  85   1    -0.00   0.00  -0.00     0.00  -0.00   0.00     0.00  -0.00   0.00
  86   1     0.00  -0.00   0.00     0.00  -0.00   0.00    -0.01   0.00  -0.00
  87   1    -0.01  -0.00   0.00    -0.00  -0.00   0.00     0.00   0.00  -0.00
  88   1    -0.01   0.01   0.01     0.00  -0.00  -0.00    -0.01   0.01   0.01
  89   1     0.00  -0.00  -0.00    -0.00   0.00   0.00     0.00  -0.00  -0.00
  90   1    -0.00  -0.00   0.00     0.00   0.00   0.00    -0.00  -0.00   0.00
  91   1    -0.00  -0.00  -0.00     0.00  -0.00   0.00    -0.00  -0.00  -0.00
  92   1     0.00  -0.00  -0.01    -0.00   0.00   0.00     0.00  -0.00  -0.01
  93   1     0.01  -0.01   0.00    -0.00   0.00  -0.00     0.01  -0.01   0.01
  94   1    -0.00  -0.00  -0.00     0.00   0.00   0.00    -0.00  -0.00  -0.00
  95   1     0.00  -0.00   0.00    -0.00   0.00  -0.00     0.00  -0.00   0.00
  96   1    -0.00  -0.00  -0.00     0.00   0.00   0.00    -0.00  -0.00  -0.00
  97   1     0.00  -0.00  -0.00    -0.00   0.00   0.00     0.00  -0.00  -0.00
  98   1     0.56   0.00  -0.19    -0.18  -0.00   0.06     0.69   0.00  -0.24
  99   1    -0.62  -0.42   0.09    -0.12  -0.08   0.02     0.47   0.32  -0.07
 100   1    -0.00  -0.00   0.00    -0.00  -0.00   0.00     0.00   0.00  -0.00
 101   1     0.00  -0.00  -0.00     0.00  -0.00  -0.00    -0.00   0.00   0.00
 102   1    -0.00  -0.00  -0.00    -0.00  -0.00  -0.00     0.00   0.00   0.00
 103   1    -0.00  -0.01  -0.01    -0.00  -0.00  -0.00     0.00   0.00   0.01
 104   1     0.00  -0.01   0.01     0.00  -0.00   0.00    -0.00   0.01  -0.01
 105   1     0.00  -0.00  -0.00     0.00  -0.00  -0.00    -0.00   0.00   0.00
 106   1     0.00  -0.00  -0.00     0.00  -0.00  -0.00    -0.00   0.00   0.00
 107   1     0.00  -0.00   0.00     0.00  -0.00   0.00    -0.00   0.00  -0.00
 108   1    -0.00  -0.00   0.00    -0.00  -0.00   0.00     0.00   0.00  -0.00
 109   1     0.00   0.02   0.01     0.00   0.00   0.00    -0.00  -0.01  -0.00
 110   1     0.00   0.00  -0.00    -0.00  -0.00   0.00     0.00   0.00  -0.00
 111   1    -0.00  -0.00   0.00    -0.00  -0.00   0.00    -0.00  -0.00   0.00
