$hessian                                                                        
        0.4984412660   0.0365664826   0.0084874723  -0.0982350866   0.0531043832
        0.0167940786   0.0041065282  -0.0078310316  -0.0019576941  -0.0024033487
        0.0045060756   0.0041660038  -0.0207254845   0.0217154795   0.0043361618
       -0.0040563905  -0.0006380358  -0.0021263738  -0.0011585989   0.0010493350
        0.0001278480   0.0000711401   0.0002637142   0.0001315907   0.0002639710
        0.0009006344   0.0005150715  -0.0011261858  -0.0001363074  -0.0001370244
        0.0000992244  -0.0000366536   0.0000274395  -0.0000514819   0.0000846072
        0.0000404778  -0.0000321959   0.0000231712  -0.0000042897  -0.0000306148
        0.0000243039  -0.0000014968   0.0000139682  -0.0000098537  -0.0000119900
        0.0000024009  -0.0000125558  -0.0000130831   0.0000064960  -0.0000151613
        0.0000063634   0.0000251529  -0.0000616643  -0.0000263260  -0.0000034298
        0.0000218110   0.0000113811  -0.0000089457  -0.0000340980  -0.0000075993
       -0.0002627285   0.0000737093  -0.0000551949   0.0000924808  -0.0000960980
       -0.0000201103   0.0000016542   0.0000462943  -0.0000186328   0.0000156126
        0.0000066075   0.0000060351  -0.0000057842  -0.0000474354   0.0000088235
       -0.0000134892   0.0000267478  -0.0000106988   0.0000173668   0.0000120504
       -0.0000025243   0.0000034550  -0.0000041001   0.0000045637   0.0000031149
       -0.0000052662   0.0000075358  -0.0000228503  -0.0000140659  -0.0000205713
        0.0000036943   0.0000214701   0.0000078704  -0.0000063486  -0.0000141385
        0.0000270768  -0.0000189019  -0.0000158843   0.0000072140   0.0000626619
        0.0000248236  -0.0000121062  -0.0000624785  -0.0000180602   0.0000120065
        0.0000332543  -0.0000152001   0.0000201040  -0.0000049122   0.0000047860
       -0.0000098117   0.0000056341  -0.0000003799   0.0000036913  -0.0000016812
       -0.0000040794   0.0000052820   0.0000039832   0.0000003253   0.0000009692
       -0.0000013386  -0.0000015018  -0.0000009897  -0.0000020748   0.0000007579
        0.0000004917  -0.0000009004   0.0000007861  -0.0000016987  -0.0000020303
        0.0000031024  -0.0000043493  -0.0000068589  -0.0000060834   0.0000061689
       -0.0000148840   0.0000001634  -0.0000050239   0.0000027340  -0.0000044299
        0.0000057721  -0.0000031536   0.0000017200  -0.0000039450   0.0000018314
        0.0000052720  -0.0000051363  -0.0000029258  -0.0000009082   0.0000015750
       -0.0000023746  -0.0000022807  -0.0000003150   0.0000015670  -0.0000014832
        0.0000020152  -0.0000068618   0.0000010432  -0.0000063591   0.0000100288
       -0.0000053530   0.0000120940   0.0000085122   0.0000309521  -0.0000280137
       -0.0000605271   0.0000221111  -0.0000006118  -0.2444645264  -0.0219750539
       -0.0829584841  -0.0441204803   0.0002497474   0.0157411696  -0.0850835330
       -0.0836965877   0.0377966284  -0.0004699146  -0.0028043235   0.0007279843
        0.0002005241  -0.0003476592  -0.0002333041   0.0007857505  -0.0013217097
        0.0001188169   0.0006510235  -0.0005784131  -0.0009759702   0.0002956595
        0.0000095175   0.0004915814   0.0000130336   0.0003172216  -0.0002100126
        0.0000198425  -0.0000492806   0.0000108690  -0.0003983426   0.0000307076
       -0.0001094584  -0.0024020387   0.0006742216  -0.0006892127   0.0000162497
        0.0000174423  -0.0000019014  -0.0000030735   0.0000031370   0.0000034785
        0.0000081120   0.0000016065   0.0000019762  -0.0000051233  -0.0000140293
       -0.0000039978  -0.0000005089   0.0000087946  -0.0000025259  -0.0000063406
       -0.0000018729   0.0000100688  -0.0000002209  -0.0000134721  -0.0000032035
       -0.0000015732  -0.0000083421  -0.0000108368  -0.0000006207   0.0000053202
        0.0000030663   0.0000054965  -0.0000012981   0.0000076950  -0.0000087368
       -0.0000034980  -0.0000038623  -0.0000039248  -0.0000036893  -0.0000064470
       -0.0000057682  -0.0000304136   0.0000190516   0.0000002519   0.0000032825
       -0.0000016869  -0.0000007367   0.0000082628  -0.0000044654   0.0000003720
        0.0000085897   0.0000007353   0.0000165067   0.0000004882  -0.0000065518
       -0.0000040987   0.0000019280   0.0000015350   0.0000018129  -0.0000015879
        0.0000034162  -0.0000007064   0.0000012912  -0.0000019842   0.0000008537
       -0.0000003473   0.0000000727  -0.0000024990   0.0000008839  -0.0000013802
        0.0000005280  -0.0000007604   0.0000009872   0.0000004380  -0.0000001830
        0.0000010631   0.0000009524  -0.0000001176   0.0000002921  -0.0000019662
        0.0000001058  -0.0000021486   0.0000008956  -0.0000003365   0.0000003125
       -0.0000025981   0.0000001866  -0.0000013513   0.0000009551  -0.0000003540
        0.0000001558  -0.0000021211  -0.0000005800   0.0000004654  -0.0000023101
       -0.0000000493  -0.0000008400   0.0000022710   0.0000018339  -0.0000007970
       -0.0000001538   0.0000007246  -0.0000009340  -0.0000020156  -0.0000034861
        0.0000021526  -0.0000024736  -0.0000016731   0.0000033376   0.0000020394
        0.0000010787  -0.0000014763   0.0000008341  -0.0000010712  -0.0000011227
       -0.0000025781  -0.0000024843   0.0000023173   0.0000010078  -0.0000004531
       -0.0000011236   0.0000001351   0.0000008276  -0.0000007776   0.0000030825
       -0.0000007314   0.0000021479   0.0000024499   0.0000038226  -0.0000044432
        0.0000050404   0.0000022252  -0.0000022848
        0.0365664826   0.4798900414  -0.0156026602   0.0513764786  -0.1430207391
       -0.0258679569   0.0102870719  -0.0314795995  -0.0040986292   0.0043395672
       -0.0061965993  -0.0061726938   0.0046656680  -0.0008464542   0.0008980916
       -0.0002581242   0.0003979505  -0.0003396016   0.0000357988  -0.0001282085
       -0.0000983583   0.0001840024  -0.0000156151  -0.0000042807  -0.0001549000
        0.0001977311  -0.0000446685  -0.0008953121  -0.0004934918  -0.0000966116
       -0.0000020361   0.0000236062   0.0000256723   0.0000132309   0.0000339173
        0.0000440520  -0.0000087397   0.0000214462   0.0000037431  -0.0000041377
       -0.0000019534  -0.0000086312  -0.0000003003  -0.0000072413  -0.0000111261
        0.0000123590   0.0000054020  -0.0000097244   0.0000018401  -0.0000068925
        0.0000011725  -0.0000029592  -0.0000071924  -0.0000059690   0.0000306623
        0.0000160902   0.0000225306  -0.0000249850   0.0000519582   0.0000358338
       -0.0002682292   0.0000107383  -0.0000726659   0.0001510398  -0.0001185615
       -0.0000197165  -0.0000373160   0.0000231776   0.0000159162   0.0000595354
        0.0000290795  -0.0000039099  -0.0000200294  -0.0000678491   0.0000065652
        0.0000003830   0.0000257741  -0.0000030916   0.0000182483   0.0000176007
       -0.0000003304  -0.0000103133  -0.0000181860   0.0000074074   0.0000179546
        0.0000027397   0.0000019168  -0.0000163338   0.0000038193  -0.0000271516
        0.0000150805  -0.0000063167   0.0000099836  -0.0000262086   0.0000005746
       -0.0000050428  -0.0000407438  -0.0000083928   0.0000085963   0.0000632003
        0.0000052163  -0.0000156686  -0.0000517948  -0.0000209193   0.0000174269
        0.0000160030  -0.0000100476   0.0000068081  -0.0000042955   0.0000041932
       -0.0000075188   0.0000005128  -0.0000009984   0.0000031149   0.0000003227
       -0.0000027285   0.0000042951   0.0000037680  -0.0000003193   0.0000015928
       -0.0000006207  -0.0000006342   0.0000004923  -0.0000007599   0.0000001379
        0.0000008774  -0.0000008924   0.0000005811   0.0000001799  -0.0000027460
        0.0000048293  -0.0000059724  -0.0000020225  -0.0000050677   0.0000069083
       -0.0000069492   0.0000023288  -0.0000058390   0.0000018719  -0.0000038559
        0.0000058434  -0.0000001647   0.0000020048  -0.0000024089   0.0000010178
        0.0000027043  -0.0000026134  -0.0000023828  -0.0000003883   0.0000005432
       -0.0000017612  -0.0000007117   0.0000005651   0.0000008967   0.0000003388
        0.0000012497  -0.0000000798   0.0000040720  -0.0000082728  -0.0000027957
       -0.0000050566   0.0000074392   0.0000089056   0.0000218385  -0.0000155496
       -0.0000412271   0.0000187891  -0.0000053245  -0.0223211960  -0.0449321122
       -0.0080846495   0.0004183307  -0.0445982476  -0.0160307615  -0.0832023260
       -0.2061126878   0.0745278912  -0.0018935959  -0.0053716019   0.0018332668
        0.0006320996   0.0006631567  -0.0008261740   0.0012214306   0.0004410449
       -0.0003034583   0.0000800052   0.0001336793   0.0006098086   0.0001370251
        0.0002823125  -0.0009546314  -0.0002922156   0.0007164808   0.0009539478
        0.0000126479   0.0000446592   0.0000910954  -0.0000400636   0.0000295427
        0.0000406790  -0.0007457333   0.0003698114  -0.0004030990   0.0000113782
       -0.0000122846  -0.0000257330  -0.0000030967  -0.0000003725   0.0000051231
        0.0000018559   0.0000012805   0.0000007906  -0.0000020603  -0.0000048956
       -0.0000026368  -0.0000017535  -0.0000007943   0.0000022018  -0.0000014934
       -0.0000069275   0.0000000590  -0.0000002042   0.0000007357  -0.0000014234
        0.0000001734  -0.0000027756  -0.0000052513  -0.0000001121   0.0000017134
        0.0000027687   0.0000012081   0.0000018502   0.0000010857  -0.0000031798
       -0.0000022069  -0.0000079279  -0.0000108983   0.0000035589  -0.0000049035
        0.0000034583  -0.0000008392  -0.0000033589   0.0000023019  -0.0000002422
        0.0000011477   0.0000025018   0.0000012937  -0.0000020131   0.0000038494
        0.0000128567  -0.0000001116   0.0000038524  -0.0000001503  -0.0000055570
        0.0000022846  -0.0000005932   0.0000016440  -0.0000020443  -0.0000029975
        0.0000022405   0.0000004493  -0.0000003848   0.0000001829   0.0000000092
       -0.0000000632   0.0000006197  -0.0000010878   0.0000003726   0.0000000740
       -0.0000001596  -0.0000006460   0.0000004213  -0.0000005654  -0.0000008703
        0.0000009671  -0.0000000774   0.0000004908   0.0000007226  -0.0000012493
       -0.0000002369  -0.0000001298   0.0000000778   0.0000004825   0.0000008895
       -0.0000009124  -0.0000000522   0.0000006220   0.0000000292  -0.0000001082
        0.0000007238   0.0000004215  -0.0000007105   0.0000018309   0.0000008361
        0.0000006599  -0.0000002690   0.0000004719   0.0000010796  -0.0000002000
        0.0000008598   0.0000012109   0.0000005591   0.0000001758  -0.0000008631
        0.0000016013   0.0000003560   0.0000004014   0.0000021069   0.0000004528
        0.0000014097   0.0000000962   0.0000013717   0.0000001577   0.0000000184
       -0.0000000907  -0.0000004606   0.0000020860   0.0000012648   0.0000000635
        0.0000005021   0.0000011168   0.0000009484   0.0000012501   0.0000019161
       -0.0000007865   0.0000035125  -0.0000026062   0.0000011239  -0.0000031771
       -0.0000002310  -0.0000021268  -0.0000038995
        0.0084874723  -0.0156026602   0.5259958442   0.0157697947  -0.0252707929
       -0.0712964973  -0.0032916658   0.0081006878   0.0021206271   0.0154892145
       -0.0249142551  -0.0166442900  -0.0051261146   0.0071112405   0.0026606473
       -0.0019058793  -0.0004921709  -0.0001726413  -0.0003784645   0.0002816928
        0.0000868749   0.0001047358   0.0000791178   0.0001515243  -0.0000881756
        0.0003404069   0.0003149060  -0.0005368558   0.0001901598  -0.0008986165
        0.0000250553   0.0000235578  -0.0000189322   0.0000075565   0.0000253344
       -0.0000325840  -0.0000268812   0.0000122806   0.0000039396  -0.0000177572
        0.0000157020   0.0000129640   0.0000113664   0.0000018173  -0.0000065758
       -0.0000055928  -0.0000176026   0.0000126717  -0.0000069427  -0.0000133851
        0.0000039160   0.0000165720  -0.0000007956   0.0000007923   0.0000219615
       -0.0000149671  -0.0000028166  -0.0000417527   0.0000057111   0.0000159548
       -0.0002466545   0.0000301507  -0.0001191354   0.0000871743  -0.0000875332
       -0.0000147324  -0.0000063250   0.0000253360  -0.0000039063   0.0000143531
        0.0000223786   0.0000012476  -0.0000039427  -0.0000548531   0.0000119530
       -0.0000129120   0.0000247570  -0.0000107073   0.0000074921   0.0000041211
       -0.0000037182   0.0000017471  -0.0000057518   0.0000043830   0.0000035925
       -0.0000039199   0.0000012606  -0.0000048372  -0.0000074203   0.0000006610
       -0.0000054181   0.0000172353   0.0000034179   0.0000026084  -0.0000001510
        0.0000106600  -0.0000171614  -0.0000087137   0.0000035714   0.0000497297
        0.0000046850  -0.0000093710  -0.0000506501  -0.0000139459   0.0000081306
        0.0000313837  -0.0000111182   0.0000165051  -0.0000038973  -0.0000005837
       -0.0000014942   0.0000082713   0.0000020615   0.0000006710  -0.0000002544
       -0.0000029600   0.0000044416  -0.0000025712   0.0000004478  -0.0000008927
       -0.0000021126   0.0000005138   0.0000002933  -0.0000025797  -0.0000007581
       -0.0000009649  -0.0000013184  -0.0000001325   0.0000006251   0.0000021142
       -0.0000008927   0.0000031117  -0.0000040725  -0.0000052631   0.0000061423
       -0.0000061808   0.0000020871  -0.0000048991   0.0000000291   0.0000000788
       -0.0000001594  -0.0000034432   0.0000012533  -0.0000029829   0.0000013407
       -0.0000017099   0.0000014567   0.0000002627  -0.0000006545   0.0000013652
        0.0000000443   0.0000000129   0.0000021185  -0.0000014008  -0.0000003766
        0.0000013855   0.0000071298   0.0000044888  -0.0000027229   0.0000001930
       -0.0000005649   0.0000054051   0.0000064359   0.0000236715  -0.0000227589
       -0.0000497991   0.0000164725  -0.0000023280  -0.0831690654  -0.0079664050
       -0.0785759233   0.0160215444  -0.0164428689  -0.2805589959   0.0378625675
        0.0746626087  -0.0781792442   0.0006531809   0.0021888301  -0.0002361285
       -0.0003230687   0.0009670095   0.0005748354  -0.0001847825  -0.0001328361
        0.0001390076   0.0011169335  -0.0007250547   0.0006145234   0.0011455186
       -0.0016526928  -0.0066418880   0.0000900465  -0.0009770878   0.0007005881
        0.0000433751   0.0000704837  -0.0000488572  -0.0001525469   0.0000601052
       -0.0000904163  -0.0014195035   0.0001245529   0.0001221486  -0.0000035935
       -0.0000210986   0.0000349677   0.0000027314   0.0000057866  -0.0000050382
        0.0000034211   0.0000022690   0.0000007388  -0.0000011566  -0.0000087476
       -0.0000025852   0.0000075729   0.0000032187  -0.0000123326   0.0000010490
        0.0000071829  -0.0000044133   0.0000007774  -0.0000037382  -0.0000006377
       -0.0000017660  -0.0000056939  -0.0000084080   0.0000047886   0.0000111478
       -0.0000103701   0.0000037063  -0.0000002371   0.0000015603  -0.0000073874
       -0.0000040676  -0.0000031861  -0.0000060520   0.0000023810   0.0000020841
        0.0000043533  -0.0000050114   0.0000075050  -0.0000023717   0.0000007086
       -0.0000010391   0.0000011864   0.0000022097  -0.0000016162   0.0000020384
        0.0000010957  -0.0000033333   0.0000011218   0.0000014733  -0.0000101580
       -0.0000002116   0.0000016872   0.0000019175   0.0000001561  -0.0000000960
        0.0000007028  -0.0000017614   0.0000006153  -0.0000011998   0.0000004128
       -0.0000007213  -0.0000003130  -0.0000014774   0.0000004393  -0.0000000674
        0.0000000587  -0.0000006549   0.0000008441  -0.0000001135  -0.0000002504
        0.0000011018  -0.0000000275   0.0000006549   0.0000009024  -0.0000012687
       -0.0000001061  -0.0000003230   0.0000005016   0.0000006979   0.0000006691
       -0.0000012154   0.0000002916  -0.0000001218   0.0000007080  -0.0000002786
       -0.0000002290  -0.0000013097   0.0000000533   0.0000001435  -0.0000010045
       -0.0000008502   0.0000008441  -0.0000015472   0.0000001681  -0.0000016877
        0.0000013214   0.0000013152   0.0000009768   0.0000002064  -0.0000006121
        0.0000010634   0.0000005021  -0.0000002803   0.0000011483  -0.0000008672
       -0.0000005429  -0.0000015813   0.0000006551   0.0000002649  -0.0000003336
        0.0000004104  -0.0000003450   0.0000008824   0.0000007126   0.0000003468
       -0.0000002088   0.0000011927   0.0000010106   0.0000008231  -0.0000007807
       -0.0000006042  -0.0000006585  -0.0000017377  -0.0000014758  -0.0000032013
        0.0000058482   0.0000002207  -0.0000012231
       -0.0982350866   0.0513764786   0.0157697947   0.4832621157  -0.0153623011
        0.0004099495  -0.0866482663  -0.0404145780   0.0186129006  -0.0610765275
        0.0016880961   0.0081478760  -0.1646690015  -0.0027925745  -0.0415618505
       -0.0254343789   0.0075806022  -0.0047551715   0.0006550129   0.0031512986
        0.0001760843  -0.0010101909  -0.0001221313  -0.0005528161   0.0016544257
       -0.0001807917  -0.0021133091  -0.0128062272  -0.0069193668  -0.0087783537
       -0.0002249294   0.0002356461  -0.0001225666   0.0000715045  -0.0001569078
       -0.0000258487   0.0000838082  -0.0000421428   0.0000300523   0.0000446271
       -0.0000027804   0.0000047359  -0.0000132675   0.0000330653   0.0000270994
       -0.0000023925   0.0000243366   0.0000225240  -0.0000044993   0.0000286863
        0.0000122831  -0.0000270648   0.0000996019   0.0000451833  -0.0001664326
       -0.0000896097  -0.0000945415   0.0000615467  -0.0000455102   0.0000877832
        0.0006691665  -0.0001726403   0.0004703433  -0.0003877420   0.0003266430
        0.0000835021   0.0000741469  -0.0000714943  -0.0000552631  -0.0001218734
       -0.0000872100   0.0000020745   0.0000124070   0.0001838073  -0.0000324622
        0.0000409049  -0.0000857423   0.0000362512  -0.0000300052  -0.0000366973
        0.0000222746   0.0000221293   0.0000413713  -0.0000159510  -0.0000302559
        0.0000001862  -0.0000060222   0.0000240676   0.0000088557   0.0000344985
       -0.0000074718  -0.0000189553   0.0000063103   0.0000076423  -0.0000062530
       -0.0000095198   0.0001047675   0.0000145322  -0.0000210910  -0.0001977775
       -0.0000009296   0.0000415120   0.0001822637   0.0000574874  -0.0000390244
       -0.0000927495   0.0000359291  -0.0000421578   0.0000156761  -0.0000085331
        0.0000184546  -0.0000107856  -0.0000009136  -0.0000077645  -0.0000043945
        0.0000083270  -0.0000153436  -0.0000076174   0.0000000877  -0.0000036291
        0.0000045553   0.0000012678  -0.0000029696   0.0000062430  -0.0000006777
       -0.0000036384   0.0000029854  -0.0000028172  -0.0000015127   0.0000000316
       -0.0000097020   0.0000066695   0.0000140491   0.0000229791  -0.0000290157
        0.0000122010  -0.0000119463   0.0000228727   0.0000004054   0.0000084479
       -0.0000137582   0.0000064038  -0.0000077316   0.0000124900  -0.0000100410
       -0.0000022463  -0.0000018791   0.0000018029  -0.0000013196  -0.0000053200
       -0.0000026917   0.0000018493  -0.0000046813  -0.0000011236  -0.0000007715
       -0.0000063253  -0.0000241479  -0.0000192172   0.0000213589  -0.0000017573
        0.0000069740  -0.0000245584  -0.0000210504  -0.0000656884   0.0000506262
        0.0001288608  -0.0000445618   0.0000226524  -0.0212185266   0.0232685581
        0.0052908726  -0.0017897182   0.0025449778   0.0028779362   0.0063416753
       -0.0085733016  -0.0028495596   0.0057830831   0.0103184710  -0.0046937267
       -0.0012602736  -0.0016850467   0.0026521901  -0.0186165361  -0.0240149463
        0.0090559033  -0.0023939393  -0.0010494138  -0.0283844631  -0.0014129450
        0.0018799847   0.0144195182  -0.0008687102  -0.0004476253   0.0144061592
        0.0001992113  -0.0013680520   0.0000952354  -0.0005360257  -0.0000057432
       -0.0002585328   0.0000174682   0.0009808267   0.0014495065  -0.0000446763
        0.0000335796  -0.0000126340   0.0000032550  -0.0000092397   0.0000043339
       -0.0000178833  -0.0000131644  -0.0000012976   0.0000031081   0.0000284041
        0.0000134946  -0.0000087105  -0.0000185780   0.0000139742   0.0000070824
       -0.0000043055   0.0000030886  -0.0000065236   0.0000217625   0.0000160047
        0.0000008761   0.0000200638   0.0000250341  -0.0000043795  -0.0000199467
        0.0000085144  -0.0000116431  -0.0000068759  -0.0000096518  -0.0000007813
        0.0000198656   0.0000218905   0.0000284323  -0.0000235217   0.0000149922
       -0.0000353903  -0.0000105908   0.0000096049   0.0000035094   0.0000007183
        0.0000109930  -0.0000069614  -0.0000068085   0.0000169302  -0.0000109991
       -0.0000102771   0.0000028029  -0.0000028166  -0.0000057262   0.0000160780
       -0.0000081527   0.0000025687  -0.0000045054   0.0000010239   0.0000052881
       -0.0000044132   0.0000006929  -0.0000009569   0.0000027472  -0.0000025828
        0.0000004313  -0.0000041586   0.0000065391  -0.0000030467  -0.0000007569
       -0.0000027516   0.0000017217  -0.0000033077  -0.0000013086   0.0000011029
       -0.0000048930  -0.0000008711  -0.0000014216  -0.0000053927   0.0000079291
        0.0000011420   0.0000013103  -0.0000025628  -0.0000031020  -0.0000062935
        0.0000058868  -0.0000006376  -0.0000021182  -0.0000033242   0.0000002268
       -0.0000052166   0.0000001356   0.0000043036  -0.0000085456   0.0000016641
        0.0000005222  -0.0000006026   0.0000020667  -0.0000053225   0.0000027388
       -0.0000059399  -0.0000038453  -0.0000021868  -0.0000029522   0.0000043332
       -0.0000081203  -0.0000038293   0.0000010369  -0.0000098651  -0.0000005308
       -0.0000033712   0.0000030848  -0.0000069808  -0.0000045414  -0.0000007964
       -0.0000020594   0.0000027080  -0.0000101094  -0.0000059107  -0.0000035665
       -0.0000024914  -0.0000054366  -0.0000033351  -0.0000047351  -0.0000069533
       -0.0000010260  -0.0000032387   0.0000074100   0.0000040277   0.0000066653
       -0.0000054641   0.0000088970   0.0000081970
        0.0531043832  -0.1430207391  -0.0252707929  -0.0153623011   0.4774796111
        0.0045226496  -0.0459309868  -0.1391752206   0.0337269097   0.0015651878
       -0.0617935886  -0.0056574158   0.0010975142  -0.0627837138  -0.0036439186
        0.0186221869   0.0003629304   0.0077883440   0.0037470992  -0.0019130986
       -0.0026197215   0.0002183296  -0.0006084986  -0.0004773851  -0.0003783552
       -0.0015680386  -0.0049922599  -0.0188694011  -0.0005517841  -0.0078383081
       -0.0006235980   0.0003481083  -0.0003185841  -0.0001395419   0.0000001799
       -0.0000278674   0.0000431037  -0.0000093835   0.0000335199  -0.0000308017
        0.0000346698  -0.0000128350   0.0000106731  -0.0000053437  -0.0000112624
        0.0000003919  -0.0000219350  -0.0000151697   0.0000089275  -0.0000192682
        0.0000052224  -0.0000043031   0.0000432968   0.0000041773  -0.0000348561
       -0.0000170156   0.0000067455  -0.0003111352  -0.0001247878   0.0000821318
       -0.0003161218  -0.0004064495   0.0001673352   0.0000730945  -0.0000539661
        0.0000466738  -0.0000427579   0.0000497054   0.0000133649   0.0000410016
       -0.0000272425  -0.0000121282   0.0000608302   0.0000218946   0.0000082155
       -0.0000352121   0.0000056106  -0.0000143733  -0.0000337949  -0.0000269956
       -0.0000016000   0.0000108522   0.0000129251   0.0000041710  -0.0000236457
       -0.0000055973  -0.0000072504   0.0000278267  -0.0000151957   0.0000566394
       -0.0000428464   0.0000264422  -0.0000117265   0.0000522038   0.0000157113
       -0.0000354266  -0.0000280943  -0.0000259728   0.0000146890   0.0000580550
        0.0000352650  -0.0000285428  -0.0000653975  -0.0000286759   0.0000256052
        0.0000223729  -0.0000138371   0.0000122322  -0.0000027158   0.0000063415
       -0.0000103278   0.0000043943  -0.0000009759   0.0000044173  -0.0000000902
       -0.0000039017   0.0000055032   0.0000059069   0.0000011041   0.0000014796
        0.0000004637  -0.0000009519  -0.0000004155  -0.0000002627   0.0000014254
        0.0000006535  -0.0000005689   0.0000011579  -0.0000011850  -0.0000036422
        0.0000055489  -0.0000080409  -0.0000019246  -0.0000060832   0.0000081435
       -0.0000165188  -0.0000010833  -0.0000043261   0.0000053848  -0.0000026509
        0.0000041203  -0.0000008907   0.0000024555  -0.0000050708   0.0000013633
        0.0000055282  -0.0000048176  -0.0000040674  -0.0000004123   0.0000003582
       -0.0000031110  -0.0000019004  -0.0000008713   0.0000014128  -0.0000008553
        0.0000009125  -0.0000050756   0.0000013756  -0.0000065457   0.0000004222
       -0.0000046333   0.0000099890   0.0000122342   0.0000331443  -0.0000311969
       -0.0000482243   0.0000110602  -0.0000009289   0.0026155589  -0.0003544595
        0.0007942408   0.0024056328  -0.0038616867  -0.0038381282   0.0120245238
       -0.0256364032  -0.0045860423  -0.0094374101  -0.0253444911   0.0080191179
       -0.0008500963  -0.0009802970   0.0027107982  -0.0045040871  -0.0038738495
        0.0004622620  -0.0000839536   0.0000315683  -0.0005364045   0.0020600958
       -0.0037590187  -0.0246681100  -0.0015903879  -0.0011068724   0.0240663583
        0.0000448847  -0.0005120752   0.0009456924   0.0012056056  -0.0001916052
        0.0002187660  -0.0002704682  -0.0005752905   0.0009345959   0.0000148089
       -0.0000173285  -0.0000121295  -0.0000047585   0.0000024302   0.0000105723
        0.0000120140   0.0000060761   0.0000019829  -0.0000030024  -0.0000167230
       -0.0000048970  -0.0000040576   0.0000090325  -0.0000093582  -0.0000063857
       -0.0000033618   0.0000173442   0.0000018160  -0.0000094163  -0.0000051516
        0.0000002350  -0.0000145132  -0.0000127590  -0.0000054750   0.0000051968
        0.0000029147   0.0000105865   0.0000023991   0.0000111791  -0.0000069494
       -0.0000043470  -0.0000077479  -0.0000288804  -0.0000202574  -0.0000011265
        0.0000050085   0.0000043087  -0.0000034535  -0.0000003766  -0.0000028551
       -0.0000028400   0.0000004635  -0.0000059552  -0.0000001844  -0.0000162129
       -0.0000202158  -0.0000009610  -0.0000162011   0.0000002805   0.0000105046
       -0.0000019786   0.0000016498   0.0000027219  -0.0000012891  -0.0000021325
        0.0000024238   0.0000008194   0.0000011162  -0.0000011775   0.0000005317
        0.0000001665   0.0000002880  -0.0000025861   0.0000012826  -0.0000014582
        0.0000004444  -0.0000006376   0.0000005980   0.0000003651   0.0000000047
        0.0000008542   0.0000010656  -0.0000004397  -0.0000003064  -0.0000022852
        0.0000004960  -0.0000023864   0.0000005854  -0.0000008773  -0.0000000528
       -0.0000026402   0.0000004123  -0.0000013682   0.0000003745   0.0000000656
        0.0000000771  -0.0000019517  -0.0000017751   0.0000019198  -0.0000021517
        0.0000000798  -0.0000014069   0.0000027092   0.0000010050  -0.0000005691
       -0.0000002552   0.0000001724  -0.0000016180  -0.0000020653  -0.0000043574
        0.0000026824  -0.0000023459  -0.0000018931   0.0000036261   0.0000015037
        0.0000008499  -0.0000005395   0.0000004249  -0.0000016477  -0.0000011804
       -0.0000027274  -0.0000027067   0.0000022545   0.0000008190  -0.0000008566
       -0.0000011550  -0.0000001186   0.0000005494  -0.0000011849   0.0000030657
       -0.0000025697   0.0000052307  -0.0000008898   0.0000005366  -0.0000024449
        0.0000026715  -0.0000044586  -0.0000067725
        0.0167940786  -0.0258679569  -0.0712964973   0.0004099495   0.0045226496
        0.4618669052   0.0228949740   0.0362727932  -0.0761457279   0.0006526022
       -0.0060944919  -0.1791036898  -0.0391411132  -0.0050258859  -0.0724187216
        0.0013103083   0.0036344880   0.0013796766   0.0003906476  -0.0028237723
        0.0038378183  -0.0004279592  -0.0005428013  -0.0001499807  -0.0023454601
       -0.0048539789   0.0039675893  -0.0153574558  -0.0034596097  -0.0066268879
       -0.0005936962  -0.0000176308   0.0002445789  -0.0000355118  -0.0000059309
       -0.0000580690   0.0000442600  -0.0000024369  -0.0000190871  -0.0000151149
       -0.0000001929   0.0000305386   0.0000052503   0.0000064191   0.0000072845
       -0.0000053189  -0.0000080138   0.0000115158  -0.0000034085   0.0000015608
        0.0000097264  -0.0000074315   0.0000201536   0.0000444036  -0.0000463328
        0.0000091092  -0.0000721426  -0.0000143515   0.0001153298  -0.0003740764
        0.0002753065   0.0003262066  -0.0005858880   0.0000638196  -0.0000512947
       -0.0000970758   0.0000479785  -0.0000001302   0.0000420719  -0.0000604517
        0.0000180871   0.0000172688  -0.0000396272  -0.0000024330   0.0000023543
        0.0000248725  -0.0000088239   0.0000049998   0.0000052131   0.0000179756
       -0.0000031874  -0.0000013311   0.0000053712  -0.0000067528  -0.0000014444
        0.0000036762  -0.0000009619  -0.0000067976  -0.0000027834   0.0000217885
        0.0000189020  -0.0000090801  -0.0000542148  -0.0000073321  -0.0000143601
        0.0000327367   0.0000509243   0.0000540147  -0.0000315596  -0.0000296457
       -0.0000631622   0.0000347132   0.0000565779   0.0000347818  -0.0000308318
       -0.0000055709   0.0000129445  -0.0000036848   0.0000024953  -0.0000082950
        0.0000112832  -0.0000019853   0.0000004415  -0.0000036901   0.0000022993
        0.0000040365  -0.0000058499  -0.0000042176   0.0000010123  -0.0000011710
       -0.0000006508   0.0000007608  -0.0000008141  -0.0000004779  -0.0000008179
       -0.0000023353   0.0000005798  -0.0000006895  -0.0000003311   0.0000067427
       -0.0000059709   0.0000073567  -0.0000018459   0.0000036651  -0.0000070259
        0.0000129723  -0.0000003997   0.0000050131  -0.0000018238   0.0000028023
       -0.0000063075  -0.0000035666  -0.0000018846   0.0000000817  -0.0000008999
       -0.0000029674   0.0000052443   0.0000056585   0.0000000934  -0.0000010234
        0.0000039240   0.0000012714  -0.0000017370  -0.0000032977  -0.0000007870
       -0.0000023274   0.0000051919  -0.0000058560   0.0000106612   0.0000127446
        0.0000068797  -0.0000098628  -0.0000188640  -0.0000341373   0.0000304651
       -0.0000478705  -0.0000361517  -0.0000040731  -0.0060964100   0.0081246979
        0.0022450652   0.0165932446  -0.0242025517  -0.0116151201  -0.0052784128
        0.0084771280   0.0020694382  -0.0034316326  -0.0056485051   0.0023175724