68
 energy: -113.536198738692 gnorm: 0.000074165306 xtb: 6.7.1 (edcfbbe)
C            3.00990897131385        2.84346574176568       -1.18701305720178
C            2.86521098885580        1.49324447451348       -1.46297584540216
C            1.61276845834089        0.90992232370884       -1.43482688261527
C            0.48953385886440        1.67849499416026       -1.14195713938352
C           -0.83872332517122        1.06227175330093       -1.11105603763990
N           -0.93053730485495       -0.21052111482250       -0.81395961386809
C           -2.11766315236958       -0.87915256194646       -0.73630160652825
C           -2.08277732515208       -2.20738046723018       -0.20966891543331
C           -3.07407001136243       -3.17663179022864       -0.44778234904750
C           -2.91825301349319       -4.47452821712194       -0.02165027007028
C           -1.77083516822968       -4.86683771433014        0.66482820077869
C           -0.79432023512133       -3.92723847638784        0.94933841395802
C           -0.94526123396401       -2.61129361452504        0.54612487185385
N            0.00402007690735       -1.65476843776177        0.93576583147859
C           -0.26307900440014       -0.57283788870589        1.75721376172931
C           -1.46825747792542       -0.15984966380246        2.30439447429099
C           -1.45960613570822        0.98171024493480        3.08752014770353
C           -0.28397969590426        1.68631471505043        3.33070968312411
C            0.92689427474745        1.26150284300143        2.80932491465518
C            0.93793429122178        0.12247686252809        2.02089950411880
C            1.97388986180255       -0.60369263123779        1.34008008595204
C            3.33737435102629       -0.45540531570298        1.16659426516903
O            4.13633441997907        0.52044704290470        1.66485537214704
C            5.39260652588362        0.25750912420460        1.19769456056809
C            6.53283213516362        0.99846569188291        1.44478221137977
C            7.71198796857447        0.55715991942556        0.86713991166496
C            7.74915523385567       -0.58488835027785        0.06940897060935
C            6.60958111344324       -1.32483858336697       -0.17637384745881
C            5.41312542169920       -0.90208032341455        0.39410141412663
C            4.05801266387298       -1.37589291958022        0.37208937374292
C            3.41658609506661       -2.44991573589106       -0.25189941429745
C            2.05855612535656       -2.61593290723607       -0.09483189989787
C            1.35235216876089       -1.70330696266151        0.69551873991908
C           -3.26329487461042       -0.14770521589202       -1.10825200623896
S           -4.93235960099680       -0.64781882703796       -1.18091751247268
C           -5.43810039126287        0.97495230838031       -1.61513662865148
C           -6.73114681491182        1.39227722771562       -1.85876876662413
C           -6.94014213031640        2.71843209695928       -2.20065275938232
C           -5.86806230420292        3.60696478056811       -2.29570520394917
C           -4.57805725450886        3.19305124094085       -2.05398081002011
C           -4.34070921996432        1.85608561600287       -1.71079386500023
C           -3.10959969408491        1.21336579247260       -1.41352302618582
N           -1.89339928075629        1.80926914642681       -1.40457020175633
C            0.63784110776507        3.03823605227134       -0.88378148331543
C            1.89447248242312        3.61382312634302       -0.89745463977768
H            3.99100602610227        3.29517162452944       -1.20137147493203
H            3.73156386007389        0.89375815263300       -1.70251300826187
H            1.48772320249629       -0.14071104541102       -1.64963351045704
H           -3.95403849889369       -2.90351391221688       -1.00797669856654
H           -3.68980955856475       -5.19942730874614       -0.23403245947669
H           -1.65164610207800       -5.88748350456804        0.99199015910095
H            0.07842075009827       -4.20000056235593        1.52530777453501
H           -2.38190268106682       -0.70604782828514        2.12330907180307
H           -2.38585024956733        1.33119592997473        3.51889018056041
H           -0.31949631595688        2.57476839466708        3.94300536166959
H            1.84206453087104        1.79898531785000        3.00377396918922
H            6.49651696041636        1.88202274417966        2.06177372487652
H            8.62196594411807        1.11185154011662        1.03878212403768
H            8.68907701250754       -0.89408582291298       -0.36251212803281
H            6.63958482131694       -2.20851621054093       -0.79453229355421
H            3.98546995263631       -3.13465428434404       -0.86039085991355
H            1.53686413255636       -3.42486938164767       -0.58189062962693
H           -7.55461825535715        0.69868820760766       -1.78120271612910
H           -7.94330268896849        3.06589713731404       -2.39487331867309
H           -6.05734276472167        4.63556044556296       -2.56577899502019
H           -3.74071079214651        3.86989572970172       -2.12729273040026
H           -0.24144582723431        3.62568208539133       -0.66489382909766
H            2.00551008182610        4.66706223783689       -0.68518658117552
