$hessian                                                                        
        0.4532956079  -0.0067058151   0.0273078227  -0.1690376555   0.0007622984
        0.0410750251  -0.0265607332  -0.0040826084   0.0038324131  -0.0029283190
       -0.0055031716   0.0101744211  -0.0001226776   0.0014318530  -0.0007592699
        0.0001902284  -0.0000980032   0.0005396581   0.0000249483   0.0000109858
       -0.0001249566   0.0000918763  -0.0002512426   0.0003852291  -0.0000165297
        0.0001024910   0.0000223823  -0.0000660491  -0.0000482156  -0.0000377810
       -0.0000028948  -0.0000356926   0.0000084637  -0.0004314175   0.0000230126
       -0.0013335490   0.0000953325  -0.0003009098   0.0000039230  -0.0000497754
        0.0002089239  -0.0001948222   0.0005217714  -0.0001197665   0.0002970243
       -0.0000476103  -0.0001586721  -0.0000196657   0.0000018200   0.0000992651
        0.0000272762  -0.0001947379  -0.0000418284   0.0000225879   0.0000816223
        0.0000013867  -0.0000331472   0.0000360221   0.0000017803   0.0000136272
        0.0000137896   0.0000748953   0.0000148215   0.0000122984   0.0000409555
        0.0000391285   0.0000016539   0.0000147366   0.0000174439   0.0000073662
       -0.0000049969  -0.0000228207  -0.0000207163  -0.0000452001  -0.0000122927
       -0.0000044851   0.0000012468   0.0000213962   0.0000011627  -0.0000004893
        0.0000005180  -0.0000089364  -0.0000012745   0.0000008395  -0.0000407670
       -0.0000118555  -0.0000277444   0.0000036928   0.0000187877  -0.0000066602
       -0.0000024457  -0.0000010191  -0.0000006876   0.0000056604   0.0000128658
        0.0000066606   0.0000204667  -0.0000121958   0.0000001674   0.0000058790
        0.0001043848   0.0000164266   0.0001200412  -0.0000031385  -0.0000109548
       -0.0000599441  -0.0000367592   0.0000105916   0.0000104833  -0.0000034059
       -0.0000149684  -0.0000132976   0.0000405226  -0.0000025355  -0.0000801358
        0.0000183700   0.0000065508   0.0000871768  -0.0000525376   0.0001270257
        0.0000474029  -0.0000027882  -0.0000778273   0.0000683707  -0.0000316793
        0.0000248025  -0.0000276033   0.0000099075   0.0000082662  -0.0000200430
        0.0000056664   0.0000088353  -0.0000951016   0.0000304260   0.0000337287
        0.0000493634  -0.0000239967  -0.0000057627  -0.0000007942  -0.0000191433
       -0.0000044822   0.0000031335   0.0000057480   0.0000021819  -0.0000942984
        0.0000418776  -0.0000195635  -0.0000192020   0.0000079399  -0.0000064594
       -0.0000293687   0.0000108839  -0.0000041753   0.0000656303  -0.0000201078
       -0.0000344912   0.0000391958  -0.0000345039   0.0000724936   0.0000873382
       -0.0000082281  -0.0001475215  -0.0000046731  -0.0000734279   0.0000136197
       -0.0000242185  -0.0000318691   0.0000210844  -0.0000222495   0.0000217593
        0.0000026656  -0.0007885501  -0.0002186858  -0.0000055514   0.0004547598
        0.0003364317   0.0000558831  -0.1301446198  -0.0594660355  -0.0999427937
       -0.0413319393   0.0013417920  -0.0028163437  -0.0668749846   0.0709109861
        0.0156237353  -0.0150064832   0.0025353158   0.0070344293  -0.0031203340
       -0.0018227307  -0.0026614907   0.0011686384   0.0007430985   0.0008163959
        0.0005851510   0.0001603452   0.0008224974  -0.0000093957   0.0001619913
       -0.0000686341  -0.0000327276   0.0000449443  -0.0000205038  -0.0000224124
        0.0000250566  -0.0000440263   0.0000250038  -0.0000593771  -0.0000087587
        0.0000359907  -0.0000081369  -0.0000275856   0.0000032716   0.0000208273
        0.0000075048   0.0000365739  -0.0000045229   0.0000133522   0.0000109240
        0.0000091298   0.0000026702   0.0000080275   0.0000110974   0.0000116932
        0.0000051109  -0.0000098809  -0.0000294522  -0.0000087151  -0.0000215023
       -0.0000032652  -0.0000181884  -0.0000199422   0.0000001729   0.0000129707
       -0.0000149951  -0.0000116634  -0.0000030172  -0.0000071902  -0.0000037286
        0.0000025975  -0.0000059867  -0.0000103991  -0.0000008612  -0.0000049237
       -0.0000044913   0.0000026438   0.0000016672   0.0000021571   0.0000010813
        0.0000011620   0.0000012287   0.0000069800  -0.0000005053  -0.0000030143
        0.0000056281   0.0000013312  -0.0000065881   0.0000004584  -0.0000010850
       -0.0000002094   0.0000021669   0.0000022608   0.0000004728  -0.0000007365
        0.0000007954   0.0000045867   0.0000000289  -0.0000000457   0.0000023873
       -0.0000006650   0.0000008881   0.0000094526   0.0000203215  -0.0000041752
       -0.0000043988   0.0000129547   0.0000039131   0.0000032697  -0.0000087496
       -0.0000006993  -0.0000017641  -0.0000039685  -0.0000016994   0.0000036424
       -0.0000053387   0.0000008990  -0.0000020971  -0.0000025777   0.0000005449
        0.0000005771  -0.0000000829   0.0000026734   0.0000003639  -0.0000002025
        0.0000041958  -0.0000001483   0.0000006020   0.0000013660   0.0000007210
       -0.0000019945  -0.0000011833  -0.0000003661  -0.0000018306  -0.0000017850
        0.0000003781  -0.0000000616   0.0000028341   0.0000008292  -0.0000038368
       -0.0000002330   0.0000011416  -0.0000047220   0.0000004241   0.0000031123
       -0.0000016534   0.0000000857   0.0000012749  -0.0000023397   0.0000017145
        0.0000007856   0.0000364486   0.0000091222  -0.0000044044
       -0.0067058151   0.5234164097   0.0021829274  -0.0036801089  -0.0661864748
        0.0009053669  -0.0130760529  -0.0008284812   0.0027381056  -0.0135692581
       -0.0005301320   0.0090729013   0.0001360179  -0.0007031645   0.0006791219
        0.0005023257   0.0003864840  -0.0004903095  -0.0000891699   0.0001906835
        0.0002632139   0.0007830905  -0.0000944345   0.0004811455   0.0000267233
       -0.0001285637   0.0000082529   0.0000159324   0.0000281493   0.0000317871
       -0.0000191066   0.0000260356   0.0000362291  -0.0001751111  -0.0015501186
        0.0003222023  -0.0003612712   0.0002514060  -0.0004391367  -0.0004172916
       -0.0000065936   0.0001671549   0.0002997645   0.0000194636  -0.0004414317
       -0.0000258675   0.0000321998  -0.0000331937  -0.0000064737   0.0001059922
        0.0000053332  -0.0000704444  -0.0000211360   0.0000139009   0.0000240754
       -0.0000060281  -0.0000063815   0.0000158139   0.0000000452   0.0000009660
        0.0000488188   0.0000506261   0.0000401433   0.0000231037   0.0000021239
        0.0000066143  -0.0000033171   0.0000112124   0.0000133374   0.0000048493
       -0.0000064567  -0.0000138817  -0.0000058230  -0.0000183223  -0.0000035585
        0.0000006789   0.0000037757   0.0000047433   0.0000087161   0.0000024363
        0.0000025566   0.0000065577   0.0000074433   0.0000096424  -0.0000134204
       -0.0000107753  -0.0000062849  -0.0000029326   0.0000081551  -0.0000049201
        0.0000031863  -0.0000036058   0.0000021915   0.0000021099   0.0000131263
        0.0000047451   0.0000157928   0.0000031520   0.0000075781  -0.0000069658
        0.0000582078   0.0000003864   0.0000523114  -0.0000258572  -0.0000049928
       -0.0000361446   0.0000144995   0.0000135022   0.0000177009  -0.0000225635
       -0.0000085796  -0.0000143727   0.0000010588   0.0000005235  -0.0000172732
       -0.0000023578  -0.0000048911   0.0000375389  -0.0000192930   0.0000438233
       -0.0000104396   0.0000062663  -0.0000259272   0.0000193723  -0.0000087116
        0.0000053100  -0.0000156048   0.0000047981   0.0000108588  -0.0000038991
        0.0000015221  -0.0000019555  -0.0000371114   0.0000108243   0.0000159606
        0.0000216070  -0.0000083578   0.0000001085  -0.0000076349  -0.0000059329
       -0.0000021046  -0.0000030827   0.0000074198   0.0000017286  -0.0000377112
        0.0000169570  -0.0000132199  -0.0000068041   0.0000009395   0.0000030765
       -0.0000145353   0.0000060574  -0.0000076987   0.0000249144  -0.0000075994
       -0.0000077280   0.0000037853  -0.0000070507   0.0000262878   0.0000308625
       -0.0000046551  -0.0000314826   0.0000128456  -0.0000022219  -0.0000074561
       -0.0000904833   0.0001560728  -0.0000129092  -0.0000234546   0.0000260712
        0.0000091447   0.0000774514  -0.0000252124   0.0000948813  -0.0000281436
        0.0000307203  -0.0000594877  -0.0591975191  -0.0862832337  -0.0671669335
        0.0015841152  -0.1185041304   0.1101023798   0.0709882054  -0.2482915362
       -0.0471250274   0.0266097413  -0.0017247073  -0.0113887792  -0.0025055031
       -0.0005054633  -0.0014303744  -0.0008610472   0.0007744519   0.0007188741
        0.0004116226   0.0001951846   0.0001781175  -0.0005494766  -0.0002951586
        0.0004702245  -0.0000089474  -0.0000011765   0.0000301549  -0.0001364078
        0.0000058935   0.0000431350   0.0000060498   0.0000453887   0.0000230926
       -0.0000194340   0.0000073593   0.0000280194   0.0000109441   0.0000075752
       -0.0000187589   0.0000014673  -0.0000088487  -0.0000054519  -0.0000041308
        0.0000012515  -0.0000156029  -0.0000114101   0.0000056229  -0.0000200893
        0.0000090607   0.0000132564   0.0000356463   0.0000154038  -0.0000079796
        0.0000132760  -0.0000120465  -0.0000006122  -0.0000156666  -0.0000042042
       -0.0000066573  -0.0000034755  -0.0000169019  -0.0000055635  -0.0000079608
       -0.0000066897  -0.0000032024  -0.0000056984  -0.0000028708  -0.0000067739
       -0.0000044688  -0.0000053666  -0.0000003309  -0.0000032216  -0.0000043845
       -0.0000038802  -0.0000003400   0.0000001096  -0.0000045999   0.0000004534
        0.0000002224  -0.0000038676  -0.0000071543  -0.0000049516  -0.0000012061
       -0.0000050067  -0.0000011723  -0.0000070583  -0.0000028464  -0.0000023478
       -0.0000078730  -0.0000011456   0.0000011893  -0.0000069444   0.0000014748
       -0.0000006072  -0.0000007801  -0.0000000406   0.0000104054  -0.0000138662
       -0.0000054601   0.0000118964  -0.0000060035  -0.0000005722   0.0000041295
        0.0000029492  -0.0000018556   0.0000027049  -0.0000016531  -0.0000012399
        0.0000072693  -0.0000034958   0.0000039246   0.0000074260  -0.0000028165
        0.0000003860   0.0000058137   0.0000016091  -0.0000023429  -0.0000007682
        0.0000007502   0.0000010156   0.0000044251   0.0000003721   0.0000025481
        0.0000034963  -0.0000034744  -0.0000035772   0.0000023779  -0.0000038539
        0.0000028425  -0.0000007620   0.0000005077  -0.0000002338   0.0000057070
       -0.0000018687  -0.0000030948   0.0000047759  -0.0000016175  -0.0000052051
        0.0000017732  -0.0000005319  -0.0000057371   0.0000031666  -0.0000003878
        0.0000035214   0.0000026288  -0.0000072528   0.0000000534
        0.0273078227   0.0021829274   0.5128796868   0.0484890568  -0.0003346265
       -0.0776392813  -0.0158205084  -0.0014786376   0.0052819847   0.0225623544
        0.0062036409  -0.0186728136   0.0007945869  -0.0006582040  -0.0003300800
       -0.0009733994  -0.0003378251  -0.0001102827   0.0000165257  -0.0001696608
       -0.0001342639  -0.0012513701  -0.0000363908  -0.0007610244   0.0000230745
        0.0000985258  -0.0000713140  -0.0000265608  -0.0000436772  -0.0000154495
       -0.0000014166  -0.0000480182  -0.0000209319  -0.0000880459   0.0021125713
       -0.0010989313   0.0005981720   0.0000227343   0.0003050751  -0.0002857881
        0.0003002381  -0.0002309559   0.0002191487  -0.0005905925  -0.0002797156
        0.0000428478  -0.0000390363  -0.0000223676   0.0000168323  -0.0000179153
        0.0000321177  -0.0000730404   0.0000776461   0.0000043238   0.0000059660
       -0.0000233135   0.0000012045   0.0000141366  -0.0000203215  -0.0000025544
       -0.0000036150   0.0000094611  -0.0000283801   0.0000084417  -0.0000025020
       -0.0000211316  -0.0000029346   0.0000021203   0.0000030378  -0.0000052043
        0.0000060855   0.0000085201   0.0000065090   0.0000060292   0.0000066493
        0.0000014795   0.0000048238  -0.0000024439   0.0000043777   0.0000082305
        0.0000029951   0.0000015312   0.0000120953   0.0000058578   0.0000059910
       -0.0000050538   0.0000055754   0.0000004349   0.0000066450   0.0000030307
       -0.0000023252   0.0000046010   0.0000017364  -0.0000029060   0.0000040191
       -0.0000044279  -0.0000108706   0.0000016051  -0.0000043533  -0.0000114962
        0.0000127461   0.0000032764   0.0000653506  -0.0000154831  -0.0000098790
       -0.0000020989   0.0000154846   0.0000014048  -0.0000364470  -0.0000350549
        0.0000026358   0.0000213484   0.0000591413   0.0000037421  -0.0000040782
       -0.0000050373   0.0000102346   0.0000131388  -0.0000068196   0.0000003725
        0.0000034084   0.0000075877  -0.0000128034   0.0000137724  -0.0000052262
       -0.0000049714  -0.0000086136   0.0000035040   0.0000042654  -0.0000043060
        0.0000042448  -0.0000017565  -0.0000168688   0.0000037807   0.0000111944
        0.0000101861  -0.0000007156  -0.0000014355  -0.0000057762   0.0000023081
        0.0000008638  -0.0000013775   0.0000075996   0.0000025832  -0.0000155301
        0.0000084831  -0.0000064685  -0.0000036292   0.0000018238   0.0000017424
       -0.0000084218   0.0000036891  -0.0000021687   0.0000062187  -0.0000039617
       -0.0000021354  -0.0000013949  -0.0000004991   0.0000105285   0.0000183975
       -0.0000038316  -0.0000140819   0.0000273682  -0.0000679585  -0.0000036147
       -0.0000111740  -0.0000482491  -0.0000258467   0.0000466545  -0.0000350371
        0.0000051577  -0.0000682998   0.0001817678  -0.0000300297  -0.0001035596
       -0.0001455834   0.0000538299  -0.0991694028  -0.0668014252  -0.1545801863
       -0.0025715997   0.1094075637  -0.2067398507   0.0156518008  -0.0468461432
       -0.0547000039   0.0086853470  -0.0012429030  -0.0025988098  -0.0036906783
       -0.0016850570  -0.0017909702  -0.0004058649   0.0003475515   0.0006364205
       -0.0006788800  -0.0003206792   0.0008388893   0.0004253093  -0.0000110050
       -0.0000730555   0.0000245796   0.0000123747  -0.0000026267   0.0002361755
        0.0000466932   0.0000108212   0.0000193870   0.0000197091  -0.0000201302
        0.0000209356  -0.0000011115  -0.0000398137  -0.0000024715  -0.0000042926
        0.0000074251  -0.0000274489   0.0000074724   0.0000057465   0.0000189915
        0.0000115956  -0.0000103332   0.0000022202   0.0000000069   0.0000049246
       -0.0000123347  -0.0000091743  -0.0000472995  -0.0000192365  -0.0000335498
       -0.0000252177   0.0000117446  -0.0000196340   0.0000171680  -0.0000202939
       -0.0000029064   0.0000049707  -0.0000039313  -0.0000014311  -0.0000022360
       -0.0000036454   0.0000006127   0.0000009491  -0.0000015284  -0.0000030311
        0.0000001171  -0.0000009397  -0.0000018681  -0.0000022894  -0.0000034090
       -0.0000062215   0.0000003877  -0.0000001755  -0.0000081898  -0.0000019147
        0.0000004286  -0.0000015607   0.0000004437  -0.0000020068  -0.0000032992
       -0.0000023983   0.0000003523  -0.0000042876   0.0000004545   0.0000014177
       -0.0000016675   0.0000012384   0.0000019173  -0.0000018416   0.0000013999
        0.0000017311  -0.0000030840   0.0000034923  -0.0000008049  -0.0000065111
       -0.0000019192   0.0000036050  -0.0000076878  -0.0000004831   0.0000024286
       -0.0000006299   0.0000031820  -0.0000026468   0.0000004697   0.0000044341
        0.0000015847  -0.0000019851   0.0000044757   0.0000023833  -0.0000013005
        0.0000054687   0.0000018002  -0.0000000886   0.0000006172  -0.0000009627
       -0.0000015269  -0.0000005537   0.0000028526  -0.0000007445   0.0000020626
        0.0000018148  -0.0000025940   0.0000004570   0.0000023132  -0.0000033734
        0.0000009800  -0.0000003273  -0.0000012911   0.0000019415   0.0000044308
       -0.0000016753  -0.0000002326   0.0000043421  -0.0000005057  -0.0000026548
        0.0000012638   0.0000003461   0.0000007094   0.0000061734   0.0000004159
        0.0000002296  -0.0000128175  -0.0000074618  -0.0000041596
       -0.1690376555  -0.0036801089   0.0484890568   0.4513167650  -0.0249753467
        0.0012178448  -0.1133449992  -0.0304479987  -0.0551562138  -0.0563924218
        0.0056587326  -0.0040213747  -0.0004384122   0.0023100659  -0.0042481510
        0.0062834075   0.0022704124   0.0001985958  -0.0002484975  -0.0000739913
        0.0002934358   0.0066681136   0.0014542959   0.0007611654  -0.0003029254
       -0.0001567701   0.0000594847   0.0000148642   0.0000246532   0.0000556546
       -0.0000358972   0.0000601657   0.0000289709   0.0029123586  -0.0016787621
        0.0036391297  -0.0022366712  -0.0000353269  -0.0004580268  -0.0001319516
       -0.0005732839   0.0003691296   0.0004490553   0.0000872552  -0.0000537259
       -0.0001166810   0.0000566215  -0.0001407471  -0.0000167468   0.0000524867
        0.0000138392  -0.0000687468  -0.0000462636   0.0000213621   0.0000526670
       -0.0000056967  -0.0000153638  -0.0000074119   0.0000137382   0.0000119314
        0.0000187482   0.0000570940   0.0000252406   0.0000030289   0.0000289556
        0.0000224160   0.0000005079   0.0000117590   0.0000132482  -0.0000083532
       -0.0000002524  -0.0000140347  -0.0000069877  -0.0000263065  -0.0000085160
       -0.0000021903   0.0000046560   0.0000081632   0.0000007496   0.0000013850
        0.0000016137  -0.0000018177   0.0000074908   0.0000028592  -0.0000200095
       -0.0000063550  -0.0000167373   0.0000005672   0.0000073688  -0.0000042712
       -0.0000048834  -0.0000019525  -0.0000041579   0.0000038506   0.0000064747
        0.0000051874   0.0000118677  -0.0000047359   0.0000061412   0.0000070204
        0.0000375480   0.0000079559   0.0000170307  -0.0000168546  -0.0000119391
        0.0000108464   0.0000014623   0.0000205387   0.0000063188   0.0000066286
       -0.0000174412  -0.0000262487  -0.0000250627   0.0000035456  -0.0000274574
       -0.0000163999   0.0000041985   0.0000288013  -0.0000038468   0.0000377478
        0.0000135649  -0.0000155832  -0.0000296519   0.0000323204  -0.0000189965
        0.0000018326  -0.0000063768   0.0000036525  -0.0000030112  -0.0000116196
        0.0000036118  -0.0000008130  -0.0000336465   0.0000116496   0.0000153168
        0.0000171390  -0.0000100448  -0.0000067969   0.0000004124  -0.0000152073
       -0.0000067591   0.0000023953  -0.0000045117  -0.0000017863  -0.0000341415
        0.0000160008  -0.0000077005  -0.0000088478   0.0000033240  -0.0000048757
       -0.0000135775   0.0000055817  -0.0000021870   0.0000277107  -0.0000093852
       -0.0000105746   0.0000095833  -0.0000147701   0.0000176534   0.0000307199
        0.0000065971  -0.0000435564  -0.0000325010   0.0000276776  -0.0000070516
       -0.0001616906   0.0000662788   0.0000247539  -0.0000390139   0.0000484315
        0.0000053275  -0.0002867338   0.0002412617   0.0001703958   0.0003367144
        0.0001591878   0.0000239378  -0.0226028401  -0.0025733845   0.0058946341
       -0.0040779978  -0.0010425098   0.0039338094  -0.0135575237   0.0038139195
        0.0059526466  -0.0609004522   0.0618028957   0.0120303878  -0.0223392003
       -0.0119483506  -0.0177371663   0.0049188058   0.0011341201   0.0041978497
       -0.0028908504  -0.0015145797  -0.0049602445  -0.0024153643  -0.0004638914
       -0.0003400016   0.0000157101   0.0001937401  -0.0002324574  -0.0014576793
       -0.0002516919  -0.0000927908   0.0000317814   0.0000051612   0.0000165714
       -0.0000177527  -0.0000155135   0.0000306775   0.0000149164  -0.0000030120
       -0.0000065951   0.0000132355   0.0000066355   0.0000059875   0.0000074147
       -0.0000058176  -0.0000222395   0.0000024593  -0.0000067689  -0.0000115111
        0.0000153415   0.0000225595   0.0000466279   0.0000069221  -0.0000220193
        0.0000010596  -0.0000041032  -0.0000161849  -0.0000112971   0.0000075971
       -0.0000180014  -0.0000124879  -0.0000026593  -0.0000091956  -0.0000056547
        0.0000022983  -0.0000058658  -0.0000067686  -0.0000023703  -0.0000046191
       -0.0000029527   0.0000014865  -0.0000005236  -0.0000004825  -0.0000001646
       -0.0000028658  -0.0000005988   0.0000061945  -0.0000041037  -0.0000012296
        0.0000022159   0.0000007783  -0.0000037194  -0.0000018369  -0.0000049724
       -0.0000013029   0.0000018870  -0.0000020167  -0.0000004176   0.0000007959
       -0.0000019852   0.0000021517   0.0000014372  -0.0000013611   0.0000012888
        0.0000024099   0.0000012099   0.0000034268   0.0000174991  -0.0000027036
        0.0000002764   0.0000166453  -0.0000003507   0.0000056742  -0.0000050243
        0.0000137004   0.0000052541  -0.0000061066   0.0000041366   0.0000009041
       -0.0000016564   0.0000006607   0.0000017987   0.0000012643   0.0000006086
        0.0000018955   0.0000005127   0.0000021274  -0.0000021940  -0.0000023668
        0.0000051793   0.0000033876   0.0000005668   0.0000020332   0.0000031104
        0.0000001529   0.0000025318  -0.0000007765  -0.0000011591   0.0000009308
        0.0000015153   0.0000005984   0.0000063985   0.0000028736   0.0000011489
       -0.0000005725   0.0000022092   0.0000015063  -0.0000001100   0.0000004280
        0.0000013285  -0.0000003588   0.0000020657   0.0000043086   0.0000011273
        0.0000109291   0.0000166531   0.0000141848   0.0000112376
        0.0007622984  -0.0661864748  -0.0003346265  -0.0249753467   0.5277829194
        0.0120526592  -0.0332941425  -0.0893630547  -0.0375654169   0.0039496251
       -0.1037300547   0.0595965241   0.0012970185  -0.0203537078   0.0252520903
        0.0018699177  -0.0049509647  -0.0005863088   0.0000470184  -0.0004710485
       -0.0001073382   0.0014117535  -0.0005126269  -0.0026837121  -0.0001109338
        0.0004534828  -0.0004582189  -0.0000550023  -0.0001535181  -0.0000869224
        0.0000914717  -0.0001591509  -0.0001135445  -0.0001742214   0.0086529697
       -0.0063178324   0.0000813621  -0.0013568914  -0.0006538131  -0.0002146851
        0.0004019924  -0.0011627246   0.0001230485  -0.0002267404  -0.0000065859
       -0.0000119067  -0.0002665730   0.0002058049  -0.0000163224  -0.0000048155
        0.0000432733  -0.0000911280   0.0000161744  -0.0000288241   0.0000145646
       -0.0000097943   0.0000142003   0.0000282051  -0.0000094618  -0.0000109014
        0.0000155595   0.0000200781  -0.0000094412   0.0000209791   0.0000117458
        0.0000207900   0.0000053947   0.0000107072   0.0000179197   0.0000161144
       -0.0000072429  -0.0000101145  -0.0000161432  -0.0000119364  -0.0000014341
       -0.0000041593  -0.0000016641   0.0000130004   0.0000121728   0.0000069343
        0.0000054249  -0.0000016219  -0.0000013947   0.0000084192  -0.0000098869
       -0.0000117311  -0.0000063054  -0.0000005111   0.0000153178  -0.0000032022
        0.0000085259   0.0000009260   0.0000072562   0.0000052950   0.0000169251
        0.0000063066   0.0000035867   0.0000042149  -0.0000070636  -0.0000063830
        0.0000556078  -0.0000075672   0.0000601495   0.0000042783   0.0000208956
       -0.0000215083  -0.0000204590  -0.0000602081  -0.0000275541  -0.0000161480
        0.0000246127   0.0000020029   0.0000817415  -0.0000158516  -0.0000198892
        0.0000215442  -0.0000110430   0.0000299846  -0.0000227709   0.0000380690
        0.0000256786   0.0000100641  -0.0000286338   0.0000028584  -0.0000012195
        0.0000078732  -0.0000266149   0.0000059295   0.0000139879  -0.0000070909
        0.0000019252   0.0000000805  -0.0000368518   0.0000112020   0.0000139079
        0.0000148011  -0.0000090517   0.0000028650  -0.0000096304  -0.0000067335
        0.0000001336  -0.0000034996   0.0000078701   0.0000026883  -0.0000351819
        0.0000176046  -0.0000122999  -0.0000089527   0.0000008906   0.0000073740
       -0.0000164682   0.0000056387  -0.0000028936   0.0000123285  -0.0000048874
       -0.0000064595   0.0000227247  -0.0000152007   0.0000392201   0.0000317272
       -0.0000072204  -0.0000449157   0.0000540197  -0.0000510629   0.0000159293
        0.0000525238  -0.0001999601   0.0002218062  -0.0000039384  -0.0001505577
        0.0000015073  -0.0003490580   0.0003314987  -0.0009791242   0.0002222914
        0.0000223261   0.0001487629  -0.0126671946  -0.0006923537   0.0040762639
       -0.0157539890  -0.0012035726   0.0078496139   0.0264943466  -0.0014192787
       -0.0111398419   0.0620215356  -0.2354215973  -0.0372761511  -0.0028585169
       -0.0008667741  -0.0015689404  -0.0173927772  -0.0157710932  -0.0201504671
        0.0101536078   0.0059067096   0.0104684487  -0.0006097449   0.0005243386
        0.0005386216   0.0000780053  -0.0008384115   0.0011613089  -0.0002372628
        0.0000891909  -0.0001415302  -0.0000069958  -0.0000211414  -0.0000586922
        0.0000707950  -0.0000110812  -0.0000961910   0.0000085336   0.0000179034
        0.0000086521   0.0000046580   0.0000357340   0.0000261578  -0.0000144170
        0.0000163122   0.0000324765  -0.0000048591   0.0000194654   0.0000040581
       -0.0000450597  -0.0000126085  -0.0001155654  -0.0000077823   0.0000090482
       -0.0000086716  -0.0000376202  -0.0000080800   0.0000041866   0.0000003850
       -0.0000016564  -0.0000042044  -0.0000025973  -0.0000028232  -0.0000018851
       -0.0000007493  -0.0000012444  -0.0000029582  -0.0000021764  -0.0000043999
       -0.0000052104  -0.0000031503  -0.0000001885  -0.0000024722  -0.0000026229
       -0.0000017446   0.0000002608  -0.0000003490  -0.0000025074  -0.0000075227
        0.0000028728   0.0000012202  -0.0000073116   0.0000018942   0.0000026657
       -0.0000043935   0.0000005913  -0.0000017344  -0.0000006143  -0.0000013416
       -0.0000021786  -0.0000004570   0.0000001333  -0.0000057928  -0.0000001999
        0.0000012355  -0.0000154021   0.0000060862   0.0000058334   0.0000086559
       -0.0000095110   0.0000039145   0.0000063050  -0.0000062195   0.0000170709
       -0.0000279893  -0.0000044039   0.0000130303  -0.0000076507   0.0000071392
        0.0000023732   0.0000002547  -0.0000016521   0.0000006770   0.0000008136
       -0.0000017091   0.0000029480   0.0000036146   0.0000012597   0.0000053775
        0.0000052045  -0.0000012440   0.0000038057   0.0000018710  -0.0000004760
        0.0000006460  -0.0000023613  -0.0000002906   0.0000023394  -0.0000017861
       -0.0000007030  -0.0000007251  -0.0000039919  -0.0000038784  -0.0000013146
        0.0000017087  -0.0000021624  -0.0000022617   0.0000018064   0.0000002213
       -0.0000002938   0.0000031164  -0.0000044406   0.0000009515   0.0000033714
       -0.0000222389   0.0000098705   0.0000117424  -0.0000126008
        0.0410750251   0.0009053669  -0.0776392813   0.0012178448   0.0120526592
        0.4677457433  -0.0517478352  -0.0328311911  -0.1139539766  -0.0009180712
        0.0539998912  -0.1573821168  -0.0017976306   0.0101333305  -0.0022718848
        0.0004543059  -0.0008648291   0.0018185610  -0.0000253830   0.0004407580
       -0.0009177471   0.0012202968  -0.0030972102  -0.0019088693  -0.0000964352
        0.0004829108  -0.0009048566   0.0000221515  -0.0000059358  -0.0000758555
        0.0000237725  -0.0000209310  -0.0001564283   0.0013026211   0.0074548180
       -0.0310682094  -0.0003239250   0.0013698012  -0.0017928139  -0.0001400361
        0.0002433049  -0.0001784759   0.0001669331  -0.0001411861   0.0000095341
       -0.0000033461   0.0000737353  -0.0000661374   0.0000005293  -0.0000252160
        0.0000099531  -0.0000321263   0.0000144785   0.0000042153   0.0000044765
       -0.0000130500   0.0000023929   0.0000067928  -0.0000076807  -0.0000041809
       -0.0000031070  -0.0000030262  -0.0000135628   0.0000043977  -0.0000019909
       -0.0000002844  -0.0000001072   0.0000008894  -0.0000013043   0.0000027922
       -0.0000010916   0.0000007595  -0.0000010194  -0.0000025454  -0.0000016185
        0.0000008935   0.0000009368  -0.0000007986   0.0000023935   0.0000038998
        0.0000023049   0.0000034951   0.0000074970   0.0000003609  -0.0000028326
       -0.0000019851  -0.0000003248  -0.0000000299   0.0000044415   0.0000001379
       -0.0000006711   0.0000012650   0.0000018808   0.0000012964   0.0000041372
        0.0000017124  -0.0000045803   0.0000008816  -0.0000041917  -0.0000039979
        0.0000079208  -0.0000002287   0.0000178225  -0.0000105204   0.0000046843
       -0.0000020322   0.0000185819   0.0000036405  -0.0000094690  -0.0000148335
        0.0000063102   0.0000124472   0.0000233193  -0.0000012870   0.0000069046
       -0.0000054149   0.0000196789  -0.0000032745   0.0000018841  -0.0000164613
        0.0000133616   0.0000021063  -0.0000053965   0.0000037586  -0.0000009141
       -0.0000061620  -0.0000044078   0.0000016172   0.0000021152  -0.0000041993
        0.0000028157   0.0000001286  -0.0000057639   0.0000002322   0.0000052580
        0.0000005833  -0.0000004756  -0.0000033565  -0.0000030546  -0.0000010318
       -0.0000007465  -0.0000019799   0.0000008557   0.0000010231  -0.0000023636
        0.0000003685  -0.0000008543   0.0000029615  -0.0000002674  -0.0000001684
       -0.0000046083   0.0000018317  -0.0000025388  -0.0000089744   0.0000025177
       -0.0000016576  -0.0000100737   0.0000048351   0.0000047394   0.0000092005
       -0.0000034591  -0.0000159871   0.0000150453  -0.0000346088   0.0000024721
       -0.0000545076   0.0000668762  -0.0000415564   0.0000131460  -0.0000213409
        0.0000011353  -0.0000202574   0.0004125335  -0.0001462244  -0.0000852519
       -0.0001788445   0.0001506206  -0.0166515888  -0.0009157223   0.0066985366
        0.0245133373   0.0028961401  -0.0130363985   0.0080700387  -0.0020119952
       -0.0035884639   0.0113857800  -0.0366272713  -0.0497664932   0.0052157164
        0.0038294167   0.0066101879  -0.0051404974  -0.0073537409  -0.0071307681
       -0.0175959744  -0.0088763105  -0.0213473313  -0.0000095001  -0.0010359688
        0.0000210426   0.0000644175  -0.0003344949   0.0000997637  -0.0000936236
       -0.0001232901   0.0001385115  -0.0000118335   0.0001689123   0.0000861674
        0.0000183287   0.0000142799   0.0000053686  -0.0000125825  -0.0000414918
        0.0000086033  -0.0000746154  -0.0000017882  -0.0000218674   0.0000725153
       -0.0000009159  -0.0000037078   0.0000083676  -0.0000338477   0.0000108729