      -----------------------------------------------------------      
     |                   =====================                   |     
     |                           x T B                           |     
     |                   =====================                   |     
     |                         S. Grimme                         |     
     |          Mulliken Center for Theoretical Chemistry        |     
     |                    University of Bonn                     |     
      -----------------------------------------------------------      

   * xtb version 6.7.1 (edcfbbe) compiled by 'albert@albert-system' on 2024-07-22

   xtb is free software: you can redistribute it and/or modify it under
   the terms of the GNU Lesser General Public License as published by
   the Free Software Foundation, either version 3 of the License, or
   (at your option) any later version.
   
   xtb is distributed in the hope that it will be useful,
   but WITHOUT ANY WARRANTY; without even the implied warranty of
   MERCHANTABILITY or FITNESS FOR A PARTICULAR PURPOSE.  See the
   GNU Lesser General Public License for more details.
   
   Cite this work as:
   * C. Bannwarth, E. Caldeweyher, S. Ehlert, A. Hansen, P. Pracht,
     J. Seibert, S. Spicher, S. Grimme, WIREs Comput. Mol. Sci., 2020, 11,
     e01493. DOI: 10.1002/wcms.1493
   
   for GFN2-xTB:
   * C. Bannwarth, S. Ehlert and S. Grimme., J. Chem. Theory Comput., 2019,
     15, 1652-1671. DOI: 10.1021/acs.jctc.8b01176
   for GFN1-xTB:
   * S. Grimme, C. Bannwarth, P. Shushkov, J. Chem. Theory Comput., 2017,
     13, 1989-2009. DOI: 10.1021/acs.jctc.7b00118
   for GFN0-xTB:
   * P. Pracht, E. Caldeweyher, S. Ehlert, S. Grimme, ChemRxiv, 2019, preprint.
     DOI: 10.26434/chemrxiv.8326202.v1
   for GFN-FF:
   * S. Spicher and S. Grimme, Angew. Chem. Int. Ed., 2020, 59, 15665-15673.
     DOI: 10.1002/anie.202004239
   
   for ALPB and GBSA implicit solvation:
   * S. Ehlert, M. Stahn, S. Spicher, S. Grimme, J. Chem. Theory Comput.,
     2021, 17, 4250-4261. DOI: 10.1021/acs.jctc.1c00471
   
   for ddCOSMO and CPCM-X implicit solvation:
   * M. Stahn, S. Ehlert, S. Grimme, J. Phys. Chem. A,
     2023, XX, XXXX-XXXX. DOI: 10.1021/acs.jpca.3c04382
   
   for DFT-D4:
   * E. Caldeweyher, C. Bannwarth and S. Grimme, J. Chem. Phys., 2017,
     147, 034112. DOI: 10.1063/1.4993215
   * E. Caldeweyher, S. Ehlert, A. Hansen, H. Neugebauer, S. Spicher,
     C. Bannwarth and S. Grimme, J. Chem. Phys., 2019, 150, 154122.
     DOI: 10.1063/1.5090222
   * E. Caldeweyher, J.-M. Mewes, S. Ehlert and S. Grimme, Phys. Chem. Chem. Phys.
     2020, 22, 8499-8512. DOI: 10.1039/D0CP00502A
   
   for sTDA-xTB:
   * S. Grimme and C. Bannwarth, J. Chem. Phys., 2016, 145, 054103.
     DOI: 10.1063/1.4959605
   
   in the mass-spec context:
   * V. Asgeirsson, C. Bauer and S. Grimme, Chem. Sci., 2017, 8, 4879.
     DOI: 10.1039/c7sc00601b
   * J. Koopman and S. Grimme, ACS Omega 2019, 4, 12, 15120-15133.
     DOI: 10.1021/acsomega.9b02011
   
   for metadynamics refer to:
   * S. Grimme, J. Chem. Theory Comput., 2019, 155, 2847-2862
     DOI: 10.1021/acs.jctc.9b00143
   
   for SPH calculations refer to:
   * S. Spicher and S. Grimme, J. Chem. Theory Comput., 2021, 17, 1701-1714
     DOI: 10.1021/acs.jctc.0c01306
   
   for ONIOM refer to:
   * C. Plett, A. Katbashev, S. Ehlert, S. Grimme, M. Bursch,
     Phys. Chem. Chem. Phys., 2023, 25, 17860-17868. DOI: 10.1039/D3CP02178E
   
   for DIPRO refer to:
   * J. Kohn, N. Gildemeister, S. Grimme, D. Fazzi, A. Hansen,
     J. Chem. Phys., 2023, just accepted.
   
   for PTB refer to:
   * S. Grimme, M. Mueller, A. Hansen, J. Chem. Phys., 2023, 158, 124111.
     DOI: 10.1063/5.0137838
   
   with help from (in alphabetical order)
   P. Atkinson, C. Bannwarth, F. Bohle, G. Brandenburg, E. Caldeweyher
   M. Checinski, S. Dohm, S. Ehlert, S. Ehrlich, I. Gerasimov, C. Hölzer
   A. Katbashev, J. Kohn, J. Koopman, C. Lavigne, S. Lehtola, F. März, M. Müller,
   F. Musil, H. Neugebauer, J. Pisarek, C. Plett, P. Pracht, F. Pultar,
   J. Seibert, P. Shushkov, S. Spicher, M. Stahn, M. Steiner, T. Strunk,
   J. Stückrath, T. Rose, and J. Unsleber
   
 * started run on 2025/07/20 at 01:01:43.346     
   ID    Z sym.   atoms
    1    8 O      1
    2    6 C      2-10, 12-31, 33-51, 53-58
    3    7 N      11, 32, 52, 59
    4    1 H      60-95

           -------------------------------------------------
          |                Calculation Setup                |
           -------------------------------------------------

          program call               : xtb data2507/toluene/3-DTPA-BBI/3-DTPA-BBI_toluene_S0_finalOpt.xtbopt.xyz --gfn 2 --uhf 2 --gbsa toluene --ohess vtight --parallel 40 --molden --ceasefiles --namespace data2507/toluene/3-DTPA-BBI/3-DTPA-BBI_toluene_T1_preOpt
          calculation namespace      : data2507/toluene/3-DTPA-BBI/3-DTPA-BBI_toluene_T1_preOpt
          coordinate file            : data2507/toluene/3-DTPA-BBI/3-DTPA-BBI_toluene_S0_finalOpt.xtbopt.xyz
          omp threads                :                    40


           -------------------------------------------------
          |                 G F N 2 - x T B                 |
           -------------------------------------------------

        Reference                      10.1021/acs.jctc.8b01176
      * Hamiltonian:
        H0-scaling (s, p, d)           1.850000    2.230000    2.230000
        zeta-weighting                 0.500000
      * Dispersion:
        s8                             2.700000
        a1                             0.520000
        a2                             5.000000
        s9                             5.000000
      * Repulsion:
        kExp                           1.500000    1.000000
        rExp                           1.000000
      * Coulomb:
        alpha                          2.000000
        third order                    shell-resolved
        anisotropic                    true
        a3                             3.000000
        a5                             4.000000
        cn-shift                       1.200000
        cn-exp                         4.000000
        max-rad                        5.000000

      * Solvation model:               GBSA
        Solvent                        toluene
        Parameter file                 internal GFN2-xTB/GBSA
        Dielectric constant                7.0000E+00
        Reference state                gsolv [1 M gas/solution]
        Free energy shift                  4.5239E-03 Eh       2.8388E+00 kcal/mol
        Temperature                        2.9815E+02 K
        Density                            8.6700E-01 kg/L
        Solvent mass                       9.2140E+01 g/mol
        Interaction kernel             Still
        Born radius scaling (c1)           1.5686E+00
        Born radii integrator          GBOBC
        Born offset                        0.0000E+00 a0       0.0000E+00 AA
        H-bond correction              false
        Ion screening                  false
        Surface tension                    1.0000E-05 Eh       1.5569E+01 dyn/cm
        Grid points                               230 per atom

          ...................................................
          :                      SETUP                      :
          :.................................................:
          :  # basis functions                 272          :
          :  # atomic orbitals                 272          :
          :  # shells                          154          :
          :  # electrons                       278          :
          :  max. iterations                   250          :
          :  Hamiltonian                  GFN2-xTB          :
          :  restarted?                      false          :
          :  GBSA solvation                   true          :
          :  PC potential                    false          :
          :  electronic temp.          300.0000000     K    :
          :  accuracy                    1.0000000          :
          :  -> integral cutoff          0.2500000E+02      :
          :  -> integral neglect         0.1000000E-07      :
          :  -> SCF convergence          0.1000000E-05 Eh   :
          :  -> wf. convergence          0.1000000E-03 e    :
          :  Broyden damping             0.4000000          :
          :  net charge                          0          :
          :  unpaired electrons                  2          :
          ...................................................

 iter      E             dE          RMSdq      gap      omega  full diag
   1   -152.4045108 -0.152405E+03  0.431E+00    1.27       0.0  T
   2   -152.5179166 -0.113406E+00  0.272E+00    0.90       1.0  T
   3   -152.3599290  0.157988E+00  0.145E+00    1.32       1.0  T
   4   -152.5559023 -0.195973E+00  0.599E-01    1.12       1.0  T
   5   -152.5714168 -0.155145E-01  0.406E-01    1.04       1.0  T
   6   -152.5865834 -0.151666E-01  0.246E-01    1.05       1.0  T
   7   -152.5952399 -0.865646E-02  0.604E-02    1.12       1.0  T
   8   -152.5952890 -0.490668E-04  0.403E-02    1.10       1.0  T
   9   -152.5953977 -0.108730E-03  0.251E-02    1.11       1.0  T
  10   -152.5954751 -0.773947E-04  0.701E-03    1.10       1.5  T
  11   -152.5954773 -0.227121E-05  0.282E-03    1.11       3.6  T
  12   -152.5954778 -0.491892E-06  0.166E-03    1.11       6.2  T
  13   -152.5954781 -0.247628E-06  0.725E-04    1.11      14.2  T
  14   -152.5954781 -0.158174E-07  0.396E-04    1.11      25.9  T

   *** convergence criteria satisfied after 14 iterations ***

         #    Occupation            Energy/Eh            Energy/eV
      -------------------------------------------------------------
         1        2.0000           -0.6916477             -18.8207
       ...           ...                  ...                  ...
       134        2.0000           -0.3877183             -10.5504
       135        2.0000           -0.3863893             -10.5142
       136        2.0000           -0.3769576             -10.2575
       137        2.0000           -0.3718315             -10.1181
       138        1.6908           -0.3608844              -9.8202
       139        1.3092           -0.3593567              -9.7786
       140        1.0000           -0.2916850              -7.9372 (HOMO)
       141                         -0.2510548              -6.8315 (LUMO)
       142                         -0.2435269              -6.6267
       143                         -0.2432135              -6.6182
       144                         -0.2426070              -6.6017
       145                         -0.2391807              -6.5084
       ...                                ...                  ...
       272                          0.7323750              19.9289
      -------------------------------------------------------------
                  HL-Gap            0.0406301 Eh            1.1056 eV
             Fermi-level           -0.3157454 Eh           -8.5919 eV
 
 transition dipole moment (au) for excitation:         139         140
     X       Y       Z   
  -3.1824   0.2330  -0.0042  total (au/Debye):    3.191   8.111
 dE (eV)             :    1.841
 oscillator strength :  0.64961E+00

 SCC (total)                   0 d,  0 h,  0 min,  0.335 sec
 SCC setup                      ...        0 min,  0.009 sec (  2.645%)
 Dispersion                     ...        0 min,  0.005 sec (  1.557%)
 classical contributions        ...        0 min,  0.000 sec (  0.116%)
 integral evaluation            ...        0 min,  0.011 sec (  3.190%)
 iterations                     ...        0 min,  0.258 sec ( 77.131%)
 molecular gradient             ...        0 min,  0.015 sec (  4.601%)
 printout                       ...        0 min,  0.036 sec ( 10.734%)

         :::::::::::::::::::::::::::::::::::::::::::::::::::::
         ::                     SUMMARY                     ::
         :::::::::::::::::::::::::::::::::::::::::::::::::::::
         :: total energy            -149.840629904575 Eh    ::
         :: total w/o Gsasa/hb      -149.789583456839 Eh    ::
         :: gradient norm              0.077021567538 Eh/a0 ::
         :: HOMO-LUMO gap              1.105602365804 eV    ::
         ::.................................................::
         :: SCC energy              -152.591660630744 Eh    ::
         :: -> isotropic ES            0.087229833630 Eh    ::
         :: -> anisotropic ES          0.004188929008 Eh    ::
         :: -> anisotropic XC          0.084633432110 Eh    ::
         :: -> dispersion             -0.152338135002 Eh    ::
         :: -> Gsolv                  -0.074113264067 Eh    ::
         ::    -> Gelec               -0.023066816331 Eh    ::
         ::    -> Gsasa               -0.055570327608 Eh    ::
         ::    -> Ghb                  0.000000000000 Eh    ::
         ::    -> Gshift               0.004523879872 Eh    ::
         :: repulsion energy           2.751030726169 Eh    ::
         :: add. restraining           0.000000000000 Eh    ::
         :: total charge              -0.000000000000 e     ::
         :::::::::::::::::::::::::::::::::::::::::::::::::::::

      ----------------------------------------------------------- 
     |                   =====================                   |
     |                        A N C O P T                        |
     |                   =====================                   |
     |               Approximate Normal Coordinate               |
     |                Rational Function Optimizer                |
      ----------------------------------------------------------- 

Optimization log is written to '/dev/null'
      ----------------------------------------------------------- 
     |                   =====================                   |
     |                        A N C O P T                        |
     |                   =====================                   |
     |               Approximate Normal Coordinate               |
     |                Rational Function Optimizer                |
      ----------------------------------------------------------- 

          ...................................................
          :                      SETUP                      :
          :.................................................:
          :   optimization level         verytight          :
          :   max. optcycles                  1900          :
          :   ANC micro-cycles                  20          :
          :   degrees of freedom               279          :
          :.................................................:
          :   RF solver                   davidson          :
          :   write xtbopt.log                true          :
          :   linear?                        false          :
          :   energy convergence         0.1000000E-06 Eh   :
          :   grad. convergence          0.2000000E-03 Eh/α :
          :   maxmium RF displ.          1.0000000          :
          :   Hlow (freq-cutoff)         0.1000000E-01      :
          :   Hmax (freq-cutoff)         5.0000000          :
          :   S6 in model hess.         20.0000000          :
          ...................................................

generating ANC from exact Hessian ...
Using Lindh-Hessian (1995)
 Shifting diagonal of input Hessian by   9.881278491830611E-003
 Lowest  eigenvalues of input Hessian
    0.000000    0.000000    0.000000    0.000000    0.000000    0.000000
    0.010000    0.010012    0.010140    0.010242    0.010263    0.010422
    0.010797    0.010873    0.010952    0.011164    0.011315    0.011576
 Highest eigenvalues
    2.151538    2.169859    2.171482    2.197246    2.258144    2.399897
 

........................................................................
.............................. CYCLE    1 ..............................
........................................................................

 iter      E             dE          RMSdq      gap      omega  full diag
   1   -152.5954781 -0.152595E+03  0.218E-04    1.11       0.0  T
   2   -152.5954780  0.619400E-07  0.626E-04    1.11      16.4  T
   3   -152.5954781 -0.639430E-07  0.174E-04    1.11      58.8  T
     SCC iter.                  ...        0 min,  0.041 sec
     gradient                   ...        0 min,  0.015 sec
 * total energy  :  -149.8406299 Eh     change       -0.8836423E-08 Eh
   gradient norm :     0.0770315 Eh/α   predicted     0.0000000E+00 (-100.00%)
   displ. norm   :     0.1106091 α      lambda       -0.3724320E-02
   maximum displ.:     0.0448297 α      in ANC's #83, #24, #76, ...

........................................................................
.............................. CYCLE    2 ..............................
........................................................................

 iter      E             dE          RMSdq      gap      omega  full diag
   1   -152.5831779 -0.152583E+03  0.696E-02    1.15       0.0  T
   2   -152.5789707  0.420725E-02  0.162E-01    1.18       1.0  T
   3   -152.5829068 -0.393612E-02  0.684E-02    1.16       1.0  T
   4   -152.5833191 -0.412349E-03  0.434E-02    1.15       1.0  T
   5   -152.5835520 -0.232846E-03  0.123E-02    1.15       1.0  T
   6   -152.5835619 -0.996675E-05  0.369E-03    1.15       2.8  T
   7   -152.5835641 -0.216958E-05  0.806E-04    1.16      12.7  T
   8   -152.5835641 -0.319504E-07  0.494E-04    1.16      20.8  T
   9   -152.5835642 -0.933980E-08  0.218E-04    1.16      47.0  T
     SCC iter.                  ...        0 min,  0.109 sec
     gradient                   ...        0 min,  0.015 sec
 * total energy  :  -149.8432189 Eh     change       -0.2588993E-02 Eh
   gradient norm :     0.0349794 Eh/α   predicted    -0.1884987E-02 ( -27.19%)
   displ. norm   :     0.1106359 α      lambda       -0.1272372E-02
   maximum displ.:     0.0553324 α      in ANC's #20, #24, #42, ...

........................................................................
.............................. CYCLE    3 ..............................
........................................................................

 iter      E             dE          RMSdq      gap      omega  full diag
   1   -152.5812738 -0.152581E+03  0.611E-02    1.18       0.0  T
   2   -152.5766012  0.467254E-02  0.170E-01    1.21       1.0  T
   3   -152.5812735 -0.467226E-02  0.517E-02    1.19       1.0  T
   4   -152.5815267 -0.253237E-03  0.313E-02    1.18       1.0  T
   5   -152.5816495 -0.122783E-03  0.824E-03    1.19       1.2  T
   6   -152.5816539 -0.438942E-05  0.213E-03    1.19       4.8  T
   7   -152.5816545 -0.635863E-06  0.602E-04    1.19      17.0  T
   8   -152.5816546 -0.329153E-07  0.299E-04    1.19      34.3  T
     SCC iter.                  ...        0 min,  0.097 sec
     gradient                   ...        0 min,  0.015 sec
 * total energy  :  -149.8439399 Eh     change       -0.7210000E-03 Eh
   gradient norm :     0.0067225 Eh/α   predicted    -0.6440356E-03 ( -10.67%)
   displ. norm   :     0.0648517 α      lambda       -0.1005645E-03
   maximum displ.:     0.0421239 α      in ANC's #20, #19, #24, ...

........................................................................
.............................. CYCLE    4 ..............................
........................................................................

 iter      E             dE          RMSdq      gap      omega  full diag
   1   -152.5834125 -0.152583E+03  0.231E-02    1.19       0.0  T
   2   -152.5829372  0.475225E-03  0.553E-02    1.20       1.0  T
   3   -152.5834204 -0.483171E-03  0.157E-02    1.19       1.0  T
   4   -152.5834100  0.104106E-04  0.152E-02    1.19       1.0  T
   5   -152.5834468 -0.368554E-04  0.233E-03    1.19       4.4  T
   6   -152.5834474 -0.596551E-06  0.558E-04    1.19      18.4  T
   7   -152.5834475 -0.349046E-07  0.220E-04    1.19      46.7  T
     SCC iter.                  ...        0 min,  0.086 sec
     gradient                   ...        0 min,  0.015 sec
 * total energy  :  -149.8440129 Eh     change       -0.7303861E-04 Eh
   gradient norm :     0.0033952 Eh/α   predicted    -0.5049792E-04 ( -30.86%)
   displ. norm   :     0.0987074 α      lambda       -0.7422154E-04
   maximum displ.:     0.0659101 α      in ANC's #20, #19, #4, ...

........................................................................
.............................. CYCLE    5 ..............................
........................................................................

 iter      E             dE          RMSdq      gap      omega  full diag
   1   -152.5853210 -0.152585E+03  0.275E-02    1.19       0.0  T
   2   -152.5848599  0.461068E-03  0.558E-02    1.19       1.0  T
   3   -152.5853153 -0.455401E-03  0.192E-02    1.19       1.0  T
   4   -152.5853290 -0.136809E-04  0.118E-02    1.19       1.0  T
   5   -152.5853508 -0.217449E-04  0.335E-03    1.19       3.1  T
   6   -152.5853525 -0.176540E-05  0.630E-04    1.19      16.3  T
   7   -152.5853526 -0.486118E-07  0.232E-04    1.19      44.1  T
   8   -152.5853526 -0.294210E-08  0.125E-04    1.19      81.8  T
     SCC iter.                  ...        0 min,  0.107 sec
     gradient                   ...        0 min,  0.015 sec
 * total energy  :  -149.8440621 Eh     change       -0.4914530E-04 Eh
   gradient norm :     0.0029743 Eh/α   predicted    -0.3749234E-04 ( -23.71%)
   displ. norm   :     0.0843910 α      lambda       -0.3260767E-04
   maximum displ.:     0.0543220 α      in ANC's #20, #4, #19, ...

........................................................................
.............................. CYCLE    6 ..............................
........................................................................

 iter      E             dE          RMSdq      gap      omega  full diag
   1   -152.5858785 -0.152586E+03  0.191E-02    1.19       0.0  T
   2   -152.5857573  0.121211E-03  0.300E-02    1.19       1.0  T
   3   -152.5858602 -0.102922E-03  0.153E-02    1.19       1.0  T
   4   -152.5858858 -0.255974E-04  0.280E-03    1.19       3.7  T
   5   -152.5858867 -0.942474E-06  0.119E-03    1.19       8.6  T
   6   -152.5858869 -0.186420E-06  0.624E-04    1.19      16.4  T
   7   -152.5858870 -0.644351E-07  0.117E-04    1.19      87.5  T
     SCC iter.                  ...        0 min,  0.078 sec
     gradient                   ...        0 min,  0.014 sec
 * total energy  :  -149.8440865 Eh     change       -0.2443765E-04 Eh
   gradient norm :     0.0027759 Eh/α   predicted    -0.1643123E-04 ( -32.76%)
   displ. norm   :     0.0942086 α      lambda       -0.2932144E-04
   maximum displ.:     0.0527916 α      in ANC's #20, #4, #6, ...

........................................................................
.............................. CYCLE    7 ..............................
........................................................................

 iter      E             dE          RMSdq      gap      omega  full diag
   1   -152.5856855 -0.152586E+03  0.189E-02    1.18       0.0  T
   2   -152.5856377  0.477289E-04  0.210E-02    1.18       1.0  T
   3   -152.5856301  0.766216E-05  0.204E-02    1.18       1.0  T
   4   -152.5856824 -0.523496E-04  0.610E-03    1.18       1.7  T
   5   -152.5856889 -0.644730E-05  0.149E-03    1.18       6.9  T
   6   -152.5856892 -0.362509E-06  0.315E-04    1.18      32.5  T
   7   -152.5856892 -0.115905E-07  0.122E-04    1.18      84.2  T
     SCC iter.                  ...        0 min,  0.075 sec
     gradient                   ...        0 min,  0.015 sec
 * total energy  :  -149.8441088 Eh     change       -0.2231106E-04 Eh
   gradient norm :     0.0020886 Eh/α   predicted    -0.1479192E-04 ( -33.70%)
   displ. norm   :     0.1114948 α      lambda       -0.2539593E-04
   maximum displ.:     0.0541611 α      in ANC's #20, #4, #6, ...

........................................................................
.............................. CYCLE    8 ..............................
........................................................................

 iter      E             dE          RMSdq      gap      omega  full diag
   1   -152.5851083 -0.152585E+03  0.210E-02    1.18       0.0  T
   2   -152.5850826  0.257479E-04  0.181E-02    1.18       1.0  T
   3   -152.5849769  0.105687E-03  0.294E-02    1.18       1.0  T
   4   -152.5851063 -0.129440E-03  0.478E-03    1.18       2.1  T
   5   -152.5851101 -0.379640E-05  0.161E-03    1.18       6.4  T
   6   -152.5851105 -0.412958E-06  0.371E-04    1.18      27.6  T
   7   -152.5851105 -0.160267E-07  0.138E-04    1.18      74.3  T
     SCC iter.                  ...        0 min,  0.075 sec
     gradient                   ...        0 min,  0.015 sec
 * total energy  :  -149.8441269 Eh     change       -0.1802789E-04 Eh
   gradient norm :     0.0016478 Eh/α   predicted    -0.1286815E-04 ( -28.62%)
   displ. norm   :     0.1218804 α      lambda       -0.1439722E-04
   maximum displ.:     0.0663724 α      in ANC's #4, #6, #20, ...

........................................................................
.............................. CYCLE    9 ..............................
........................................................................

 iter      E             dE          RMSdq      gap      omega  full diag
   1   -152.5845567 -0.152585E+03  0.214E-02    1.18       0.0  T
   2   -152.5845547  0.197012E-05  0.132E-02    1.18       1.0  T
   3   -152.5844083  0.146471E-03  0.300E-02    1.17       1.0  T
   4   -152.5845568 -0.148503E-03  0.166E-03    1.18       6.2  T
   5   -152.5845571 -0.308502E-06  0.772E-04    1.18      13.3  T
   6   -152.5845571 -0.737568E-07  0.394E-04    1.18      26.0  T
     SCC iter.                  ...        0 min,  0.065 sec
     gradient                   ...        0 min,  0.015 sec
 * total energy  :  -149.8441416 Eh     change       -0.1474095E-04 Eh
   gradient norm :     0.0014512 Eh/α   predicted    -0.7246353E-05 ( -50.84%)
   displ. norm   :     0.0763017 α      lambda       -0.1047604E-04
   maximum displ.:     0.0454932 α      in ANC's #4, #6, #12, ...

........................................................................
.............................. CYCLE   10 ..............................
........................................................................

 iter      E             dE          RMSdq      gap      omega  full diag
   1   -152.5846317 -0.152585E+03  0.137E-02    1.18       0.0  T
   2   -152.5846275  0.421280E-05  0.967E-03    1.18       1.1  T
   3   -152.5845547  0.727047E-04  0.221E-02    1.18       1.0  T
   4   -152.5846256 -0.708674E-04  0.605E-03    1.17       1.7  T
   5   -152.5846322 -0.659109E-05  0.632E-04    1.18      16.2  T
   6   -152.5846323 -0.510220E-07  0.221E-04    1.18      46.5  T
   7   -152.5846323 -0.452576E-08  0.828E-05    1.18     123.9  T
     SCC iter.                  ...        0 min,  0.075 sec
     gradient                   ...        0 min,  0.015 sec
 * total energy  :  -149.8441548 Eh     change       -0.1318653E-04 Eh
   gradient norm :     0.0012886 Eh/α   predicted    -0.5251800E-05 ( -60.17%)
   displ. norm   :     0.1234733 α      lambda       -0.1551068E-04
   maximum displ.:     0.0726890 α      in ANC's #4, #6, #12, ...

........................................................................
.............................. CYCLE   11 ..............................
........................................................................

 iter      E             dE          RMSdq      gap      omega  full diag
   1   -152.5846954 -0.152585E+03  0.227E-02    1.18       0.0  T
   2   -152.5846859  0.951627E-05  0.158E-02    1.18       1.0  T
   3   -152.5845102  0.175747E-03  0.343E-02    1.18       1.0  T
   4   -152.5846685 -0.158295E-03  0.126E-02    1.17       1.0  T
   5   -152.5846969 -0.284857E-04  0.935E-04    1.18      11.0  T
   6   -152.5846970 -0.923367E-07  0.377E-04    1.18      27.2  T
   7   -152.5846970 -0.127291E-07  0.150E-04    1.18      68.6  T
     SCC iter.                  ...        0 min,  0.077 sec
     gradient                   ...        0 min,  0.015 sec
 * total energy  :  -149.8441732 Eh     change       -0.1839688E-04 Eh
   gradient norm :     0.0013686 Eh/α   predicted    -0.7810439E-05 ( -57.54%)
   displ. norm   :     0.1511050 α      lambda       -0.1383732E-04
   maximum displ.:     0.0910048 α      in ANC's #4, #6, #9, ...

........................................................................
.............................. CYCLE   12 ..............................
........................................................................

 iter      E             dE          RMSdq      gap      omega  full diag
   1   -152.5847579 -0.152585E+03  0.269E-02    1.18       0.0  T
   2   -152.5847566  0.132684E-05  0.163E-02    1.18       1.0  T
   3   -152.5847015  0.551528E-04  0.179E-02    1.17       1.0  T
   4   -152.5847583 -0.568522E-04  0.177E-03    1.18       5.8  T
   5   -152.5847581  0.250190E-06  0.203E-03    1.18       5.1  T
   6   -152.5847587 -0.660744E-06  0.438E-04    1.18      23.4  T
   7   -152.5847587 -0.184933E-07  0.147E-04    1.18      69.9  T
     SCC iter.                  ...        0 min,  0.083 sec
     gradient                   ...        0 min,  0.014 sec
 * total energy  :  -149.8441897 Eh     change       -0.1654303E-04 Eh
   gradient norm :     0.0013081 Eh/α   predicted    -0.6989193E-05 ( -57.75%)
   displ. norm   :     0.1469423 α      lambda       -0.1088433E-04
   maximum displ.:     0.0905355 α      in ANC's #4, #6, #9, ...

........................................................................
.............................. CYCLE   13 ..............................
........................................................................

 iter      E             dE          RMSdq      gap      omega  full diag
   1   -152.5849228 -0.152585E+03  0.255E-02    1.18       0.0  T
   2   -152.5849162  0.651393E-05  0.165E-02    1.18       1.0  T
   3   -152.5846534  0.262837E-03  0.400E-02    1.17       1.0  T
   4   -152.5849199 -0.266498E-03  0.468E-03    1.17       2.2  T
   5   -152.5849234 -0.350906E-05  0.131E-03    1.18       7.8  T
   6   -152.5849236 -0.231213E-06  0.423E-04    1.18      24.3  T
   7   -152.5849237 -0.174357E-07  0.170E-04    1.18      60.3  T
     SCC iter.                  ...        0 min,  0.083 sec
     gradient                   ...        0 min,  0.015 sec
 * total energy  :  -149.8442030 Eh     change       -0.1322220E-04 Eh
   gradient norm :     0.0009207 Eh/α   predicted    -0.5496610E-05 ( -58.43%)
   displ. norm   :     0.1363577 α      lambda       -0.8631167E-05
   maximum displ.:     0.0858483 α      in ANC's #4, #6, #9, ...

........................................................................
.............................. CYCLE   14 ..............................
........................................................................

 iter      E             dE          RMSdq      gap      omega  full diag
   1   -152.5851467 -0.152585E+03  0.235E-02    1.17       0.0  T
   2   -152.5851316  0.150365E-04  0.171E-02    1.18       1.0  T
   3   -152.5849060  0.225592E-03  0.386E-02    1.17       1.0  T
   4   -152.5851477 -0.241682E-03  0.146E-03    1.17       7.0  T
   5   -152.5851478 -0.105999E-06  0.948E-04    1.17      10.8  T
   6   -152.5851479 -0.969107E-07  0.522E-04    1.17      19.7  T
     SCC iter.                  ...        0 min,  0.071 sec
     gradient                   ...        0 min,  0.015 sec
 * total energy  :  -149.8442134 Eh     change       -0.1043325E-04 Eh
   gradient norm :     0.0005162 Eh/α   predicted    -0.4355651E-05 ( -58.25%)
   displ. norm   :     0.1281677 α      lambda       -0.7019851E-05
   maximum displ.:     0.0816598 α      in ANC's #4, #6, #7, ...

........................................................................
.............................. CYCLE   15 ..............................
........................................................................

 iter      E             dE          RMSdq      gap      omega  full diag
   1   -152.5852827 -0.152585E+03  0.221E-02    1.17       0.0  T
   2   -152.5852572  0.255499E-04  0.185E-02    1.17       1.0  T
   3   -152.5851203  0.136898E-03  0.322E-02    1.17       1.0  T
   4   -152.5852845 -0.164199E-03  0.139E-03    1.17       7.4  T
   5   -152.5852846 -0.141643E-06  0.722E-04    1.17      14.2  T
   6   -152.5852847 -0.299898E-07  0.512E-04    1.17      20.0  T
     SCC iter.                  ...        0 min,  0.084 sec
     gradient                   ...        0 min,  0.017 sec
 * total energy  :  -149.8442218 Eh     change       -0.8458108E-05 Eh
   gradient norm :     0.0005524 Eh/α   predicted    -0.3536403E-05 ( -58.19%)
   displ. norm   :     0.1284746 α      lambda       -0.6232043E-05
   maximum displ.:     0.0821481 α      in ANC's #4, #6, #2, ...

........................................................................
.............................. CYCLE   16 ..............................
........................................................................

 iter      E             dE          RMSdq      gap      omega  full diag
   1   -152.5853417 -0.152585E+03  0.226E-02    1.17       0.0  T
   2   -152.5853259  0.157590E-04  0.169E-02    1.17       1.0  T
   3   -152.5851304  0.195541E-03  0.363E-02    1.17       1.0  T
   4   -152.5853423 -0.211922E-03  0.209E-03    1.17       4.9  T
   5   -152.5853428 -0.500537E-06  0.117E-03    1.17       8.8  T
   6   -152.5853430 -0.204213E-06  0.389E-04    1.17      26.4  T
   7   -152.5853430 -0.126364E-07  0.149E-04    1.17      68.7  T
     SCC iter.                  ...        0 min,  0.084 sec
     gradient                   ...        0 min,  0.014 sec
 * total energy  :  -149.8442293 Eh     change       -0.7419636E-05 Eh
   gradient norm :     0.0006416 Eh/α   predicted    -0.3140009E-05 ( -57.68%)
   displ. norm   :     0.1303980 α      lambda       -0.5448313E-05
   maximum displ.:     0.0831157 α      in ANC's #4, #6, #2, ...

........................................................................
.............................. CYCLE   17 ..............................
........................................................................

 iter      E             dE          RMSdq      gap      omega  full diag
   1   -152.5853063 -0.152585E+03  0.231E-02    1.17       0.0  T
   2   -152.5853007  0.564027E-05  0.150E-02    1.17       1.0  T
   3   -152.5850686  0.232097E-03  0.379E-02    1.17       1.0  T
   4   -152.5853068 -0.238245E-03  0.111E-03    1.17       9.3  T
   5   -152.5853069 -0.719185E-07  0.629E-04    1.17      16.3  T
   6   -152.5853069 -0.792883E-08  0.525E-04    1.17      19.5  T
     SCC iter.                  ...        0 min,  0.071 sec
     gradient                   ...        0 min,  0.015 sec
 * total energy  :  -149.8442354 Eh     change       -0.6092380E-05 Eh
   gradient norm :     0.0005509 Eh/α   predicted    -0.2746462E-05 ( -54.92%)
   displ. norm   :     0.1061459 α      lambda       -0.3732856E-05
   maximum displ.:     0.0673297 α      in ANC's #4, #6, #2, ...

........................................................................
.............................. CYCLE   18 ..............................
........................................................................

 iter      E             dE          RMSdq      gap      omega  full diag
   1   -152.5852433 -0.152585E+03  0.190E-02    1.17       0.0  T
   2   -152.5852413  0.202970E-05  0.118E-02    1.17       1.0  T
   3   -152.5851095  0.131826E-03  0.284E-02    1.17       1.0  T
   4   -152.5852435 -0.134061E-03  0.971E-04    1.17      10.6  T
   5   -152.5852436 -0.871128E-07  0.377E-04    1.17      27.2  T
   6   -152.5852436  0.121137E-07  0.382E-04    1.17      26.8  T
     SCC iter.                  ...        0 min,  0.072 sec
     gradient                   ...        0 min,  0.015 sec
 * total energy  :  -149.8442395 Eh     change       -0.4091041E-05 Eh
   gradient norm :     0.0003854 Eh/α   predicted    -0.1876646E-05 ( -54.13%)
   displ. norm   :     0.0704941 α      lambda       -0.2325125E-05
   maximum displ.:     0.0435914 α      in ANC's #4, #6, #2, ...

........................................................................
.............................. CYCLE   19 ..............................
........................................................................

 iter      E             dE          RMSdq      gap      omega  full diag
   1   -152.5852253 -0.152585E+03  0.126E-02    1.17       0.0  T
   2   -152.5852248  0.489412E-06  0.760E-03    1.17       1.3  T
   3   -152.5851847  0.400909E-04  0.157E-02    1.17       1.0  T
   4   -152.5852244 -0.396849E-04  0.239E-03    1.17       4.3  T
   5   -152.5852254 -0.997719E-06  0.451E-04    1.17      22.7  T
   6   -152.5852254 -0.251380E-07  0.175E-04    1.17      58.5  T
     SCC iter.                  ...        0 min,  0.071 sec
     gradient                   ...        0 min,  0.014 sec
 * total energy  :  -149.8442421 Eh     change       -0.2695768E-05 Eh
   gradient norm :     0.0002846 Eh/α   predicted    -0.1166867E-05 ( -56.71%)
   displ. norm   :     0.0579817 α      lambda       -0.2030310E-05
   maximum displ.:     0.0328131 α      in ANC's #4, #12, #6, ...

........................................................................
.............................. CYCLE   20 ..............................
........................................................................

 iter      E             dE          RMSdq      gap      omega  full diag
   1   -152.5851616 -0.152585E+03  0.104E-02    1.17       0.0  T
   2   -152.5851587  0.291218E-05  0.752E-03    1.17       1.4  T
   3   -152.5851125  0.461334E-04  0.175E-02    1.17       1.0  T
   4   -152.5851600 -0.474750E-04  0.319E-03    1.17       3.2  T
   5   -152.5851619 -0.185340E-05  0.430E-04    1.17      23.9  T
   6   -152.5851619 -0.215973E-07  0.155E-04    1.17      66.3  T
   7   -152.5851619 -0.160426E-08  0.637E-05    1.17     161.0  T
     SCC iter.                  ...        0 min,  0.084 sec
     gradient                   ...        0 min,  0.014 sec
 * total energy  :  -149.8442445 Eh     change       -0.2351052E-05 Eh
   gradient norm :     0.0002861 Eh/α   predicted    -0.1017285E-05 ( -56.73%)
   displ. norm   :     0.0565895 α      lambda       -0.1907595E-05
   maximum displ.:     0.0271779 α      in ANC's #4, #9, #12, ...
 * RMSD in coord.:     0.1696439 α      energy gain  -0.3614593E-02 Eh

generating ANC from exact Hessian ...
Using Lindh-Hessian (1995)
 Shifting diagonal of input Hessian by   9.880558980621120E-003
 Lowest  eigenvalues of input Hessian
    0.000000    0.000000    0.000000    0.000000    0.000000    0.000000
    0.010000    0.010012    0.010133    0.010241    0.010264    0.010419
    0.010801    0.010875    0.010969    0.011174    0.011329    0.011585
 Highest eigenvalues
    2.154083    2.168429    2.172568    2.190700    2.261339    2.367179
 

........................................................................
.............................. CYCLE   21 ..............................
........................................................................

 iter      E             dE          RMSdq      gap      omega  full diag
   1   -152.5851049 -0.152585E+03  0.104E-02    1.17       0.0  T
   2   -152.5850992  0.570530E-05  0.861E-03    1.17       1.2  T
   3   -152.5850641  0.350889E-04  0.162E-02    1.17       1.0  T
   4   -152.5851049 -0.408373E-04  0.156E-03    1.17       6.6  T
   5   -152.5851053 -0.368998E-06  0.560E-04    1.17      18.3  T
   6   -152.5851053 -0.490987E-07  0.149E-04    1.17      68.9  T
     SCC iter.                  ...        0 min,  0.072 sec
     gradient                   ...        0 min,  0.014 sec
 * total energy  :  -149.8442466 Eh     change       -0.2110765E-05 Eh
   gradient norm :     0.0003018 Eh/α   predicted     0.0000000E+00 (-100.00%)
   displ. norm   :     0.0098238 α      lambda       -0.5628959E-06
   maximum displ.:     0.0036670 α      in ANC's #4, #17, #6, ...

........................................................................
.............................. CYCLE   22 ..............................
........................................................................

 iter      E             dE          RMSdq      gap      omega  full diag
   1   -152.5850654 -0.152585E+03  0.192E-03    1.17       0.0  T
   2   -152.5850653  0.114233E-06  0.144E-03    1.17       7.1  T
   3   -152.5850639  0.134302E-05  0.303E-03    1.17       3.4  T
   4   -152.5850653 -0.139761E-05  0.624E-04    1.17      16.4  T
   5   -152.5850654 -0.714296E-07  0.117E-04    1.17      87.9  T
   6   -152.5850654 -0.203872E-08  0.241E-05    1.17     425.2  T
     SCC iter.                  ...        0 min,  0.072 sec
     gradient                   ...        0 min,  0.015 sec
 * total energy  :  -149.8442474 Eh     change       -0.8125656E-06 Eh
   gradient norm :     0.0001359 Eh/α   predicted    -0.3193821E-06 ( -60.69%)
   displ. norm   :     0.0390566 α      lambda       -0.1442978E-05
   maximum displ.:     0.0149657 α      in ANC's #4, #17, #6, ...

........................................................................
.............................. CYCLE   23 ..............................
........................................................................

 iter      E             dE          RMSdq      gap      omega  full diag
   1   -152.5851744 -0.152585E+03  0.722E-03    1.17       0.0  T
   2   -152.5851739  0.553033E-06  0.468E-03    1.17       2.2  T
   3   -152.5851517  0.221829E-04  0.118E-02    1.17       1.0  T
   4   -152.5851741 -0.224154E-04  0.149E-03    1.17       6.9  T
   5   -152.5851745 -0.381014E-06  0.361E-04    1.17      28.5  T
   6   -152.5851745 -0.209151E-07  0.822E-05    1.17     124.8  T
     SCC iter.                  ...        0 min,  0.071 sec
     gradient                   ...        0 min,  0.014 sec
 * total energy  :  -149.8442491 Eh     change       -0.1684311E-05 Eh
   gradient norm :     0.0003798 Eh/α   predicted    -0.9050747E-06 ( -46.26%)
   displ. norm   :     0.0259812 α      lambda       -0.7056427E-06
   maximum displ.:     0.0110821 α      in ANC's #4, #6, #17, ...

........................................................................
.............................. CYCLE   24 ..............................
........................................................................

 iter      E             dE          RMSdq      gap      omega  full diag
   1   -152.5852700 -0.152585E+03  0.475E-03    1.17       0.0  T
   2   -152.5852700  0.293420E-07  0.283E-03    1.17       3.6  T
   3   -152.5852679  0.207716E-05  0.340E-03    1.17       3.0  T
   4   -152.5852698 -0.192056E-05  0.112E-03    1.17       9.2  T
   5   -152.5852700 -0.194974E-06  0.187E-04    1.17      54.9  T
   6   -152.5852700 -0.524730E-08  0.405E-05    1.17     253.2  T
     SCC iter.                  ...        0 min,  0.073 sec
     gradient                   ...        0 min,  0.016 sec
 * total energy  :  -149.8442499 Eh     change       -0.8191196E-06 Eh
   gradient norm :     0.0003510 Eh/α   predicted    -0.3530848E-06 ( -56.89%)
   displ. norm   :     0.0394668 α      lambda       -0.9983705E-06
   maximum displ.:     0.0175049 α      in ANC's #4, #6, #2, ...

........................................................................
.............................. CYCLE   25 ..............................
........................................................................

 iter      E             dE          RMSdq      gap      omega  full diag
   1   -152.5852749 -0.152585E+03  0.716E-03    1.17       0.0  T
   2   -152.5852743  0.521424E-06  0.460E-03    1.17       2.2  T
   3   -152.5852559  0.184512E-04  0.109E-02    1.17       1.0  T
   4   -152.5852737 -0.177876E-04  0.263E-03    1.17       3.9  T
   5   -152.5852749 -0.126389E-05  0.226E-04    1.17      45.4  T
   6   -152.5852749 -0.691045E-08  0.616E-05    1.17     166.5  T
   7   -152.5852749 -0.911768E-10  0.323E-05    1.17     318.0  T
     SCC iter.                  ...        0 min,  0.083 sec
     gradient                   ...        0 min,  0.015 sec
 * total energy  :  -149.8442511 Eh     change       -0.1174571E-05 Eh
   gradient norm :     0.0001886 Eh/α   predicted    -0.5083440E-06 ( -56.72%)
   displ. norm   :     0.0414058 α      lambda       -0.8759406E-06
   maximum displ.:     0.0195184 α      in ANC's #4, #6, #2, ...

........................................................................
.............................. CYCLE   26 ..............................
........................................................................

 iter      E             dE          RMSdq      gap      omega  full diag
   1   -152.5852460 -0.152585E+03  0.723E-03    1.17       0.0  T
   2   -152.5852443  0.167960E-05  0.540E-03    1.17       1.9  T
   3   -152.5852241  0.202297E-04  0.118E-02    1.17       1.0  T
   4   -152.5852451 -0.210687E-04  0.233E-03    1.17       4.4  T
   5   -152.5852461 -0.993818E-06  0.268E-04    1.17      38.3  T
   6   -152.5852461 -0.103753E-07  0.618E-05    1.17     165.9  T
     SCC iter.                  ...        0 min,  0.072 sec
     gradient                   ...        0 min,  0.014 sec
 * total energy  :  -149.8442521 Eh     change       -0.9723063E-06 Eh
   gradient norm :     0.0001630 Eh/α   predicted    -0.4570496E-06 ( -52.99%)
   displ. norm   :     0.0303779 α      lambda       -0.5165005E-06
   maximum displ.:     0.0151797 α      in ANC's #4, #6, #2, ...

........................................................................
.............................. CYCLE   27 ..............................
........................................................................

 iter      E             dE          RMSdq      gap      omega  full diag
   1   -152.5851911 -0.152585E+03  0.493E-03    1.17       0.0  T
   2   -152.5851901  0.999309E-06  0.386E-03    1.17       2.7  T
   3   -152.5851812  0.885115E-05  0.791E-03    1.17       1.3  T
   4   -152.5851910 -0.973992E-05  0.104E-03    1.17       9.9  T
   5   -152.5851911 -0.188794E-06  0.185E-04    1.17      55.5  T
   6   -152.5851911 -0.524338E-08  0.406E-05    1.17     252.5  T
     SCC iter.                  ...        0 min,  0.073 sec
     gradient                   ...        0 min,  0.014 sec
 * total energy  :  -149.8442527 Eh     change       -0.6228314E-06 Eh
   gradient norm :     0.0001945 Eh/α   predicted    -0.2622507E-06 ( -57.89%)
   displ. norm   :     0.0351708 α      lambda       -0.6502823E-06
   maximum displ.:     0.0179768 α      in ANC's #4, #6, #2, ...

........................................................................
.............................. CYCLE   28 ..............................
........................................................................

 iter      E             dE          RMSdq      gap      omega  full diag
   1   -152.5851205 -0.152585E+03  0.548E-03    1.17       0.0  T
   2   -152.5851198  0.696346E-06  0.385E-03    1.17       2.7  T
   3   -152.5851048  0.150351E-04  0.979E-03    1.17       1.0  T
   4   -152.5851205 -0.157677E-04  0.392E-04    1.17      26.2  T
   5   -152.5851205 -0.161254E-07  0.187E-04    1.17      54.8  T
   6   -152.5851205 -0.581352E-08  0.485E-05    1.17     211.4  T
     SCC iter.                  ...        0 min,  0.072 sec
     gradient                   ...        0 min,  0.014 sec
 * total energy  :  -149.8442535 Eh     change       -0.7999424E-06 Eh
   gradient norm :     0.0002002 Eh/α   predicted    -0.3258923E-06 ( -59.26%)
   displ. norm   :     0.0498152 α      lambda       -0.8707117E-06
   maximum displ.:     0.0256400 α      in ANC's #4, #6, #2, ...

........................................................................
.............................. CYCLE   29 ..............................
........................................................................

 iter      E             dE          RMSdq      gap      omega  full diag
   1   -152.5850708 -0.152585E+03  0.774E-03    1.17       0.0  T
   2   -152.5850706  0.231771E-06  0.470E-03    1.17       2.2  T
   3   -152.5850527  0.179330E-04  0.103E-02    1.17       1.0  T
   4   -152.5850706 -0.178912E-04  0.137E-03    1.17       7.5  T
   5   -152.5850709 -0.305159E-06  0.249E-04    1.17      41.1  T
   6   -152.5850709 -0.938110E-08  0.610E-05    1.17     168.2  T
     SCC iter.                  ...        0 min,  0.071 sec
     gradient                   ...        0 min,  0.014 sec
 * total energy  :  -149.8442545 Eh     change       -0.1023065E-05 Eh
   gradient norm :     0.0001769 Eh/α   predicted    -0.4406921E-06 ( -56.92%)
   displ. norm   :     0.0512039 α      lambda       -0.7543316E-06
   maximum displ.:     0.0269526 α      in ANC's #4, #6, #2, ...

........................................................................
.............................. CYCLE   30 ..............................
........................................................................

 iter      E             dE          RMSdq      gap      omega  full diag
   1   -152.5850651 -0.152585E+03  0.798E-03    1.17       0.0  T
   2   -152.5850650  0.133298E-06  0.478E-03    1.17       2.1  T
   3   -152.5850561  0.887077E-05  0.742E-03    1.17       1.4  T
   4   -152.5850644 -0.829726E-05  0.206E-03    1.17       5.0  T
   5   -152.5850652 -0.742320E-06  0.232E-04    1.17      44.3  T
   6   -152.5850652 -0.807677E-08  0.647E-05    1.17     158.5  T
     SCC iter.                  ...        0 min,  0.072 sec
     gradient                   ...        0 min,  0.015 sec
 * total energy  :  -149.8442553 Eh     change       -0.8290745E-06 Eh
   gradient norm :     0.0001529 Eh/α   predicted    -0.3784026E-06 ( -54.36%)
   displ. norm   :     0.0350544 α      lambda       -0.4268294E-06
   maximum displ.:     0.0191359 α      in ANC's #4, #6, #2, ...

........................................................................
.............................. CYCLE   31 ..............................
........................................................................

 iter      E             dE          RMSdq      gap      omega  full diag
   1   -152.5851237 -0.152585E+03  0.541E-03    1.17       0.0  T
   2   -152.5851233  0.434185E-06  0.361E-03    1.17       2.8  T
   3   -152.5851099  0.133761E-04  0.921E-03    1.17       1.1  T
   4   -152.5851236 -0.136634E-04  0.103E-03    1.17      10.0  T
   5   -152.5851237 -0.186303E-06  0.164E-04    1.17      62.6  T
   6   -152.5851237 -0.432070E-08  0.424E-05    1.17     241.9  T
     SCC iter.                  ...        0 min,  0.071 sec
     gradient                   ...        0 min,  0.014 sec
 * total energy  :  -149.8442558 Eh     change       -0.4721848E-06 Eh
   gradient norm :     0.0001028 Eh/α   predicted    -0.2161744E-06 ( -54.22%)
   displ. norm   :     0.0229905 α      lambda       -0.2739115E-06
   maximum displ.:     0.0127582 α      in ANC's #4, #6, #2, ...

........................................................................
.............................. CYCLE   32 ..............................
........................................................................

 iter      E             dE          RMSdq      gap      omega  full diag
   1   -152.5851655 -0.152585E+03  0.353E-03    1.17       0.0  T
   2   -152.5851652  0.300363E-06  0.252E-03    1.17       4.1  T
   3   -152.5851594  0.576558E-05  0.611E-03    1.17       1.7  T
   4   -152.5851655 -0.605855E-05  0.435E-04    1.17      23.6  T
   5   -152.5851655 -0.307122E-07  0.115E-04    1.17      89.0  T
   6   -152.5851655 -0.216747E-08  0.306E-05    1.17     335.6  T
     SCC iter.                  ...        0 min,  0.071 sec
     gradient                   ...        0 min,  0.014 sec
 * total energy  :  -149.8442561 Eh     change       -0.3136846E-06 Eh
   gradient norm :     0.0000716 Eh/α   predicted    -0.1415017E-06 ( -54.89%)
   displ. norm   :     0.0213979 α      lambda       -0.2265739E-06
   maximum displ.:     0.0118140 α      in ANC's #4, #2, #6, ...

........................................................................
.............................. CYCLE   33 ..............................
........................................................................

 iter      E             dE          RMSdq      gap      omega  full diag
   1   -152.5851917 -0.152585E+03  0.330E-03    1.17       0.0  T
   2   -152.5851916  0.125347E-06  0.215E-03    1.17       4.8  T
   3   -152.5851862  0.538798E-05  0.576E-03    1.17       1.8  T
   4   -152.5851917 -0.551994E-05  0.211E-04    1.17      48.7  T
   5   -152.5851917 -0.458118E-08  0.952E-05    1.17     107.8  T
   6   -152.5851917 -0.131499E-08  0.411E-05    1.17     249.5  T
     SCC iter.                  ...        0 min,  0.071 sec
     gradient                   ...        0 min,  0.015 sec
 * total energy  :  -149.8442564 Eh     change       -0.2510254E-06 Eh
   gradient norm :     0.0000848 Eh/α   predicted    -0.1161606E-06 ( -53.73%)
   displ. norm   :     0.0213979 α      lambda        0.0000000E+00
   maximum displ.:     0.0118140 α      in ANC's #4, #2, #6, ...

........................................................................
.............................. CYCLE   34 ..............................
........................................................................

 iter      E             dE          RMSdq      gap      omega  full diag
   1   -152.5852143 -0.152585E+03  0.330E-03    1.17       0.0  T
   2   -152.5852142  0.117253E-06  0.214E-03    1.17       4.8  T
   3   -152.5852089  0.533781E-05  0.573E-03    1.17       1.8  T
   4   -152.5852143 -0.546220E-05  0.194E-04    1.17      53.0  T
   5   -152.5852143 -0.394786E-08  0.791E-05    1.17     129.7  T
   6   -152.5852143 -0.729017E-09  0.440E-05    1.17     232.9  T
     SCC iter.                  ...        0 min,  0.071 sec
     gradient                   ...        0 min,  0.015 sec
 * total energy  :  -149.8442564 Eh     change       -0.3267348E-07 Eh
   gradient norm :     0.0001555 Eh/α   predicted    -0.4680771E-08 ( -85.67%)
   displ. norm   :     0.0039401 α      lambda       -0.1376313E-06
   maximum displ.:     0.0015757 α      in ANC's #13, #17, #24, ...

   *** GEOMETRY OPTIMIZATION CONVERGED AFTER 34 ITERATIONS ***

------------------------------------------------------------------------
 total energy gain   :        -0.0036265 Eh       -2.2757 kcal/mol
 total RMSD          :         0.1779306 a0        0.0942 Å
 total power (kW/mol):        -0.2800413 (step)   -2.6110 (real)
------------------------------------------------------------------------

 ANCopt (total)                0 d,  0 h,  0 min,  3.647 sec
 optimizer setup                ...        0 min,  0.001 sec (  0.028%)
 model hessian                  ...        0 min,  0.163 sec (  4.459%)
 ANC generation                 ...        0 min,  0.019 sec (  0.507%)
 coordinate transformation      ...        0 min,  0.002 sec (  0.067%)
 single point calculation       ...        0 min,  3.437 sec ( 94.240%)
 optimization log               ...        0 min,  0.010 sec (  0.273%)
 hessian update                 ...        0 min,  0.005 sec (  0.146%)
 rational function              ...        0 min,  0.006 sec (  0.160%)

================
 final structure:
================
95
 xtb: 6.7.1 (edcfbbe)
O           -6.92436772466730        2.46789007962765        1.03040197728899
C           -6.29756182107507        1.48853662619264        0.61274770087268
C           -4.85478604557767        1.39983890639883        0.55531903831589
C           -4.09404956616800        2.50568265406559        0.98084516012131
C           -2.73095707731918        2.49959095580187        0.84416072759678
C           -2.04669441782546        1.38636983356464        0.33090825402207
C           -0.63957777504317        1.55745727792320       -0.02077720671546
C           -0.16472796775046        1.16448125754668       -1.27771239352070
C            1.14296427586466        1.37589428402356       -1.64563473635537
C            2.04095265420706        1.98599032497760       -0.76157710626925
N            3.37604675157039        2.17952527998612       -1.10938577933469
C            4.04811308974955        1.27218906615221       -1.93377379563113
C            5.02425220308114        1.72349449606339       -2.82523907996233
C            5.70469794382483        0.82582242049252       -3.62439208770123
C            5.42579827567176       -0.53038024954151       -3.55317527533517
C            4.45247196123988       -0.98264033975307       -2.67615730590565
C            3.76710750820006       -0.09388031268514       -1.87161908025304
C            4.06952738578436        3.29179605239254       -0.60800361253009
C            3.45649350395023        4.54422345417243       -0.56057241178151
C            4.14512948292768        5.63371500243616       -0.06259896713527
C            5.44794630691524        5.49293635061124        0.39023395776276
C            6.06071874859050        4.25025803959181        0.34350504734679
C            5.38008231753604        3.15378339237888       -0.14966474888216
C            1.56760727459029        2.40114199716828        0.48764962117178
C            0.25317568074931        2.19874629172896        0.84253842229303
C           -2.76895163863614        0.19512537999346        0.05734385519672
C           -2.14229070465877       -1.04685099148312       -0.25140266694925
C           -0.75423045399693       -1.32824764355271        0.07229536138820
C           -0.21232381671849       -0.94615804798472        1.30912726917403
C            1.07817105409001       -1.26283347717693        1.65358705320493
C            1.90043350454416       -1.97220693806537        0.76626133699763
N            3.21563317435851       -2.27667667393035        1.09059251373715
C            3.97671955101072       -1.43333676734547        1.90707078064890
C            4.91275688017481       -1.97267463523748        2.79232488755735
C            5.68207022105915       -1.14046529988144        3.58167793104962
C            5.53186254591099        0.23583218226786        3.50594082979064
C            4.59917817639580        0.77553897552164        2.63407397919306
C            3.82597516372942       -0.04729843226740        1.83899810408373
C            3.80752877497285       -3.44371800828235        0.58129806858038
C            3.09397773867409       -4.64229714846060        0.55184888253118
C            3.68395163227887       -5.78617935749077        0.04923849770588
C            4.98603786568564       -5.75271889265362       -0.42588043000990
C            5.69847815110998       -4.56373597908612       -0.39610650219922
C            5.11733216778747       -3.41346557120488        0.10193962765175
C            1.36089435358541       -2.37322828851953       -0.46323700035487
C            0.06235808663692       -2.06800474249370       -0.79340815945632
C           -2.91952824193616       -2.10369432255269       -0.76617367282167
C           -4.28163629950981       -2.02436348047041       -0.84588280639685
C           -4.94226307415574       -0.87028957504150       -0.37284996448613
C           -4.19246143749942        0.24411184302089        0.08361691382902
C           -6.34768276392324       -0.78086938198274       -0.34432391861309
N           -7.21790568663241       -1.70486271265238       -0.73341610823180
C           -8.44506390598798       -1.17209647978955       -0.50632944413812
C           -9.71116240976419       -1.71436846940606       -0.73496658006228
C          -10.80808416903983       -0.94703767814411       -0.40884134485618
C          -10.67451137741014        0.33349875686553        0.13384096728419
C           -9.43013219523148        0.89427474204649        0.37053446619002
C           -8.32573843682684        0.13291560620814        0.04607513213264
N           -6.96471532116119        0.36579253077692        0.14201315417222
H           -4.62249167066184        3.36475435464336        1.36644689334359
H           -2.16805803463756        3.38873376549077        1.08837102640388
H           -0.85051321875803        0.71444852360269       -1.98004685874289
H            1.47817015693064        1.09047590582800       -2.63157877710833
H            5.23645497620108        2.78024102252544       -2.89260371169918
H            6.45346348291381        1.18897251653718       -4.31272928591479
H            5.96102135775395       -1.22872318197301       -4.17832569944333
H            4.23326567518157       -2.03791738966801       -2.61054857916615
H            3.01308560366124       -0.45160870440360       -1.18806485647344
H            2.44564387495529        4.65569475113232       -0.92461421465377
H            3.66387296272559        6.60014894659852       -0.03537106658282
H            5.98214536320787        6.34735102200959        0.77731851269809
H            7.07259106040389        4.13194120162106        0.70152808153603
H            5.85160575907741        2.18265895633728       -0.17366004278215
H            2.24456118540561        2.87291405447833        1.18417612398543
H           -0.08363942132051        2.50696109566293        1.82099713665108
H           -0.84123057162220       -0.42751306956342        2.01701692337816
H            1.45905532120700       -0.98853043827500        2.62592996601116
H            5.02391440084747       -3.04447865316221        2.86272280123822
H            6.39880955997800       -1.56980597468048        4.26583785756083
H            6.13606520455469        0.88285723126957        4.12338781468625
H            4.48095491110004        1.84655264203505        2.56442073331127
H            3.10624409545863        0.37741407815527        1.15697684811235
H            2.08447231278643       -4.66993997160502        0.93489452966255
H            3.12630720874862       -6.71075296903979        0.03606459614159
H            5.44269733859782       -6.64935481657468       -0.81653716750027
H            6.71033718673745       -4.52943117056487       -0.77141044074779
H            5.66558768381208       -2.48336051251735        0.11237610062201
H            1.98000507078866       -2.91179919059300       -1.16483776938382
H           -0.31974942918329       -2.36297933739347       -1.75881735772010
H           -2.42316934958159       -3.02184323455728       -1.04345553152914
H           -4.88424861461822       -2.83662916250730       -1.21844256581807
H           -9.81023500969310       -2.70339223767561       -1.15409651880316
H          -11.80023394576104       -1.34115674290134       -0.57513021970573
H          -11.56176129300085        0.89998109305515        0.37472661179948
H           -9.31628984335201        1.88228551768619        0.78898489546707
 
 Bond Distances (Angstroems)
 ---------------------------
O1-C2=1.2355         C2-O1=1.2355         C2-C3=1.4466         C2-N59=1.3883        C3-C2=1.4466         C3-C4=1.4081         
C3-C50=1.4131        C4-C3=1.4081         C4-C5=1.3699         C4-H60=1.0798        C5-C4=1.3699         C5-C6=1.4039         
C5-H61=1.0803        C6-C5=1.4039         C6-C7=1.4605         C6-C26=1.4197        C7-C6=1.4605         C7-C8=1.3999         
C7-C25=1.3977        C8-C7=1.3999         C8-C9=1.3748         C8-H62=1.0799        C9-C8=1.3748         C9-C10=1.4001        
C9-H63=1.0798        C10-C9=1.4001        C10-N11=1.3932       C10-C24=1.3989       N11-C10=1.3932       N11-C12=1.3981       
N11-C18=1.4034       C12-N11=1.3981       C12-C13=1.3969       C12-C17=1.3961       C13-C12=1.3969       C13-C14=1.3811       
C13-H64=1.0799       C14-C13=1.3811       C14-C15=1.3864       C14-H65=1.0800       C15-C14=1.3864       C15-C16=1.3860       
C15-H66=1.0793       C16-C15=1.3860       C16-C17=1.3809       C16-H67=1.0798       C17-C12=1.3961       C17-C16=1.3809       
C17-H68=1.0788       C18-N11=1.4034       C18-C19=1.3952       C18-C23=1.3952       C19-C18=1.3952       C19-C20=1.3817       
C19-H69=1.0802       C20-C19=1.3817       C20-C21=1.3864       C20-H70=1.0800       C21-C20=1.3864       C21-C22=1.3863       
C21-H71=1.0795       C22-C21=1.3863       C22-C23=1.3816       C22-H72=1.0798       C23-C18=1.3952       C23-C22=1.3816       
C23-H73=1.0798       C24-C10=1.3989       C24-C25=1.3765       C24-H74=1.0798       C25-C7=1.3977        C25-C24=1.3765       
C25-H75=1.0797       C26-C6=1.4197        C26-C27=1.4250       C26-C50=1.4246       C27-C26=1.4250       C27-C28=1.4528       
C27-C47=1.4093       C28-C27=1.4528       C28-C29=1.4034       C28-C46=1.4012       C29-C28=1.4034       C29-C30=1.3727       
C29-H76=1.0796       C30-C29=1.3727       C30-C31=1.4024       C30-H77=1.0797       C31-C30=1.4024       C31-N32=1.3884       
C31-C45=1.4013       N32-C31=1.3884       N32-C33=1.3990       N32-C39=1.4042       C33-N32=1.3990       C33-C34=1.3967       
C33-C38=1.3959       C34-C33=1.3967       C34-C35=1.3811       C34-H78=1.0798       C35-C34=1.3811       C35-C36=1.3865       
C35-H79=1.0799       C36-C35=1.3865       C36-C37=1.3861       C36-H80=1.0793       C37-C36=1.3861       C37-C38=1.3810       
C37-H81=1.0798       C38-C33=1.3959       C38-C37=1.3810       C38-H82=1.0787       C39-N32=1.4042       C39-C40=1.3952       
C39-C44=1.3951       C40-C39=1.3952       C40-C41=1.3817       C40-H83=1.0801       C41-C40=1.3817       C41-C42=1.3865       
C41-H84=1.0798       C42-C41=1.3865       C42-C43=1.3864       C42-H85=1.0794       C43-C42=1.3864       C43-C44=1.3816       
C43-H86=1.0798       C44-C39=1.3951       C44-C43=1.3816       C44-H87=1.0797       C45-C31=1.4013       C45-C46=1.3742       
C45-H88=1.0796       C46-C28=1.4012       C46-C45=1.3742       C46-H89=1.0794       C47-C27=1.4093       C47-C48=1.3667       
C47-H90=1.0799       C48-C47=1.3667       C48-C49=1.4114       C48-H91=1.0778       C49-C48=1.4114       C49-C50=1.4186       
C49-C51=1.4086       C50-C3=1.4131        C50-C26=1.4246       C50-C49=1.4186       C51-C49=1.4086       C51-N52=1.3276       
C51-N59=1.3900       N52-C51=1.3276       N52-C53=1.3570       C53-N52=1.3570       C53-C54=1.3962       C53-C58=1.4221       
C54-C53=1.3962       C54-C55=1.3778       C54-H92=1.0787       C55-C54=1.3778       C55-C56=1.3972       C55-H93=1.0804       
C56-C55=1.3972       C56-C57=1.3853       C56-H94=1.0799       C57-C56=1.3853       C57-C58=1.3801       C57-H95=1.0790       
C58-C53=1.4221       C58-C57=1.3801       C58-N59=1.3841       N59-C2=1.3883        N59-C51=1.3900       N59-C58=1.3841       
H60-C4=1.0798        H61-C5=1.0803        H62-C8=1.0799        H63-C9=1.0798        H64-C13=1.0799       H65-C14=1.0800       
H66-C15=1.0793       H67-C16=1.0798       H68-C17=1.0788       H69-C19=1.0802       H70-C20=1.0800       H71-C21=1.0795       
H72-C22=1.0798       H73-C23=1.0798       H74-C24=1.0798       H75-C25=1.0797       H76-C29=1.0796       H77-C30=1.0797       
H78-C34=1.0798       H79-C35=1.0799       H80-C36=1.0793       H81-C37=1.0798       H82-C38=1.0787       H83-C40=1.0801       
H84-C41=1.0798       H85-C42=1.0794       H86-C43=1.0798       H87-C44=1.0797       H88-C45=1.0796       H89-C46=1.0794       
H90-C47=1.0799       H91-C48=1.0778       H92-C54=1.0787       H93-C55=1.0804       H94-C56=1.0799       H95-C57=1.0790       
 C  H  Rav=1.0796 sigma=0.0005  Rmin=1.0778  Rmax=1.0804    36
 C  C  Rav=1.3966 sigma=0.0193  Rmin=1.3667  Rmax=1.4605    57
 N  C  Rav=1.3848 sigma=0.0219  Rmin=1.3276  Rmax=1.4042    11
 O  C  Rav=1.2355 sigma=0.0000  Rmin=1.2355  Rmax=1.2355     1
 
 selected bond angles (degree)
 --------------------
C3-C2-O1=124.61                N59-C2-O1=120.79               N59-C2-C3=114.60               C4-C3-C2=118.60                
C50-C3-C2=122.06               C50-C3-C4=119.34               C5-C4-C3=120.26                H60-C4-C3=117.93               
H60-C4-C5=121.74               C6-C5-C4=121.67                H61-C5-C4=119.49               H61-C5-C6=118.77               
C7-C6-C5=117.69                C26-C6-C5=119.20               C26-C6-C7=122.82               C8-C7-C6=120.67                
C25-C7-C6=121.36               C25-C7-C8=117.82               C9-C8-C7=121.32                H62-C8-C7=119.05               
H62-C8-C9=119.61               C10-C9-C8=120.54               H63-C9-C8=119.93               H63-C9-C10=119.51              
N11-C10-C9=121.17              C24-C10-C9=118.44              C24-C10-N11=120.40             
 
 selected dihedral angles (degree)
 ---------------------------------
C4-C3-C2-O1=358.92            C4-C3-C2-N59=178.44           C50-C3-C2-O1=179.11           C50-C3-C2-N59=358.63          
C5-C4-C3-C2=185.10            C5-C4-C3-C50=  4.91           H60-C4-C3-C2=  2.11           H60-C4-C3-C50=181.91          
C6-C5-C4-C3=357.49            C6-C5-C4-H60=180.61           H61-C5-C4-C3=174.31           H61-C5-C4-H60=357.42          
C7-C6-C5-C4=168.39            C7-C6-C5-H61=351.55           C26-C6-C5-C4=354.33           C26-C6-C5-H61=177.49          
C8-C7-C6-C5=231.02            C8-C7-C6-C26= 44.84           C25-C7-C6-C5= 46.53           C25-C7-C6-C26=220.35          
C9-C8-C7-C6=176.95            C9-C8-C7-C25=  1.28           H62-C8-C7-C6=358.86           H62-C8-C7-C25=183.19          
C10-C9-C8-C7=  0.44           C10-C9-C8-H62=178.52          H63-C9-C8-C7=181.82           H63-C9-C8-H62=359.90          
N11-C10-C9-C8=178.55          N11-C10-C9-H63=357.18         C24-C10-C9-C8=358.53          C24-C10-C9-H63=177.16         
           -------------------------------------------------
          |                Final Singlepoint                |
           -------------------------------------------------

          ...................................................
          :                      SETUP                      :
          :.................................................:
          :  # basis functions                 272          :
          :  # atomic orbitals                 272          :
          :  # shells                          154          :
          :  # electrons                       278          :
          :  max. iterations                   250          :
          :  Hamiltonian                  GFN2-xTB          :
          :  restarted?                      false          :
          :  GBSA solvation                   true          :
          :  PC potential                    false          :
          :  electronic temp.          300.0000000     K    :
          :  accuracy                    1.0000000          :
          :  -> integral cutoff          0.2500000E+02      :
          :  -> integral neglect         0.1000000E-07      :
          :  -> SCF convergence          0.1000000E-05 Eh   :
          :  -> wf. convergence          0.1000000E-03 e    :
          :  Broyden damping             0.4000000          :
          :  net charge                          0          :
          :  unpaired electrons                  2          :
          ...................................................

 iter      E             dE          RMSdq      gap      omega  full diag
   1   -152.5852143 -0.152585E+03  0.186E-05    1.17       0.0  T
   2   -152.5852143  0.104393E-09  0.296E-05    1.17     347.1  T
   3   -152.5852143 -0.978844E-10  0.163E-05    1.17     629.1  T

   *** convergence criteria satisfied after 3 iterations ***

         #    Occupation            Energy/Eh            Energy/eV
      -------------------------------------------------------------
         1        2.0000           -0.6907000             -18.7949
       ...           ...                  ...                  ...
       134        2.0000           -0.3899115             -10.6100
       135        2.0000           -0.3883999             -10.5689
       136        2.0000           -0.3790141             -10.3135
       137        2.0000           -0.3708481             -10.0913
       138        1.7599           -0.3591793              -9.7738
       139        1.2401           -0.3569897              -9.7142
       140        1.0000           -0.2986607              -8.1270 (HOMO)
       141                         -0.2556955              -6.9578 (LUMO)
       142                         -0.2436280              -6.6295
       143                         -0.2429265              -6.6104
       144                         -0.2412381              -6.5644
       145                         -0.2390206              -6.5041
       ...                                ...                  ...
       272                          0.7172737              19.5180
      -------------------------------------------------------------
                  HL-Gap            0.0429651 Eh            1.1691 eV
             Fermi-level           -0.3176313 Eh           -8.6432 eV
 
 transition dipole moment (au) for excitation:         139         140
     X       Y       Z   
  -3.5728   0.3340  -0.0291  total (au/Debye):    3.589   9.121
 dE (eV)             :    1.587
 oscillator strength :  0.70817E+00

 SCC (total)                   0 d,  0 h,  0 min,  0.092 sec
 SCC setup                      ...        0 min,  0.001 sec (  1.254%)
 Dispersion                     ...        0 min,  0.001 sec (  1.521%)
 classical contributions        ...        0 min,  0.000 sec (  0.042%)
 integral evaluation            ...        0 min,  0.005 sec (  5.576%)
 iterations                     ...        0 min,  0.036 sec ( 39.451%)
 molecular gradient             ...        0 min,  0.015 sec ( 15.905%)
 printout                       ...        0 min,  0.033 sec ( 36.158%)

         :::::::::::::::::::::::::::::::::::::::::::::::::::::
         ::                     SUMMARY                     ::
         :::::::::::::::::::::::::::::::::::::::::::::::::::::
         :: total energy            -149.844256415559 Eh    ::
         :: total w/o Gsasa/hb      -149.793155105889 Eh    ::
         :: gradient norm              0.000155509049 Eh/a0 ::
         :: HOMO-LUMO gap              1.169140623763 eV    ::
         ::.................................................::
         :: SCC energy              -152.581428060700 Eh    ::
         :: -> isotropic ES            0.085466686665 Eh    ::
         :: -> anisotropic ES          0.004452429265 Eh    ::
         :: -> anisotropic XC          0.084833303383 Eh    ::
         :: -> dispersion             -0.152215420361 Eh    ::
         :: -> Gsolv                  -0.072527936572 Eh    ::
         ::    -> Gelec               -0.021426626902 Eh    ::
         ::    -> Gsasa               -0.055625189542 Eh    ::
         ::    -> Ghb                  0.000000000000 Eh    ::
         ::    -> Gshift               0.004523879872 Eh    ::
         :: repulsion energy           2.737171645141 Eh    ::
         :: add. restraining           0.000000000000 Eh    ::
         :: total charge              -0.000000000000 e     ::
         :::::::::::::::::::::::::::::::::::::::::::::::::::::

           ------------------------------------------------- 
          |                Numerical Hessian                |
           ------------------------------------------------- 
step length          :   0.00500
SCC accuracy         :   0.30000
Hessian scale factor :   1.00000
frozen atoms in %    :   0.00000    0
RMS gradient         :   0.00015
estimated CPU  time     20.73 min
estimated wall time      0.52 min

writing file <hessian>.

 projected vibrational frequencies (cm⁻¹)
eigval :       -0.00    -0.00    -0.00     0.00     0.00     0.00
eigval :       15.52    16.43    17.69    20.84    26.62    30.24
eigval :       41.18    49.12    51.30    54.72    56.97    60.02
eigval :       69.83    70.20    74.95    77.22    80.63    86.74
eigval :      109.24   114.07   117.71   122.97   130.39   156.59
eigval :      159.89   163.92   183.97   190.96   208.51   224.69
eigval :      229.40   235.70   237.24   258.44   271.40   287.75
eigval :      293.16   300.49   311.12   319.50   323.76   337.13
eigval :      344.89   352.86   354.92   375.85   377.26   379.30
eigval :      381.53   384.90   390.96   394.10   399.23   409.82
eigval :      416.34   417.62   430.34   446.48   456.14   469.77
eigval :      481.64   486.09   493.09   499.06   506.48   513.01
eigval :      526.79   536.10   541.09   552.58   580.48   580.91
eigval :      583.69   585.29   585.81   590.70   593.33   594.27
eigval :      605.03   612.40   615.73   617.11   620.51   641.08
eigval :      657.46   659.32   660.74   663.46   666.90   677.22
eigval :      682.19   683.72   696.81   706.37   709.02   728.80
eigval :      738.61   754.13   756.61   758.82   760.61   769.24
eigval :      776.65   785.31   804.48   811.87   822.61   827.40
eigval :      850.78   859.40   863.73   865.80   865.95   868.79
eigval :      873.01   873.11   874.60   894.25   895.21   899.15
eigval :      899.27   899.57   899.72   901.80   903.10   908.26
eigval :      909.09   913.46   915.47   919.90   921.86   922.15
eigval :      925.93   927.97   928.64   928.97   929.71   930.62
eigval :      931.90   932.74   933.47   934.57   975.92   983.45
eigval :      997.43  1003.01  1003.36  1010.26  1028.49  1051.99
eigval :     1063.52  1079.53  1080.22  1082.21  1083.70  1098.93
eigval :     1119.51  1120.05  1122.09  1125.17  1126.39  1130.12
eigval :     1140.63  1142.87  1144.24  1172.78  1173.38  1176.44
eigval :     1177.23  1177.34  1177.63  1179.03  1181.01  1189.60
eigval :     1191.51  1192.36  1193.03  1196.46  1211.63  1213.78
eigval :     1229.25  1243.46  1261.39  1265.70  1267.06  1272.69
eigval :     1273.89  1274.58  1277.67  1279.97  1284.86  1288.91
eigval :     1295.70  1298.36  1308.80  1312.40  1312.89  1313.82
eigval :     1315.21  1321.93  1323.25  1324.31  1325.01  1329.50
eigval :     1350.46  1360.34  1374.16  1382.55  1399.47  1407.75
eigval :     1414.60  1420.75  1431.43  1432.06  1437.08  1437.87
eigval :     1452.87  1458.96  1459.96  1460.16  1460.44  1461.87
eigval :     1472.67  1474.99  1477.46  1493.11  1509.77  1517.73
eigval :     1530.31  1547.82  1565.94  1568.82  1569.11  1572.66
eigval :     1573.35  1577.03  1578.38  1581.55  1582.31  1588.17
eigval :     1589.77  1595.78  1601.81  3073.75  3074.63  3078.80
eigval :     3079.06  3080.30  3080.42  3080.65  3080.93  3081.39
eigval :     3081.88  3082.41  3082.74  3083.01  3083.66  3085.20
eigval :     3086.09  3087.90  3089.51  3089.76  3090.35  3091.25
eigval :     3091.95  3092.85  3093.87  3094.10  3094.84  3097.21
eigval :     3097.59  3097.87  3098.40  3099.23  3100.35  3101.22
eigval :     3106.87  3109.43  3111.80
           -------------------------------------------------
          |                Property Printout                |
           -------------------------------------------------

    * Orbital Energies and Occupations

         #    Occupation            Energy/Eh            Energy/eV
      -------------------------------------------------------------
         1        2.0000           -0.6907000             -18.7949
       ...           ...                  ...                  ...
       128        2.0000           -0.4146885             -11.2842
       129        2.0000           -0.4137465             -11.2586
       130        2.0000           -0.4112505             -11.1907
       131        2.0000           -0.4050984             -11.0233
       132        2.0000           -0.4004094             -10.8957
       133        2.0000           -0.3912640             -10.6468
[...]
          |               Frequency Printout                |
           -------------------------------------------------
 projected vibrational frequencies (cm⁻¹)
eigval :       -0.00    -0.00    -0.00     0.00     0.00     0.00
eigval :       15.52    16.43    17.69    20.84    26.62    30.24
eigval :       41.18    49.12    51.30    54.72    56.97    60.02
eigval :       69.83    70.20    74.95    77.22    80.63    86.74
eigval :      109.24   114.07   117.71   122.97   130.39   156.59
eigval :      159.89   163.92   183.97   190.96   208.51   224.69
eigval :      229.40   235.70   237.24   258.44   271.40   287.75
eigval :      293.16   300.49   311.12   319.50   323.76   337.13
eigval :      344.89   352.86   354.92   375.85   377.26   379.30
eigval :      381.53   384.90   390.96   394.10   399.23   409.82
eigval :      416.34   417.62   430.34   446.48   456.14   469.77
eigval :      481.64   486.09   493.09   499.06   506.48   513.01
eigval :      526.79   536.10   541.09   552.58   580.48   580.91
eigval :      583.69   585.29   585.81   590.70   593.33   594.27
eigval :      605.03   612.40   615.73   617.11   620.51   641.08
eigval :      657.46   659.32   660.74   663.46   666.90   677.22
eigval :      682.19   683.72   696.81   706.37   709.02   728.80
eigval :      738.61   754.13   756.61   758.82   760.61   769.24
eigval :      776.65   785.31   804.48   811.87   822.61   827.40
eigval :      850.78   859.40   863.73   865.80   865.95   868.79
eigval :      873.01   873.11   874.60   894.25   895.21   899.15
eigval :      899.27   899.57   899.72   901.80   903.10   908.26
eigval :      909.09   913.46   915.47   919.90   921.86   922.15
eigval :      925.93   927.97   928.64   928.97   929.71   930.62
eigval :      931.90   932.74   933.47   934.57   975.92   983.45
eigval :      997.43  1003.01  1003.36  1010.26  1028.49  1051.99
eigval :     1063.52  1079.53  1080.22  1082.21  1083.70  1098.93
eigval :     1119.51  1120.05  1122.09  1125.17  1126.39  1130.12
eigval :     1140.63  1142.87  1144.24  1172.78  1173.38  1176.44
eigval :     1177.23  1177.34  1177.63  1179.03  1181.01  1189.60
eigval :     1191.51  1192.36  1193.03  1196.46  1211.63  1213.78
eigval :     1229.25  1243.46  1261.39  1265.70  1267.06  1272.69
eigval :     1273.89  1274.58  1277.67  1279.97  1284.86  1288.91
eigval :     1295.70  1298.36  1308.80  1312.40  1312.89  1313.82
eigval :     1315.21  1321.93  1323.25  1324.31  1325.01  1329.50
eigval :     1350.46  1360.34  1374.16  1382.55  1399.47  1407.75
eigval :     1414.60  1420.75  1431.43  1432.06  1437.08  1437.87
eigval :     1452.87  1458.96  1459.96  1460.16  1460.44  1461.87
eigval :     1472.67  1474.99  1477.46  1493.11  1509.77  1517.73
eigval :     1530.31  1547.82  1565.94  1568.82  1569.11  1572.66
eigval :     1573.35  1577.03  1578.38  1581.55  1582.31  1588.17
eigval :     1589.77  1595.78  1601.81  3073.75  3074.63  3078.80
eigval :     3079.06  3080.30  3080.42  3080.65  3080.93  3081.39
eigval :     3081.88  3082.41  3082.74  3083.01  3083.66  3085.20
eigval :     3086.09  3087.90  3089.51  3089.76  3090.35  3091.25
eigval :     3091.95  3092.85  3093.87  3094.10  3094.84  3097.21
eigval :     3097.59  3097.87  3098.40  3099.23  3100.35  3101.22
eigval :     3106.87  3109.43  3111.80
 reduced masses (amu)
   1: 11.95   2: 11.44   3: 11.54   4: 11.83   5: 11.62   6: 11.35   7: 11.05   8: 11.06
   9: 11.01  10: 11.33  11: 11.37  12: 11.05  13: 10.80  14: 10.90  15: 10.61  16: 10.68
  17: 10.69  18: 10.61  19: 11.29  20: 11.33  21: 10.46  22: 10.75  23: 10.83  24: 10.13
  25: 11.77  26: 10.87  27: 10.95  28: 10.28  29: 10.82  30: 11.29  31: 11.45  32: 11.23
  33: 10.96  34: 10.86  35: 10.88  36: 10.87  37: 10.55  38: 10.36  39: 10.39  40: 11.79
  41: 12.23  42: 11.37  43: 11.24  44: 11.45  45: 11.00  46: 11.07  47: 10.85  48: 10.94
  49: 10.92  50: 10.95  51: 10.85  52:  9.02  53:  9.03  54:  9.09  55:  9.11  56: 11.26
  57:  9.64  58:  9.57  59: 10.87  60: 10.61  61: 11.84  62: 10.39  63: 10.69  64: 10.90
  65: 10.98  66: 10.50  67: 10.24  68: 10.99  69: 10.61  70: 10.78  71: 11.36  72: 11.05
  73: 10.00  74: 10.41  75: 10.79  76: 11.43  77: 11.30  78: 11.37  79: 11.08  80: 11.18
  81: 11.17  82: 11.38  83: 11.25  84: 11.53  85: 11.03  86: 11.42  87: 11.45  88: 11.57
  89: 11.49  90: 11.53  91: 11.30  92: 10.07  93: 10.20  94:  9.67  95:  9.88  96: 11.75
  97: 11.52  98: 11.48  99: 11.31 100: 11.46 101: 11.93 102: 11.95 103: 11.08 104:  4.37
 105:  4.74 106:  4.20 107:  4.63 108:  3.62 109: 10.97 110: 11.38 111:  4.09 112:  4.26
 113:  4.72 114:  4.93 115: 11.08 116:  3.38 117:  3.41 118:  3.42 119:  3.48 120:  3.48
 121: 11.09 122:  3.28 123:  3.35 124:  5.35 125:  4.13 126:  5.17 127:  5.12 128:  4.55
 129:  3.85 130:  7.28 131:  3.95 132: 11.13 133: 10.81 134: 11.09 135:  3.03 136:  2.91
 137:  3.55 138:  2.99 139:  3.98 140:  3.50 141:  3.32 142:  3.41 143:  3.44 144:  3.95
 145:  3.86 146:  3.27 147:  9.16 148:  4.88 149: 10.95 150: 10.84 151: 10.89 152: 10.57
 153: 10.56 154:  9.32 155:  8.16 156:  6.48 157:  9.68 158:  6.72 159:  6.75 160:  6.64
 161:  6.71 162:  9.31 163:  4.01 164:  4.01 165:  3.99 166:  4.07 167:  5.39 168:  6.88
 169:  3.24 170:  3.75 171:  4.57 172:  3.34 173:  4.85 174:  1.53 175:  2.83 176:  1.75
 177:  2.15 178:  1.37 179:  5.17 180:  2.99 181:  2.83 182:  2.60 183:  5.24 184:  2.56
 185:  5.56 186:  5.63 187:  8.77 188:  7.86 189:  6.56 190:  4.14 191:  4.82 192:  6.85
 193:  4.56 194:  4.60 195:  5.35 196:  4.39 197:  9.46 198:  8.90 199:  9.67 200:  9.91
 201: 10.59 202: 10.96 203: 11.03 204: 11.40 205: 11.16 206: 11.47 207: 11.62 208: 11.74
 209: 11.69 210: 11.33 211: 11.26 212: 11.74 213: 11.15 214: 10.60 215:  9.84 216:  9.66
 217: 10.34 218: 10.35 219:  9.20 220:  9.31 221:  9.13 222:  9.17 223: 11.22 224:  8.96
 225:  9.51 226:  9.04 227:  9.25 228:  9.38 229: 10.64 230: 10.28 231: 10.42 232: 11.11
 233: 11.57 234: 11.54 235: 11.59 236: 11.70 237: 11.47 238: 11.45 239: 11.45 240: 11.50
 241: 11.51 242: 11.48 243: 11.78 244: 11.44 245: 11.44 246: 11.47 247: 11.51 248: 12.13
 249: 12.51 250:  1.77 251:  1.78 252:  1.76 253:  1.76 254:  1.76 255:  1.76 256:  1.78
 257:  1.79 258:  1.79 259:  1.79 260:  1.78 261:  1.78 262:  1.79 263:  1.78 264:  1.82
 265:  1.78 266:  1.84 267:  1.85 268:  1.84 269:  1.86 270:  1.85 271:  1.87 272:  1.87
 273:  1.87 274:  1.88 275:  1.88 276:  1.88 277:  1.89 278:  1.87 279:  1.90 280:  1.92
 281:  1.92 282:  1.89 283:  1.86 284:  1.85 285:  1.85
 IR intensities (km·mol⁻¹)
   1:  1.31   2:  0.74   3:  2.02   4:  3.47   5:  0.48   6:  2.72   7:  0.20   8:  0.40
   9:  0.23  10:  3.90  11:  0.84  12:  0.42  13:  0.69  14:  1.11  15:  0.54  16:  0.87
  17:  1.53  18:  0.25  19:  4.29  20:  0.81  21:  3.30  22:  5.18  23:  6.21  24: 11.87
  25:  8.50  26:  4.06  27:  1.77  28: 20.89  29:  0.46  30:  0.15  31:  1.82  32:  1.58
  33:  1.40  34: 11.04  35:  4.52  36:  7.10  37:  9.51  38:  0.10  39:  2.68  40:  7.90
  41:  0.95  42:  1.81  43:  6.85  44: 61.18  45:  2.03  46: 11.80  47:  6.52  48: 37.22
  49: 14.39  50: 15.12  51: 10.83  52:  3.41  53:  8.07  54:  8.93  55:  0.29  56:  3.84
  57: 29.49  58: 26.89  59: 11.06  60:  2.95  61:  8.62  62: 11.02  63: 13.02  64:  6.08
  65: 14.17  66:  7.47  67: 22.33  68:  3.44  69:  5.89  70:  8.95  71:  9.40  72: 23.61
  73:  3.01  74:  0.86  75:  7.40  76:  0.76  77:  9.08  78:  2.81  79:  3.86  80:  1.17
  81:  0.41  82: 35.93  83:  3.44  84:  5.30  85: 68.93  86:  8.03  87: 53.14  88:  6.39
  89: 67.85  90: 15.02  91:  2.97  92:  7.53  93:  6.08  94:  3.14  95:  2.12  96: 30.82
  97: 26.11  98: 19.92  99:  5.27 100: 65.25 101:  0.72 102:  5.27 103:  8.65 104: 34.78
 105:  8.26 106: 20.26 107: 13.09 108: 64.90 109: 80.81 110: 23.17 111: 38.29 112:  3.42
 113:  1.39 114:  3.07 115:  4.02 116: 86.61 117: 28.63 118: 60.45 119: 17.34 120:110.61
 121:  4.01 122: 14.69 123: 54.42 124: 13.46 125:  2.54 126: 11.25 127:  8.92 128: 17.60
 129: 16.93 130: 15.30 131:  4.54 132: 19.22 133: 13.15 134:  0.69 135:  7.30 136: 13.55
 137: 18.63 138:  3.08 139: 19.29 140:  6.48 141:  5.00 142:  7.78 143: 10.06 144: 11.84
 145: 10.97 146: 25.03 147: 44.84 148: 13.12 149:324.72 150: 45.10 151:  9.46 152: 11.33
 153:  1.52 154:  3.21 155: 44.84 156: 20.46 157:134.36 158: 42.35 159: 27.21 160:  4.15
 161: 37.13 162:215.17 163: 15.62 164:  3.94 165:  9.37 166: 19.78 167: 45.00 168:  3.44
 169: 26.85 170:236.83 171:243.31 172:282.40 173:377.45 174: 91.17 175: 81.63 176:  6.25
 177: 92.04 178: 36.81 179:198.06 180: 44.16 181: 10.76 182: 43.33 183: 25.51 184: 33.73
 185: 40.73 186: 24.12 187:136.62 188:223.25 189:  2.93 190: 15.04 191: 51.12 192:215.14
 193: 30.03 194:  3.19 195:205.51 196: 33.16 197: 36.31 198:413.21 199:274.03 200:124.89
 201:244.44 202:147.29 203: 95.89 204: 18.76 205:266.86 206:294.39 207: 20.36 208:150.06
 209:  8.02 210:942.33 211:439.12 212: 79.30 213:248.37 214:685.62 215: 62.74 216:173.28
 217: 10.40 218:  9.17 219:  9.53 220:  6.75 221: 21.11 222:  4.92 223: 44.32 224: 57.58
 225:152.57 226: 69.75 227:109.62 228:293.62 229: 76.16 230:143.15 231:167.76 232:505.63
 233: 49.30 234: 20.03 235:  6.18 236:****** 237:349.49 238:  1.54 239:  0.75 240: 41.73
 241: 10.99 242:231.69 243:450.25 244: 16.80 245: 42.35 246: 41.52 247: 80.23 248:361.06
 249:****** 250:143.69 251: 65.98 252: 23.55 253: 97.21 254: 17.02 255: 36.98 256:  6.59
 257: 26.56 258: 74.15 259: 52.71 260: 19.58 261: 18.72 262: 86.06 263: 19.48 264: 60.65
 265: 13.61 266:188.31 267:203.38 268: 24.09 269:116.68 270:140.83 271: 63.80 272: 49.60
 273: 63.56 274: 96.81 275:156.07 276: 72.88 277:102.20 278:150.96 279: 23.58 280:112.45
 281: 55.63 282: 78.98 283: 50.94 284: 29.53 285: 37.67
 Raman intensities (Ä⁴*amu⁻¹)
   1:  0.00   2:  0.00   3:  0.00   4:  0.00   5:  0.00   6:  0.00   7:  0.00   8:  0.00
   9:  0.00  10:  0.00  11:  0.00  12:  0.00  13:  0.00  14:  0.00  15:  0.00  16:  0.00
  17:  0.00  18:  0.00  19:  0.00  20:  0.00  21:  0.00  22:  0.00  23:  0.00  24:  0.00
  25:  0.00  26:  0.00  27:  0.00  28:  0.00  29:  0.00  30:  0.00  31:  0.00  32:  0.00
  33:  0.00  34:  0.00  35:  0.00  36:  0.00  37:  0.00  38:  0.00  39:  0.00  40:  0.00
  41:  0.00  42:  0.00  43:  0.00  44:  0.00  45:  0.00  46:  0.00  47:  0.00  48:  0.00
  49:  0.00  50:  0.00  51:  0.00  52:  0.00  53:  0.00  54:  0.00  55:  0.00  56:  0.00
  57:  0.00  58:  0.00  59:  0.00  60:  0.00  61:  0.00  62:  0.00  63:  0.00  64:  0.00
  65:  0.00  66:  0.00  67:  0.00  68:  0.00  69:  0.00  70:  0.00  71:  0.00  72:  0.00
  73:  0.00  74:  0.00  75:  0.00  76:  0.00  77:  0.00  78:  0.00  79:  0.00  80:  0.00
  81:  0.00  82:  0.00  83:  0.00  84:  0.00  85:  0.00  86:  0.00  87:  0.00  88:  0.00
  89:  0.00  90:  0.00  91:  0.00  92:  0.00  93:  0.00  94:  0.00  95:  0.00  96:  0.00
  97:  0.00  98:  0.00  99:  0.00 100:  0.00 101:  0.00 102:  0.00 103:  0.00 104:  0.00
 105:  0.00 106:  0.00 107:  0.00 108:  0.00 109:  0.00 110:  0.00 111:  0.00 112:  0.00
 113:  0.00 114:  0.00 115:  0.00 116:  0.00 117:  0.00 118:  0.00 119:  0.00 120:  0.00
 121:  0.00 122:  0.00 123:  0.00 124:  0.00 125:  0.00 126:  0.00 127:  0.00 128:  0.00
 129:  0.00 130:  0.00 131:  0.00 132:  0.00 133:  0.00 134:  0.00 135:  0.00 136:  0.00
 137:  0.00 138:  0.00 139:  0.00 140:  0.00 141:  0.00 142:  0.00 143:  0.00 144:  0.00
 145:  0.00 146:  0.00 147:  0.00 148:  0.00 149:  0.00 150:  0.00 151:  0.00 152:  0.00
 153:  0.00 154:  0.00 155:  0.00 156:  0.00 157:  0.00 158:  0.00 159:  0.00 160:  0.00
 161:  0.00 162:  0.00 163:  0.00 164:  0.00 165:  0.00 166:  0.00 167:  0.00 168:  0.00
 169:  0.00 170:  0.00 171:  0.00 172:  0.00 173:  0.00 174:  0.00 175:  0.00 176:  0.00
 177:  0.00 178:  0.00 179:  0.00 180:  0.00 181:  0.00 182:  0.00 183:  0.00 184:  0.00
 185:  0.00 186:  0.00 187:  0.00 188:  0.00 189:  0.00 190:  0.00 191:  0.00 192:  0.00
 193:  0.00 194:  0.00 195:  0.00 196:  0.00 197:  0.00 198:  0.00 199:  0.00 200:  0.00
 201:  0.00 202:  0.00 203:  0.00 204:  0.00 205:  0.00 206:  0.00 207:  0.00 208:  0.00
 209:  0.00 210:  0.00 211:  0.00 212:  0.00 213:  0.00 214:  0.00 215:  0.00 216:  0.00
 217:  0.00 218:  0.00 219:  0.00 220:  0.00 221:  0.00 222:  0.00 223:  0.00 224:  0.00
 225:  0.00 226:  0.00 227:  0.00 228:  0.00 229:  0.00 230:  0.00 231:  0.00 232:  0.00
 233:  0.00 234:  0.00 235:  0.00 236:  0.00 237:  0.00 238:  0.00 239:  0.00 240:  0.00
 241:  0.00 242:  0.00 243:  0.00 244:  0.00 245:  0.00 246:  0.00 247:  0.00 248:  0.00
 249:  0.00 250:  0.00 251:  0.00 252:  0.00 253:  0.00 254:  0.00 255:  0.00 256:  0.00
 257:  0.00 258:  0.00 259:  0.00 260:  0.00 261:  0.00 262:  0.00 263:  0.00 264:  0.00
 265:  0.00 266:  0.00 267:  0.00 268:  0.00 269:  0.00 270:  0.00 271:  0.00 272:  0.00
 273:  0.00 274:  0.00 275:  0.00 276:  0.00 277:  0.00 278:  0.00 279:  0.00 280:  0.00
 281:  0.00 282:  0.00 283:  0.00 284:  0.00 285:  0.00
 output can be read by thermo (or use thermo option).
 writing <g98.out> molden fake output.
 recommended (thermochemical) frequency scaling factor: 1.0
           -------------------------------------------------
          |             Thermodynamic Functions             |
           -------------------------------------------------

Refinement of some symmetry elements was terminated before convergence was reached.
Some symmetry elements may remain unidentified.
Molecule has no symmetry elements
It seems to be the C1 point group
c1  symmetry found (for desy threshold:  0.10E+00) used in thermo

          ...................................................
          :                      SETUP                      :
          :.................................................:
          :  # frequencies                         279      :
          :  # imaginary freq.                       0      :
          :  linear?                             false      :
          :  only rotor calc.                    false      :
          :  symmetry                               c1      :
          :  rotational number                       1      :
          :  scaling factor                  1.0000000      :
          :  rotor cutoff                   50.0000000 cm⁻¹ :
          :  imag. cutoff                  -20.0000000 cm⁻¹ :
          :.................................................:

    mode    ω/cm⁻¹     T·S(HO)/kcal·mol⁻¹    T·S(FR)/kcal·mol⁻¹   T·S(vib)
   ------------------------------------------------------------------------
       1     15.52    -2.12826 (  0.92%)    -1.40316 ( 99.08%)    -1.40982
       2     16.43    -2.09427 (  1.15%)    -1.38616 ( 98.85%)    -1.39433
       3     17.69    -2.05055 (  1.54%)    -1.36429 ( 98.46%)    -1.37488
       4     20.84    -1.95350 (  2.93%)    -1.31573 ( 97.07%)    -1.33443
       5     26.62    -1.80865 (  7.44%)    -1.24323 ( 92.56%)    -1.28531
       6     30.24    -1.73339 ( 11.80%)    -1.20554 ( 88.20%)    -1.26781
       7     41.18    -1.55086 ( 31.51%)    -1.11406 ( 68.49%)    -1.25168
       8     49.12    -1.44679 ( 48.22%)    -1.06181 ( 51.78%)    -1.24746
       9     51.30    -1.42116 ( 52.57%)    -1.04894 ( 47.43%)    -1.24460
      10     54.72    -1.38315 ( 58.92%)    -1.02983 ( 41.08%)    -1.23801
      11     56.97    -1.35941 ( 62.76%)    -1.01789 ( 37.24%)    -1.23223
      12     60.02    -1.32874 ( 67.49%)    -1.00245 ( 32.51%)    -1.22266
      13     69.83    -1.23979 ( 79.18%)    -0.95761 ( 20.82%)    -1.18104
      14     70.20    -1.23663 ( 79.53%)    -0.95602 ( 20.47%)    -1.17920
      15     74.95    -1.19827 ( 83.47%)    -0.93664 ( 16.53%)    -1.15501
      16     77.22    -1.18074 ( 85.05%)    -0.92777 ( 14.95%)    -1.14293
      17     80.63    -1.15549 ( 87.12%)    -0.91500 ( 12.88%)    -1.12451
      18     86.74    -1.11280 ( 90.06%)    -0.89336 (  9.94%)    -1.09098
      19    109.24    -0.97864 ( 95.80%)    -0.82503 (  4.20%)    -0.97218
      20    114.07    -0.95363 ( 96.44%)    -0.81222 (  3.56%)    -0.94860
      21    117.71    -0.93550 ( 96.85%)    -0.80292 (  3.15%)    -0.93132
      22    122.97    -0.91028 ( 97.34%)    -0.78995 (  2.66%)    -0.90708
      23    130.39    -0.87664 ( 97.88%)    -0.77260 (  2.12%)    -0.87444
      24    156.59    -0.77238 ( 98.97%)    -0.71836 (  1.03%)    -0.77182
      25    159.89    -0.76061 ( 99.05%)    -0.71218 (  0.95%)    -0.76016
      26    163.92    -0.74659 ( 99.14%)    -0.70480 (  0.86%)    -0.74623
      27    183.97    -0.68210 ( 99.46%)    -0.67063 (  0.54%)    -0.68204
      28    190.96    -0.66143 ( 99.53%)    -0.65957 (  0.47%)    -0.66142
      29    208.51    -0.61319 ( 99.67%)    -0.63352 (  0.33%)    -0.61326
      30    224.69    -0.57273 ( 99.76%)    -0.61138 (  0.24%)    -0.57283
      31    229.40    -0.56160 ( 99.77%)    -0.60524 (  0.23%)    -0.56169
      32    235.70    -0.54714 ( 99.80%)    -0.59721 (  0.20%)    -0.54724
      33    237.24    -0.54368 ( 99.80%)    -0.59529 (  0.20%)    -0.54378
      34    258.44    -0.49860 ( 99.86%)    -0.56993 (  0.14%)    -0.49870
      35    271.40    -0.47324 ( 99.88%)    -0.55543 (  0.12%)    -0.47334
      36    287.75    -0.44340 ( 99.91%)    -0.53811 (  0.09%)    -0.44349
      37    293.16    -0.43400 ( 99.92%)    -0.53259 (  0.08%)    -0.43408
   ------------------------------------------------------------------------

   temp. (K)  partition function   enthalpy   heat capacity  entropy
                                   cal/mol     cal/K/mol   cal/K/mol   J/K/mol
 298.15  VIB  0.581E+21            27388.946    174.710    170.020
         ROT  0.137E+09              888.752      2.981     40.216
         INT  0.798E+29            28277.698    177.691    210.237
         TR   0.201E+29             1481.254      4.968     45.731
         TOT                       29758.9522   182.6594   255.9671  1070.9662

       T/K    H(0)-H(T)+PV         H(T)/Eh          T*S/Eh         G(T)/Eh
   ------------------------------------------------------------------------
    298.15    0.474239E-01    0.772092E+00    0.121618E+00    0.650474E+00
   ------------------------------------------------------------------------

         :::::::::::::::::::::::::::::::::::::::::::::::::::::
         ::                  THERMODYNAMIC                  ::
         :::::::::::::::::::::::::::::::::::::::::::::::::::::
         :: total free energy        -149.193782431454 Eh   ::
         ::.................................................::
         :: total energy             -149.844256416296 Eh   ::
         :: zero point energy           0.724668286990 Eh   ::
         :: G(RRHO) w/o ZPVE           -0.074194302148 Eh   ::
         :: G(RRHO) contrib.            0.650473984842 Eh   ::
         :::::::::::::::::::::::::::::::::::::::::::::::::::::

optimized geometry written to: xtbopt.xyz


           -------------------------------------------------
          | TOTAL ENERGY             -149.844256416296 Eh   |
          | TOTAL ENTHALPY           -149.072164220279 Eh   |
          | TOTAL FREE ENERGY        -149.193782431454 Eh   |
          | GRADIENT NORM               0.000154527657 Eh/α |
          | HOMO-LUMO GAP               1.169138915573 eV   |
           -------------------------------------------------

------------------------------------------------------------------------
 * finished run on 2025/07/20 at 01:01:54.415     
------------------------------------------------------------------------
 total:
 * wall-time:     0 d,  0 h,  0 min, 11.068 sec
 *  cpu-time:     0 d,  0 h,  6 min, 36.530 sec
 * ratio c/w:    35.825 speedup
 SCF:
 * wall-time:     0 d,  0 h,  0 min,  0.336 sec
 *  cpu-time:     0 d,  0 h,  0 min, 12.190 sec
 * ratio c/w:    36.251 speedup
 ANC optimizer:
 * wall-time:     0 d,  0 h,  0 min,  3.742 sec
 *  cpu-time:     0 d,  0 h,  2 min, 29.644 sec
 * ratio c/w:    39.994 speedup
 analytical hessian:
 * wall-time:     0 d,  0 h,  0 min,  6.723 sec
 *  cpu-time:     0 d,  0 h,  3 min, 45.772 sec
 * ratio c/w:    33.584 speedup

