$hessian                                                                        
        0.4817070645   0.0024243979   0.0106068517  -0.1143086610   0.0158334153
        0.0736245700  -0.0065676988   0.0063456682   0.0084416707   0.0039201842
        0.0010118587   0.0016617005   0.0001752299  -0.0004010631   0.0000455850
        0.0043436750  -0.0016235876   0.0044320090  -0.0092039755  -0.0005549191
        0.0144275574   0.0002056159   0.0003446561   0.0005253013  -0.0000730686
       -0.0000431627   0.0000575299   0.0000066177   0.0000049780  -0.0000741329
        0.0000076204   0.0000164929   0.0000192814   0.0000300431   0.0000446170
        0.0000125665  -0.0001085526  -0.0000341968   0.0000637583  -0.0004142704
        0.0001217549  -0.0001048039  -0.0007881791  -0.0001033975   0.0000204053
       -0.0000275483  -0.0000828989  -0.0001118195   0.0000467962   0.0000613973
        0.0000589104  -0.0000040940  -0.0000324362  -0.0000034695  -0.0000314036
       -0.0000311924  -0.0000215429   0.0000214483   0.0000382614   0.0000365522
       -0.0000282837   0.0000512917   0.0000317644   0.0000259583  -0.0000140572
       -0.0000026947  -0.0000182551   0.0000005094   0.0000060371  -0.0000208323
       -0.0000043480  -0.0000057562   0.0000382550   0.0000304480   0.0000212231
       -0.0000214571  -0.0000172322  -0.0000112668   0.0000335630   0.0000154777
        0.0000063574  -0.0000206652  -0.0000117319  -0.0000178488   0.0000132696
        0.0000151254   0.0000060778   0.0000040762   0.0000181414   0.0000018785
        0.0000459182  -0.0000309942  -0.0000129916  -0.0000552767   0.0000295205
        0.0000018552   0.0000332123   0.0000161549  -0.0000053849  -0.0000054087
       -0.0000065250   0.0000008577   0.0000059582   0.0000008430  -0.0000056133
        0.0000042592   0.0000032982  -0.0000023678  -0.0000000443  -0.0000029276
        0.0000017757  -0.0000019338  -0.0000055679   0.0000001434  -0.0000013153
        0.0000085091  -0.0000016851  -0.0000112643   0.0000017628   0.0000034445
        0.0000050068   0.0000024250  -0.0000013135  -0.0000007060  -0.0000081785
        0.0000037732  -0.0000001358   0.0000028834   0.0000029654  -0.0000081126
       -0.0000052569   0.0000016630   0.0000055215   0.0000047243  -0.0000096910
        0.0000022487  -0.0000361537   0.0000081443  -0.0000372607  -0.0000001882
       -0.0000120558  -0.2323061928  -0.0871040909  -0.0313647237  -0.0467870336
        0.0250085226   0.0021401511  -0.0775175868   0.0383913574  -0.0818313893
       -0.0010302246  -0.0006833293  -0.0012217684  -0.0000237934   0.0000196237
        0.0002725024  -0.0011501774   0.0009370060  -0.0017636563  -0.0000073052
        0.0000498908   0.0000009654  -0.0000024051  -0.0000097997  -0.0000038527
        0.0000022538  -0.0000189507   0.0000082254  -0.0000045598   0.0000081824
        0.0000012340  -0.0000097429  -0.0000045095   0.0000264007  -0.0000525955
       -0.0000027913  -0.0000089757  -0.0000448251  -0.0000071288  -0.0000124658
        0.0000104154  -0.0000005492   0.0000123602  -0.0000075416   0.0000172067
       -0.0000019934  -0.0000100873   0.0000012406   0.0000102080   0.0000230807
       -0.0000011848  -0.0000028695   0.0000084227   0.0000158221   0.0000053153
       -0.0000050316  -0.0000094485  -0.0000055133  -0.0000098117  -0.0000025944
       -0.0000009238   0.0000027383   0.0000021059  -0.0000007396   0.0000002515
       -0.0000043386   0.0000005597  -0.0000000100  -0.0000002863   0.0000006594
       -0.0000012745  -0.0000041084  -0.0000010310   0.0000012098  -0.0000021175
        0.0000015261  -0.0000023453   0.0000007556   0.0000018521  -0.0000031191
        0.0000014344   0.0000028783  -0.0000014858   0.0000028931  -0.0000027474
       -0.0000016800   0.0000006324   0.0000028637  -0.0000011951  -0.0000003945
        0.0000030270   0.0000035274   0.0000021575   0.0000018728   0.0000049853
       -0.0000018061   0.0000022763
        0.0024243979   0.5291030386  -0.0038293957   0.0195199697  -0.0713600250
       -0.0257918654   0.0174706923  -0.0096045857  -0.0231420051   0.0006899047
       -0.0047944917  -0.0006591228   0.0001845536  -0.0000798742  -0.0001733979
       -0.0012284386  -0.0027595024   0.0017288272  -0.0124189032   0.0019804856
        0.0165380671  -0.0004955145   0.0002722659   0.0006757960  -0.0000192532
        0.0001340555   0.0000295034  -0.0000083824   0.0000177497   0.0000167003
       -0.0000247712  -0.0000282860   0.0000219904   0.0000105070  -0.0000099488
       -0.0000099173  -0.0000019784   0.0000748895  -0.0000036270  -0.0001523441
       -0.0001321325   0.0001246881  -0.0002279316   0.0001582371   0.0002738531
        0.0000496519  -0.0001832761  -0.0000817872  -0.0000356401   0.0000778691
       -0.0000188414   0.0000434049  -0.0000173155  -0.0000202943  -0.0000213236
        0.0000189822   0.0000124040  -0.0000072322  -0.0000101125  -0.0000026721
       -0.0000545271   0.0000043218   0.0000228451   0.0000413232  -0.0000364015
       -0.0000235959  -0.0000141648   0.0000236977   0.0000177248  -0.0000040253
       -0.0000064357  -0.0000080822   0.0000268846   0.0000071807   0.0000116304
       -0.0000005523  -0.0000209434  -0.0000124987   0.0000083917   0.0000188789
        0.0000123257  -0.0000222403   0.0000014464  -0.0000067711   0.0000074596
        0.0000036321   0.0000022004  -0.0000019890   0.0000065530   0.0000014883
        0.0000116675  -0.0000054347  -0.0000023290  -0.0000200460   0.0000000417
        0.0000034849   0.0000154653   0.0000058050  -0.0000045609  -0.0000021143
       -0.0000013906  -0.0000001181   0.0000028412   0.0000007761  -0.0000023188
        0.0000008358   0.0000017385  -0.0000010334  -0.0000020192  -0.0000005926
        0.0000008512  -0.0000016862  -0.0000000530  -0.0000000339  -0.0000013736
        0.0000036084  -0.0000003087   0.0000013952  -0.0000044697   0.0000006486
       -0.0000010025   0.0000041647  -0.0000013496  -0.0000013766   0.0000018806
        0.0000005781   0.0000003926   0.0000004706   0.0000005847   0.0000012589
       -0.0000042523   0.0000022220   0.0000018671   0.0000037546  -0.0000029188
       -0.0000001991  -0.0000065426   0.0000005763  -0.0000234363   0.0000177481
        0.0000173874  -0.0885775769  -0.0845074761  -0.0146274675   0.0248523515
       -0.2796533858  -0.0278393298   0.0375092068  -0.0803712533   0.0774106499
        0.0006864952   0.0011572564  -0.0009967071   0.0008803491  -0.0005147440
       -0.0011550414  -0.0011005850   0.0009994645   0.0014098958   0.0000047114
        0.0000244555   0.0000017964  -0.0000048455  -0.0000065394  -0.0000004274
        0.0000006336  -0.0000059448   0.0000034355   0.0000065331  -0.0000022196
       -0.0000034936  -0.0000041905  -0.0000012700   0.0000051714  -0.0000262647
       -0.0000030179   0.0000344636   0.0000323852  -0.0000000648   0.0000219452
        0.0000014951   0.0000085490   0.0000081138   0.0000039431  -0.0000007777
        0.0000017248   0.0000028193   0.0000036505   0.0000004174   0.0000215154
       -0.0000034019   0.0000018936   0.0000030615   0.0000041577   0.0000067774
       -0.0000042407  -0.0000035482  -0.0000019319  -0.0000017356  -0.0000001915
       -0.0000008403   0.0000012698   0.0000014216   0.0000002571  -0.0000005997
       -0.0000005637   0.0000006230  -0.0000003238   0.0000003878  -0.0000003639
       -0.0000007372  -0.0000004982  -0.0000008998  -0.0000001221  -0.0000000948
       -0.0000000852  -0.0000003859  -0.0000002824   0.0000002454  -0.0000002571
        0.0000006105   0.0000002386  -0.0000002094   0.0000002084   0.0000000209
        0.0000003028   0.0000006032   0.0000001719  -0.0000013762  -0.0000004078
        0.0000000236  -0.0000022201   0.0000002312  -0.0000001372  -0.0000018014
       -0.0000025199   0.0000013275
        0.0106068517  -0.0038293957   0.4753571503   0.0734474773  -0.0209317217
       -0.1560297164   0.0082846906  -0.0082764225  -0.0109897826   0.0016893959
       -0.0011177322   0.0030259258  -0.0000252054   0.0004796679   0.0000219089
        0.0044380783   0.0022044950   0.0018451568   0.0146083959   0.0007921188
       -0.0177284928   0.0005242462  -0.0004180787  -0.0001190769   0.0000490293
        0.0000163048  -0.0000897133  -0.0000551512  -0.0000026970   0.0000263949
        0.0000215978  -0.0000185489   0.0000005546   0.0000065894  -0.0000493891
        0.0000185642   0.0000527626   0.0000311837  -0.0001252446  -0.0000134652
       -0.0001694076  -0.0003676401   0.0001066146  -0.0000408619  -0.0008219032
       -0.0001471134   0.0003729625   0.0000578808  -0.0000776174  -0.0001470921
       -0.0000092034   0.0000188195   0.0000238964   0.0000281167   0.0000076796
        0.0000187219   0.0000104102  -0.0000337981  -0.0000032572  -0.0000045846
        0.0001035483  -0.0000333434  -0.0000620975  -0.0000703977   0.0000133496
        0.0000154045   0.0000459851  -0.0000047003  -0.0000180399   0.0000403128
        0.0000124255   0.0000097052  -0.0000715770  -0.0000499979  -0.0000223310
        0.0000337147   0.0000230175   0.0000135571  -0.0000514182  -0.0000222712
       -0.0000107123   0.0000422956   0.0000070329   0.0000202472  -0.0000112703
       -0.0000136320  -0.0000034585  -0.0000093141  -0.0000202220  -0.0000023167
       -0.0000598864   0.0000388805   0.0000194425   0.0000745529  -0.0000246227
       -0.0000072232  -0.0000480503  -0.0000203611   0.0000098023   0.0000036065
        0.0000072408   0.0000001839  -0.0000027218  -0.0000015827   0.0000048444
       -0.0000114505  -0.0000055337   0.0000058514   0.0000016603   0.0000057170
       -0.0000034222  -0.0000042408   0.0000094257   0.0000015940   0.0000055700
       -0.0000147910   0.0000012610   0.0000114649   0.0000012230  -0.0000038182
       -0.0000103170  -0.0000031816   0.0000031614   0.0000036407   0.0000119329
       -0.0000067653  -0.0000008623  -0.0000029404  -0.0000033817   0.0000048601
        0.0000040143   0.0000006223  -0.0000116101  -0.0000036991   0.0000130557
        0.0000012878   0.0000328748  -0.0000082843   0.0000514020   0.0000001782
       -0.0000083177  -0.0343033088  -0.0159853705  -0.0438468427   0.0021748406
       -0.0280805238  -0.0469503361  -0.0787704872   0.0756375957  -0.2025405432
       -0.0012456569   0.0008418577  -0.0002873159   0.0002717494  -0.0000262036
       -0.0001982586  -0.0017716688  -0.0012296975  -0.0001421391   0.0000112658
       -0.0000662316   0.0000000866   0.0000065485   0.0000221257   0.0000017291
       -0.0000034688   0.0000144179  -0.0000048621   0.0000013172  -0.0000115059
       -0.0000030328   0.0000228966   0.0000071906  -0.0000245944   0.0000076591
        0.0000005448  -0.0000389955   0.0000377207   0.0000185738   0.0000178398
       -0.0000154565  -0.0000079370  -0.0000148128   0.0000096531  -0.0000203805
       -0.0000011301   0.0000104758  -0.0000020432  -0.0000040062  -0.0000360385
       -0.0000112006  -0.0000106753  -0.0000084223  -0.0000087230  -0.0000084025
        0.0000073918   0.0000143366   0.0000104845   0.0000104544   0.0000044497
        0.0000041397  -0.0000039829  -0.0000007381   0.0000006260  -0.0000004076
        0.0000075547  -0.0000016430  -0.0000001186   0.0000000506  -0.0000012595
        0.0000025079   0.0000062508   0.0000013328  -0.0000014975   0.0000029569
       -0.0000038888   0.0000037206  -0.0000018026  -0.0000022809   0.0000067576
       -0.0000022440  -0.0000041212   0.0000018166  -0.0000029833   0.0000033775
        0.0000036846  -0.0000007222  -0.0000038044   0.0000010144   0.0000011123
       -0.0000028532  -0.0000025975   0.0000006270  -0.0000034470   0.0000009742
       -0.0000025176  -0.0000056406
       -0.1143086610   0.0195199697   0.0734474773   0.3218786152   0.0106339271
       -0.2363637930  -0.0725023799   0.0606355706   0.0274896985  -0.0045013883
        0.0190138593   0.0055963838  -0.0035394716  -0.0057292038  -0.0031359360
       -0.0204206442  -0.0081605896   0.0270106332  -0.0998744916  -0.0943863450
        0.0727431550   0.0042275708   0.0029192466   0.0031852808  -0.0004056393
       -0.0011241128   0.0006078628   0.0003052153  -0.0001912831  -0.0011121891
       -0.0000079977   0.0000314117  -0.0000312170  -0.0001464866   0.0007869638
        0.0002071517  -0.0006147787  -0.0003571881   0.0002867819  -0.0000789108
        0.0011398785   0.0006578335   0.0000658794  -0.0013312579  -0.0001834925
       -0.0003324980   0.0006846386   0.0002691339   0.0000072548  -0.0002906824
        0.0000271293  -0.0001113894   0.0001263304   0.0000967671   0.0001040934
       -0.0000237713  -0.0000202709  -0.0000098307   0.0000222981   0.0000032454
        0.0002169218   0.0000226693  -0.0000886085  -0.0001478105  -0.0000181378
        0.0000295580   0.0000532513  -0.0000589616  -0.0000680542   0.0000233100
        0.0000548456   0.0000589708  -0.0000448217  -0.0000620303  -0.0000305019
        0.0000178279   0.0000564881   0.0000211261  -0.0000039252  -0.0000429468
       -0.0000525498   0.0000360432   0.0000184010   0.0000142949  -0.0000412158
       -0.0000051320  -0.0000018068   0.0000188550  -0.0000568065  -0.0000128956
       -0.0001148884   0.0000625050   0.0000245892   0.0001338558  -0.0000525255
       -0.0000288430  -0.0000829352  -0.0000352839   0.0000185128   0.0000100225
        0.0000107392  -0.0000040960  -0.0000068761  -0.0000013968   0.0000078757
       -0.0000131696  -0.0000145050   0.0000090961   0.0000067139   0.0000047930
       -0.0000059535  -0.0000022126   0.0000128559   0.0000021708   0.0000111743
       -0.0000306796   0.0000033003   0.0000154401   0.0000170551  -0.0000104398
       -0.0000070141  -0.0000108994   0.0000078822   0.0000059548   0.0000185272
       -0.0000091437  -0.0000017154  -0.0000092537  -0.0000020667  -0.0000023107
        0.0000132293   0.0000000372  -0.0000144306  -0.0000064170   0.0000216880
        0.0000004626   0.0000588136  -0.0000030074   0.0000539573   0.0000155056
       -0.0000656014  -0.0215820845   0.0026872888   0.0244880750  -0.0029450630
        0.0037904539   0.0043509618   0.0060952043  -0.0034337390  -0.0030761514
        0.0024532588  -0.0115213282  -0.0012757650   0.0035947339   0.0011533463
        0.0065759592   0.0023857598   0.0034817679  -0.0019281992   0.0000883163
       -0.0000853609   0.0001358127   0.0000110743   0.0000152866   0.0000110669
       -0.0000012481   0.0000373881  -0.0000172218  -0.0000187596   0.0000137921
        0.0000212089   0.0000679950   0.0000129121   0.0000134200   0.0000419585
       -0.0000352495   0.0000609720  -0.0000687119   0.0000384103   0.0000434982
       -0.0000126146  -0.0000235703  -0.0000252264   0.0000045545  -0.0000129906
       -0.0000125423   0.0000047828  -0.0000120295  -0.0000019080  -0.0000071411
        0.0000259225   0.0000451247  -0.0000132799  -0.0000178366  -0.0000127562
        0.0000094567   0.0000149824   0.0000035587   0.0000111426   0.0000055854
        0.0000046113  -0.0000024154  -0.0000034360  -0.0000016488   0.0000022138
        0.0000053024  -0.0000040171   0.0000027771  -0.0000030700  -0.0000005432
        0.0000060138   0.0000045037   0.0000027389   0.0000014274   0.0000000028
       -0.0000036342   0.0000052004  -0.0000043994  -0.0000021346   0.0000078802
       -0.0000038511  -0.0000054194  -0.0000004305  -0.0000046706   0.0000072178
        0.0000068816  -0.0000022942  -0.0000022546  -0.0000013025   0.0000003789
       -0.0000014475  -0.0000050515  -0.0000003665  -0.0000029227   0.0000029449
       -0.0000042444  -0.0000076034
        0.0158334153  -0.0713600250  -0.0209317217   0.0106339271   0.6366477238
       -0.0212848361   0.0143845414  -0.2723550119  -0.0132644519   0.0529258742
       -0.0003980027  -0.0711236447  -0.0109809598  -0.0539654992   0.0156099360
       -0.0411919127   0.0331292084   0.0542547708  -0.0477942096  -0.2256957220
        0.0636218833   0.0089181773   0.0090937690  -0.0113437333  -0.0022101431
       -0.0055093036   0.0026345018   0.0029831163  -0.0000237068  -0.0040022439
        0.0000225782   0.0000579940   0.0000235236  -0.0012094411   0.0033203153
        0.0016417652  -0.0008271375  -0.0021743319   0.0011267483  -0.0007160821
        0.0054173435   0.0014234972   0.0018360548  -0.0040179675  -0.0026145859
       -0.0004139642   0.0007131224   0.0005049348  -0.0000814918  -0.0004908854
       -0.0001899641  -0.0002368521   0.0003479928   0.0001752743   0.0003308404
        0.0000312423   0.0000317266  -0.0000523334  -0.0001417672  -0.0001845780
        0.0001697190   0.0001646408  -0.0000412864  -0.0002310565  -0.0004225950
       -0.0002854359   0.0000923691   0.0000511368  -0.0000294713  -0.0000250619
        0.0001016309   0.0001382102   0.0002744715  -0.0000350887  -0.0000081338
       -0.0000224214  -0.0000124547  -0.0000340883   0.0001381521   0.0000382227
        0.0000227729  -0.0000000880   0.0000066669  -0.0000166875   0.0000168734
       -0.0000009447  -0.0000020705  -0.0000286037   0.0000157224  -0.0000012362
        0.0000380088  -0.0000267952   0.0000071434  -0.0000543113   0.0000592314
        0.0000076701   0.0000131901   0.0000160682  -0.0000027347  -0.0000017546
       -0.0000165818   0.0000030600   0.0000161379  -0.0000031843  -0.0000074110
       -0.0000051839   0.0000097386  -0.0000003153  -0.0000015394   0.0000005700
        0.0000011558  -0.0000115547  -0.0000020539   0.0000049430   0.0000068748
        0.0000037845  -0.0000043852  -0.0000182324  -0.0000014465   0.0000070867
       -0.0000000247   0.0000002669   0.0000012339  -0.0000053178  -0.0000050221
        0.0000002785  -0.0000031044   0.0000036185  -0.0000027882  -0.0000011134
       -0.0000050007   0.0000083866   0.0000031406   0.0000065125   0.0000026619
        0.0000075592  -0.0000640742   0.0000005703  -0.0003355708   0.0002170647
       -0.0000228736  -0.0069147060   0.0030670491   0.0091437130   0.0180734644
       -0.0098334525  -0.0238581561  -0.0065222462   0.0029937809   0.0085953273
        0.0021658248  -0.0246645776  -0.0028602271   0.0004848325   0.0015518672
       -0.0006200624  -0.0096544033  -0.0259397713   0.0135160480   0.0000748758
       -0.0000002946  -0.0000750531  -0.0000365177   0.0000499967   0.0000221402
       -0.0000031605   0.0000344493   0.0000473911   0.0000038325   0.0000116530
       -0.0000177246  -0.0000210460   0.0000249010   0.0000361298  -0.0000622627
       -0.0000103764   0.0001412135   0.0002197914  -0.0000174853   0.0000564449
        0.0000007646   0.0000081214  -0.0000577986   0.0000242726  -0.0000255689
        0.0000253475   0.0000124454  -0.0000171405  -0.0000221745  -0.0000020844
        0.0000056653   0.0000558910  -0.0000056237   0.0000072721   0.0000268101
       -0.0000111709  -0.0000070654   0.0000033613  -0.0000084846   0.0000012684
        0.0000006940  -0.0000044712   0.0000098942   0.0000026767   0.0000012097
        0.0000046016  -0.0000002849  -0.0000024287   0.0000023762   0.0000000640
        0.0000009066   0.0000009012   0.0000006478   0.0000008398   0.0000003463
       -0.0000019319  -0.0000030702   0.0000016770   0.0000003317   0.0000004910
        0.0000018182  -0.0000013718  -0.0000022048   0.0000012582  -0.0000026269
        0.0000018151   0.0000005593  -0.0000012549  -0.0000005997   0.0000081752
        0.0000020622   0.0000019671   0.0000079158  -0.0000096347   0.0000015921
       -0.0000059375  -0.0000030502
        0.0736245700  -0.0257918654  -0.1560297164  -0.2363637930  -0.0212848361
        0.4566015678   0.0283493932  -0.0759401247  -0.0875405159   0.0051354159
       -0.0252261124  -0.0059623393  -0.0026367588   0.0081868619  -0.0019709107
        0.0274741545   0.0107208169  -0.0365332270   0.0725453108   0.1262512880
       -0.1426017744   0.0029084081  -0.0043049859   0.0024069311   0.0007035500
        0.0016006137  -0.0007549490  -0.0011408342   0.0002709710   0.0010697044
       -0.0000547874  -0.0000352787  -0.0000079520   0.0002385467  -0.0011532279
       -0.0003049356   0.0003359029   0.0005202247  -0.0008253403   0.0004511415
       -0.0014140045  -0.0005801566  -0.0001724925   0.0017378089   0.0002316512
        0.0001999308  -0.0008101438  -0.0004054748   0.0000724185   0.0003278966
        0.0000472898   0.0001353906  -0.0001956089  -0.0001205760  -0.0001618076
        0.0000297375   0.0000134145   0.0000020000   0.0000069495   0.0000307557
       -0.0002713089  -0.0000291867   0.0000996642   0.0001989654   0.0000442238
       -0.0000086226  -0.0000855133   0.0000669789   0.0000753132  -0.0000270488
       -0.0000701151  -0.0000799752   0.0000372891   0.0000798626   0.0000539587
       -0.0000190322  -0.0000662483  -0.0000247506  -0.0000181039   0.0000523331
        0.0000624180  -0.0000448938  -0.0000188592  -0.0000244199   0.0000426332
        0.0000033651  -0.0000029441  -0.0000206757   0.0000680325   0.0000143082
        0.0001337304  -0.0000711235  -0.0000283237  -0.0001512533   0.0000648064
        0.0000284506   0.0000942077   0.0000387959  -0.0000182311  -0.0000135223
       -0.0000123235   0.0000042912   0.0000104965   0.0000015911  -0.0000110124
        0.0000134943   0.0000159272  -0.0000094367  -0.0000070906  -0.0000048450
        0.0000067556  -0.0000007749  -0.0000140322  -0.0000020882  -0.0000097909
        0.0000340612  -0.0000048961  -0.0000183500  -0.0000182599   0.0000117666
        0.0000065206   0.0000121194  -0.0000093187  -0.0000056786  -0.0000195474
        0.0000099574   0.0000023457   0.0000114991   0.0000024711   0.0000018336
       -0.0000181822  -0.0000001722   0.0000088195   0.0000098147  -0.0000258287
        0.0000039515  -0.0000769311   0.0000067622  -0.0000359523  -0.0000237878
        0.0000608384   0.0049234270   0.0027879354  -0.0003459769   0.0039996134
       -0.0048498108  -0.0048974544   0.0166574416  -0.0019212793  -0.0278978363
       -0.0017498515   0.0161689520   0.0030464535   0.0066297892  -0.0011386038
       -0.0002740018  -0.0021589868  -0.0046870710   0.0034093881   0.0001368873
        0.0001165759   0.0000242709  -0.0000266908  -0.0000522540  -0.0000164321
        0.0000042115  -0.0000215134   0.0000140810   0.0000311662  -0.0000136597
       -0.0000240598   0.0000049366  -0.0000196951   0.0000533927   0.0000468674
        0.0000566341  -0.0000197662   0.0000262263  -0.0000204309  -0.0000501408
        0.0000151502   0.0000182633   0.0000317003  -0.0000135462   0.0000197488
        0.0000141148  -0.0000093573   0.0000140180   0.0000103140   0.0000289279
       -0.0000234366  -0.0000623154   0.0000273701   0.0000141579   0.0000163892
       -0.0000079249  -0.0000179864  -0.0000029995  -0.0000124761  -0.0000088940
       -0.0000050974   0.0000033798   0.0000037135   0.0000023676  -0.0000023310
       -0.0000059318   0.0000047874  -0.0000034204   0.0000039325   0.0000003886
       -0.0000070761  -0.0000057814  -0.0000037921  -0.0000010227  -0.0000000189
        0.0000039415  -0.0000056410   0.0000052138   0.0000025919  -0.0000078518
        0.0000045861   0.0000062959   0.0000004370   0.0000064954  -0.0000096876
       -0.0000079812   0.0000024591   0.0000029332   0.0000015395  -0.0000006666
        0.0000024244   0.0000063436   0.0000045976   0.0000030586  -0.0000005144
        0.0000028008   0.0000102847
       -0.0065676988   0.0174706923   0.0082846906  -0.0725023799   0.0143845414
        0.0283493932   0.3159694018  -0.0027232933  -0.2707092968  -0.1459526262
        0.0590725465   0.1383043925  -0.0223641739  -0.0348724131   0.0301208253
       -0.0140321523   0.0150703556   0.0126177571   0.0176977448   0.0018122890
       -0.0226670707   0.0012339044   0.0022187252  -0.0015470112  -0.0007334011
       -0.0012348252   0.0007203036   0.0009052875   0.0001073660  -0.0012097935
        0.0000382620   0.0000151953   0.0000206013  -0.0004838844   0.0013163406
        0.0005093767  -0.0004440637  -0.0011442462   0.0004618863  -0.0000910281
        0.0003629132   0.0012230418   0.0045009402  -0.0021943878   0.0002914651
        0.0002523835  -0.0001505506   0.0004400129  -0.0000297436  -0.0001364690
       -0.0003194322  -0.0000588620   0.0001846455   0.0000515217   0.0002342877
        0.0000815033   0.0000755887  -0.0000090803  -0.0001859931  -0.0001927564
       -0.0000106628  -0.0000663545  -0.0000009887  -0.0000412661  -0.0002166905
       -0.0001484682  -0.0000053882   0.0000144873  -0.0000115960  -0.0000357795
        0.0000734036   0.0001030501   0.0001888483  -0.0000418709  -0.0000333632
       -0.0000336455  -0.0000097854  -0.0000222865   0.0000920633   0.0000296126
        0.0000137928  -0.0000037999  -0.0000074800  -0.0000085537  -0.0000045257
       -0.0000027887  -0.0000030540  -0.0000086831   0.0000114023   0.0000043189
        0.0000109362  -0.0000187389  -0.0000002994  -0.0000292730   0.0000302691
        0.0000034952   0.0000088392   0.0000102506  -0.0000043453  -0.0000028649
       -0.0000085987   0.0000013050   0.0000053946  -0.0000030502  -0.0000044558
       -0.0000039881   0.0000057949  -0.0000017172  -0.0000026361   0.0000001851
       -0.0000010934  -0.0000056547  -0.0000004791   0.0000023770   0.0000022786
        0.0000013036  -0.0000016553  -0.0000100243  -0.0000010259   0.0000038877
        0.0000001504   0.0000030588   0.0000021621  -0.0000005724  -0.0000025133
       -0.0000001983   0.0000017824   0.0000002744  -0.0000015324   0.0000076187
       -0.0000019020   0.0000065653   0.0000063230   0.0000091724   0.0000039558
        0.0000055505  -0.0000331450   0.0000022713  -0.0001680215   0.0001470694
       -0.0000102049   0.0007573592   0.0011368915   0.0004793253  -0.0015683279
        0.0012846090   0.0035180007   0.0002691382   0.0010533861  -0.0000282902
       -0.0775189601  -0.0739992460   0.0607578916  -0.0039373591   0.0032314049
        0.0053446794   0.0044019049  -0.0021559106   0.0049004239   0.0000121376
        0.0000133757   0.0000061335   0.0000051412   0.0000272411   0.0000046112
       -0.0000034598   0.0000043845   0.0000033368  -0.0000137259   0.0000118232
        0.0000094148  -0.0000046781   0.0000057387   0.0000235433  -0.0000178495
       -0.0000020705   0.0000797047   0.0000659879   0.0000353807   0.0001875414
       -0.0000200490   0.0000113579  -0.0000336664   0.0000229692  -0.0000411569
        0.0000204463   0.0000289193  -0.0000170120  -0.0000277475   0.0000206355
       -0.0000011858   0.0000355192  -0.0000040032   0.0000193897   0.0000093740
       -0.0000047148  -0.0000013085   0.0000003254  -0.0000075570  -0.0000028163
        0.0000006703  -0.0000021872   0.0000038348  -0.0000004929  -0.0000019347
        0.0000011676  -0.0000014210  -0.0000022336   0.0000002205  -0.0000017676
        0.0000001093  -0.0000007083  -0.0000008150  -0.0000009481  -0.0000003163
       -0.0000014184  -0.0000028447   0.0000008319  -0.0000011825   0.0000001464
       -0.0000000264  -0.0000016993   0.0000014219  -0.0000005466   0.0000026120
        0.0000003085  -0.0000003696  -0.0000008982   0.0000027607   0.0000054927
        0.0000022439  -0.0000001125   0.0000031010  -0.0000048782  -0.0000041115
       -0.0000037541  -0.0000003853
        0.0063456682  -0.0096045857  -0.0082764225   0.0606355706  -0.2723550119
       -0.0759401247  -0.0027232933   0.6299576983  -0.0098408977   0.0144964964
       -0.1074382877  -0.0168818277  -0.0038106285   0.0429865808   0.0039494644
        0.0214870721  -0.0196837069  -0.0282713313  -0.0314752409  -0.0606895351
        0.0429723244  -0.0043777973  -0.0050439982   0.0054935581   0.0013981270
        0.0030364481  -0.0017052873  -0.0019458380   0.0002532195   0.0026202894
        0.0000081405  -0.0000175475  -0.0000349209   0.0007474341  -0.0025458597
       -0.0010278002   0.0007186517   0.0014126100  -0.0009977221  -0.0004067904
       -0.0044555218   0.0003462667  -0.0022259090  -0.0010902247   0.0036968703
        0.0000423813  -0.0002462933  -0.0001944946  -0.0000419531   0.0001707568
        0.0000032442   0.0000012096   0.0000152748  -0.0000203991  -0.0001100765
       -0.0000639260  -0.0000276478   0.0000658435   0.0001254264   0.0000976769
       -0.0000885232  -0.0000212946  -0.0000275463   0.0000912377   0.0001834990
        0.0001587592  -0.0000282061  -0.0000521551  -0.0000115449   0.0000222606
       -0.0000170575  -0.0000452094  -0.0001573021   0.0000109659   0.0000175883
        0.0000203826   0.0000330807   0.0000247255  -0.0000589222  -0.0000201307
       -0.0000572646   0.0000070689   0.0000010508  -0.0000073545  -0.0000343287
        0.0000217084   0.0000104776   0.0000376106  -0.0000386900  -0.0000090554
       -0.0000782890   0.0000457611   0.0000081568   0.0000825228  -0.0000710991
       -0.0000232601  -0.0000345365  -0.0000258103   0.0000080572   0.0000071127
        0.0000162911  -0.0000076969  -0.0000079143   0.0000010011   0.0000055644
        0.0000017895  -0.0000149266   0.0000039400   0.0000033412  -0.0000015364
       -0.0000011462   0.0000069492   0.0000083802  -0.0000026925   0.0000048418
       -0.0000165642   0.0000028208   0.0000185648   0.0000117823  -0.0000102219
        0.0000001217  -0.0000057852   0.0000038720   0.0000019999   0.0000164761
       -0.0000022769   0.0000014051  -0.0000086046   0.0000027981  -0.0000003614
        0.0000136181  -0.0000107204  -0.0000128313  -0.0000081264   0.0000066441
       -0.0000063195   0.0000637957   0.0000056068   0.0002624071  -0.0000954222
       -0.0000168052  -0.0014084396  -0.0002717431   0.0005854352   0.0007909826
       -0.0004133881  -0.0010327219  -0.0001319276  -0.0002699683   0.0015471462
       -0.0734627949  -0.1813189449   0.1033885449   0.0170879454  -0.0095698091
       -0.0225808385  -0.0019717894  -0.0030043985   0.0024535384  -0.0000152873
        0.0001797049  -0.0000436342   0.0000359513  -0.0000184837  -0.0000085891
        0.0000003905  -0.0000065323  -0.0000314545  -0.0000099359   0.0000313159
        0.0000124355   0.0000076412  -0.0000226129  -0.0000095555   0.0000842881
       -0.0000019632  -0.0001727878   0.0000004669  -0.0000308966  -0.0000849826
        0.0000386862  -0.0000004292   0.0000110947   0.0000066078   0.0000244591