$hessian                                                                        
        0.9689232101   0.5234161499   0.2190403486  -0.9301817774  -0.4924267868
       -0.2059802229  -0.0409685240  -0.0314035345  -0.0130537184   0.0092454363
       -0.0037289012  -0.0015546977  -0.0014556093  -0.0037849528  -0.0009018067
       -0.0012449662   0.0004231138   0.0003252810   0.0001575559  -0.0009234615
        0.0001591103  -0.0000114096   0.0002314391  -0.0000922315   0.0000889905
       -0.0001361399   0.0000662189  -0.0000664746  -0.0000261436   0.0000496925
        0.0001000418   0.0000760963  -0.0000368743  -0.0002352500  -0.0000648552
        0.0001383875   0.0001386805   0.0001242909  -0.0001330880  -0.0002819071
        0.0000731883   0.0000809576   0.0000825446  -0.0000478923  -0.0000041705
        0.0000509583   0.0000716724  -0.0000704281  -0.0000793110   0.0000066872
        0.0000783935   0.0005309238   0.0004380993  -0.0003923939   0.0044264760
        0.0026755781   0.0011857387  -0.0031643116  -0.0016556882  -0.0008045897
        0.0000793996   0.0015775610   0.0001156861  -0.0001763064  -0.0003716203
        0.0001271212   0.0002257604   0.0002732998  -0.0001243023  -0.0002786690
        0.0001218981  -0.0001726823   0.0001795541  -0.0003443377   0.0001335831
       -0.0003398468   0.0004210135  -0.0002743177   0.0003297167  -0.0004646996
        0.0003414637  -0.0005391165   0.0000877181  -0.0001232292   0.0000977039
       -0.0000654576   0.0000185245   0.0001119199  -0.0000391526   0.0002061524
       -0.0002422245  -0.0000133188  -0.0001026795   0.0012567427  -0.0008289430
        0.0001274926  -0.0034809202  -0.0014122210  -0.0014372038  -0.0023629592
        0.0077846889   0.0032165048  -0.0013748922  -0.0000920140   0.0001914956
        0.0009317408   0.0001826639   0.0000087989   0.0001836239   0.0001320713
       -0.0001745028  -0.0000275015  -0.0000896318   0.0000304064   0.0000001597
        0.0000263302  -0.0000237863  -0.0000219841   0.0000293933  -0.0000141695
       -0.0000353813   0.0000043425  -0.0000035848  -0.0000360186  -0.0000058308
        0.0000185498  -0.0000209100  -0.0000465393   0.0000105215   0.0000385519
        0.0000142242  -0.0000769694   0.0000204970   0.0000891975  -0.0000100763
        0.0000104512  -0.0000603338   0.0000431920  -0.0000271184  -0.0000447943
        0.0000381619  -0.0000333591  -0.0000423412  -0.0000221374  -0.0000297356
       -0.0000106068  -0.0000583570  -0.0000319797   0.0000577282  -0.0000343643
        0.0000985466  -0.0000323881   0.0000223518  -0.0005607224  -0.0001758594
       -0.0000975504
        0.5234161499   0.3040429360   0.1202339062  -0.4928037433  -0.3046935810
       -0.1137280975  -0.0319530816   0.0004028105  -0.0062812299   0.0031258078
       -0.0039961606  -0.0023677016  -0.0013351095  -0.0020170887   0.0002591551
       -0.0012229405   0.0002598442   0.0003617771   0.0001015756  -0.0007569004
        0.0001051657  -0.0000608546   0.0002021806   0.0000266411   0.0000945138
       -0.0001015439   0.0000513573  -0.0000166636  -0.0000131329   0.0000225312
        0.0000828250   0.0000386298  -0.0000187966  -0.0001845312  -0.0000153743
        0.0000984920   0.0001100216   0.0000599976  -0.0000833620  -0.0002029930
        0.0000490847   0.0000797136   0.0000382293   0.0000146217  -0.0000239152
        0.0000765828   0.0000491491  -0.0000553812  -0.0000562783  -0.0000219001
        0.0000699641   0.0002282874   0.0003205193  -0.0003378090   0.0021908563
        0.0018937738   0.0008680747  -0.0018150302  -0.0008423996  -0.0005706526
        0.0000519518   0.0008115950   0.0000636756  -0.0000842126  -0.0001980614
        0.0000787830   0.0001207028   0.0001603199  -0.0000691481  -0.0001705925
        0.0000795009  -0.0001027708   0.0000968010  -0.0002029645   0.0000786922
       -0.0001781548   0.0002608710  -0.0001552226   0.0001547088  -0.0002608533
        0.0001833678  -0.0003038511   0.0000592025  -0.0000654874   0.0000718050
       -0.0000329574   0.0000106259   0.0000666492  -0.0000228009   0.0001233335
       -0.0001560108  -0.0000271312  -0.0000474618   0.0007170289  -0.0004779938
        0.0000481385  -0.0016035573   0.0000909636   0.0001407235   0.0018465746
        0.0049413753   0.0015565853   0.0002254109  -0.0000170769   0.0000329628
       -0.0001886789  -0.0001785519  -0.0001740634  -0.0003284656   0.0001432440
       -0.0002700929  -0.0000795664  -0.0000685162  -0.0000697577  -0.0000059419
        0.0000556480  -0.0000383962  -0.0000126391   0.0000260993  -0.0000146582
       -0.0000187617   0.0000088962  -0.0000018288  -0.0000257534  -0.0000007678
        0.0000083551  -0.0000088726  -0.0000281013   0.0000048643   0.0000331469
       -0.0000041323  -0.0000492777   0.0000277596   0.0000463710  -0.0000087532
        0.0000084425  -0.0000238898   0.0000188144  -0.0000207927  -0.0000271535
        0.0000183201  -0.0000257929  -0.0000186612  -0.0000159317  -0.0000219418
        0.0000010227  -0.0000375765  -0.0000276477   0.0000406786  -0.0000282229
        0.0000513134  -0.0000276944   0.0000011830  -0.0000246853   0.0000160543
        0.0000703926
        0.2190403486   0.1202339062   0.0671391438  -0.2062237729  -0.1137964156
       -0.0802749078  -0.0135550445  -0.0061997467   0.0128509736   0.0014421829
       -0.0022974215   0.0002190623  -0.0007973197  -0.0000795271  -0.0015403719
       -0.0003686120   0.0000784958   0.0001393074  -0.0000212948  -0.0001916014
       -0.0000225156   0.0000414576   0.0000443896   0.0000014347   0.0000175373
       -0.0000053664   0.0000197034  -0.0000119261   0.0000095684   0.0000182461
        0.0000143072  -0.0000042139  -0.0000058245  -0.0000735173  -0.0000120684
        0.0000345116   0.0000207259   0.0000219723   0.0000048272  -0.0000835792
        0.0000482015   0.0000094351   0.0000256272  -0.0000364860   0.0000039375
        0.0000121499   0.0000146966  -0.0000072968  -0.0000067653   0.0000039917
        0.0000203106   0.0001158727   0.0001256887  -0.0001108027   0.0010137029
        0.0007209411   0.0001815026  -0.0008297807  -0.0005249307   0.0001643946
       -0.0000212708   0.0004020999   0.0000152362  -0.0000314364  -0.0000747807
        0.0000371490   0.0000546567   0.0000626500  -0.0000316517  -0.0000556732
        0.0000311276  -0.0000182332   0.0000398106  -0.0000777249   0.0000145231
       -0.0000971195   0.0000655269  -0.0000613601   0.0000797016  -0.0001089846
        0.0000955147  -0.0001136461   0.0000235247  -0.0000361942   0.0000187291
       -0.0000247703   0.0000148159   0.0000206155  -0.0000173458   0.0000458646
       -0.0000535945   0.0000143283  -0.0000104922   0.0003096152  -0.0001731469
        0.0000500792  -0.0005839404   0.0006759092  -0.0012177441   0.0008673773
        0.0013921947   0.0016974046  -0.0000151599  -0.0000295822   0.0003245587
       -0.0000109387  -0.0001747771   0.0000287539  -0.0001805102  -0.0001430366
        0.0003545741   0.0000422718  -0.0000239352  -0.0000389739   0.0000092633
       -0.0000082895  -0.0000091159  -0.0000080995   0.0000048122  -0.0000122108
       -0.0000091970  -0.0000026869   0.0000109978  -0.0000041447   0.0000006002
        0.0000112221  -0.0000061567  -0.0000129948   0.0000047883   0.0000051176
       -0.0000112541  -0.0000303811   0.0000006175   0.0000175075  -0.0000036515
        0.0000043990  -0.0000196335   0.0000122880  -0.0000075226  -0.0000106795
        0.0000115493  -0.0000136020  -0.0000153148   0.0000113620  -0.0000128084
       -0.0000031030  -0.0000067230  -0.0000036757   0.0000107698  -0.0000066390
        0.0000283818  -0.0000131470  -0.0000098136  -0.0000243604   0.0000900620
       -0.0000925678
       -0.9301817774  -0.4928037433  -0.2062237729   1.1958908638   0.5970703573
        0.2511066479  -0.2095990622  -0.0820865671  -0.0356504388  -0.0552950981
       -0.0035909666  -0.0020523114  -0.0006320087   0.0104939814   0.0033263834
        0.0007643352  -0.0014473890  -0.0006662748  -0.0001189675   0.0014751309
       -0.0001791895  -0.0000704760  -0.0004083485   0.0001695876  -0.0001634550
        0.0002741284  -0.0001293068   0.0000920098   0.0000496993  -0.0000918577
       -0.0002122743  -0.0001362869   0.0000679489   0.0003988868   0.0001695007
       -0.0002427278  -0.0003342629  -0.0002463909   0.0003210076   0.0004742569
       -0.0000678794  -0.0001326653  -0.0001644394   0.0000378679   0.0000279544
       -0.0001283407  -0.0001343024   0.0001649582   0.0001367493   0.0000040284
       -0.0001534168  -0.0011163271  -0.0006437444   0.0004830362  -0.0081673567
       -0.0048871511  -0.0020582964   0.0060977954   0.0032068638   0.0014966040
       -0.0000809447  -0.0028353993  -0.0002245735   0.0002903844   0.0006814863
       -0.0002298485  -0.0004073441  -0.0005144166   0.0002232758   0.0004943444
       -0.0002337420   0.0003027484  -0.0003439793   0.0006039389  -0.0002321194
        0.0006384258  -0.0007608390   0.0005039239  -0.0005707458   0.0008473472
       -0.0006182858   0.0009747300  -0.0001776856   0.0002275752  -0.0001938079
        0.0001248523  -0.0000501583  -0.0002514407   0.0000759389  -0.0003950144
        0.0004525023  -0.0000418695   0.0001952753  -0.0022008362   0.0015399057
       -0.0001481873   0.0075540068   0.0008071382   0.0017045014  -0.0051948228
       -0.0271587172  -0.0113035712   0.0011179746   0.0012766768   0.0002172988
       -0.0014318926  -0.0001764808   0.0000302683   0.0007218203  -0.0006815158
        0.0000546837   0.0000296921   0.0001150884  -0.0000252309   0.0000044016
       -0.0000511921   0.0000450178   0.0000560199  -0.0000708904   0.0000266671
        0.0000741308  -0.0000261426  -0.0000035684   0.0000743527   0.0000111659
       -0.0000498335   0.0000386656   0.0000890785  -0.0000272723  -0.0000685610
        0.0000099943   0.0000960561  -0.0000480308  -0.0001243350  -0.0000131869
       -0.0000132776   0.0001124596  -0.0000779771   0.0000630475   0.0000912184
       -0.0000733215   0.0000819619   0.0000833167   0.0000391503   0.0000708175
        0.0000114273   0.0001061252   0.0000599559  -0.0001084258   0.0000655648
       -0.0001650417   0.0000381031   0.0000200547   0.0005024402   0.0001137265
        0.0000300923
       -0.4924267868  -0.3046935810  -0.1137964156   0.5970703573   0.4269074364
        0.1470384978  -0.0812153355  -0.1019956525  -0.0215149113  -0.0049211846
        0.0102824529   0.0047246462   0.0040205805   0.0053510189  -0.0019211157
        0.0025131628  -0.0004845255  -0.0006205158  -0.0001472805   0.0013536733
       -0.0002047554   0.0000603140  -0.0003394091   0.0000150950  -0.0001634415
        0.0001757662  -0.0000788740   0.0000662624   0.0000318546  -0.0000500719
       -0.0001593348  -0.0000633751   0.0000400140   0.0003498041   0.0000579985
       -0.0001840844  -0.0001558280  -0.0001658320   0.0001611956   0.0003455709
       -0.0000879911  -0.0001305006  -0.0000814815   0.0000112805   0.0000320027
       -0.0001478277  -0.0000973631   0.0000975656   0.0001072543   0.0000517507
       -0.0001175604  -0.0004299799  -0.0006246013   0.0005810631  -0.0036781442
       -0.0038957784  -0.0019145204   0.0034081384   0.0014708304   0.0015544623
       -0.0000942021  -0.0015346240  -0.0001349706   0.0001223892   0.0003741648
       -0.0001113796  -0.0002406125  -0.0002994859   0.0001131162   0.0002730048
       -0.0001290432   0.0001726988  -0.0001945521   0.0003491249  -0.0001411109
        0.0003447435  -0.0004858234   0.0002864067  -0.0003106329   0.0004649411
       -0.0003493540   0.0005711791  -0.0000983665   0.0001197818  -0.0001224760
        0.0000727248  -0.0000260203  -0.0001410813   0.0000405259  -0.0002333807
        0.0002680863   0.0000235797   0.0001129825  -0.0012377741   0.0009223208
       -0.0000702651   0.0031051763  -0.0041376718  -0.0038563351  -0.0265004954
       -0.0277673630  -0.0114274399  -0.0012914812  -0.0001385821   0.0008137021
        0.0001438949  -0.0000509219  -0.0000406005   0.0016680793  -0.0003721967
        0.0013245217   0.0001072760   0.0000985710   0.0000867667   0.0000044105
       -0.0000709384   0.0000532867   0.0000232464  -0.0000501006   0.0000289616
        0.0000485352  -0.0000188188   0.0000050346   0.0000578626   0.0000094267
       -0.0000191617   0.0000269280   0.0000521395  -0.0000176575  -0.0000431619
       -0.0000075270   0.0000697061  -0.0000321533  -0.0000330682  -0.0000357248
       -0.0000107915   0.0000518042  -0.0000393902   0.0000363213   0.0000489443
       -0.0000361434   0.0000456332   0.0000464342   0.0000242690   0.0000382583
        0.0000061737   0.0000682488   0.0000443979  -0.0000663840   0.0000450700
       -0.0000943491   0.0000318275  -0.0000037812  -0.0010304793  -0.0005777414
       -0.0004930547
       -0.2059802229  -0.1137280975  -0.0802749078   0.2511066479   0.1470384978
        0.1387223984  -0.0345214480  -0.0221791119  -0.0616948617  -0.0024932028
        0.0048212177   0.0019282882   0.0026170921  -0.0017089144   0.0072225321
        0.0004642068   0.0000347155  -0.0001549294   0.0000244695   0.0002836514
       -0.0000189528  -0.0001124904  -0.0000418871  -0.0000069264  -0.0000176406
        0.0000050834  -0.0000597867  -0.0000211799  -0.0000024022   0.0000109783
       -0.0000309720   0.0000242478  -0.0000473754   0.0001107146  -0.0000741701
       -0.0000608372  -0.0000084133   0.0000437615  -0.0000137818   0.0001345426
       -0.0000985377  -0.0000115074  -0.0000726253   0.0000656419  -0.0000115476
       -0.0000049802  -0.0000272203   0.0000280462   0.0000036058  -0.0000020850
       -0.0000106484  -0.0001705897  -0.0002642939   0.0001288860  -0.0018129891
       -0.0013531709  -0.0000258401   0.0016177485   0.0014592516  -0.0011358206
        0.0002135420  -0.0008224331  -0.0000818891   0.0000586798   0.0001254304
       -0.0000367595  -0.0001130412  -0.0000891142   0.0000852519   0.0000818833
       -0.0000355846   0.0000489913  -0.0000627412   0.0000915411  -0.0000165406
        0.0002029296  -0.0000513269   0.0001246295  -0.0001829233   0.0002441688
       -0.0001402162   0.0001885811  -0.0000437242   0.0000448009  -0.0000319192
        0.0000118366  -0.0000052970  -0.0000461593   0.0000413952  -0.0000748553
        0.0000790710  -0.0000391399   0.0000074628  -0.0006872049   0.0002303233
       -0.0001676933   0.0009785417  -0.0048259458   0.0048382076  -0.0116212399
       -0.0107478485  -0.0049844900  -0.0002157253   0.0008149336  -0.0024250369
       -0.0001755464   0.0000251930   0.0003210916   0.0007880867   0.0011424375
       -0.0022917277   0.0000030313   0.0000347287   0.0000600038  -0.0000020839
        0.0000014562   0.0000061501   0.0000205185  -0.0000097108   0.0000049800
        0.0000275105  -0.0000029123   0.0000066565   0.0000181804   0.0000054917
       -0.0000155008   0.0000110851   0.0000291110  -0.0000050680   0.0000054897
        0.0000183451   0.0000174778  -0.0000230316  -0.0000283650  -0.0000150268
       -0.0000042057   0.0000434897  -0.0000127378   0.0000162009   0.0000239646
       -0.0000240779   0.0000179290   0.0000319892   0.0000256091   0.0000251882
       -0.0000018137   0.0000178898   0.0000160013  -0.0000241966   0.0000195105
       -0.0000442540   0.0000230798  -0.0000133810  -0.0003746475  -0.0005129776
        0.0001681788
       -0.0409685240  -0.0319530816  -0.0135550445  -0.2095990622  -0.0812153355
       -0.0345214480   0.6441239551   0.0089651705   0.0032936895  -0.2446211089
        0.1206010829   0.0513138063  -0.0691380399  -0.0251252368  -0.0089286054
       -0.0006784178  -0.0042689162  -0.0000027447  -0.0001019830   0.0004531056
        0.0004093358   0.0002945988  -0.0003336706   0.0000820116  -0.0001273034
        0.0002151808   0.0000304251   0.0004072145   0.0001316371  -0.0002167182
       -0.0000243921  -0.0004550277   0.0001931571  -0.0000061941   0.0006570040
       -0.0000345853  -0.0002958795  -0.0005874247   0.0004496027   0.0000932241
        0.0004053074   0.0000421032   0.0001185561  -0.0002301240  -0.0000093935
       -0.0000673963   0.0001692576   0.0002313499   0.0002662838   0.0000243559
       -0.0001653598  -0.0020909920   0.0000273287  -0.0009009471  -0.0023743373
        0.0249456184   0.0124807515  -0.0061996993  -0.0036404496  -0.0022059192
       -0.0000580032   0.0028190524   0.0007398714  -0.0002475858  -0.0004642246
        0.0003092205   0.0004026740   0.0003317698  -0.0003229331  -0.0003959177
        0.0002643576  -0.0002632136   0.0003391296  -0.0005445992   0.0001658390
       -0.0005547776   0.0007035102  -0.0004940795   0.0005096770  -0.0008744498
        0.0005384739  -0.0007957974   0.0002547942  -0.0001325652   0.0001844314
       -0.0001698872   0.0000584068   0.0002161477  -0.0000185943   0.0003279856
       -0.0004509266   0.0000454457   0.0000034802   0.0024263583  -0.0014354188
       -0.0002269669   0.0127631066  -0.0232755664  -0.0115350470  -0.0699210975
       -0.0122569748  -0.0061885530  -0.0048608133   0.0263590325   0.0115586129
       -0.0024196726  -0.0018027164  -0.0008577733  -0.0014066896   0.0035349704
        0.0002532837  -0.0001976271   0.0003767584  -0.0002817857   0.0000009715
       -0.0000000038   0.0000072606  -0.0000147332   0.0000019809  -0.0000079600
       -0.0000234934  -0.0000320887  -0.0000343293  -0.0000554292  -0.0000367313
       -0.0000500074  -0.0000206406  -0.0000088454  -0.0000198870  -0.0001434255
        0.0000242840  -0.0002013732   0.0000256539   0.0000387271   0.0000488540
        0.0000306358  -0.0000871650   0.0000638858  -0.0000621531  -0.0000743760
        0.0000835101  -0.0000634694  -0.0000841640  -0.0000443643  -0.0000676159
       -0.0000043887  -0.0001099222  -0.0000793822   0.0000880931  -0.0000829822
        0.0000588519  -0.0000995319  -0.0000501754  -0.0041288893  -0.0023588324
       -0.0012402333
       -0.0314035345   0.0004028105  -0.0061997467  -0.0820865671  -0.1019956525
       -0.0221791119   0.0089651705   0.5287649764   0.1775743065   0.0768328154
       -0.1307171527  -0.0375642684   0.0238813542   0.0365024531   0.0172031207
       -0.0063666376   0.0015556935  -0.0022978376  -0.0003364086  -0.0010536709
       -0.0002657553  -0.0001389409   0.0002926954   0.0001682685   0.0002206813
       -0.0002994819   0.0000289224  -0.0003227634  -0.0002171358   0.0002386629
        0.0002201708   0.0004803551  -0.0002075394  -0.0003636208  -0.0005868512
        0.0002604887   0.0004514846   0.0005538220  -0.0003350485  -0.0004735327
       -0.0001853291   0.0002153774   0.0000826569   0.0001593642  -0.0000385778
        0.0001573855   0.0000412277  -0.0002520111  -0.0001569595   0.0001977872
        0.0002623079   0.0005816486   0.0003181917  -0.0002868984   0.0250977680
       -0.0298856642  -0.0122789311  -0.0021816927  -0.0005232714   0.0005534604
        0.0001852554   0.0006444472   0.0001549124  -0.0002316391  -0.0002751271
       -0.0000756301   0.0001896653   0.0003242864   0.0000637875  -0.0002850492
        0.0001583654  -0.0002240245   0.0001498360  -0.0004242947   0.0002124083
       -0.0000293859   0.0005876260  -0.0001107720   0.0003905729  -0.0002855622
        0.0003404455  -0.0003971146   0.0001300225  -0.0001098007   0.0000905863
       -0.0000952692   0.0000045401   0.0000664723   0.0000084448   0.0002156364
       -0.0001710453  -0.0002441117  -0.0002337103   0.0006526799  -0.0003143288
       -0.0001297495  -0.0636077936  -0.0283307572  -0.0155105819   0.0111918852
       -0.2392651319  -0.0802902928   0.0270209141  -0.0280957842  -0.0108389520
       -0.0077421149   0.0049987830   0.0014041112   0.0225686310  -0.0139151364
       -0.0067178773   0.0001721355  -0.0001586552   0.0000571440   0.0000203624
        0.0000272154  -0.0000337730  -0.0000254830   0.0000514918  -0.0000076949
       -0.0000339819   0.0000239166   0.0000192765  -0.0000296238   0.0000101900
        0.0000621083  -0.0000215913  -0.0000557277   0.0000080146  -0.0000303208
       -0.0000751304   0.0000272008  -0.0000953837   0.0000176620  -0.0001363933
       -0.0000135641  -0.0000359161   0.0000385144  -0.0000112395  -0.0000452973
       -0.0000110855  -0.0000207328  -0.0000113044  -0.0000099145  -0.0000092651
       -0.0000099550  -0.0000648271  -0.0000219277   0.0000407761  -0.0000048232
        0.0000032774   0.0000861953  -0.0000297004  -0.0025854955   0.0007228999
       -0.0026676861
       -0.0130537184  -0.0062812299   0.0128509736  -0.0356504388  -0.0215149113
       -0.0616948617   0.0032936895   0.1775743065   0.1891086385   0.0316491867
       -0.0384369555  -0.0603174263   0.0103087985   0.0175197045   0.0069969559
       -0.0009321636  -0.0039804848   0.0053324501   0.0008461909   0.0000573306
       -0.0001197921  -0.0002998651   0.0001921645   0.0001229718   0.0000162414
       -0.0001261069  -0.0001059236  -0.0001516516  -0.0000878325   0.0001388669
        0.0001394761   0.0002335496  -0.0001943468   0.0001305819  -0.0005414760
       -0.0000776852   0.0001028175  -0.0002402905   0.0000063041  -0.0004457903
        0.0000161288   0.0000052648   0.0001183534   0.0000711461  -0.0000159522
       -0.0000030118  -0.0000572224  -0.0001901693  -0.0000895360   0.0002177966
        0.0000824638  -0.0007529363   0.0008119318   0.0007894324   0.0110738373
       -0.0117357496  -0.0098831298  -0.0007731215   0.0000399023   0.0000393566
        0.0001389700   0.0001881393   0.0000369464  -0.0000769681  -0.0001673908
        0.0000414316   0.0000432153   0.0001712974   0.0000388582  -0.0001351294
        0.0000669938  -0.0001027007   0.0000637187  -0.0001937007   0.0000968525
        0.0000126770   0.0002646519  -0.0000327938   0.0001290477  -0.0000941750
        0.0001395583  -0.0001654318   0.0000625631  -0.0000627671   0.0000407537
       -0.0000576777   0.0000097498   0.0000217749  -0.0000002920   0.0000921103
       -0.0000582461  -0.0000898757  -0.0001425477   0.0002211593  -0.0001221126
       -0.0000430985  -0.0285605487  -0.0139956559  -0.0034577404   0.0056733438
       -0.0803387431  -0.0797565295   0.0112389128  -0.0115016349  -0.0049967370
       -0.0032098163   0.0015777273   0.0017007467   0.0102534884  -0.0065515769
       -0.0021264810   0.0001216964  -0.0000597843   0.0001387775   0.0000077548
       -0.0000012883  -0.0000143641   0.0000074834   0.0000267098   0.0000162871
        0.0000039634  -0.0000246619   0.0000117590   0.0000033907   0.0000226975
        0.0000566909  -0.0000168138  -0.0000225561  -0.0000041091   0.0000598887
       -0.0000125667   0.0000370681  -0.0001137119  -0.0000159246  -0.0000849757
       -0.0000072496  -0.0000132424   0.0000188523  -0.0000104240  -0.0000246981
       -0.0000147803  -0.0000152265  -0.0000050768   0.0000056005  -0.0000081566
       -0.0000049417  -0.0000295029  -0.0000078858   0.0000187876  -0.0000052156
        0.0000108818   0.0000149111   0.0000096935  -0.0011934521  -0.0028486046
        0.0055489691
        0.0092454363   0.0031258078   0.0014421829  -0.0552950981  -0.0049211846
       -0.0024932028  -0.2446211089   0.0768328154   0.0316491867   0.6406668754
       -0.0061553549  -0.0052386979  -0.2378219503  -0.0639612628  -0.0267063223
       -0.0555419760  -0.0012580200   0.0037505898  -0.0001438848  -0.0051400532
       -0.0014266501  -0.0007199639   0.0005793062  -0.0003215721   0.0004403774
       -0.0006229376   0.0001831682  -0.0007116148  -0.0002730498   0.0003800397
        0.0003317649   0.0008968275  -0.0001906987  -0.0004937950  -0.0013616673
        0.0007994221  -0.0007730424   0.0013446878   0.0002815832  -0.0012062539
       -0.0001909233   0.0003297973   0.0000716642   0.0004028552  -0.0001289984
        0.0005038120  -0.0001411816  -0.0004211213  -0.0005207218   0.0002544744
        0.0002579037   0.0010369835   0.0041561608  -0.0021174519   0.0133791697
       -0.0644892274  -0.0323064349   0.0066902724   0.0044485948   0.0036583877
        0.0000244975  -0.0031508497  -0.0006348417   0.0000804788   0.0004189908
       -0.0004013572  -0.0004499930  -0.0002638675   0.0004136343   0.0003881571
       -0.0002719824   0.0002218162  -0.0003056004   0.0004691617  -0.0001391384
        0.0007326767  -0.0005906522   0.0005117262  -0.0004616626   0.0009819515
       -0.0004726187   0.0008538265  -0.0002728294   0.0001166806  -0.0001121913
        0.0002094183  -0.0000365473  -0.0001217517   0.0000537995  -0.0002805983
        0.0004786992  -0.0002551666  -0.0000092157  -0.0025755358   0.0016617180
        0.0000780644  -0.0474113095  -0.0018325789  -0.0002221961   0.0133095778
        0.0633373761   0.0284827821   0.0075330073  -0.0031756673  -0.0010208803
       -0.0034641638   0.0016241282   0.0005904692  -0.0427899442  -0.0029979115
        0.0010999921  -0.0000880535   0.0004352310  -0.0003960358   0.0000125431
        0.0000575218  -0.0000435721  -0.0000112071   0.0000315477  -0.0000726524
        0.0000084100   0.0001028862   0.0000829555   0.0000238374  -0.0000012879
        0.0000906262  -0.0000052284  -0.0000735739   0.0000865714   0.0002002020
       -0.0003776782   0.0002871460  -0.0000685136  -0.0000490947  -0.0001533421
       -0.0000438273   0.0000819336  -0.0000443925   0.0000789389   0.0000645424
       -0.0000990458   0.0000695765   0.0000942084   0.0000532779   0.0000875537
        0.0000004955   0.0001090294   0.0000987791  -0.0000813965   0.0001016875
       -0.0002039070   0.0002681446  -0.0000557155  -0.0003848181  -0.0000251860
        0.0003745797
       -0.0037289012  -0.0039961606  -0.0022974215  -0.0035909666   0.0102824529
        0.0048212177   0.1206010829  -0.1307171527  -0.0384369555  -0.0061553549
        0.5659213139   0.2076779670  -0.1205383581  -0.1335080063  -0.0378674080
        0.0093860805   0.0110321771   0.0010913217   0.0007398169  -0.0006300721
        0.0003351827   0.0006229506  -0.0003339512  -0.0006441335  -0.0000002491
        0.0000917350   0.0002712894  -0.0000987016  -0.0000567258   0.0000266965
       -0.0000373903   0.0001486332  -0.0000929272   0.0000434449  -0.0002954664
        0.0001008057   0.0006757697   0.0003934563  -0.0006430966   0.0001729969
       -0.0004253748  -0.0000549422  -0.0000520780   0.0001555542  -0.0000338452
       -0.0000474305  -0.0000647323  -0.0000845354  -0.0000364793   0.0002461462
        0.0000335703   0.0020090695  -0.0010119137   0.0010094697  -0.0241912001
       -0.0246996878  -0.0109637003   0.0007681822  -0.0038636780  -0.0032754611
       -0.0001622176  -0.0009326433  -0.0011242535   0.0000805592   0.0001026147
        0.0000344474  -0.0000860227  -0.0000241579   0.0000824284   0.0000442449
       -0.0000256030   0.0000113871  -0.0000894383   0.0000668992   0.0000766984
       -0.0001114887  -0.0001042957   0.0001912226  -0.0001806025   0.0000325661
        0.0000056823   0.0000800687  -0.0000323126   0.0000466964  -0.0000039110
        0.0000136346  -0.0000209867   0.0000049991   0.0000440413  -0.0000177581
        0.0000830924  -0.0001254709  -0.0000148275  -0.0003279323   0.0000258631
        0.0000913451   0.0021527134   0.0019048186   0.0025959115   0.0230110053
       -0.0288872986  -0.0141809585  -0.0008864599  -0.0041106791  -0.0048167738
        0.0014363494   0.0000709105   0.0006711121  -0.0017155109  -0.2568810164
       -0.1054249223   0.0000790371  -0.0002603186   0.0005084151  -0.0000008749
        0.0000060283   0.0000207002  -0.0000218025  -0.0000408715  -0.0000584099
        0.0000060495   0.0000186344  -0.0000003637   0.0000359974   0.0000125517
        0.0000199872   0.0000167063   0.0000112890  -0.0000107759   0.0000006895
       -0.0000913906   0.0000154269  -0.0000620191  -0.0000760686  -0.0000731136
        0.0000057651   0.0000165663  -0.0000064679   0.0000097607  -0.0000015738
       -0.0000210917  -0.0000031254   0.0000154985   0.0000245442   0.0000179073
        0.0000009740   0.0000002523   0.0000153285   0.0000043184   0.0000209301
       -0.0000677392   0.0001039899  -0.0000791901   0.0000965867   0.0004739548
        0.0004596117
       -0.0015546977  -0.0023677016   0.0002190623  -0.0020523114   0.0047246462
        0.0019282882   0.0513138063  -0.0375642684  -0.0603174263  -0.0052386979
        0.2076779670   0.2026360544  -0.0553145148  -0.0357037510  -0.0602734083
        0.0099188757   0.0010606759   0.0021330692   0.0005318524   0.0016548627
       -0.0001957836   0.0001491719   0.0000194844  -0.0004611027  -0.0003517787
        0.0000717594  -0.0001056786   0.0001162125   0.0001768812  -0.0000300598
       -0.0001216568  -0.0001843641   0.0000561819   0.0003505221   0.0001382858
       -0.0002274806   0.0000000756  -0.0004344604   0.0001169714   0.0001914921
        0.0001627478  -0.0003000813   0.0000697897  -0.0002083700   0.0001029301
       -0.0002698082  -0.0001097899   0.0000149667   0.0001844713  -0.0000351158
       -0.0000958569   0.0013394755  -0.0005644855   0.0009479873  -0.0099504663
       -0.0123632623  -0.0074841695   0.0013797456  -0.0045458629   0.0047273566
       -0.0013264033  -0.0005098208  -0.0001434052  -0.0000827864   0.0001182816
       -0.0000358929  -0.0000413219  -0.0000983846  -0.0000209238   0.0000724180
       -0.0000126068   0.0000596915  -0.0001329362   0.0000959914  -0.0001203309
       -0.0000827560  -0.0006044309   0.0001968420   0.0000382074  -0.0000043606
       -0.0000373538   0.0002395415  -0.0000364629   0.0000253159  -0.0000043305
        0.0000977786  -0.0000224656  -0.0001111395  -0.0000272255  -0.0001358381
        0.0000896052  -0.0000217169   0.0001571531   0.0002107910   0.0006519145
        0.0003420507   0.0002278166   0.0025991854  -0.0015531352   0.0114392752
       -0.0155713724  -0.0034552194  -0.0017230664  -0.0038490488   0.0048367420
        0.0014351381   0.0001339224  -0.0012180984  -0.0002613040  -0.1052824688
       -0.0824174555  -0.0006142497   0.0003605742   0.0001149778  -0.0000428833
       -0.0000481285   0.0000135177  -0.0000247891  -0.0000073913   0.0000487357
        0.0000066641  -0.0000446347  -0.0000168688   0.0000478659   0.0000232458