      -----------------------------------------------------------      
     |                   =====================                   |     
     |                           x T B                           |     
     |                   =====================                   |     
     |                         S. Grimme                         |     
     |          Mulliken Center for Theoretical Chemistry        |     
     |                    University of Bonn                     |     
      -----------------------------------------------------------      

   * xtb version 6.7.1 (edcfbbe) compiled by 'albert@albert-system' on 2024-07-22

   xtb is free software: you can redistribute it and/or modify it under
   the terms of the GNU Lesser General Public License as published by
   the Free Software Foundation, either version 3 of the License, or
   (at your option) any later version.
   
   xtb is distributed in the hope that it will be useful,
   but WITHOUT ANY WARRANTY; without even the implied warranty of
   MERCHANTABILITY or FITNESS FOR A PARTICULAR PURPOSE.  See the
   GNU Lesser General Public License for more details.
   
   Cite this work as:
   * C. Bannwarth, E. Caldeweyher, S. Ehlert, A. Hansen, P. Pracht,
     J. Seibert, S. Spicher, S. Grimme, WIREs Comput. Mol. Sci., 2020, 11,
     e01493. DOI: 10.1002/wcms.1493
   
   for GFN2-xTB:
   * C. Bannwarth, S. Ehlert and S. Grimme., J. Chem. Theory Comput., 2019,
     15, 1652-1671. DOI: 10.1021/acs.jctc.8b01176
   for GFN1-xTB:
   * S. Grimme, C. Bannwarth, P. Shushkov, J. Chem. Theory Comput., 2017,
     13, 1989-2009. DOI: 10.1021/acs.jctc.7b00118
   for GFN0-xTB:
   * P. Pracht, E. Caldeweyher, S. Ehlert, S. Grimme, ChemRxiv, 2019, preprint.
     DOI: 10.26434/chemrxiv.8326202.v1
   for GFN-FF:
   * S. Spicher and S. Grimme, Angew. Chem. Int. Ed., 2020, 59, 15665-15673.
     DOI: 10.1002/anie.202004239
   
   for ALPB and GBSA implicit solvation:
   * S. Ehlert, M. Stahn, S. Spicher, S. Grimme, J. Chem. Theory Comput.,
     2021, 17, 4250-4261. DOI: 10.1021/acs.jctc.1c00471
   
   for ddCOSMO and CPCM-X implicit solvation:
   * M. Stahn, S. Ehlert, S. Grimme, J. Phys. Chem. A,
     2023, XX, XXXX-XXXX. DOI: 10.1021/acs.jpca.3c04382
   
   for DFT-D4:
   * E. Caldeweyher, C. Bannwarth and S. Grimme, J. Chem. Phys., 2017,
     147, 034112. DOI: 10.1063/1.4993215
   * E. Caldeweyher, S. Ehlert, A. Hansen, H. Neugebauer, S. Spicher,
     C. Bannwarth and S. Grimme, J. Chem. Phys., 2019, 150, 154122.
     DOI: 10.1063/1.5090222
   * E. Caldeweyher, J.-M. Mewes, S. Ehlert and S. Grimme, Phys. Chem. Chem. Phys.
     2020, 22, 8499-8512. DOI: 10.1039/D0CP00502A
   
   for sTDA-xTB:
   * S. Grimme and C. Bannwarth, J. Chem. Phys., 2016, 145, 054103.
     DOI: 10.1063/1.4959605
   
   in the mass-spec context:
   * V. Asgeirsson, C. Bauer and S. Grimme, Chem. Sci., 2017, 8, 4879.
     DOI: 10.1039/c7sc00601b
   * J. Koopman and S. Grimme, ACS Omega 2019, 4, 12, 15120-15133.
     DOI: 10.1021/acsomega.9b02011
   
   for metadynamics refer to:
   * S. Grimme, J. Chem. Theory Comput., 2019, 155, 2847-2862
     DOI: 10.1021/acs.jctc.9b00143
   
   for SPH calculations refer to:
   * S. Spicher and S. Grimme, J. Chem. Theory Comput., 2021, 17, 1701-1714
     DOI: 10.1021/acs.jctc.0c01306
   
   for ONIOM refer to:
   * C. Plett, A. Katbashev, S. Ehlert, S. Grimme, M. Bursch,
     Phys. Chem. Chem. Phys., 2023, 25, 17860-17868. DOI: 10.1039/D3CP02178E
   
   for DIPRO refer to:
   * J. Kohn, N. Gildemeister, S. Grimme, D. Fazzi, A. Hansen,
     J. Chem. Phys., 2023, just accepted.
   
   for PTB refer to:
   * S. Grimme, M. Mueller, A. Hansen, J. Chem. Phys., 2023, 158, 124111.
     DOI: 10.1063/5.0137838
   
   with help from (in alphabetical order)
   P. Atkinson, C. Bannwarth, F. Bohle, G. Brandenburg, E. Caldeweyher
   M. Checinski, S. Dohm, S. Ehlert, S. Ehrlich, I. Gerasimov, C. Hölzer
   A. Katbashev, J. Kohn, J. Koopman, C. Lavigne, S. Lehtola, F. März, M. Müller,
   F. Musil, H. Neugebauer, J. Pisarek, C. Plett, P. Pracht, F. Pultar,
   J. Seibert, P. Shushkov, S. Spicher, M. Stahn, M. Steiner, T. Strunk,
   J. Stückrath, T. Rose, and J. Unsleber
   
 * started run on 2025/07/16 at 17:20:19.454     
   ID    Z sym.   atoms
    1    7 N      1, 6, 14, 20, 28, 36
    2    6 C      2-5, 7-13, 15-19, 21-27, 29-35
    3    1 H      37-52

           -------------------------------------------------
          |                Calculation Setup                |
           -------------------------------------------------

          program call               : xtb data2507/toluene/δ-2CbPN/δ-2CbPN_toluene_S0_crest.xyz --gfn 2 --gbsa toluene --ohess vtight --parallel 40 --molden --ceasefiles --namespace data2507/toluene/δ-2CbPN/δ-2CbPN_toluene_S0_finalOpt
          calculation namespace      : data2507/toluene/δ-2CbPN/δ-2CbPN_toluene_S0_finalOpt
          coordinate file            : data2507/toluene/δ-2CbPN/δ-2CbPN_toluene_S0_crest.xyz
          omp threads                :                    40


           -------------------------------------------------
          |                 G F N 2 - x T B                 |
           -------------------------------------------------

        Reference                      10.1021/acs.jctc.8b01176
      * Hamiltonian:
        H0-scaling (s, p, d)           1.850000    2.230000    2.230000
        zeta-weighting                 0.500000
      * Dispersion:
        s8                             2.700000
        a1                             0.520000
        a2                             5.000000
        s9                             5.000000
      * Repulsion:
        kExp                           1.500000    1.000000
        rExp                           1.000000
      * Coulomb:
        alpha                          2.000000
        third order                    shell-resolved
        anisotropic                    true
        a3                             3.000000
        a5                             4.000000
        cn-shift                       1.200000
        cn-exp                         4.000000
        max-rad                        5.000000

      * Solvation model:               GBSA
        Solvent                        toluene
        Parameter file                 internal GFN2-xTB/GBSA
        Dielectric constant                7.0000E+00
        Reference state                gsolv [1 M gas/solution]
        Free energy shift                  4.5239E-03 Eh       2.8388E+00 kcal/mol
        Temperature                        2.9815E+02 K
        Density                            8.6700E-01 kg/L
        Solvent mass                       9.2140E+01 g/mol
        Interaction kernel             Still
        Born radius scaling (c1)           1.5686E+00
        Born radii integrator          GBOBC
        Born offset                        0.0000E+00 a0       0.0000E+00 AA
        H-bond correction              false
        Ion screening                  false
        Surface tension                    1.0000E-05 Eh       1.5569E+01 dyn/cm
        Grid points                               230 per atom

          ...................................................
          :                      SETUP                      :
          :.................................................:
          :  # basis functions                 160          :
          :  # atomic orbitals                 160          :
          :  # shells                           88          :
          :  # electrons                       166          :
          :  max. iterations                   250          :
          :  Hamiltonian                  GFN2-xTB          :
          :  restarted?                      false          :
          :  GBSA solvation                   true          :
          :  PC potential                    false          :
          :  electronic temp.          300.0000000     K    :
          :  accuracy                    1.0000000          :
          :  -> integral cutoff          0.2500000E+02      :
          :  -> integral neglect         0.1000000E-07      :
          :  -> SCF convergence          0.1000000E-05 Eh   :
          :  -> wf. convergence          0.1000000E-03 e    :
          :  Broyden damping             0.4000000          :
          :  net charge                          0          :
          :  unpaired electrons                  0          :
          ...................................................

 iter      E             dE          RMSdq      gap      omega  full diag
   1    -91.5296847 -0.915297E+02  0.474E+00    2.22       0.0  T
   2    -91.6001401 -0.704554E-01  0.306E+00    2.13       1.0  T
   3    -91.5347907  0.653494E-01  0.179E+00    1.92       1.0  T
   4    -91.6434413 -0.108651E+00  0.511E-01    1.78       1.0  T
   5    -91.6539429 -0.105016E-01  0.155E-01    1.65       1.0  T
   6    -91.6547196 -0.776686E-03  0.792E-02    1.71       1.0  T
   7    -91.6548449 -0.125320E-03  0.222E-02    1.70       1.0  T
   8    -91.6548531 -0.817691E-05  0.109E-02    1.71       1.3  T
   9    -91.6548544 -0.126723E-05  0.419E-03    1.72       3.3  T
  10    -91.6548547 -0.312198E-06  0.177E-03    1.71       7.8  T
  11    -91.6548547 -0.444398E-07  0.696E-04    1.71      19.9  T
  12    -91.6548547 -0.156112E-07  0.371E-04    1.71      37.4  T

   *** convergence criteria satisfied after 12 iterations ***

         #    Occupation            Energy/Eh            Energy/eV
      -------------------------------------------------------------
         1        2.0000           -0.7212963             -19.6275
       ...           ...                  ...                  ...
        77        2.0000           -0.4342525             -11.8166
        78        2.0000           -0.4087247             -11.1220
        79        2.0000           -0.4029694             -10.9654
        80        2.0000           -0.3960239             -10.7764
        81        2.0000           -0.3928417             -10.6898
        82        2.0000           -0.3827020             -10.4139
        83        2.0000           -0.3820625             -10.3964 (HOMO)
        84                         -0.3190840              -8.6827 (LUMO)
        85                         -0.2952020              -8.0329
        86                         -0.2766103              -7.5270
        87                         -0.2764716              -7.5232
        88                         -0.2553552              -6.9486
       ...                                ...                  ...
       160                          1.1608501              31.5883
      -------------------------------------------------------------
                  HL-Gap            0.0629785 Eh            1.7137 eV
             Fermi-level           -0.3505733 Eh           -9.5396 eV

 SCC (total)                   0 d,  0 h,  0 min,  0.115 sec
 SCC setup                      ...        0 min,  0.001 sec (  1.241%)
 Dispersion                     ...        0 min,  0.002 sec (  2.017%)
 classical contributions        ...        0 min,  0.000 sec (  0.309%)
 integral evaluation            ...        0 min,  0.006 sec (  5.009%)
 iterations                     ...        0 min,  0.096 sec ( 84.043%)
 molecular gradient             ...        0 min,  0.008 sec (  6.731%)
 printout                       ...        0 min,  0.001 sec (  0.574%)

         :::::::::::::::::::::::::::::::::::::::::::::::::::::
         ::                     SUMMARY                     ::
         :::::::::::::::::::::::::::::::::::::::::::::::::::::
         :: total energy             -89.969755914717 Eh    ::
         :: total w/o Gsasa/hb       -89.935138596468 Eh    ::
         :: gradient norm              0.005702310457 Eh/a0 ::
         :: HOMO-LUMO gap              1.713732236464 eV    ::
         ::.................................................::
         :: SCC energy               -91.652489616911 Eh    ::
         :: -> isotropic ES            0.041509838966 Eh    ::
         :: -> anisotropic ES          0.008975472687 Eh    ::
         :: -> anisotropic XC          0.081889445030 Eh    ::
         :: -> dispersion             -0.085840213730 Eh    ::
         :: -> Gsolv                  -0.041079433613 Eh    ::
         ::    -> Gelec               -0.006462115364 Eh    ::
         ::    -> Gsasa               -0.039141198121 Eh    ::
         ::    -> Ghb                  0.000000000000 Eh    ::
         ::    -> Gshift               0.004523879872 Eh    ::
         :: repulsion energy           1.682733702194 Eh    ::
         :: add. restraining           0.000000000000 Eh    ::
         :: total charge               0.000000000000 e     ::
         :::::::::::::::::::::::::::::::::::::::::::::::::::::

      ----------------------------------------------------------- 
     |                   =====================                   |
     |                        A N C O P T                        |
     |                   =====================                   |
     |               Approximate Normal Coordinate               |
     |                Rational Function Optimizer                |
      ----------------------------------------------------------- 

Optimization log is written to '/dev/null'
      ----------------------------------------------------------- 
     |                   =====================                   |
     |                        A N C O P T                        |
     |                   =====================                   |
     |               Approximate Normal Coordinate               |
     |                Rational Function Optimizer                |
      ----------------------------------------------------------- 

          ...................................................
          :                      SETUP                      :
          :.................................................:
          :   optimization level         verytight          :
          :   max. optcycles                  1040          :
          :   ANC micro-cycles                  20          :
          :   degrees of freedom               150          :
          :.................................................:
          :   RF solver                   davidson          :
          :   write xtbopt.log                true          :
          :   linear?                        false          :
          :   energy convergence         0.1000000E-06 Eh   :
          :   grad. convergence          0.2000000E-03 Eh/α :
          :   maxmium RF displ.          1.0000000          :
          :   Hlow (freq-cutoff)         0.1000000E-01      :
          :   Hmax (freq-cutoff)         5.0000000          :
          :   S6 in model hess.         20.0000000          :
          ...................................................

generating ANC from exact Hessian ...
Using Lindh-Hessian (1995)
 Shifting diagonal of input Hessian by   9.684469936418458E-003
 Lowest  eigenvalues of input Hessian
    0.000000    0.000000    0.000000    0.000000    0.000000    0.000000
    0.010000    0.010083    0.010181    0.010381    0.010649    0.011628
    0.011939    0.012013    0.012658    0.013609    0.014889    0.015188
 Highest eigenvalues
    2.200369    2.201001    2.241936    2.261326    2.629037    2.639652
 

........................................................................
.............................. CYCLE    1 ..............................
........................................................................

 iter      E             dE          RMSdq      gap      omega  full diag
   1    -91.6548547 -0.916549E+02  0.160E-04    1.71       0.0  T
   2    -91.6548547 -0.258538E-09  0.112E-04    1.71     124.1  T
   3    -91.6548547 -0.573365E-09  0.627E-05    1.71     221.1  T
     SCC iter.                  ...        0 min,  0.018 sec
     gradient                   ...        0 min,  0.006 sec
 * total energy  :   -89.9697559 Eh     change       -0.4061619E-08 Eh
   gradient norm :     0.0056984 Eh/α   predicted     0.0000000E+00 (-100.00%)
   displ. norm   :     0.0625985 α      lambda       -0.5648846E-04
   maximum displ.:     0.0425667 α      in ANC's #5, #15, #8, ...

........................................................................
.............................. CYCLE    2 ..............................
........................................................................

 iter      E             dE          RMSdq      gap      omega  full diag
   1    -91.6504609 -0.916505E+02  0.299E-02    1.71       0.0  T
   2    -91.6504623 -0.134435E-05  0.171E-02    1.71       1.0  T
   3    -91.6504594  0.285648E-05  0.655E-03    1.71       2.1  T
   4    -91.6504628 -0.342799E-05  0.145E-03    1.71       9.6  T
   5    -91.6504630 -0.129703E-06  0.630E-04    1.71      22.0  T
   6    -91.6504630 -0.925438E-08  0.274E-04    1.71      50.6  T
     SCC iter.                  ...        0 min,  0.032 sec
     gradient                   ...        0 min,  0.006 sec
 * total energy  :   -89.9698162 Eh     change       -0.6031933E-04 Eh
   gradient norm :     0.0025507 Eh/α   predicted    -0.4656762E-04 ( -22.80%)
   displ. norm   :     0.1368649 α      lambda       -0.1372823E-03
   maximum displ.:     0.1028106 α      in ANC's #5, #2, #15, ...

........................................................................
.............................. CYCLE    3 ..............................
........................................................................

 iter      E             dE          RMSdq      gap      omega  full diag
   1    -91.6434116 -0.916434E+02  0.745E-02    1.71       0.0  T
   2    -91.6434185 -0.687814E-05  0.420E-02    1.70       1.0  T
   3    -91.6434068  0.116728E-04  0.132E-02    1.70       1.0  T
   4    -91.6434212 -0.144002E-04  0.297E-03    1.70       4.7  T
   5    -91.6434217 -0.522555E-06  0.129E-03    1.70      10.7  T
   6    -91.6434218 -0.351687E-07  0.587E-04    1.70      23.6  T
   7    -91.6434218 -0.610007E-08  0.239E-04    1.70      58.1  T
     SCC iter.                  ...        0 min,  0.037 sec
     gradient                   ...        0 min,  0.006 sec
 * total energy  :   -89.9698066 Eh     change        0.9604590E-05 Eh
   gradient norm :     0.0066077 Eh/α   predicted    -0.6993979E-04 (-828.19%)
   displ. norm   :     0.0441272 α      lambda       -0.1304857E-03
   maximum displ.:     0.0197776 α      in ANC's #7, #2, #5, ...

........................................................................
.............................. CYCLE    4 ..............................
........................................................................

 iter      E             dE          RMSdq      gap      omega  full diag
   1    -91.6472483 -0.916472E+02  0.544E-02    1.71       0.0  T
   2    -91.6472506 -0.231724E-05  0.302E-02    1.71       1.0  T
   3    -91.6472507 -0.455142E-07  0.402E-03    1.71       3.4  T
   4    -91.6472515 -0.841424E-06  0.123E-03    1.71      11.2  T
   5    -91.6472515 -0.236480E-07  0.632E-04    1.71      21.9  T
   6    -91.6472515 -0.107660E-07  0.185E-04    1.71      74.8  T
     SCC iter.                  ...        0 min,  0.032 sec
     gradient                   ...        0 min,  0.006 sec
 * total energy  :   -89.9698773 Eh     change       -0.7071580E-04 Eh
   gradient norm :     0.0024051 Eh/α   predicted    -0.6537114E-04 (  -7.56%)
   displ. norm   :     0.0626320 α      lambda       -0.5961896E-04
   maximum displ.:     0.0352346 α      in ANC's #5, #8, #3, ...

........................................................................
.............................. CYCLE    5 ..............................
........................................................................

 iter      E             dE          RMSdq      gap      omega  full diag
   1    -91.6497966 -0.916498E+02  0.644E-02    1.71       0.0  T
   2    -91.6497997 -0.312728E-05  0.357E-02    1.71       1.0  T
   3    -91.6498001 -0.455633E-06  0.381E-03    1.71       3.6  T
   4    -91.6498009 -0.723960E-06  0.136E-03    1.71      10.2  T
   5    -91.6498009 -0.318562E-07  0.644E-04    1.71      21.5  T
   6    -91.6498009 -0.115765E-07  0.192E-04    1.71      72.4  T
     SCC iter.                  ...        0 min,  0.032 sec
     gradient                   ...        0 min,  0.006 sec
 * total energy  :   -89.9698631 Eh     change        0.1426904E-04 Eh
   gradient norm :     0.0032020 Eh/α   predicted    -0.2992754E-04 (-309.74%)
   displ. norm   :     0.0437911 α      lambda       -0.8185968E-04
   maximum displ.:     0.0307097 α      in ANC's #5, #3, #7, ...

........................................................................
.............................. CYCLE    6 ..............................
........................................................................

 iter      E             dE          RMSdq      gap      omega  full diag
   1    -91.6495605 -0.916496E+02  0.440E-02    1.71       0.0  T
   2    -91.6495620 -0.141419E-05  0.243E-02    1.71       1.0  T
   3    -91.6495624 -0.439919E-06  0.186E-03    1.71       7.4  T
   4    -91.6495625 -0.112258E-06  0.810E-04    1.71      17.1  T
   5    -91.6495625 -0.767041E-08  0.252E-04    1.71      55.1  T
     SCC iter.                  ...        0 min,  0.026 sec
     gradient                   ...        0 min,  0.006 sec
 * total energy  :   -89.9699132 Eh     change       -0.5008868E-04 Eh
   gradient norm :     0.0011036 Eh/α   predicted    -0.4101163E-04 ( -18.12%)
   displ. norm   :     0.0723739 α      lambda       -0.1924659E-04
   maximum displ.:     0.0643519 α      in ANC's #5, #2, #1, ...

........................................................................
.............................. CYCLE    7 ..............................
........................................................................

 iter      E             dE          RMSdq      gap      omega  full diag
   1    -91.6494218 -0.916494E+02  0.252E-02    1.71       0.0  T
   2    -91.6494221 -0.359516E-06  0.142E-02    1.71       1.0  T
   3    -91.6494222 -0.804462E-07  0.130E-03    1.71      10.7  T
   4    -91.6494223 -0.526920E-07  0.607E-04    1.71      22.8  T
   5    -91.6494223 -0.317726E-08  0.326E-04    1.71      42.5  T
     SCC iter.                  ...        0 min,  0.026 sec
     gradient                   ...        0 min,  0.006 sec
 * total energy  :   -89.9699353 Eh     change       -0.2214623E-04 Eh
   gradient norm :     0.0009921 Eh/α   predicted    -0.9646304E-05 ( -56.44%)
   displ. norm   :     0.0659802 α      lambda       -0.1382958E-04
   maximum displ.:     0.0563864 α      in ANC's #5, #1, #2, ...

........................................................................
.............................. CYCLE    8 ..............................
........................................................................

 iter      E             dE          RMSdq      gap      omega  full diag
   1    -91.6497612 -0.916498E+02  0.187E-02    1.71       0.0  T
   2    -91.6497614 -0.167530E-06  0.107E-02    1.71       1.3  T
   3    -91.6497613  0.196309E-07  0.140E-03    1.71       9.9  T
   4    -91.6497614 -0.717555E-07  0.525E-04    1.71      26.4  T
   5    -91.6497614 -0.490721E-08  0.268E-04    1.71      51.7  T
     SCC iter.                  ...        0 min,  0.026 sec
     gradient                   ...        0 min,  0.006 sec
 * total energy  :   -89.9699534 Eh     change       -0.1807816E-04 Eh
   gradient norm :     0.0006595 Eh/α   predicted    -0.6929279E-05 ( -61.67%)
   displ. norm   :     0.0772547 α      lambda       -0.1308247E-04
   maximum displ.:     0.0650615 α      in ANC's #5, #1, #2, ...

........................................................................
.............................. CYCLE    9 ..............................
........................................................................

 iter      E             dE          RMSdq      gap      omega  full diag
   1    -91.6495974 -0.916496E+02  0.196E-02    1.70       0.0  T
   2    -91.6495976 -0.114812E-06  0.113E-02    1.70       1.2  T
   3    -91.6495975  0.590713E-07  0.140E-03    1.70       9.9  T
   4    -91.6495976 -0.104266E-06  0.494E-04    1.70      28.1  T
   5    -91.6495976 -0.257843E-08  0.276E-04    1.70      50.2  T
     SCC iter.                  ...        0 min,  0.026 sec
     gradient                   ...        0 min,  0.006 sec
 * total energy  :   -89.9699705 Eh     change       -0.1707731E-04 Eh
   gradient norm :     0.0006902 Eh/α   predicted    -0.6560192E-05 ( -61.59%)
   displ. norm   :     0.0794136 α      lambda       -0.1091065E-04
   maximum displ.:     0.0659606 α      in ANC's #5, #1, #2, ...

........................................................................
.............................. CYCLE   10 ..............................
........................................................................

 iter      E             dE          RMSdq      gap      omega  full diag
   1    -91.6497450 -0.916497E+02  0.190E-02    1.70       0.0  T
   2    -91.6497451 -0.953643E-07  0.110E-02    1.70       1.3  T
   3    -91.6497450  0.563644E-07  0.131E-03    1.70      10.6  T
   4    -91.6497451 -0.947216E-07  0.462E-04    1.70      30.0  T
   5    -91.6497451 -0.262749E-08  0.237E-04    1.70      58.5  T
     SCC iter.                  ...        0 min,  0.027 sec
     gradient                   ...        0 min,  0.006 sec
 * total energy  :   -89.9699853 Eh     change       -0.1482263E-04 Eh
   gradient norm :     0.0006379 Eh/α   predicted    -0.5475242E-05 ( -63.06%)
   displ. norm   :     0.0768221 α      lambda       -0.9487005E-05
   maximum displ.:     0.0622777 α      in ANC's #5, #1, #2, ...

........................................................................
.............................. CYCLE   11 ..............................
........................................................................

 iter      E             dE          RMSdq      gap      omega  full diag
   1    -91.6498087 -0.916498E+02  0.184E-02    1.70       0.0  T
   2    -91.6498088 -0.737762E-07  0.107E-02    1.70       1.3  T
   3    -91.6498088  0.123983E-07  0.917E-04    1.70      15.1  T
   4    -91.6498088 -0.388550E-07  0.385E-04    1.70      36.0  T
     SCC iter.                  ...        0 min,  0.021 sec
     gradient                   ...        0 min,  0.006 sec
 * total energy  :   -89.9699986 Eh     change       -0.1328032E-04 Eh
   gradient norm :     0.0003976 Eh/α   predicted    -0.4757285E-05 ( -64.18%)
   displ. norm   :     0.0785853 α      lambda       -0.8973912E-05
   maximum displ.:     0.0618251 α      in ANC's #5, #1, #9, ...

........................................................................
.............................. CYCLE   12 ..............................
........................................................................

 iter      E             dE          RMSdq      gap      omega  full diag
   1    -91.6497700 -0.916498E+02  0.188E-02    1.70       0.0  T
   2    -91.6497701 -0.551070E-07  0.110E-02    1.70       1.3  T
   3    -91.6497700  0.643414E-07  0.110E-03    1.70      12.6  T
   4    -91.6497701 -0.882016E-07  0.350E-04    1.70      39.6  T
   5    -91.6497701 -0.221010E-08  0.180E-04    1.70      76.9  T
     SCC iter.                  ...        0 min,  0.027 sec
     gradient                   ...        0 min,  0.006 sec
 * total energy  :   -89.9700111 Eh     change       -0.1255414E-04 Eh
   gradient norm :     0.0003407 Eh/α   predicted    -0.4504047E-05 ( -64.12%)
   displ. norm   :     0.0868074 α      lambda       -0.8937171E-05
   maximum displ.:     0.0668244 α      in ANC's #5, #1, #9, ...

........................................................................
.............................. CYCLE   13 ..............................
........................................................................

 iter      E             dE          RMSdq      gap      omega  full diag
   1    -91.6498855 -0.916499E+02  0.214E-02    1.70       0.0  T
   2    -91.6498856 -0.845991E-07  0.125E-02    1.70       1.1  T
   3    -91.6498855  0.182861E-07  0.101E-03    1.70      13.7  T
   4    -91.6498856 -0.493804E-07  0.416E-04    1.70      33.4  T
   5    -91.6498856 -0.214030E-08  0.212E-04    1.70      65.4  T
     SCC iter.                  ...        0 min,  0.026 sec
     gradient                   ...        0 min,  0.006 sec
 * total energy  :   -89.9700235 Eh     change       -0.1241501E-04 Eh
   gradient norm :     0.0002951 Eh/α   predicted    -0.4485779E-05 ( -63.87%)
   displ. norm   :     0.0941641 α      lambda       -0.8571973E-05
   maximum displ.:     0.0717449 α      in ANC's #5, #1, #9, ...

........................................................................
.............................. CYCLE   14 ..............................
........................................................................

 iter      E             dE          RMSdq      gap      omega  full diag
   1    -91.6498328 -0.916498E+02  0.238E-02    1.70       0.0  T
   2    -91.6498329 -0.130710E-06  0.138E-02    1.70       1.0  T
   3    -91.6498329 -0.227523E-08  0.113E-03    1.70      12.3  T
   4    -91.6498329 -0.441960E-07  0.526E-04    1.70      26.4  T
   5    -91.6498329 -0.338967E-08  0.269E-04    1.70      51.5  T
     SCC iter.                  ...        0 min,  0.027 sec
     gradient                   ...        0 min,  0.006 sec
 * total energy  :   -89.9700355 Eh     change       -0.1192837E-04 Eh
   gradient norm :     0.0002468 Eh/α   predicted    -0.4305164E-05 ( -63.91%)
   displ. norm   :     0.0964513 α      lambda       -0.7759431E-05
   maximum displ.:     0.0731313 α      in ANC's #5, #1, #8, ...

........................................................................
.............................. CYCLE   15 ..............................
........................................................................

 iter      E             dE          RMSdq      gap      omega  full diag
   1    -91.6499196 -0.916499E+02  0.247E-02    1.70       0.0  T
   2    -91.6499197 -0.162586E-06  0.143E-02    1.70       1.0  T
   3    -91.6499197 -0.894195E-08  0.113E-03    1.70      12.3  T
   4    -91.6499198 -0.483579E-07  0.547E-04    1.70      25.4  T
   5    -91.6499198 -0.423663E-08  0.247E-04    1.70      56.1  T
     SCC iter.                  ...        0 min,  0.026 sec
     gradient                   ...        0 min,  0.006 sec
 * total energy  :   -89.9700460 Eh     change       -0.1057489E-04 Eh
   gradient norm :     0.0002917 Eh/α   predicted    -0.3896788E-05 ( -63.15%)
   displ. norm   :     0.0881180 α      lambda       -0.6088855E-05
   maximum displ.:     0.0670086 α      in ANC's #5, #1, #8, ...

........................................................................
.............................. CYCLE   16 ..............................
........................................................................

 iter      E             dE          RMSdq      gap      omega  full diag
   1    -91.6499253 -0.916499E+02  0.225E-02    1.70       0.0  T
   2    -91.6499254 -0.151393E-06  0.130E-02    1.70       1.1  T
   3    -91.6499254 -0.266363E-08  0.120E-03    1.70      11.6  T
   4    -91.6499255 -0.488531E-07  0.579E-04    1.70      23.9  T
   5    -91.6499255 -0.590907E-08  0.259E-04    1.70      53.6  T
     SCC iter.                  ...        0 min,  0.026 sec
     gradient                   ...        0 min,  0.006 sec
 * total energy  :   -89.9700542 Eh     change       -0.8182952E-05 Eh
   gradient norm :     0.0003695 Eh/α   predicted    -0.3059114E-05 ( -62.62%)
   displ. norm   :     0.0721792 α      lambda       -0.4306436E-05
   maximum displ.:     0.0555417 α      in ANC's #5, #1, #8, ...

........................................................................
.............................. CYCLE   17 ..............................
........................................................................

 iter      E             dE          RMSdq      gap      omega  full diag
   1    -91.6499374 -0.916499E+02  0.180E-02    1.70       0.0  T
   2    -91.6499375 -0.968101E-07  0.104E-02    1.70       1.3  T
   3    -91.6499375  0.211082E-08  0.885E-04    1.70      15.7  T
   4    -91.6499375 -0.354470E-07  0.421E-04    1.70      32.9  T
     SCC iter.                  ...        0 min,  0.022 sec
     gradient                   ...        0 min,  0.006 sec
 * total energy  :   -89.9700599 Eh     change       -0.5711674E-05 Eh
   gradient norm :     0.0002437 Eh/α   predicted    -0.2160946E-05 ( -62.17%)
   displ. norm   :     0.0527905 α      lambda       -0.2736053E-05
   maximum displ.:     0.0418257 α      in ANC's #5, #1, #8, ...

........................................................................
.............................. CYCLE   18 ..............................
........................................................................

 iter      E             dE          RMSdq      gap      omega  full diag
   1    -91.6500001 -0.916500E+02  0.130E-02    1.70       0.0  T
   2    -91.6500002 -0.513259E-07  0.749E-03    1.70       1.9  T
   3    -91.6500002  0.135625E-07  0.739E-04    1.70      18.8  T
   4    -91.6500002 -0.313479E-07  0.321E-04    1.70      43.2  T
     SCC iter.                  ...        0 min,  0.021 sec
     gradient                   ...        0 min,  0.006 sec
 * total energy  :   -89.9700637 Eh     change       -0.3749895E-05 Eh
   gradient norm :     0.0001552 Eh/α   predicted    -0.1372418E-05 ( -63.40%)
   displ. norm   :     0.0361860 α      lambda       -0.1747651E-05
   maximum displ.:     0.0300035 α      in ANC's #5, #1, #8, ...

........................................................................
.............................. CYCLE   19 ..............................
........................................................................

 iter      E             dE          RMSdq      gap      omega  full diag
   1    -91.6499831 -0.916500E+02  0.857E-03    1.70       0.0  T
   2    -91.6499831 -0.195091E-07  0.497E-03    1.70       2.8  T
   3    -91.6499831  0.123854E-07  0.542E-04    1.70      25.6  T
   4    -91.6499831 -0.201474E-07  0.199E-04    1.70      69.7  T
     SCC iter.                  ...        0 min,  0.021 sec
     gradient                   ...        0 min,  0.006 sec
 * total energy  :   -89.9700661 Eh     change       -0.2441217E-05 Eh
   gradient norm :     0.0001617 Eh/α   predicted    -0.8776832E-06 ( -64.05%)
   displ. norm   :     0.0253484 α      lambda       -0.1217542E-05
   maximum displ.:     0.0222500 α      in ANC's #5, #1, #9, ...

........................................................................
.............................. CYCLE   20 ..............................
........................................................................

 iter      E             dE          RMSdq      gap      omega  full diag
   1    -91.6500030 -0.916500E+02  0.612E-03    1.70       0.0  T
   2    -91.6500030 -0.106677E-07  0.354E-03    1.70       3.9  T
   3    -91.6500030  0.117508E-07  0.450E-04    1.70      30.8  T
   4    -91.6500030 -0.162887E-07  0.150E-04    1.70      92.2  T
     SCC iter.                  ...        0 min,  0.021 sec
     gradient                   ...        0 min,  0.006 sec
 * total energy  :   -89.9700678 Eh     change       -0.1707694E-05 Eh
   gradient norm :     0.0001150 Eh/α   predicted    -0.6113271E-06 ( -64.20%)
   displ. norm   :     0.0191513 α      lambda       -0.8980351E-06
   maximum displ.:     0.0178566 α      in ANC's #5, #1, #2, ...
 * RMSD in coord.:     0.1652555 α      energy gain  -0.3119247E-03 Eh

generating ANC from exact Hessian ...
Using Lindh-Hessian (1995)
 Shifting diagonal of input Hessian by   9.692210514074458E-003
 Lowest  eigenvalues of input Hessian
    0.000000    0.000000    0.000000    0.000000    0.000000    0.000000
    0.010000    0.010283    0.010470    0.010505    0.010575    0.011598
    0.012141    0.012353    0.012671    0.013652    0.014805    0.015108
 Highest eigenvalues
    2.194565    2.195007    2.236300    2.254890    2.625336    2.636508
 

........................................................................
.............................. CYCLE   21 ..............................
........................................................................

 iter      E             dE          RMSdq      gap      omega  full diag
   1    -91.6500059 -0.916500E+02  0.460E-03    1.70       0.0  T
   2    -91.6500059 -0.578532E-08  0.266E-03    1.70       5.2  T
   3    -91.6500059  0.466564E-08  0.316E-04    1.70      43.8  T
   4    -91.6500059 -0.689590E-08  0.117E-04    1.70     118.6  T
     SCC iter.                  ...        0 min,  0.021 sec
     gradient                   ...        0 min,  0.006 sec
 * total energy  :   -89.9700691 Eh     change       -0.1309436E-05 Eh
   gradient norm :     0.0000865 Eh/α   predicted     0.0000000E+00 (-100.00%)
   displ. norm   :     0.0111489 α      lambda       -0.1379869E-07
   maximum displ.:     0.0099563 α      in ANC's #5, #3, #1, ...

........................................................................
.............................. CYCLE   22 ..............................
........................................................................

 iter      E             dE          RMSdq      gap      omega  full diag
   1    -91.6499864 -0.916500E+02  0.323E-03    1.70       0.0  T
   2    -91.6499864 -0.502025E-08  0.183E-03    1.70       7.6  T
   3    -91.6499864  0.230401E-08  0.250E-04    1.70      55.5  T
   4    -91.6499864 -0.441919E-08  0.879E-05    1.70     157.7  T
     SCC iter.                  ...        0 min,  0.021 sec
     gradient                   ...        0 min,  0.006 sec
 * total energy  :   -89.9700700 Eh     change       -0.8123348E-06 Eh
   gradient norm :     0.0001266 Eh/α   predicted    -0.2954156E-06 ( -63.63%)
   displ. norm   :     0.0313821 α      lambda       -0.1622811E-05
   maximum displ.:     0.0240580 α      in ANC's #5, #3, #1, ...

........................................................................
.............................. CYCLE   23 ..............................
........................................................................

 iter      E             dE          RMSdq      gap      omega  full diag
   1    -91.6499349 -0.916499E+02  0.770E-03    1.70       0.0  T
   2    -91.6499350 -0.202036E-07  0.443E-03    1.70       3.1  T
   3    -91.6499349  0.389640E-07  0.793E-04    1.70      17.5  T
   4    -91.6499350 -0.499627E-07  0.202E-04    1.70      68.6  T
     SCC iter.                  ...        0 min,  0.023 sec
     gradient                   ...        0 min,  0.006 sec
 * total energy  :   -89.9700721 Eh     change       -0.2092976E-05 Eh
   gradient norm :     0.0002359 Eh/α   predicted    -0.8119069E-06 ( -61.21%)
   displ. norm   :     0.1130148 α      lambda       -0.5193837E-05
   maximum displ.:     0.0888452 α      in ANC's #5, #3, #1, ...

........................................................................
.............................. CYCLE   24 ..............................
........................................................................

 iter      E             dE          RMSdq      gap      omega  full diag
   1    -91.6498816 -0.916499E+02  0.271E-02    1.70       0.0  T
   2    -91.6498818 -0.265998E-06  0.156E-02    1.70       1.0  T
   3    -91.6498816  0.248782E-06  0.225E-03    1.70       6.2  T
   4    -91.6498820 -0.366038E-06  0.725E-04    1.70      19.1  T
   5    -91.6498820 -0.706140E-08  0.332E-04    1.70      41.8  T
     SCC iter.                  ...        0 min,  0.027 sec
     gradient                   ...        0 min,  0.006 sec
 * total energy  :   -89.9700766 Eh     change       -0.4540945E-05 Eh
   gradient norm :     0.0006452 Eh/α   predicted    -0.2612141E-05 ( -42.48%)
   displ. norm   :     0.1311392 α      lambda       -0.6900674E-05
   maximum displ.:     0.0994906 α      in ANC's #5, #3, #1, ...

........................................................................
.............................. CYCLE   25 ..............................
........................................................................

 iter      E             dE          RMSdq      gap      omega  full diag
   1    -91.6499291 -0.916499E+02  0.317E-02    1.71       0.0  T
   2    -91.6499295 -0.322638E-06  0.183E-02    1.71       1.0  T
   3    -91.6499292  0.269729E-06  0.236E-03    1.71       5.9  T
   4    -91.6499296 -0.403137E-06  0.822E-04    1.71      16.9  T
   5    -91.6499296 -0.127497E-07  0.384E-04    1.71      36.1  T
     SCC iter.                  ...        0 min,  0.027 sec
     gradient                   ...        0 min,  0.006 sec
 * total energy  :   -89.9700803 Eh     change       -0.3697124E-05 Eh
   gradient norm :     0.0008456 Eh/α   predicted    -0.3478405E-05 (  -5.92%)
   displ. norm   :     0.0457781 α      lambda       -0.2919932E-05
   maximum displ.:     0.0360264 α      in ANC's #5, #3, #1, ...

........................................................................
.............................. CYCLE   26 ..............................
........................................................................

 iter      E             dE          RMSdq      gap      omega  full diag
   1    -91.6499227 -0.916499E+02  0.135E-02    1.70       0.0  T
   2    -91.6499227 -0.710067E-07  0.777E-03    1.70       1.8  T
   3    -91.6499227  0.477894E-07  0.132E-03    1.70      10.5  T
   4    -91.6499228 -0.773020E-07  0.390E-04    1.71      35.6  T
   5    -91.6499228 -0.112959E-08  0.190E-04    1.70      72.9  T
     SCC iter.                  ...        0 min,  0.026 sec
     gradient                   ...        0 min,  0.006 sec
 * total energy  :   -89.9700830 Eh     change       -0.2686428E-05 Eh
   gradient norm :     0.0003373 Eh/α   predicted    -0.1464659E-05 ( -45.48%)
   displ. norm   :     0.0238884 α      lambda       -0.9105829E-06
   maximum displ.:     0.0178525 α      in ANC's #5, #3, #1, ...

........................................................................
.............................. CYCLE   27 ..............................
........................................................................

 iter      E             dE          RMSdq      gap      omega  full diag
   1    -91.6500225 -0.916500E+02  0.854E-03    1.70       0.0  T
   2    -91.6500225 -0.342998E-07  0.488E-03    1.71       2.8  T
   3    -91.6500225  0.305734E-08  0.620E-04    1.70      22.4  T
   4    -91.6500225 -0.146729E-07  0.247E-04    1.71      56.1  T
     SCC iter.                  ...        0 min,  0.021 sec
     gradient                   ...        0 min,  0.006 sec
 * total energy  :   -89.9700839 Eh     change       -0.9164518E-06 Eh
   gradient norm :     0.0001901 Eh/α   predicted    -0.4594453E-06 ( -49.87%)
   displ. norm   :     0.0326294 α      lambda       -0.5562811E-06
   maximum displ.:     0.0236792 α      in ANC's #5, #3, #1, ...

........................................................................
.............................. CYCLE   28 ..............................
........................................................................

 iter      E             dE          RMSdq      gap      omega  full diag
   1    -91.6500401 -0.916500E+02  0.967E-03    1.71       0.0  T
   2    -91.6500402 -0.313627E-07  0.559E-03    1.71       2.5  T
   3    -91.6500401  0.321508E-07  0.959E-04    1.71      14.5  T
   4    -91.6500402 -0.441736E-07  0.276E-04    1.71      50.3  T
     SCC iter.                  ...        0 min,  0.022 sec
     gradient                   ...        0 min,  0.006 sec
 * total energy  :   -89.9700845 Eh     change       -0.5889501E-06 Eh
   gradient norm :     0.0001404 Eh/α   predicted    -0.2824235E-06 ( -52.05%)
   displ. norm   :     0.0271647 α      lambda       -0.2942171E-06
   maximum displ.:     0.0186851 α      in ANC's #5, #3, #9, ...

........................................................................
.............................. CYCLE   29 ..............................
........................................................................

 iter      E             dE          RMSdq      gap      omega  full diag
   1    -91.6500409 -0.916500E+02  0.794E-03    1.71       0.0  T
   2    -91.6500410 -0.176301E-07  0.461E-03    1.71       3.0  T
   3    -91.6500410  0.133784E-07  0.675E-04    1.71      20.5  T
   4    -91.6500410 -0.202476E-07  0.207E-04    1.71      67.1  T
     SCC iter.                  ...        0 min,  0.021 sec
     gradient                   ...        0 min,  0.006 sec
 * total energy  :   -89.9700848 Eh     change       -0.2803389E-06 Eh
   gradient norm :     0.0000939 Eh/α   predicted    -0.1475676E-06 ( -47.36%)
   displ. norm   :     0.0115302 α      lambda       -0.8480436E-07
   maximum displ.:     0.0072707 α      in ANC's #3, #5, #9, ...

........................................................................
.............................. CYCLE   30 ..............................
........................................................................

 iter      E             dE          RMSdq      gap      omega  full diag
   1    -91.6500564 -0.916501E+02  0.358E-03    1.71       0.0  T
   2    -91.6500564 -0.401452E-08  0.206E-03    1.71       6.7  T
   3    -91.6500564  0.610783E-09  0.225E-04    1.71      61.7  T
   4    -91.6500564 -0.222707E-08  0.910E-05    1.71     152.3  T
     SCC iter.                  ...        0 min,  0.022 sec
     gradient                   ...        0 min,  0.006 sec
 * total energy  :   -89.9700849 Eh     change       -0.9408467E-07 Eh
   gradient norm :     0.0000843 Eh/α   predicted    -0.4599048E-07 ( -51.12%)
   displ. norm   :     0.0115302 α      lambda        0.0000000E+00
   maximum displ.:     0.0072707 α      in ANC's #3, #5, #9, ...

   *** GEOMETRY OPTIMIZATION CONVERGED AFTER 30 ITERATIONS ***

------------------------------------------------------------------------
 total energy gain   :        -0.0003289 Eh       -0.2064 kcal/mol
 total RMSD          :         0.2094458 a0        0.1108 Å
 total power (kW/mol):        -0.0287881 (step)   -0.7653 (real)
------------------------------------------------------------------------

 ANCopt (total)                0 d,  0 h,  0 min,  1.129 sec
 optimizer setup                ...        0 min,  0.000 sec (  0.017%)
 model hessian                  ...        0 min,  0.057 sec (  5.016%)
 ANC generation                 ...        0 min,  0.005 sec (  0.447%)
 coordinate transformation      ...        0 min,  0.003 sec (  0.294%)
 single point calculation       ...        0 min,  1.049 sec ( 92.946%)
 optimization log               ...        0 min,  0.005 sec (  0.486%)
 hessian update                 ...        0 min,  0.003 sec (  0.286%)
 rational function              ...        0 min,  0.003 sec (  0.263%)

================
 final structure:
================
52
 xtb: 6.7.1 (edcfbbe)
N           -5.92885589304735       -1.82991143475151       -0.78381414779660
C           -4.94403441149807       -1.28818758997409       -0.55746495962317
C           -3.72169941003247       -0.63595382512552       -0.27720508064150
C           -2.51549585763418       -1.26809927656165       -0.55642356108511
C           -1.30245431639095       -0.63986555373813       -0.29463684046404
N           -0.10924191874871       -1.28076769610708       -0.62315072961998
C            0.27784363976159       -2.55118171251570       -0.20562793559903
C           -0.42202927558262       -3.48385014107929        0.54452550728726
C            0.21970385701838       -4.66798858793456        0.86026419999761
C            1.52685359667970       -4.92111262530788        0.45053052661565
C            2.23541412962430       -3.98794036066987       -0.28021278843417
C            1.60853604261255       -2.79283804665320       -0.60922154610610
C            2.04056272217655       -1.61903349967319       -1.31700438747735
N            3.20055586611404       -1.35961971441395       -1.90055595841703
C            3.30418469482149       -0.19463886005908       -2.51463725540299
C            2.26795798757739        0.73152600062673       -2.61788408213366
C            1.04709987032378        0.47314784943232       -2.01577370488264
C            0.94853521808258       -0.71448437071769       -1.30985542130663
C           -1.29842907527860        0.64930910159370        0.28952968681924
N           -0.10116721389235        1.28185830067474        0.61964641094235
C            0.29567929384640        2.54961614242744        0.20345985562884
C           -0.39555137031314        3.48682437573069       -0.54905637032922
C            0.25510898677775        4.66659239819463       -0.86283956142341
C            1.56253669099299        4.91107724710717       -0.44875084740207
C            2.26248758858097        3.97332792589037        0.28442015012880
C            1.62664031845571        2.78241454374696        0.61140600331590
C            2.04848486938208        1.60579499787075        1.32064833384666
N            3.20461996364616        1.33875251705327        1.90840260747025
C            3.29831558511129        0.17319973682198        2.52298054084667
C            2.25570067633014       -0.74619180362968        2.62242996842858
C            1.03874183686037       -0.47978423092047        2.01595785567689
C            0.95050548832047        0.70851349431697        1.30980642938537
C           -2.50741368810869        1.28557622477172        0.55059549182810
C           -3.71762287182337        0.66111964067264        0.27136715454907
C           -4.93589356491305        1.32071406996863        0.55210064618566
N           -5.91746275404242        1.86806695720232        0.77897707646676
H           -2.51952294327563       -2.24555020942541       -1.01481994235386
H           -1.43014934209834       -3.29865112384864        0.88385403353517
H           -0.30696655099589       -5.41066269235452        1.44045672365960
H            1.99040780452374       -5.85867495681573        0.71686362532553
H            3.25275507514625       -4.16265182230730       -0.59214611001425
H            4.26499426427200        0.00225846153966       -2.97047240981332
H            2.41530959514005        1.64497506576093       -3.17162930128981
H            0.22165924023345        1.16284809913236       -2.11123926597497
H           -1.40377448770927        3.30823888422595       -0.89163068735716
H           -0.26468597469402        5.41275861513246       -1.44474582223286
H            2.03316560253458        5.84556467244815       -0.71347991400871
H            3.27993689230431        4.14140796211345        0.59963443780144
H            4.25612864745959       -0.02994988958906        2.98235041838214
H            2.39501581782374       -1.66058421515783        3.17669555549489
H            0.20844763842267       -1.16403449973192        2.10846161488344
H           -2.50515210707533        2.26314547720729        1.00876575578794
 
 Bond Distances (Angstroems)
 ---------------------------
N1-C2=1.1465         C2-N1=1.1465         C2-C3=1.4135         C3-C2=1.4135         C3-C4=1.3901         C3-C34=1.4083        
C4-C3=1.3901         C4-C5=1.3909         C4-H37=1.0796        C5-C4=1.3909         C5-N6=1.3937         C5-C19=1.4154        
N6-C5=1.3937         N6-C7=1.3922         N6-C18=1.3824        C7-N6=1.3922         C7-C8=1.3865         C7-C12=1.4114        
C8-C7=1.3865         C8-C9=1.3834         C8-H38=1.0797        C9-C8=1.3834         C9-C10=1.3931        C9-H39=1.0796        
C10-C9=1.3931        C10-C11=1.3809       C10-H40=1.0793       C11-C10=1.3809       C11-C12=1.3891       C11-H41=1.0783       
C12-C7=1.4114        C12-C11=1.3891       C12-C13=1.4372       C13-C12=1.4372       C13-N14=1.3242       C13-C18=1.4180       
N14-C13=1.3242       N14-C15=1.3210       C15-N14=1.3210       C15-C16=1.3936       C15-H42=1.0815       C16-C15=1.3936       
C16-C17=1.3856       C16-H43=1.0783       C17-C16=1.3856       C17-C18=1.3851       C17-H44=1.0799       C18-N6=1.3824        
C18-C13=1.4180       C18-C17=1.3851       C19-C5=1.4154        C19-N20=1.3937       C19-C33=1.3909       N20-C19=1.3937       
N20-C21=1.3921       N20-C32=1.3824       C21-N20=1.3921       C21-C22=1.3865       C21-C26=1.4114       C22-C21=1.3865       
C22-C23=1.3834       C22-H45=1.0797       C23-C22=1.3834       C23-C24=1.3931       C23-H46=1.0796       C24-C23=1.3931       
C24-C25=1.3809       C24-H47=1.0793       C25-C24=1.3809       C25-C26=1.3891       C25-H48=1.0783       C26-C21=1.4114       
C26-C25=1.3891       C26-C27=1.4372       C27-C26=1.4372       C27-N28=1.3242       C27-C32=1.4180       N28-C27=1.3242       
N28-C29=1.3210       C29-N28=1.3210       C29-C30=1.3936       C29-H49=1.0815       C30-C29=1.3936       C30-C31=1.3856       
C30-H50=1.0783       C31-C30=1.3856       C31-C32=1.3851       C31-H51=1.0799       C32-N20=1.3824       C32-C27=1.4180       
C32-C31=1.3851       C33-C19=1.3909       C33-C34=1.3902       C33-H52=1.0796       C34-C3=1.4083        C34-C33=1.3902       
C34-C35=1.4135       C35-C34=1.4135       C35-N36=1.1465       N36-C35=1.1465       H37-C4=1.0796        H38-C8=1.0797        
H39-C9=1.0796        H40-C10=1.0793       H41-C11=1.0783       H42-C15=1.0815       H43-C16=1.0783       H44-C17=1.0799       
H45-C22=1.0797       H46-C23=1.0796       H47-C24=1.0793       H48-C25=1.0783       H49-C29=1.0815       H50-C30=1.0783       
H51-C31=1.0799       H52-C33=1.0796       
 C  H  Rav=1.0795 sigma=0.0009  Rmin=1.0783  Rmax=1.0815    16
 C  C  Rav=1.3980 sigma=0.0158  Rmin=1.3809  Rmax=1.4372    30
 N  C  Rav=1.3267 sigma=0.0860  Rmin=1.1465  Rmax=1.3937    12
 
 selected bond angles (degree)
 --------------------
C3-C2-N1=179.28                C4-C3-C2=120.04                C34-C3-C2=120.31               C34-C3-C4=119.64               
C5-C4-C3=120.90                H37-C4-C3=119.59               H37-C4-C5=119.48               N6-C5-C4=119.64                
C19-C5-C4=119.44               C19-C5-N6=120.91               C7-N6-C5=125.94                C18-N6-C5=125.72               
C18-N6-C7=108.06               C8-C7-N6=129.48                C12-C7-N6=109.43               C12-C7-C8=121.03               
C9-C8-C7=117.72                H38-C8-C7=121.73               H38-C8-C9=120.55               C10-C9-C8=121.58               
H39-C9-C8=119.03               H39-C9-C10=119.39              C11-C10-C9=120.95              H40-C10-C9=119.23              
H40-C10-C11=119.82             
 
 selected dihedral angles (degree)
 ---------------------------------
C4-C3-C2-N1= 24.63            C34-C3-C2-N1=203.91           C5-C4-C3-C2=179.65            C5-C4-C3-C34=  0.35           
H37-C4-C3-C2=  1.82           H37-C4-C3-C34=182.53          N6-C5-C4-C3=181.98            N6-C5-C4-H37=359.81           
C19-C5-C4-C3=  1.31           C19-C5-C4-H37=179.14          C7-N6-C5-C4=305.00            C7-N6-C5-C19=125.67           
C18-N6-C5-C4=131.77           C18-N6-C5-C19=312.45          C8-C7-N6-C5=  3.81            C8-C7-N6-C18=178.02           
C12-C7-N6-C5=186.83           C12-C7-N6-C18=  1.05          C9-C8-C7-N6=182.09            C9-C8-C7-C12=358.76           
H38-C8-C7-N6=  1.51           H38-C8-C7-C12=178.18          C10-C9-C8-C7=  0.39           C10-C9-C8-H38=180.96          
H39-C9-C8-C7=180.22           H39-C9-C8-H38=  0.80          C11-C10-C9-C8=  0.55          C11-C10-C9-H39=180.71         
H40-C10-C9-C8=180.09          H40-C10-C9-H39=  0.26         
           -------------------------------------------------
          |                Final Singlepoint                |
           -------------------------------------------------

          ...................................................
          :                      SETUP                      :
          :.................................................:
          :  # basis functions                 160          :
          :  # atomic orbitals                 160          :
          :  # shells                           88          :
          :  # electrons                       166          :
          :  max. iterations                   250          :
          :  Hamiltonian                  GFN2-xTB          :
          :  restarted?                      false          :
          :  GBSA solvation                   true          :
          :  PC potential                    false          :
          :  electronic temp.          300.0000000     K    :
          :  accuracy                    1.0000000          :
          :  -> integral cutoff          0.2500000E+02      :
          :  -> integral neglect         0.1000000E-07      :
          :  -> SCF convergence          0.1000000E-05 Eh   :
          :  -> wf. convergence          0.1000000E-03 e    :
          :  Broyden damping             0.4000000          :
          :  net charge                          0          :
          :  unpaired electrons                  0          :
          ...................................................

 iter      E             dE          RMSdq      gap      omega  full diag
   1    -91.6500564 -0.916501E+02  0.285E-05    1.71       0.0  T
   2    -91.6500564 -0.933653E-11  0.219E-05    1.71     634.1  T
   3    -91.6500564 -0.239027E-10  0.686E-06    1.71    2021.2  T

   *** convergence criteria satisfied after 3 iterations ***

         #    Occupation            Energy/Eh            Energy/eV
      -------------------------------------------------------------
         1        2.0000           -0.7209957             -19.6193
       ...           ...                  ...                  ...
        77        2.0000           -0.4343536             -11.8194
        78        2.0000           -0.4078233             -11.0974
        79        2.0000           -0.4034610             -10.9787
        80        2.0000           -0.3955369             -10.7631
        81        2.0000           -0.3926662             -10.6850
        82        2.0000           -0.3825853             -10.4107
        83        2.0000           -0.3819532             -10.3935 (HOMO)
        84                         -0.3192661              -8.6877 (LUMO)
        85                         -0.2956009              -8.0437
        86                         -0.2767306              -7.5302
        87                         -0.2763673              -7.5203
        88                         -0.2543216              -6.9204
       ...                                ...                  ...
       160                          1.1578770              31.5074
      -------------------------------------------------------------
                  HL-Gap            0.0626871 Eh            1.7058 eV
             Fermi-level           -0.3506097 Eh           -9.5406 eV

 SCC (total)                   0 d,  0 h,  0 min,  0.026 sec
 SCC setup                      ...        0 min,  0.000 sec (  1.668%)
 Dispersion                     ...        0 min,  0.001 sec (  1.965%)
 classical contributions        ...        0 min,  0.000 sec (  0.107%)
 integral evaluation            ...        0 min,  0.002 sec (  8.534%)
 iterations                     ...        0 min,  0.016 sec ( 62.123%)
 molecular gradient             ...        0 min,  0.006 sec ( 24.100%)
 printout                       ...        0 min,  0.000 sec (  1.156%)

         :::::::::::::::::::::::::::::::::::::::::::::::::::::
         ::                     SUMMARY                     ::
         :::::::::::::::::::::::::::::::::::::::::::::::::::::
         :: total energy             -89.970084858630 Eh    ::
         :: total w/o Gsasa/hb       -89.934817531505 Eh    ::
         :: gradient norm              0.000084732130 Eh/a0 ::
         :: HOMO-LUMO gap              1.705803380254 eV    ::
         ::.................................................::
         :: SCC energy               -91.647691683643 Eh    ::
         :: -> isotropic ES            0.041459082357 Eh    ::
         :: -> anisotropic ES          0.009087533477 Eh    ::
         :: -> anisotropic XC          0.081952630861 Eh    ::
         :: -> dispersion             -0.084030741446 Eh    ::
         :: -> Gsolv                  -0.041726281442 Eh    ::
         ::    -> Gelec               -0.006458954318 Eh    ::
         ::    -> Gsasa               -0.039791206996 Eh    ::
         ::    -> Ghb                  0.000000000000 Eh    ::
         ::    -> Gshift               0.004523879872 Eh    ::
         :: repulsion energy           1.677606825013 Eh    ::
         :: add. restraining           0.000000000000 Eh    ::
         :: total charge               0.000000000000 e     ::
         :::::::::::::::::::::::::::::::::::::::::::::::::::::

           ------------------------------------------------- 
          |                Numerical Hessian                |
           ------------------------------------------------- 
step length          :   0.00500
SCC accuracy         :   0.30000
Hessian scale factor :   1.00000
frozen atoms in %    :   0.00000    0
RMS gradient         :   0.00008
estimated CPU  time      3.74 min
estimated wall time      0.09 min

writing file <hessian>.

 projected vibrational frequencies (cm⁻¹)
eigval :       -0.00    -0.00    -0.00    -0.00    -0.00     0.00
eigval :       21.40    28.25    36.90    47.01    47.81    51.99
eigval :       89.06    98.52   103.98   105.68   119.81   137.92
eigval :      145.54   156.80   172.52   180.63   196.53   205.63
eigval :      259.28   268.03   278.41   283.73   308.17   310.31
eigval :      348.79   390.75   397.23   402.11   419.91   420.95
eigval :      426.39   433.48   443.28   445.54   480.82   482.48
eigval :      519.72   521.05   529.68   530.23   542.88   547.34
eigval :      551.62   568.63   587.75   595.52   595.98   600.30
eigval :      652.53   656.82   668.16   680.49   682.35   690.11
eigval :      710.00   724.44   725.39   750.21   759.53   770.40
eigval :      775.46   775.62   797.04   798.37   840.76   866.15
eigval :      869.99   883.61   892.19   900.27   901.53   903.40
eigval :      908.62   911.81   912.24   914.80   915.58   924.66
eigval :      925.06   960.44  1021.77  1022.73  1067.29  1067.90
eigval :     1076.80  1091.12  1091.56  1118.19  1137.83  1143.03
eigval :     1143.37  1164.08  1167.75  1176.36  1177.37  1202.22
eigval :     1210.46  1217.45  1226.70  1229.71  1253.48  1281.05
eigval :     1281.62  1291.48  1292.75  1308.58  1316.11  1331.66
eigval :     1332.07  1350.98  1352.09  1360.05  1376.84  1395.75
eigval :     1407.37  1419.92  1421.30  1465.34  1466.75  1476.11
eigval :     1480.79  1481.19  1498.71  1546.02  1557.68  1557.95
eigval :     1580.30  1580.62  1585.64  1586.42  1602.60  1603.11
eigval :     2366.16  2366.69  3064.94  3065.03  3076.74  3076.84
eigval :     3081.11  3081.22  3088.16  3089.05  3097.18  3097.81
eigval :     3101.73  3102.07  3104.03  3104.40  3109.15  3109.35
           -------------------------------------------------
          |                Property Printout                |
           -------------------------------------------------

    * Orbital Energies and Occupations

         #    Occupation            Energy/Eh            Energy/eV
      -------------------------------------------------------------
         1        2.0000           -0.7209957             -19.6193
       ...           ...                  ...                  ...
        71        2.0000           -0.4499517             -12.2438
        72        2.0000           -0.4484471             -12.2029
        73        2.0000           -0.4477872             -12.1849
        74        2.0000           -0.4392959             -11.9539
        75        2.0000           -0.4386895             -11.9374
        76        2.0000           -0.4348763             -11.8336
        77        2.0000           -0.4343536             -11.8194
        78        2.0000           -0.4078233             -11.0974
        79        2.0000           -0.4034610             -10.9787
        80        2.0000           -0.3955369             -10.7631
        81        2.0000           -0.3926662             -10.6850
        82        2.0000           -0.3825853             -10.4107
        83        2.0000           -0.3819532             -10.3935 (HOMO)
        84                         -0.3192660              -8.6877 (LUMO)
        85                         -0.2956009              -8.0437
        86                         -0.2767307              -7.5302
        87                         -0.2763673              -7.5203
        88                         -0.2543217              -6.9204
        89                         -0.2472260              -6.7274
        90                         -0.2390339              -6.5044
        91                         -0.2342865              -6.3753
        92                         -0.2342671              -6.3747
        93                         -0.2218328              -6.0364
        94                         -0.2108972              -5.7388
       ...                                ...                  ...
       160                          1.1578772              31.5074
      -------------------------------------------------------------
                  HL-Gap            0.0626872 Eh            1.7058 eV
             Fermi-level           -0.3506096 Eh           -9.5406 eV

     #   Z          covCN         q      C6AA      α(0)
     1   7 N        0.911    -0.234    26.136     7.394
     2   6 C        1.910     0.120    28.150     8.569
     3   6 C        2.975     0.024    27.468     8.597
     4   6 C        2.928    -0.031    28.774     8.797
     5   6 C        2.909     0.059    26.678     8.469
     6   7 N        2.797    -0.045    22.106     6.983
     7   6 C        3.070     0.045    26.917     8.507
     8   6 C        2.910    -0.049    29.225     8.865
     9   6 C        2.924    -0.027    28.685     8.783
    10   6 C        2.920    -0.034    28.852     8.808
    11   6 C        2.912    -0.025    28.620     8.772
    12   6 C        3.062    -0.021    28.471     8.750
    13   6 C        3.070     0.076    26.240     8.399
    14   7 N        1.833    -0.246    27.265     7.738
    15   6 C        2.923     0.054    26.792     8.488
    16   6 C        2.922    -0.045    29.113     8.848
    17   6 C        2.915    -0.035    28.870     8.811
    18   6 C        3.065     0.035    27.146     8.544
    19   6 C        2.909     0.059    26.678     8.469
    20   7 N        2.797    -0.045    22.106     6.983
    21   6 C        3.070     0.045    26.917     8.507
    22   6 C        2.910    -0.049    29.225     8.864
    23   6 C        2.924    -0.027    28.685     8.783
    24   6 C        2.920    -0.034    28.852     8.808
    25   6 C        2.912    -0.025    28.620     8.772
    26   6 C        3.062    -0.021    28.471     8.750
    27   6 C        3.070     0.076    26.240     8.399
    28   7 N        1.833    -0.246    27.265     7.738
    29   6 C        2.923     0.054    26.792     8.488
    30   6 C        2.922    -0.045    29.113     8.848
    31   6 C        2.915    -0.035    28.871     8.811
    32   6 C        3.066     0.035    27.146     8.544
    33   6 C        2.928    -0.031    28.773     8.797
    34   6 C        2.975     0.024    27.468     8.597
    35   6 C        1.910     0.120    28.150     8.569
    36   7 N        0.911    -0.234    26.137     7.394
    37   1 H        0.926     0.073     2.055     2.242
    38   1 H        0.926     0.037     2.489     2.467
    39   1 H        0.926     0.048     2.343     2.394
    40   1 H        0.926     0.047     2.352     2.398
    41   1 H        0.926     0.053     2.287     2.365
    42   1 H        0.925     0.042     2.424     2.435
    43   1 H        0.926     0.046     2.368     2.406
    44   1 H        0.926     0.034     2.530     2.487
    45   1 H        0.926     0.037     2.489     2.467
    46   1 H        0.926     0.048     2.344     2.394
    47   1 H        0.926     0.047     2.352     2.398
    48   1 H        0.926     0.053     2.287     2.365
    49   1 H        0.925     0.042     2.424     2.435
    50   1 H        0.926     0.046     2.368     2.406
    51   1 H        0.926     0.034     2.531     2.488
    52   1 H        0.926     0.073     2.055     2.242

 Mol. C6AA /au·bohr⁶  :      45450.449645
 Mol. C8AA /au·bohr⁸  :    1165319.373101
 Mol. α(0) /au        :        342.633453


MOs/occ written to file <molden.input>


molecular dipole:
                 x           y           z       tot (Debye)
 q only:        1.331      -0.004      -0.002
   full:        1.408      -0.004      -0.003       3.578
molecular quadrupole (traceless):
                xx          xy          yy          xz          yz          zz
 q only:      -41.527       0.241      28.277      -0.057     -11.372      13.250
  q+dip:      -54.082       0.316      35.744      -0.085     -19.487      18.338
   full:      -60.380       0.319      33.455      -0.089     -16.531      26.925

           -------------------------------------------------
          |                Geometry Summary                 |
           -------------------------------------------------

      molecular mass/u    :      460.4893483
   center of mass at/Å    :        0.0013776       0.0001272      -0.0001713
  moments of inertia/u·Å² :        0.3453923E+04   0.4001674E+04   0.5968296E+04
rotational constants/cm⁻¹ :        0.4880721E-02   0.4212645E-02   0.2824530E-02

 * 56 selected distances

     #   Z          #   Z                                           value/Å
     1   7 N        2   6 C                                       1.1465480
     3   6 C        4   6 C                                       1.3901432
     4   6 C        5   6 C                                       1.3909278
     5   6 C        6   7 N                                       1.3937120
     6   7 N        7   6 C                                       1.3921611
     7   6 C        8   6 C                                       1.3865147
     8   6 C        9   6 C                                       1.3833642
     9   6 C       10   6 C                                       1.3930521
    10   6 C       11   6 C                                       1.3808891
     7   6 C       12   6 C                                       1.4113923
    11   6 C       12   6 C                                       1.3890618
    12   6 C       13   6 C                                       1.4371573 (max)
    13   6 C       14   7 N                                       1.3241648
    14   7 N       15   6 C                                       1.3209903
    15   6 C       16   6 C                                       1.3936310
    16   6 C       17   6 C                                       1.3855653
     6   7 N       18   6 C                                       1.3824373
    13   6 C       18   6 C                                       1.4180214
    17   6 C       18   6 C                                       1.3851015
     5   6 C       19   6 C                                       1.4153580
    19   6 C       20   7 N                                       1.3937474
    20   7 N       21   6 C                                       1.3920879
    21   6 C       22   6 C                                       1.3865209
    22   6 C       23   6 C                                       1.3833552
    23   6 C       24   6 C                                       1.3930577
    24   6 C       25   6 C                                       1.3808856
    21   6 C       26   6 C                                       1.4114081
    25   6 C       26   6 C                                       1.3890632
    26   6 C       27   6 C                                       1.4371539
    27   6 C       28   7 N                                       1.3241659
    28   7 N       29   6 C                                       1.3209839
    29   6 C       30   6 C                                       1.3936345
    30   6 C       31   6 C                                       1.3855579
    20   7 N       32   6 C                                       1.3824113
    27   6 C       32   6 C                                       1.4180235
    31   6 C       32   6 C                                       1.3850947
    19   6 C       33   6 C                                       1.3909117
     3   6 C       34   6 C                                       1.4083139
    33   6 C       34   6 C                                       1.3901515
    35   6 C       36   7 N                                       1.1465367
     4   6 C       37   1 H                                       1.0796083
     8   6 C       38   1 H                                       1.0796985
     9   6 C       39   1 H                                       1.0796157
    10   6 C       40   1 H                                       1.0792771
    11   6 C       41   1 H                                       1.0783364
    15   6 C       42   1 H                                       1.0815311
    16   6 C       43   1 H                                       1.0783022
    17   6 C       44   1 H                                       1.0798854
    22   6 C       45   1 H                                       1.0797055
    23   6 C       46   1 H                                       1.0796138
    24   6 C       47   1 H                                       1.0792775
    25   6 C       48   1 H                                       1.0783387
    29   6 C       49   1 H                                       1.0815251
    30   6 C       50   1 H                                       1.0783009 (min)
    31   6 C       51   1 H                                       1.0798815
    33   6 C       52   1 H                                       1.0796143

 * 3 distinct bonds (by element types)

   Z      Z             #   av. dist./Å        max./Å        min./Å
   1 H    6 C          16     1.0795320     1.0815311     1.0783009
   6 C    6 C          28     1.3969040     1.4371573     1.3808856
   6 C    7 N          12     1.3266622     1.3937474     1.1465367

           -------------------------------------------------
          |               Frequency Printout                |
           -------------------------------------------------
 projected vibrational frequencies (cm⁻¹)
eigval :       -0.00    -0.00    -0.00    -0.00    -0.00     0.00
eigval :       21.40    28.25    36.90    47.01    47.81    51.99
eigval :       89.06    98.52   103.98   105.68   119.81   137.92
eigval :      145.54   156.80   172.52   180.63   196.53   205.63
eigval :      259.28   268.03   278.41   283.73   308.17   310.31
eigval :      348.79   390.75   397.23   402.11   419.91   420.95
eigval :      426.39   433.48   443.28   445.54   480.82   482.48
eigval :      519.72   521.05   529.68   530.23   542.88   547.34
eigval :      551.62   568.63   587.75   595.52   595.98   600.30
eigval :      652.53   656.82   668.16   680.49   682.35   690.11
eigval :      710.00   724.44   725.39   750.21   759.53   770.40
eigval :      775.46   775.62   797.04   798.37   840.76   866.15
eigval :      869.99   883.61   892.19   900.27   901.53   903.40
eigval :      908.62   911.81   912.24   914.80   915.58   924.66
eigval :      925.06   960.44  1021.77  1022.73  1067.29  1067.90
eigval :     1076.80  1091.12  1091.56  1118.19  1137.83  1143.03
eigval :     1143.37  1164.08  1167.75  1176.36  1177.37  1202.22
eigval :     1210.46  1217.45  1226.70  1229.71  1253.48  1281.05
eigval :     1281.62  1291.48  1292.75  1308.58  1316.11  1331.66
eigval :     1332.07  1350.98  1352.09  1360.05  1376.84  1395.75
eigval :     1407.37  1419.92  1421.30  1465.34  1466.75  1476.11
eigval :     1480.79  1481.19  1498.71  1546.02  1557.68  1557.95
eigval :     1580.30  1580.62  1585.64  1586.42  1602.60  1603.11
eigval :     2366.16  2366.69  3064.94  3065.03  3076.74  3076.84
eigval :     3081.11  3081.22  3088.16  3089.05  3097.18  3097.81
eigval :     3101.73  3102.07  3104.03  3104.40  3109.15  3109.35
 reduced masses (amu)
   1: 12.11   2: 11.94   3: 11.82   4: 11.81   5: 11.86   6: 12.03   7: 11.29   8: 11.78
   9: 11.74  10: 12.81  11: 11.63  12: 11.81  13: 11.56  14: 13.72  15: 10.38  16: 11.04
  17: 11.65  18: 12.12  19: 10.49  20: 10.68  21: 11.76  22: 11.16  23: 11.15  24: 11.16
  25: 11.30  26: 11.27  27: 10.68  28: 10.94  29: 11.94  30: 11.41  31: 12.18  32: 12.03
  33:  9.93  34:  9.91  35: 10.62  36: 11.51  37: 11.12  38: 10.98  39: 10.88  40: 10.50
  41: 11.50  42: 12.13  43: 11.31  44: 11.38  45: 11.09  46: 11.29  47: 10.86  48: 10.26
  49: 11.27  50: 11.96  51: 11.84  52: 11.69  53: 11.67  54: 11.81  55: 11.45  56: 11.93
  57: 11.64  58: 11.62  59: 11.67  60: 11.49  61: 11.62  62: 11.51  63: 11.52  64: 11.52
  65: 11.14  66: 11.12  67:  3.79  68:  3.80  69:  3.46  70:  3.51  71: 12.04  72:  4.08
  73:  3.38  74:  4.10  75:  3.30  76:  7.48  77:  4.01  78:  8.24  79: 11.09  80:  4.29
  81:  3.87  82:  3.53  83:  3.51  84:  3.15  85:  3.15  86: 11.18  87: 11.15  88: 11.15
  89:  6.80  90:  6.08  91:  9.92  92:  6.36  93:  6.35  94:  7.01  95:  9.80  96:  3.36
  97:  3.40  98:  5.23  99:  3.67 100:  2.44 101:  2.84 102:  5.43 103:  5.88 104:  3.57
 105:  6.01 106:  6.03 107:  8.91 108:  8.94 109:  8.98 110:  8.40 111:  8.74 112: 11.65
 113: 11.10 114:  9.88 115:  9.83 116: 11.19 117: 11.29 118: 10.36 119: 10.77 120: 11.16
 121: 10.91 122:  9.67 123: 10.63 124: 10.57 125: 10.63 126: 11.30 127: 10.62 128: 10.71
 129: 11.90 130: 11.60 131: 11.94 132: 11.95 133: 11.88 134: 11.85 135: 11.65 136: 11.67
 137: 11.73 138: 11.73 139: 12.79 140: 12.79 141:  1.80 142:  1.80 143:  1.81 144:  1.81
 145:  1.78 146:  1.78 147:  1.81 148:  1.81 149:  1.87 150:  1.87 151:  1.84 152:  1.83
 153:  1.87 154:  1.87 155:  1.88 156:  1.88
 IR intensities (km·mol⁻¹)
   1:  0.04   2:  0.00   3:  0.02   4:  0.05   5:  0.01   6:  0.09   7:  0.07   8:  0.07
   9:  3.61  10:  0.47  11:  3.40  12:  3.06  13:  0.30  14:  3.16  15:  0.16  16:  0.65
  17:  4.42  18:  7.46  19:  2.63  20:  3.56  21:  5.85  22:  0.96  23:  1.58  24:  3.23
  25:  6.45  26:  1.27  27:  4.06  28:  2.08  29:  3.91  30:  4.83  31:  0.08  32:  7.46
  33:  2.26  34:  0.42  35:  2.05  36:  2.97  37:  0.94  38:  9.76  39: 26.73  40:  1.62
  41:  3.57  42:  6.14  43:  0.36  44:  4.51  45:  0.05  46:  2.22  47:  7.17  48:  3.71
  49: 10.04  50: 10.26  51:  0.76  52:  2.71  53:  7.34  54:  5.57  55:  4.94  56:  0.02
  57:  0.89  58:  1.15  59:  0.72  60:  1.54  61:  0.20  62: 28.52  63:  1.51  64:  0.07
  65:  0.34  66:  0.13  67: 18.37  68: 57.33  69: 12.98  70:  6.11  71:  1.80  72:  4.05
  73:  1.32  74:  5.24  75:  3.09  76:  0.66  77:  1.69  78:  0.23  79: 35.97  80:  4.16
  81:  0.83  82:  0.42  83:  0.43  84:  0.31  85:  0.14  86: 12.26  87:  8.58  88:  5.51
  89:  2.10  90:  0.93  91:  1.53  92:  5.11  93:  3.24  94:  5.89  95: 22.59  96: 13.11
  97:  9.95  98:  2.05  99:  0.08 100:  2.09 101: 13.24 102:  7.15 103:  1.35 104:  6.22
 105: 30.67 106: 78.69 107:  1.03 108: 14.63 109:207.46 110:  5.61 111:  3.16 112:  0.41
 113:166.05 114:  1.97 115:  0.32 116: 79.79 117: 45.54 118:193.65 119: 40.88 120:507.58
 121: 54.22 122:222.97 123:265.51 124: 11.54 125:125.18 126:496.93 127:  5.25 128:  8.78
 129:201.84 130:201.07 131: 42.61 132: 72.38 133: 13.13 134: 12.13 135: 23.29 136: 99.60
 137:105.58 138:  5.08 139:857.65 140:233.80 141: 28.10 142: 65.17 143: 30.83 144: 39.91
 145: 12.67 146: 13.49 147: 33.72 148: 31.66 149: 83.25 150: 86.18 151:  1.16 152:  4.40
 153: 69.20 154: 30.25 155: 46.87 156: 46.41
 Raman intensities (Ä⁴*amu⁻¹)
   1:  0.00   2:  0.00   3:  0.00   4:  0.00   5:  0.00   6:  0.00   7:  0.00   8:  0.00
   9:  0.00  10:  0.00  11:  0.00  12:  0.00  13:  0.00  14:  0.00  15:  0.00  16:  0.00
  17:  0.00  18:  0.00  19:  0.00  20:  0.00  21:  0.00  22:  0.00  23:  0.00  24:  0.00
  25:  0.00  26:  0.00  27:  0.00  28:  0.00  29:  0.00  30:  0.00  31:  0.00  32:  0.00
  33:  0.00  34:  0.00  35:  0.00  36:  0.00  37:  0.00  38:  0.00  39:  0.00  40:  0.00
  41:  0.00  42:  0.00  43:  0.00  44:  0.00  45:  0.00  46:  0.00  47:  0.00  48:  0.00
  49:  0.00  50:  0.00  51:  0.00  52:  0.00  53:  0.00  54:  0.00  55:  0.00  56:  0.00
  57:  0.00  58:  0.00  59:  0.00  60:  0.00  61:  0.00  62:  0.00  63:  0.00  64:  0.00
  65:  0.00  66:  0.00  67:  0.00  68:  0.00  69:  0.00  70:  0.00  71:  0.00  72:  0.00
  73:  0.00  74:  0.00  75:  0.00  76:  0.00  77:  0.00  78:  0.00  79:  0.00  80:  0.00
  81:  0.00  82:  0.00  83:  0.00  84:  0.00  85:  0.00  86:  0.00  87:  0.00  88:  0.00
  89:  0.00  90:  0.00  91:  0.00  92:  0.00  93:  0.00  94:  0.00  95:  0.00  96:  0.00
  97:  0.00  98:  0.00  99:  0.00 100:  0.00 101:  0.00 102:  0.00 103:  0.00 104:  0.00
 105:  0.00 106:  0.00 107:  0.00 108:  0.00 109:  0.00 110:  0.00 111:  0.00 112:  0.00
 113:  0.00 114:  0.00 115:  0.00 116:  0.00 117:  0.00 118:  0.00 119:  0.00 120:  0.00
 121:  0.00 122:  0.00 123:  0.00 124:  0.00 125:  0.00 126:  0.00 127:  0.00 128:  0.00
 129:  0.00 130:  0.00 131:  0.00 132:  0.00 133:  0.00 134:  0.00 135:  0.00 136:  0.00
 137:  0.00 138:  0.00 139:  0.00 140:  0.00 141:  0.00 142:  0.00 143:  0.00 144:  0.00
 145:  0.00 146:  0.00 147:  0.00 148:  0.00 149:  0.00 150:  0.00 151:  0.00 152:  0.00
 153:  0.00 154:  0.00 155:  0.00 156:  0.00
 output can be read by thermo (or use thermo option).
 writing <g98.out> molden fake output.
 recommended (thermochemical) frequency scaling factor: 1.0
           -------------------------------------------------
          |             Thermodynamic Functions             |
           -------------------------------------------------

Molecule has the following symmetry elements: (C2) 
It seems to be the C2 point group
c2  symmetry found (for desy threshold:  0.10E+00) used in thermo

          ...................................................
          :                      SETUP                      :
          :.................................................:
          :  # frequencies                         150      :
          :  # imaginary freq.                       0      :
          :  linear?                             false      :
          :  only rotor calc.                    false      :
          :  symmetry                               c2      :
          :  rotational number                       2      :
          :  scaling factor                  1.0000000      :
          :  rotor cutoff                   50.0000000 cm⁻¹ :
          :  imag. cutoff                  -20.0000000 cm⁻¹ :
          :.................................................:

    mode    ω/cm⁻¹     T·S(HO)/kcal·mol⁻¹    T·S(FR)/kcal·mol⁻¹   T·S(vib)
   ------------------------------------------------------------------------
       1     21.40    -1.93782 (  3.25%)    -1.30784 ( 96.75%)    -1.32831
       2     28.25    -1.77365 (  9.24%)    -1.22567 ( 90.76%)    -1.27633
       3     36.90    -1.61571 ( 22.87%)    -1.14655 ( 77.13%)    -1.25385
       4     47.01    -1.47268 ( 43.86%)    -1.07480 ( 56.14%)    -1.24932
       5     47.81    -1.46271 ( 45.53%)    -1.06979 ( 54.47%)    -1.24870
       6     51.99    -1.41325 ( 53.90%)    -1.04495 ( 46.10%)    -1.24347
       7     89.06    -1.09739 ( 90.96%)    -0.88553 (  9.04%)    -1.07825
       8     98.52    -1.03857 ( 93.78%)    -0.85562 (  6.22%)    -1.02719
       9    103.98    -1.00726 ( 94.92%)    -0.83965 (  5.08%)    -0.99875
      10    105.68    -0.99782 ( 95.23%)    -0.83483 (  4.77%)    -0.99005
      11    119.81    -0.92530 ( 97.06%)    -0.79766 (  2.94%)    -0.92154
      12    137.92    -0.84453 ( 98.30%)    -0.75596 (  1.70%)    -0.84302
      13    145.54    -0.81385 ( 98.63%)    -0.74002 (  1.37%)    -0.81284
      14    156.80    -0.77163 ( 98.98%)    -0.71796 (  1.02%)    -0.77108
      15    172.52    -0.71791 ( 99.30%)    -0.68966 (  0.70%)    -0.71771
      16    180.63    -0.69227 ( 99.42%)    -0.67604 (  0.58%)    -0.69218
      17    196.53    -0.64560 ( 99.58%)    -0.65105 (  0.42%)    -0.64562
      18    205.63    -0.62079 ( 99.65%)    -0.63764 (  0.35%)    -0.62085
      19    259.28    -0.49689 ( 99.86%)    -0.56896 (  0.14%)    -0.49699
      20    268.03    -0.47968 ( 99.88%)    -0.55913 (  0.12%)    -0.47978
      21    278.41    -0.46017 ( 99.90%)    -0.54788 (  0.10%)    -0.46026
      22    283.73    -0.45053 ( 99.90%)    -0.54227 (  0.10%)    -0.45062
   ------------------------------------------------------------------------

   temp. (K)  partition function   enthalpy   heat capacity  entropy
                                   cal/mol     cal/K/mol   cal/K/mol   J/K/mol
 298.15  VIB  0.598E+11            15425.312     99.773     93.911
         ROT  0.110E+08              888.752      2.981     35.196
         INT  0.656E+18            16314.064    102.754    129.106
         TR   0.956E+28             1481.254      4.968     44.250
         TOT                       17795.3182   107.7224   173.3563   725.3228

       T/K    H(0)-H(T)+PV         H(T)/Eh          T*S/Eh         G(T)/Eh
   ------------------------------------------------------------------------
    298.15    0.283586E-01    0.402575E+00    0.823672E-01    0.320208E+00
   ------------------------------------------------------------------------

         :::::::::::::::::::::::::::::::::::::::::::::::::::::
         ::                  THERMODYNAMIC                  ::
         :::::::::::::::::::::::::::::::::::::::::::::::::::::
         :: total free energy         -89.649876938456 Eh   ::
         ::.................................................::
         :: total energy              -89.970084859186 Eh   ::
         :: zero point energy           0.374216449581 Eh   ::
         :: G(RRHO) w/o ZPVE           -0.054008528850 Eh   ::
         :: G(RRHO) contrib.            0.320207920730 Eh   ::
         :::::::::::::::::::::::::::::::::::::::::::::::::::::

optimized geometry written to: xtbopt.xyz


           -------------------------------------------------
          | TOTAL ENERGY              -89.970084859186 Eh   |
          | TOTAL ENTHALPY            -89.567509764966 Eh   |
          | TOTAL FREE ENERGY         -89.649876938456 Eh   |
          | GRADIENT NORM               0.000084879195 Eh/α |
          | HOMO-LUMO GAP               1.705805738404 eV   |
           -------------------------------------------------

------------------------------------------------------------------------
 * finished run on 2025/07/16 at 17:20:22.172     
------------------------------------------------------------------------
 total:
 * wall-time:     0 d,  0 h,  0 min,  2.716 sec
 *  cpu-time:     0 d,  0 h,  1 min, 43.968 sec
 * ratio c/w:    38.276 speedup
 SCF:
 * wall-time:     0 d,  0 h,  0 min,  0.115 sec
 *  cpu-time:     0 d,  0 h,  0 min,  4.212 sec
 * ratio c/w:    36.545 speedup
 ANC optimizer:
 * wall-time:     0 d,  0 h,  0 min,  1.156 sec
 *  cpu-time:     0 d,  0 h,  0 min, 46.234 sec
 * ratio c/w:    39.997 speedup
 analytical hessian:
 * wall-time:     0 d,  0 h,  0 min,  1.346 sec
 *  cpu-time:     0 d,  0 h,  0 min, 50.168 sec
 * ratio c/w:    37.259 speedup

