$hessian                                                                        
        0.5039127848   0.0013659295  -0.0347132014  -0.0829502549   0.0022305169
       -0.0510886804   0.0060222029  -0.0006513158   0.0144039634  -0.0137021718
       -0.0085546450  -0.0163796943  -0.0006867152   0.0010539647  -0.0009840892
       -0.0003537865  -0.0001368494   0.0005706559  -0.0000309640   0.0000934720
        0.0001415284  -0.0005560295  -0.0002250061   0.0007487592   0.0002760790
       -0.0021413642  -0.0008339905  -0.0001796982   0.0000481841  -0.0000448561
        0.0002832897  -0.0000222594   0.0000532067   0.0000053419   0.0000188573
        0.0000005333   0.0000099583   0.0000162353   0.0000067115   0.0000734348
       -0.0000042502  -0.0000049736  -0.0001059115  -0.0000000496   0.0000160135
        0.0000086651  -0.0000412622  -0.0000282214   0.0000190626   0.0000089820
        0.0000038216   0.0000018336  -0.0000080995   0.0000011871   0.0000032030
        0.0000034739   0.0000003235   0.0000066135  -0.0000106356   0.0000022243
       -0.0000083396   0.0000109491   0.0000008767   0.0000057389  -0.0000003705
       -0.0000000337   0.0000022342   0.0000003049  -0.0000009964   0.0000033586
       -0.0000016504   0.0000062112  -0.0000097537  -0.0000116417   0.0000016793
        0.0000057157   0.0000108741  -0.0000008361   0.0000033497  -0.0000053936
        0.0000004092   0.0000051398   0.0000079857   0.0000022124   0.0000183667
       -0.0000087608   0.0000048774   0.0000145645   0.0000436536   0.0000173056
        0.0000008330  -0.0000058333   0.0000037493  -0.0000416289   0.0000177445
        0.0000709306   0.0000213636  -0.0000009061  -0.0000381122  -0.0000197557
       -0.0000313263   0.0000366922  -0.0000017808   0.0000213652  -0.0000415018
       -0.0001651664   0.0022600111  -0.0006752641  -0.0006274112   0.0001178993
        0.0007379178   0.0000258922  -0.0000196415   0.0001423637  -0.0004490359
        0.0001530594   0.0005585079  -0.0006600550  -0.0010725176  -0.0010169735
       -0.0139197858   0.0096892507  -0.0159388567  -0.1264352336   0.1153003494
       -0.0038624688  -0.1188954177  -0.1117565554  -0.0145427678  -0.1507965571
       -0.0075423264   0.1185876229  -0.0015803346  -0.0002066876   0.0039369252
        0.0007265043   0.0001965324   0.0005092478   0.0007203868  -0.0002328591
        0.0004888611   0.0000468143   0.0003154213  -0.0001384953   0.0000143586
        0.0000180090  -0.0000276688   0.0000276784  -0.0000056293  -0.0001438913
       -0.0000777890  -0.0001201210  -0.0001028964   0.0000072984  -0.0000021496
        0.0000282637  -0.0000186705   0.0000012476  -0.0000032808  -0.0000062086
        0.0000009239  -0.0000008189   0.0000032786   0.0000019336   0.0000004559
       -0.0000057562   0.0000069475   0.0000010541  -0.0000085397   0.0000025627
        0.0000018433   0.0000032027  -0.0000008266   0.0000017060  -0.0000025704
       -0.0000034611   0.0000027723  -0.0000027009   0.0000024832   0.0000032037
        0.0000025091  -0.0000006649   0.0000005284  -0.0000031911   0.0000029369
       -0.0000006376  -0.0000034211  -0.0000038245  -0.0000011226  -0.0000083597
       -0.0000033612   0.0000013903  -0.0000056842  -0.0000076364   0.0000011288
        0.0000032736  -0.0000031631   0.0000003197  -0.0000033612   0.0000014650
       -0.0000029089  -0.0000666454   0.0001429100  -0.0001356593   0.0000394714
        0.0000110102  -0.0001414954   0.0000112916  -0.0000094398  -0.0000207370
        0.0000535917  -0.0003249610  -0.0001828547
        0.0013659295   0.5283129772   0.0031597598   0.0019382669  -0.0622028905
        0.0033334641   0.0003814218   0.0009770605   0.0016111380  -0.0151927073
       -0.0026142482  -0.0190795697  -0.0003061633  -0.0013318593  -0.0008662328
       -0.0000864458   0.0007765606   0.0005825745  -0.0001158749  -0.0002169973
       -0.0000707926  -0.0005576559   0.0002582747   0.0010376166   0.0008285736
       -0.0044526483  -0.0007046185  -0.0002703086   0.0030136076   0.0001108704
        0.0001006442   0.0000571306  -0.0000193159  -0.0000581908   0.0000182739
       -0.0000573972   0.0000512761  -0.0000068066  -0.0000107182   0.0000010700
        0.0000049909   0.0000355230  -0.0000136882   0.0000295678   0.0000038115
        0.0000165793  -0.0000340390  -0.0000081207  -0.0000028732   0.0000066989
       -0.0000008249   0.0000012385  -0.0000053879   0.0000032297   0.0000032020
        0.0000077034   0.0000007786   0.0000009323  -0.0000092919  -0.0000003651
       -0.0000077125   0.0000074747  -0.0000025461   0.0000006709   0.0000000438
       -0.0000004687  -0.0000003125   0.0000016868  -0.0000013733  -0.0000014519
        0.0000009737   0.0000004282   0.0000064673  -0.0000001313  -0.0000011280
       -0.0000015704  -0.0000014597   0.0000013356  -0.0000039187   0.0000025834
       -0.0000009777   0.0000020469  -0.0000006610   0.0000007049   0.0000029419
        0.0000061726  -0.0000014601  -0.0000082253  -0.0000159010   0.0000081549
       -0.0000221722  -0.0000326521   0.0000025003  -0.0000062760   0.0000182027
       -0.0000160512  -0.0000520098  -0.0000213999   0.0000700647   0.0000795409
        0.0000630544  -0.0000499847  -0.0000316946  -0.0000103115  -0.0000177969
       -0.0003381630  -0.0043171857   0.0004910738   0.0006250513   0.0003148122
       -0.0010028351   0.0000684620  -0.0002831671   0.0000563691   0.0001824126
        0.0007289275  -0.0005511572   0.0001488935  -0.0011356278   0.0006092160
        0.0153064850  -0.0042712769   0.0188224373   0.1151573655  -0.2012370324
        0.0069439061  -0.1116329560  -0.2059163860  -0.0230456427  -0.0075552432
       -0.0451249843   0.0083400693  -0.0001469194   0.0005244323   0.0003008400
        0.0003743190   0.0002290014   0.0004852360  -0.0002809739   0.0002134193
       -0.0005187658  -0.0008068774  -0.0008910742  -0.0011925079  -0.0000124176
       -0.0000088247   0.0000689857  -0.0000845796  -0.0000285843  -0.0001796718
       -0.0001903660  -0.0001805764  -0.0000493232   0.0000107935  -0.0000198883
        0.0000179927   0.0000015151  -0.0000022587   0.0000013701  -0.0000022870
       -0.0000075660  -0.0000005938  -0.0000035531   0.0000045707  -0.0000009380
        0.0000011456  -0.0000002209  -0.0000016559   0.0000000345   0.0000018468
       -0.0000012119  -0.0000007628   0.0000004094   0.0000002662   0.0000013535
        0.0000009392  -0.0000004046  -0.0000018014   0.0000016876   0.0000002520
       -0.0000002106  -0.0000023566  -0.0000001189  -0.0000011814   0.0000007308
       -0.0000001892   0.0000024246  -0.0000002913   0.0000005012  -0.0000014115
        0.0000017569  -0.0000001184  -0.0000007417  -0.0000012520   0.0000006858
        0.0000025902   0.0000030832   0.0000002871   0.0000047762  -0.0000048967
        0.0000006770   0.0001848227  -0.0001847473   0.0000905687   0.0000676627
       -0.0000309075   0.0001885725   0.0000230036  -0.0000096505  -0.0000613990
        0.0008557844  -0.0009732144   0.0011350143
       -0.0347132014   0.0031597598   0.4496181576  -0.0437700460   0.0034882850
       -0.1452748825  -0.0071608682   0.0014163073  -0.0295998316  -0.0088410067
       -0.0071596526  -0.0060613279  -0.0000467792   0.0008865334   0.0000365308
       -0.0002307663  -0.0000821989   0.0001935317  -0.0001717754   0.0000832576
        0.0000564802  -0.0002793179  -0.0004409040   0.0002052899   0.0010166192
       -0.0000116281  -0.0005753651   0.0001108571   0.0001383965  -0.0002086310
       -0.0001373010  -0.0000103197   0.0000905659   0.0001022125   0.0000127289
       -0.0000224299  -0.0000325100  -0.0000080517  -0.0000068676  -0.0000969897
       -0.0000134032  -0.0000580426   0.0000565138   0.0000030797   0.0000032843
       -0.0000203216   0.0000401042   0.0000298168   0.0000174350  -0.0000043738
       -0.0000069367   0.0000047095   0.0000020083   0.0000022436   0.0000002463
       -0.0000059492   0.0000058564  -0.0000001849   0.0000090543   0.0000042129
       -0.0000000615  -0.0000092584  -0.0000001747   0.0000015334  -0.0000000594
       -0.0000016620   0.0000009711  -0.0000013619   0.0000019329   0.0000035045
        0.0000015632  -0.0000006464   0.0000104904   0.0000087326   0.0000058237
       -0.0000002055  -0.0000107697   0.0000054860   0.0000016882   0.0000056668
        0.0000056755   0.0000007006  -0.0000035369  -0.0000040167   0.0000137328
        0.0000014260  -0.0000046558  -0.0000220778  -0.0000432387  -0.0000137592
       -0.0000276144   0.0000298750   0.0000400460  -0.0000114940  -0.0000032142
        0.0000024893   0.0000352815  -0.0000007550  -0.0000203509  -0.0000328793
        0.0000469949   0.0000604803   0.0000343600  -0.0000704011  -0.0000050060
        0.0009712711  -0.0002591875  -0.0006224235  -0.0002478608   0.0004515436
        0.0001241173  -0.0001598957  -0.0001037784   0.0000429612  -0.0002392295
        0.0001407565   0.0001379197  -0.0000259752  -0.0009157970   0.0000099100
       -0.0074498341   0.0069604243  -0.0036769637  -0.0034975469   0.0066838769
       -0.0422422702  -0.0141338442  -0.0227899446  -0.0450629039   0.1185374371
        0.0083145038  -0.1737761579   0.0028069613   0.0002647432  -0.0046127554
       -0.0009988658  -0.0003548808   0.0008648590  -0.0010113997   0.0002662777
        0.0008214104  -0.0002978095  -0.0000679953  -0.0003137229  -0.0000132135
        0.0000516075  -0.0000426905   0.0000174834   0.0000427109  -0.0000439454
        0.0000511667  -0.0000161040   0.0000333254   0.0000034836   0.0000144448
        0.0000264470   0.0000009292  -0.0000020828   0.0000136754  -0.0000039674
        0.0000016079   0.0000021280   0.0000001273  -0.0000018807   0.0000026491
       -0.0000023295   0.0000017254   0.0000043380  -0.0000020664  -0.0000011886
        0.0000037047   0.0000026930  -0.0000003362   0.0000029256  -0.0000007447
       -0.0000011592   0.0000038928  -0.0000003692   0.0000000688   0.0000039285
       -0.0000000474   0.0000012541   0.0000029643  -0.0000001308   0.0000001984
        0.0000029140   0.0000003465  -0.0000004019   0.0000022378  -0.0000012337
        0.0000002843   0.0000017583  -0.0000019698  -0.0000019984   0.0000009026
        0.0000010075   0.0000015002  -0.0000004676  -0.0000033339  -0.0000029556
        0.0000017064   0.0000675838  -0.0000032622   0.0000556566   0.0000309623
       -0.0000463386  -0.0000229327  -0.0000086074  -0.0000515766  -0.0000461522
       -0.0002066330  -0.0000313570  -0.0002062634
       -0.0829502549   0.0019382669  -0.0437700460   0.4565491545  -0.0007493535
        0.0030164241  -0.1038352506  -0.0030174798   0.0520167190  -0.1006679040
       -0.0542147324  -0.0066944966   0.0088934073   0.0042179657   0.0008067439
       -0.0011668897   0.0028880558  -0.0006501439   0.0000238819  -0.0011157016
       -0.0000233115  -0.0043664658   0.0021086870  -0.0009118820  -0.0203375289
       -0.0231028113  -0.0028421162   0.0036765460  -0.0000791986   0.0006575277
       -0.0001122785   0.0000450520   0.0001712521   0.0000608865  -0.0001110339
       -0.0000576770   0.0001933625  -0.0000682894  -0.0000769253  -0.0000838913
        0.0000240276   0.0000717475   0.0000839299   0.0000021787   0.0000068898
       -0.0000207462   0.0000363048   0.0000170421   0.0000329021  -0.0000051763
       -0.0000041831   0.0000034713   0.0000085094   0.0000026732   0.0000035250
       -0.0000017735   0.0000019906   0.0000035219   0.0000038305  -0.0000017861
       -0.0000010508  -0.0000091030  -0.0000000885   0.0000069979   0.0000001947
       -0.0000009363   0.0000057362  -0.0000006711  -0.0000015252   0.0000076136
        0.0000005751  -0.0000001161   0.0000027517   0.0000114024  -0.0000009699
        0.0000042526  -0.0000046175   0.0000029616   0.0000027312   0.0000010864
       -0.0000010508   0.0000050408  -0.0000092538  -0.0000008568   0.0000310546
        0.0000056895  -0.0000000580  -0.0000208995  -0.0000379580  -0.0000139757
       -0.0000317958   0.0000027847  -0.0000127073   0.0000328244   0.0000039171
       -0.0000230810  -0.0000825195   0.0000110168   0.0001478112   0.0001244326
       -0.0000358474  -0.0000745331   0.0002259355   0.0001266681  -0.0001165157
       -0.0209154652   0.0231433097  -0.0017451343  -0.0042547956  -0.0022148373
       -0.0010894298  -0.0000263882   0.0011007762   0.0000361298  -0.0009999684
       -0.0028545494  -0.0007703949   0.0087161895  -0.0034779784   0.0010843848
       -0.1032015979   0.0558530289  -0.0024417984  -0.0109919894   0.0033020389
       -0.0160590069  -0.0105213119  -0.0020051114  -0.0156550348   0.0081603337
       -0.0006217873   0.0148561716   0.0079289736   0.0004826202  -0.0083335122
       -0.0143617516  -0.0037849993   0.0136136173  -0.0145420160   0.0022061284
        0.0140665032  -0.0002657310   0.0007362762   0.0002857674   0.0001953445
        0.0010074971   0.0000456783   0.0001151251   0.0001932917   0.0001618508
       -0.0006858513  -0.0010194292   0.0000236169  -0.0000360386  -0.0000077078
        0.0000268634   0.0000197465   0.0000175389   0.0000124422   0.0000002789
        0.0000013681   0.0000003676   0.0000032272  -0.0000071720   0.0000013162
       -0.0000003652   0.0000028205   0.0000005655  -0.0000006055   0.0000001088
       -0.0000003804   0.0000035972  -0.0000005373   0.0000001093   0.0000010678
       -0.0000004795  -0.0000003363   0.0000012731  -0.0000001165  -0.0000000845
        0.0000033293   0.0000004345  -0.0000005810   0.0000022057   0.0000006228
       -0.0000017914   0.0000020443  -0.0000000891  -0.0000021854  -0.0000001978
       -0.0000001430  -0.0000015697  -0.0000007045  -0.0000026811  -0.0000014925
        0.0000030948   0.0000058124  -0.0000001008   0.0000011204  -0.0000020286
        0.0000006678  -0.0007062286   0.0010016009  -0.0000721218   0.0001097343
       -0.0001972710   0.0001329368   0.0002082621  -0.0009865136  -0.0000324851
       -0.0002604258  -0.0007450545   0.0002176505
        0.0022305169  -0.0622028905   0.0034882850  -0.0007493535   0.4988293877
        0.0014252756  -0.0033494249  -0.0623919064   0.0034802522  -0.0567851793
       -0.1490457148  -0.0095678193  -0.0104036949  -0.0324307295  -0.0021863574
        0.0035109671  -0.0025656971  -0.0002135503  -0.0003379620  -0.0003600859
       -0.0000123294   0.0010597086   0.0007873582  -0.0002906475  -0.0095400781
        0.0014825572  -0.0008989192  -0.0000158114  -0.0031180411   0.0001506076
        0.0000161882  -0.0001411624  -0.0000321327  -0.0000034897  -0.0001022681
        0.0000064195  -0.0000183301  -0.0000129926   0.0000053171   0.0000098280
       -0.0000009539  -0.0000150169  -0.0000117169   0.0000391097  -0.0000027711
        0.0000144464  -0.0000296121  -0.0000051490  -0.0000091271   0.0000017374
        0.0000006178  -0.0000027208  -0.0000065400   0.0000002403  -0.0000042051
        0.0000017187   0.0000004700   0.0000019315  -0.0000084318  -0.0000005234
       -0.0000071896   0.0000050745   0.0000010088  -0.0000001937  -0.0000039161
       -0.0000001425   0.0000003734   0.0000000397  -0.0000000603  -0.0000005500
        0.0000003507   0.0000006423   0.0000075056   0.0000033290  -0.0000004709
       -0.0000030646  -0.0000052012  -0.0000000568   0.0000034506  -0.0000021084
       -0.0000006085   0.0000032538  -0.0000031575  -0.0000002556   0.0000089564
        0.0000011228   0.0000003564  -0.0000099989  -0.0000211940   0.0000046512
        0.0000016983   0.0000364277  -0.0000087417  -0.0000315416  -0.0000108077
       -0.0000289344   0.0000319117   0.0000151588   0.0000204068  -0.0000160452
       -0.0000765298  -0.0000086591   0.0000330859   0.0000201296   0.0000496936
        0.0093896608   0.0018235481   0.0009489783  -0.0009910583   0.0007498755
       -0.0004334243   0.0003135106  -0.0003718943   0.0000437495  -0.0033767253
       -0.0026614708  -0.0008246623   0.0111803336  -0.0321595141   0.0000728657
        0.0583892161  -0.1483160254   0.0018951226   0.0126260434  -0.0028881344
        0.0207769430  -0.0124632322  -0.0010783293  -0.0209861636   0.0005950255
       -0.0000205183   0.0014494948  -0.0007871711  -0.0000320464   0.0012151538
       -0.0166535981  -0.0030842450   0.0179540206   0.0162532299  -0.0008622467
       -0.0178922740  -0.0010456743   0.0007347600   0.0000726165  -0.0005493272
       -0.0009900008  -0.0000257149   0.0000779459   0.0001882921   0.0000841649
        0.0003865946   0.0001512939  -0.0000247858  -0.0000155942   0.0000227442
       -0.0000003848  -0.0000023327   0.0000099337  -0.0000022034   0.0000113663
        0.0000051547   0.0000002781   0.0000061637   0.0000045700  -0.0000006121
        0.0000048747   0.0000008436  -0.0000007775   0.0000017444   0.0000036984
       -0.0000003346   0.0000003285   0.0000016102   0.0000000900   0.0000001893
        0.0000013885  -0.0000008710  -0.0000005864   0.0000014606   0.0000012553
        0.0000000357   0.0000005901  -0.0000000002  -0.0000004951   0.0000015703
       -0.0000005575   0.0000007071   0.0000008476   0.0000011464  -0.0000026464
        0.0000038582   0.0000002556  -0.0000045436   0.0000001379   0.0000004521
       -0.0000069170   0.0000024786  -0.0000000147  -0.0000096367   0.0000050239
       -0.0000013938  -0.0004307081   0.0001131431  -0.0000809542  -0.0000943866
        0.0001854099   0.0000615784   0.0005667615  -0.0009951957   0.0000739726
        0.0009967570   0.0007638274   0.0002618924
       -0.0510886804   0.0033334641  -0.1452748825   0.0030164241   0.0014252756
        0.4246950195   0.0591655904   0.0034643381  -0.1239085014  -0.0075121438
       -0.0098700269  -0.0554240278   0.0004487351  -0.0009609114  -0.0004844705
       -0.0003417219   0.0001188544   0.0066548441  -0.0001451739   0.0000301437
       -0.0000389068  -0.0007217680   0.0000169866   0.0063847077  -0.0013043630
       -0.0021243299   0.0015022905   0.0006288480   0.0002702622  -0.0034453551
       -0.0000407698  -0.0000136520   0.0001462612  -0.0000166413   0.0001446719
        0.0000231879   0.0000060965   0.0000341110  -0.0000507582  -0.0000263155
        0.0000075985   0.0000222450   0.0000255431  -0.0000125471  -0.0000239938
        0.0000043275   0.0000013580   0.0000252512   0.0000012457  -0.0000045786
       -0.0000135812   0.0000026533  -0.0000015282  -0.0000039555  -0.0000014293
       -0.0000000685   0.0000003388  -0.0000010449   0.0000014027   0.0000003658
       -0.0000000879  -0.0000027697  -0.0000033571   0.0000009410  -0.0000001444
       -0.0000015791   0.0000000197  -0.0000004618  -0.0000016450  -0.0000001153
        0.0000009680  -0.0000046370   0.0000064299   0.0000005087   0.0000037507
       -0.0000019746  -0.0000017560   0.0000005649   0.0000013481  -0.0000000879
        0.0000026329  -0.0000004817  -0.0000017580  -0.0000068572   0.0000026174
        0.0000023660  -0.0000111687  -0.0000046814  -0.0000047063   0.0000016772
       -0.0000035167  -0.0000087501  -0.0000336514  -0.0000444286   0.0000080903
       -0.0000124494   0.0001091640  -0.0000228427  -0.0000778464  -0.0001384711
        0.0000300856   0.0000197040   0.0000761904   0.0000106094   0.0000836517
       -0.0031831792   0.0021580786   0.0014659673  -0.0013044542  -0.0005027673
        0.0063457056   0.0002494441   0.0003589167   0.0000098035  -0.0012065165
       -0.0003484538   0.0065548296   0.0012471460  -0.0016096231  -0.0003992171
       -0.0013082639   0.0012159165  -0.0543061713  -0.0037979474   0.0020632864
       -0.0036454882  -0.0050050235  -0.0018907344  -0.0059283844  -0.0094231145
        0.0010974411  -0.0248678924   0.0160060756   0.0013941991  -0.0246615186
        0.0015458705   0.0013928002  -0.0000155802   0.0032692147  -0.0014387583
       -0.0020138213   0.0001557273   0.0001721080  -0.0028101770  -0.0000117362
        0.0000616420   0.0001373074   0.0000936345   0.0000536332  -0.0015244982
       -0.0000093148  -0.0000639720  -0.0004241410  -0.0000353836  -0.0000275539
       -0.0000312448  -0.0000040623  -0.0000098943  -0.0000002841   0.0000044177
        0.0000007879   0.0000076926   0.0000009615   0.0000011545   0.0000016306
       -0.0000003512   0.0000005687   0.0000008054  -0.0000005902   0.0000001255
        0.0000002891   0.0000005300   0.0000009797  -0.0000015877  -0.0000009447
       -0.0000007017   0.0000004225  -0.0000004957   0.0000010575   0.0000002065
        0.0000010824   0.0000009201  -0.0000009458   0.0000001364   0.0000002876
       -0.0000001013   0.0000004588  -0.0000006641  -0.0000001053  -0.0000004678
       -0.0000002972   0.0000001906  -0.0000005568  -0.0000004517   0.0000008575
        0.0000004757  -0.0000001925   0.0000013771   0.0000016361  -0.0000004718
        0.0000080687   0.0000442824   0.0001458933  -0.0004673698   0.0002250162
        0.0000055151  -0.0015152970   0.0000196756  -0.0001200300   0.0001301101
        0.0003242520   0.0000190792  -0.0027963079
        0.0060222029   0.0003814218  -0.0071608682  -0.1038352506  -0.0033494249
        0.0591655904   0.4876389673  -0.0024612564   0.0429050588  -0.0178875174
       -0.0109850038   0.0127611475  -0.0008615593   0.0011747760   0.0008706258
       -0.0003580248  -0.0001700228  -0.0006387516   0.0000095780   0.0000565697
       -0.0001476395  -0.0005224112  -0.0002264411  -0.0008398191  -0.0000171174
       -0.0022255543   0.0008028580  -0.0001766274  -0.0001055188  -0.0000499504
        0.0002606598  -0.0000071571  -0.0001001652   0.0000262609  -0.0000215586
        0.0000132116  -0.0000164791   0.0000009625   0.0000085876   0.0000717257
       -0.0000160377  -0.0000374587  -0.0001042243   0.0000009813  -0.0000071044
        0.0000107989  -0.0000429858  -0.0000158080   0.0000197098   0.0000081716
       -0.0000071101   0.0000025623  -0.0000090481  -0.0000039691   0.0000033503
        0.0000039073  -0.0000027313   0.0000067613  -0.0000104871   0.0000007934
       -0.0000077154   0.0000115846  -0.0000018454   0.0000076182   0.0000005565
        0.0000001314   0.0000033574   0.0000014687  -0.0000034884   0.0000024807
       -0.0000011824   0.0000035130  -0.0000080003  -0.0000124183   0.0000034665
        0.0000054502   0.0000123478  -0.0000017092   0.0000034816  -0.0000047681
        0.0000020307   0.0000034561   0.0000087184  -0.0000005641   0.0000190386
       -0.0000093265  -0.0000034068   0.0000178325   0.0000492640   0.0000240525
        0.0000056592  -0.0000102582   0.0000103950  -0.0000807954   0.0000115722
        0.0000380158   0.0000714137  -0.0000113327  -0.0000452226  -0.0000496242
       -0.0000019505   0.0000291636   0.0000161272   0.0000263425   0.0000244004
        0.0003911803   0.0022906569   0.0010432404  -0.0004586136   0.0002872259
       -0.0008911218  -0.0000399126  -0.0001113012  -0.0001599689  -0.0002761415
        0.0001220037  -0.0006611547  -0.0007934120  -0.0012236593   0.0008339009
       -0.0187409830   0.0096415520   0.0141096478   0.0006497416  -0.0001079202
       -0.0005234745   0.0006082845   0.0001857654  -0.0004909074  -0.0004052288
        0.0001367581  -0.0030843824  -0.1045570987   0.0052835803  -0.1047833156
       -0.1221335380  -0.1137363437  -0.0129881769  -0.1242083743   0.1151480703
       -0.0010116772  -0.0000170398   0.0003337471   0.0002129869   0.0000050568
        0.0000174497   0.0000388563   0.0000158633  -0.0000019162   0.0001449436
       -0.0000889547  -0.0001391387   0.0001011060  -0.0000201746  -0.0000081824
        0.0000155701  -0.0000256618  -0.0000011194  -0.0000068176  -0.0000054175
        0.0000001675   0.0000053248   0.0000037109   0.0000035248  -0.0000003463
       -0.0000061333   0.0000083770  -0.0000003791  -0.0000096055   0.0000033602
        0.0000008026   0.0000036816   0.0000013227  -0.0000002505  -0.0000034877
       -0.0000038810   0.0000029063  -0.0000030687   0.0000055755   0.0000025947
        0.0000033253  -0.0000005679  -0.0000013334  -0.0000032813   0.0000040086
       -0.0000014573  -0.0000036959  -0.0000046608  -0.0000013819  -0.0000096287
       -0.0000030363   0.0000024590  -0.0000065517  -0.0000079926   0.0000035588
        0.0000033624  -0.0000039144   0.0000030279  -0.0000023994   0.0000014045
        0.0000042499  -0.0001110211   0.0001164175   0.0000844706  -0.0000018033
       -0.0000007039   0.0001485578   0.0000044673  -0.0000259654   0.0000369370
       -0.0000605923  -0.0002775754   0.0002155743
       -0.0006513158   0.0009770605   0.0014163073  -0.0030174798  -0.0623919064
        0.0034643381  -0.0024612564   0.5284895054   0.0035240199  -0.0190471566
       -0.0046305680   0.0155521077  -0.0002574835  -0.0011876151   0.0006152288
       -0.0001239399   0.0007310893  -0.0005627222  -0.0000580233  -0.0002913552
        0.0000315497  -0.0004699131   0.0003368979  -0.0010931922   0.0003727961
       -0.0044674136   0.0005214742   0.0002020961   0.0030964596   0.0001324454
       -0.0001169903   0.0000421622  -0.0000563756   0.0000639403   0.0000439183
        0.0000177224  -0.0000318453   0.0000034954   0.0000124958  -0.0000305456
       -0.0000098484  -0.0000230011   0.0000328814   0.0000303620   0.0000075201
        0.0000067812  -0.0000063256   0.0000070982  -0.0000037907   0.0000035202
        0.0000035327  -0.0000005179   0.0000015946  -0.0000005478   0.0000011760
        0.0000025083  -0.0000002135   0.0000002334   0.0000022306  -0.0000007752
       -0.0000040009  -0.0000028171   0.0000038149  -0.0000005763   0.0000003467
        0.0000009791   0.0000016651   0.0000009788   0.0000015812   0.0000011818
        0.0000023671   0.0000005395   0.0000078477   0.0000101913  -0.0000004194
       -0.0000034974  -0.0000058582   0.0000013746  -0.0000034071   0.0000046468
        0.0000012579   0.0000017847  -0.0000037831  -0.0000002915   0.0000060173
        0.0000079128   0.0000005097  -0.0000232614  -0.0000413314  -0.0000096392
       -0.0000084580  -0.0000095759   0.0000193485   0.0000501689   0.0000124460
        0.0000226887  -0.0000216271  -0.0000279805  -0.0000187515   0.0000017704
        0.0000732883   0.0000354002  -0.0000127177  -0.0000745422  -0.0000671872
       -0.0006469743  -0.0045269845  -0.0007658626   0.0003404034   0.0002793965
        0.0011103585   0.0001307618  -0.0002103301  -0.0000477981  -0.0000217695
        0.0007758823   0.0005601516   0.0004118629  -0.0012431563  -0.0007982666
        0.0186524511  -0.0023448508  -0.0156573112  -0.0004609776   0.0002157904
        0.0003871434   0.0003925238   0.0002138928  -0.0004741937   0.0000744199
        0.0005219287   0.0002805604   0.0052534236  -0.0449514929   0.0087206519
       -0.1135989201  -0.2038254737  -0.0165530435   0.1150624152  -0.2031948341
       -0.0003787303  -0.0011107618  -0.0010580753   0.0009842245  -0.0000089982
       -0.0000070527  -0.0000680528  -0.0001043097  -0.0000324383   0.0001707712
       -0.0002002562  -0.0002004774   0.0000455725   0.0000083762  -0.0000091386
        0.0000173496   0.0000017961  -0.0000084615   0.0000051982  -0.0000035735
       -0.0000039525   0.0000002374  -0.0000035228   0.0000036161   0.0000012040
        0.0000025089  -0.0000012256   0.0000007082   0.0000019344   0.0000013595
        0.0000007371   0.0000004661  -0.0000020400   0.0000008931   0.0000021279
        0.0000016818   0.0000005386  -0.0000016414   0.0000000484   0.0000019584
       -0.0000002398  -0.0000014593   0.0000011527  -0.0000016834   0.0000007702
        0.0000012918   0.0000020795   0.0000016603   0.0000017562  -0.0000001627
        0.0000031124   0.0000010886  -0.0000004234   0.0000000879   0.0000006956
        0.0000021265   0.0000048888   0.0000006100   0.0000051870  -0.0000095506
       -0.0000005686   0.0002373166  -0.0001621631  -0.0000162235   0.0001195511
       -0.0000307452  -0.0001571156  -0.0000013130  -0.0000089514   0.0000729217
        0.0010612590  -0.0009133237  -0.0010108270
        0.0144039634   0.0016111380  -0.0295998316   0.0520167190   0.0034802522
       -0.1239085014   0.0429050588   0.0035240199   0.4646584183   0.0043226592
        0.0048876029   0.0004791801  -0.0001556466  -0.0007265033   0.0002244280
        0.0001533067   0.0001083007   0.0000549114   0.0001435481  -0.0000802674
        0.0000507873   0.0001177386   0.0003980082  -0.0000053372  -0.0008417074
       -0.0007196750  -0.0006601363  -0.0001397496   0.0001127749  -0.0001972554
        0.0002289799   0.0000298828   0.0001300398  -0.0000406223  -0.0000477277
       -0.0000233535   0.0000463836   0.0000002863   0.0000290853   0.0000685165
        0.0000075851   0.0000362014  -0.0000656252  -0.0000036170  -0.0000150723
        0.0000180816  -0.0000393263  -0.0000058689  -0.0000124029  -0.0000018421
       -0.0000058884  -0.0000004497  -0.0000073420  -0.0000036369  -0.0000006874
        0.0000043617  -0.0000001655   0.0000012052  -0.0000076238   0.0000036721
       -0.0000058370   0.0000102043  -0.0000042594   0.0000001308   0.0000006435
       -0.0000046477  -0.0000062355   0.0000004420  -0.0000006460  -0.0000034981
        0.0000005272  -0.0000035119  -0.0000010897  -0.0000134889   0.0000064998
       -0.0000009241   0.0000096615  -0.0000001632   0.0000025843  -0.0000047302
        0.0000056579  -0.0000057306   0.0000023613  -0.0000043955  -0.0000137198
       -0.0000016765  -0.0000027415   0.0000174009   0.0000460572   0.0000137905
       -0.0000038263  -0.0000149608   0.0000043720  -0.0000553775  -0.0000179816
       -0.0000733636  -0.0000906155   0.0000384659   0.0001548276   0.0001523365
       -0.0000557487  -0.0001092818  -0.0000661144   0.0000722714  -0.0000101144
       -0.0008215347   0.0003754154  -0.0005785949   0.0001563807  -0.0003585120
        0.0000799534   0.0001344828   0.0000525941   0.0000533409   0.0001537370
       -0.0000540323   0.0001123274  -0.0001280488   0.0006228397   0.0001717077
        0.0063812683  -0.0051956910  -0.0014239202   0.0009582455  -0.0003689247
        0.0009698656   0.0009931616   0.0003094919   0.0009002737  -0.0019482190
        0.0002724369  -0.0057542506  -0.1045568588   0.0087502924  -0.2188554691
       -0.0133859074  -0.0168483484  -0.0441587148  -0.0014374003  -0.0000430407