 Entering Gaussian System
 *********************************************
 Gaussian 98:
 frequency output generated by the xtb code
 *********************************************
                         Standard orientation:
 --------------------------------------------------------------------
  Center     Atomic     Atomic              Coordinates (Angstroms)
  Number     Number      Type              X           Y           Z
 --------------------------------------------------------------------
    1          6             0        7.966200   -4.782050    0.252154
    2          6             0        6.580376   -4.801450    0.179748
    3          6             0        5.871629   -3.618922    0.116490
    4          6             0        6.543020   -2.394535    0.123461
    5          6             0        5.798980   -1.141095    0.056984
    6          7             0        6.504947    0.007715   -0.002733
    7          6             0        5.780635    1.144701   -0.062118
    8          6             0        6.504924    2.410028   -0.127077
    9          6             0        5.814675    3.623823   -0.121793
   10          6             0        6.505336    4.817170   -0.182836
   11          6             0        7.891467    4.819227   -0.251376
   12          6             0        8.584419    3.617896   -0.257617
   13          6             0        7.899213    2.420574   -0.195502
   14          7             0        4.471987    1.167691   -0.065773
   15          6             0        3.806412   -0.014217   -0.002657
   16          6             0        2.387864   -0.025190   -0.001986
   17          6             0        1.652093    1.179033   -0.068192
   18          6             0        0.281415    1.167764   -0.065286
   19          6             0       -0.411528   -0.045159    0.001305
   20          7             0       -1.836486   -0.051992    0.005181
   21          6             0       -2.501586    0.167607    1.192407
   22          6             0       -1.776658    0.356219    2.378979
   23          6             0       -2.427262    0.581871    3.571039
   24          6             0       -3.815277    0.622820    3.613737
   25          6             0       -4.538849    0.427982    2.452085
   26          6             0       -3.904264    0.197863    1.239851
   27          6             0       -4.738667   -0.009353    0.005610
   28          6             0       -5.758934   -1.116211    0.224972
   29          6             0       -5.522255   -2.448480    0.480473
   30          6             0       -6.612874   -3.292327    0.650213
   31          6             0       -7.908072   -2.804207    0.564938
   32          6             0       -8.148525   -1.463790    0.305719
   33          6             0       -7.065527   -0.616733    0.134794
   34          6             0       -6.998569    0.810344   -0.144415
   35          6             0       -7.997623    1.753222   -0.324449
   36          6             0       -7.633049    3.065316   -0.583456
   37          6             0       -6.297898    3.432059   -0.660039
   38          6             0       -5.290928    2.491777   -0.480724
   39          6             0       -5.651132    1.187623   -0.224588
   40          6             0       -3.911561   -0.282626   -1.220510
   41          6             0       -4.553688   -0.528982   -2.425547
   42          6             0       -3.837173   -0.768021   -3.583317
   43          6             0       -2.448529   -0.752562   -3.544752
   44          6             0       -1.790466   -0.510235   -2.360050
   45          6             0       -2.508371   -0.280440   -1.176499
   46          6             0        0.298721   -1.248274    0.066128
   47          6             0        1.669502   -1.239902    0.065489
   48          7             0        4.490846   -1.184804    0.060432
   49          6             0        7.937186   -2.383483    0.195564
   50          6             0        8.640501   -3.570133    0.259947
   51          1             0        8.518344   -5.708948    0.301626
   52          1             0        6.053578   -5.744757    0.172881
   53          1             0        4.793670   -3.617994    0.059500
   54          1             0        4.736701    3.606509   -0.067772
   55          1             0        5.964078    5.752267   -0.177326
   56          1             0        8.429381    5.754543   -0.298982
   57          1             0        9.663598    3.616925   -0.311179
   58          1             0        8.423667    1.477150   -0.200510
   59          1             0        2.199187    2.107454   -0.122650
   60          1             0       -0.276298    2.091855   -0.116795
   61          1             0       -0.699022    0.320438    2.349406
   62          1             0       -1.851225    0.725325    4.472514
   63          1             0       -4.326824    0.801267    4.546721
   64          1             0       -5.618065    0.452756    2.477569
   65          1             0       -4.514227   -2.831292    0.547610
   66          1             0       -6.448758   -4.340655    0.851852
   67          1             0       -8.740508   -3.479117    0.701558
   68          1             0       -9.158954   -1.089164    0.239111
   69          1             0       -9.038692    1.473152   -0.265613
   70          1             0       -8.399123    3.813466   -0.726773
   71          1             0       -6.036409    4.460349   -0.862152
   72          1             0       -4.251576    2.780267   -0.541549
   73          1             0       -5.633257   -0.531622   -2.448361
   74          1             0       -4.354630   -0.959969   -4.510332
   75          1             0       -1.877812   -0.929403   -4.443671
   76          1             0       -0.712280   -0.494395   -2.333942
   77          1             0       -0.245799   -2.180113    0.119712
   78          1             0        2.229796   -2.160507    0.118829
   79          1             0        8.447094   -1.432112    0.201694
   80          1             0        9.719383   -3.552666    0.316522
 --------------------------------------------------------------------
     1 basis functions        1 primitive gaussians
     1 alpha electrons        1 beta electrons
 
 Harmonic frequencies (cm**-1), IR intensities (km*mol⁻¹),
 Raman scattering activities (A**4/amu), Raman depolarization ratios,
 reduced masses (AMU), force constants (mDyne/A) and normal coordinates:
                      1                      2                      3
                        a                      a                      a 
 Frequencies --   -15.1446                10.3268                12.4237
 Red. masses --    11.1046                11.0193                11.1291
 Frc consts  --     0.0000                 0.0000                 0.0000
 IR Inten    --     0.3480                 1.4700                 0.1433
 Raman Activ --     0.0000                 0.0000                 0.0000
 Depolar     --     0.0000                 0.0000                 0.0000
 Atom AN      X      Y      Z        X      Y      Z        X      Y      Z
   1   6     0.05   0.06   0.09     0.01  -0.00  -0.27     0.07   0.04  -0.04
   2   6     0.05   0.04   0.07     0.01   0.00  -0.24     0.07   0.02  -0.01
   3   6     0.04   0.03   0.04     0.01   0.00  -0.17     0.05   0.01   0.01
   4   6     0.02   0.04   0.04     0.01   0.00  -0.13     0.03   0.02  -0.01
   5   6     0.01   0.02   0.02     0.01   0.01  -0.05     0.01   0.01   0.00
   6   7    -0.00   0.06   0.05     0.01   0.01  -0.02    -0.00   0.01  -0.05
   7   6    -0.02   0.02   0.01    -0.00   0.01   0.04    -0.02   0.01  -0.04
   8   6    -0.03   0.04   0.04    -0.01   0.01   0.09    -0.04   0.01  -0.10
   9   6    -0.04   0.03   0.03    -0.02   0.01   0.13    -0.05   0.01  -0.11
  10   6    -0.06   0.04   0.05    -0.03   0.02   0.17    -0.06   0.01  -0.17
  11   6    -0.06   0.06   0.08    -0.03   0.03   0.17    -0.07   0.03  -0.21
  12   6    -0.04   0.07   0.09    -0.02   0.03   0.13    -0.05   0.04  -0.20
  13   6    -0.03   0.06   0.07    -0.01   0.03   0.09    -0.04   0.03  -0.14
  14   7    -0.02   0.04  -0.05    -0.00  -0.00   0.07    -0.02  -0.01   0.03
  15   6    -0.00  -0.00  -0.07    -0.00   0.00   0.03    -0.00  -0.01   0.08
  16   6    -0.00  -0.03  -0.11     0.00  -0.00   0.05    -0.00  -0.02   0.13
  17   6    -0.02  -0.04  -0.12    -0.00  -0.00   0.10    -0.01  -0.03   0.13
  18   6    -0.02  -0.06  -0.13    -0.00  -0.01   0.10    -0.01  -0.04   0.14
  19   6    -0.00  -0.07  -0.12    -0.00  -0.01   0.06    -0.00  -0.05   0.16
  20   7    -0.00  -0.10  -0.09     0.00  -0.02   0.05    -0.00  -0.06   0.13
  21   6     0.04  -0.10  -0.06    -0.02   0.04   0.03    -0.04  -0.08   0.10
  22   6     0.08  -0.13  -0.08    -0.03   0.08   0.03    -0.08  -0.12   0.13
  23   6     0.12  -0.15  -0.06    -0.05   0.14   0.01    -0.12  -0.14   0.11
  24   6     0.12  -0.13  -0.01    -0.05   0.15  -0.01    -0.12  -0.13   0.06
  25   6     0.08  -0.10   0.01    -0.03   0.10  -0.01    -0.08  -0.09   0.03
  26   6     0.04  -0.09  -0.02    -0.02   0.04   0.01    -0.04  -0.07   0.05
  27   6     0.00  -0.05   0.00     0.00  -0.01   0.00    -0.00  -0.02   0.01
  28   6    -0.07   0.02   0.02    -0.02   0.02   0.05    -0.05   0.02  -0.06
  29   6    -0.15   0.00   0.02    -0.05   0.03   0.12    -0.10   0.00  -0.08
  30   6    -0.20   0.07   0.05    -0.06   0.05   0.15    -0.14   0.03  -0.15
  31   6    -0.17   0.16   0.07    -0.06   0.07   0.12    -0.12   0.08  -0.20
  32   6    -0.09   0.17   0.08    -0.03   0.06   0.05    -0.06   0.10  -0.17
  33   6    -0.04   0.10   0.05    -0.01   0.04   0.01    -0.03   0.06  -0.10
  34   6     0.05   0.10   0.05     0.02   0.02  -0.07     0.03   0.07  -0.07
  35   6     0.11   0.16   0.07     0.04   0.03  -0.14     0.08   0.11  -0.09
  36   6     0.19   0.14   0.07     0.06   0.00  -0.22     0.13   0.10  -0.04
  37   6     0.21   0.05   0.03     0.07  -0.03  -0.22     0.15   0.05   0.02
  38   6     0.15  -0.01   0.01     0.05  -0.03  -0.15     0.11   0.02   0.05
  39   6     0.07   0.01   0.02     0.02  -0.01  -0.08     0.05   0.02   0.00
  40   6    -0.04  -0.09  -0.02     0.02  -0.09   0.03     0.04  -0.01   0.04
  41   6    -0.08  -0.10   0.01     0.03  -0.16   0.04     0.08   0.01   0.01
  42   6    -0.12  -0.12  -0.01     0.05  -0.22   0.06     0.12   0.02   0.04
  43   6    -0.12  -0.12  -0.06     0.04  -0.21   0.07     0.12  -0.01   0.09
  44   6    -0.08  -0.11  -0.08     0.03  -0.14   0.07     0.08  -0.03   0.11
  45   6    -0.04  -0.09  -0.06     0.02  -0.08   0.05     0.04  -0.04   0.09
  46   6     0.02  -0.06  -0.13     0.01  -0.01   0.03     0.01  -0.04   0.17
  47   6     0.02  -0.04  -0.12     0.01  -0.01   0.02     0.01  -0.03   0.16
  48   7     0.02   0.04  -0.04     0.01  -0.00  -0.03     0.01  -0.01   0.07
  49   6     0.02   0.06   0.07     0.01  -0.00  -0.16     0.03   0.04  -0.04
  50   6     0.04   0.07   0.10     0.01  -0.00  -0.23     0.05   0.05  -0.06
  51   1     0.02   0.02   0.03     0.00  -0.00  -0.09     0.02   0.01  -0.01
  52   1     0.02   0.01   0.02     0.00   0.00  -0.08     0.02   0.00   0.00
  53   1     0.01   0.00   0.01     0.00   0.00  -0.04     0.01  -0.00   0.01
  54   1    -0.01   0.00   0.00    -0.01   0.00   0.04    -0.01  -0.00  -0.02
  55   1    -0.02   0.01   0.01    -0.01   0.00   0.06    -0.02   0.00  -0.05
  56   1    -0.02   0.02   0.03    -0.01   0.01   0.06    -0.02   0.01  -0.07
  57   1    -0.01   0.02   0.03    -0.01   0.01   0.04    -0.02   0.01  -0.07
  58   1    -0.00   0.02   0.02    -0.00   0.01   0.02    -0.01   0.01  -0.04
  59   1    -0.01  -0.01  -0.04    -0.00   0.00   0.03    -0.01  -0.01   0.03
  60   1    -0.01  -0.02  -0.04    -0.00  -0.00   0.04    -0.01  -0.01   0.04
  61   1     0.02  -0.04  -0.03    -0.01   0.02   0.01    -0.02  -0.04   0.05
  62   1     0.04  -0.05  -0.02    -0.02   0.05   0.00    -0.04  -0.05   0.04
  63   1     0.04  -0.04   0.00    -0.02   0.06  -0.01    -0.04  -0.04   0.01
  64   1     0.02  -0.03   0.01    -0.01   0.03  -0.01    -0.02  -0.02  -0.00
  65   1    -0.05  -0.02   0.00    -0.02   0.00   0.04    -0.03  -0.01  -0.01
  66   1    -0.08   0.02   0.01    -0.02   0.02   0.06    -0.05   0.01  -0.05
  67   1    -0.06   0.06   0.03    -0.02   0.03   0.04    -0.04   0.03  -0.07
  68   1    -0.02   0.07   0.03    -0.01   0.02   0.01    -0.01   0.04  -0.06
  69   1     0.03   0.07   0.03     0.01   0.01  -0.04     0.02   0.04  -0.04
  70   1     0.07   0.06   0.02     0.02   0.00  -0.08     0.05   0.04  -0.02
  71   1     0.08   0.01   0.01     0.03  -0.01  -0.08     0.06   0.01   0.02
  72   1     0.05  -0.02  -0.00     0.02  -0.02  -0.05     0.03  -0.01   0.03
  73   1    -0.02  -0.03   0.01     0.01  -0.05   0.01     0.02   0.01  -0.01
  74   1    -0.04  -0.04   0.00     0.02  -0.08   0.02     0.04   0.01   0.00
  75   1    -0.04  -0.04  -0.02     0.02  -0.07   0.03     0.04  -0.00   0.03
  76   1    -0.02  -0.03  -0.03     0.01  -0.04   0.02     0.02  -0.02   0.04
  77   1     0.01  -0.02  -0.04     0.00  -0.00   0.00     0.01  -0.01   0.05
  78   1     0.01  -0.01  -0.04     0.00  -0.00  -0.00     0.01  -0.01   0.05
  79   1     0.00   0.02   0.02     0.00  -0.00  -0.04     0.01   0.01  -0.02
  80   1     0.01   0.02   0.03     0.00  -0.00  -0.07     0.01   0.02  -0.02
                      4                      5                      6
                        a                      a                      a 
 Frequencies --    24.8617                41.6644                42.3190
 Red. masses --    11.1078                 9.9221                10.0514
 Frc consts  --     0.0000                 0.0000                 0.0000
 IR Inten    --     0.5340                 0.4091                 6.1477
 Raman Activ --     0.0000                 0.0000                 0.0000
 Depolar     --     0.0000                 0.0000                 0.0000
 Atom AN      X      Y      Z        X      Y      Z        X      Y      Z
   1   6     0.22   0.04   0.00     0.02   0.02   0.12     0.02   0.01  -0.10
   2   6     0.22  -0.03   0.01     0.02   0.01   0.15     0.04  -0.01  -0.40
   3   6     0.16  -0.06   0.01     0.01  -0.00   0.07     0.03  -0.01  -0.33
   4   6     0.10  -0.03   0.00     0.00   0.00  -0.02     0.00   0.00   0.04
   5   6     0.04  -0.06   0.00    -0.00  -0.00  -0.07    -0.00   0.00   0.06
   6   7     0.00  -0.04   0.00    -0.01  -0.01  -0.16    -0.00   0.00   0.11
   7   6    -0.04  -0.07   0.01    -0.00  -0.00  -0.08    -0.00   0.00   0.04
   8   6    -0.10  -0.03   0.01     0.00  -0.00  -0.05     0.00  -0.00   0.01
   9   6    -0.17  -0.07   0.02     0.03   0.01   0.39     0.01   0.00   0.01
  10   6    -0.23  -0.03   0.02     0.04   0.01   0.47     0.01  -0.00  -0.02
  11   6    -0.23   0.04   0.02     0.02  -0.01   0.12     0.01  -0.01  -0.05
  12   6    -0.17   0.08   0.02    -0.01  -0.02  -0.33     0.01  -0.02  -0.05
  13   6    -0.10   0.04   0.01    -0.02  -0.02  -0.41    -0.00  -0.01  -0.02
  14   7    -0.04  -0.13   0.01    -0.00  -0.00  -0.03    -0.00  -0.00  -0.01
  15   6     0.00  -0.15   0.01    -0.00  -0.00  -0.03    -0.00  -0.00   0.01
  16   6     0.00  -0.17   0.01    -0.00  -0.00  -0.02    -0.00  -0.00   0.00
  17   6     0.01  -0.16   0.01    -0.00  -0.00  -0.07    -0.00  -0.01  -0.14
  18   6     0.01  -0.15   0.00    -0.00  -0.00  -0.07    -0.00  -0.01  -0.15
  19   6     0.00  -0.14   0.00    -0.00   0.00  -0.00    -0.00  -0.00  -0.00
  20   7     0.00  -0.12   0.00    -0.00   0.00   0.00    -0.00  -0.00  -0.00
  21   6     0.01  -0.02  -0.01    -0.00   0.02  -0.00    -0.00   0.05  -0.01
  22   6     0.01  -0.06  -0.01    -0.01   0.05  -0.01    -0.00   0.13  -0.03
  23   6     0.02   0.04  -0.02    -0.01   0.06  -0.01    -0.00   0.16  -0.03
  24   6     0.02   0.17  -0.04    -0.01   0.04  -0.01    -0.01   0.11  -0.02
  25   6     0.02   0.20  -0.04    -0.01   0.01  -0.00    -0.01   0.04  -0.01
  26   6     0.01   0.10  -0.02    -0.00   0.01  -0.00    -0.00   0.02  -0.01
  27   6     0.00   0.10  -0.02    -0.00  -0.00  -0.00    -0.00  -0.00  -0.01
  28   6     0.03   0.08  -0.00    -0.01  -0.00  -0.01    -0.00  -0.00  -0.02
  29   6     0.07   0.08  -0.00    -0.01  -0.01  -0.03    -0.01  -0.01  -0.08
  30   6     0.10   0.06   0.02    -0.01  -0.01  -0.05    -0.01  -0.02  -0.13
  31   6     0.09   0.02   0.04    -0.01  -0.01  -0.06    -0.01  -0.02  -0.12
  32   6     0.05   0.01   0.03    -0.01  -0.00  -0.04    -0.01  -0.01  -0.07
  33   6     0.02   0.04   0.01    -0.00  -0.00  -0.02    -0.00  -0.00  -0.02
  34   6    -0.02   0.04   0.01    -0.00   0.00   0.00    -0.00   0.01   0.04
  35   6    -0.05   0.01   0.02    -0.00   0.01   0.02    -0.00   0.02   0.11
  36   6    -0.09   0.02   0.01    -0.00   0.01   0.04    -0.00   0.03   0.17
  37   6    -0.10   0.06  -0.01    -0.00   0.01   0.04    -0.00   0.03   0.15
  38   6    -0.07   0.09  -0.02    -0.00   0.00   0.02    -0.00   0.02   0.08
  39   6    -0.03   0.08  -0.01    -0.00   0.00   0.00    -0.00   0.00   0.02
  40   6    -0.01   0.10  -0.02    -0.00  -0.01   0.00    -0.00  -0.02  -0.00
  41   6    -0.01   0.20  -0.04    -0.00  -0.02   0.00    -0.00  -0.04   0.00
  42   6    -0.02   0.16  -0.04     0.00  -0.04   0.01    -0.00  -0.11   0.02
  43   6    -0.02   0.03  -0.02     0.00  -0.06   0.01    -0.00  -0.16   0.03
  44   6    -0.01  -0.07  -0.00    -0.00  -0.05   0.01    -0.00  -0.13   0.02
  45   6    -0.01  -0.03  -0.01    -0.00  -0.02   0.00    -0.00  -0.05   0.01
  46   6    -0.01  -0.15   0.00    -0.00   0.00   0.06    -0.00   0.01   0.14
  47   6    -0.01  -0.16   0.00    -0.00   0.00   0.05    -0.00   0.01   0.13
  48   7     0.05  -0.13   0.00    -0.00  -0.01  -0.02    -0.00  -0.00   0.03
  49   6     0.10   0.04  -0.00     0.00   0.01  -0.05    -0.01   0.02   0.34
  50   6     0.16   0.07  -0.00     0.01   0.02   0.02    -0.00   0.02   0.28
  51   1     0.08   0.02   0.00     0.01   0.01   0.05     0.01   0.00  -0.04
  52   1     0.08  -0.02   0.00     0.01   0.00   0.07     0.02  -0.00  -0.20
  53   1     0.05  -0.03   0.00     0.00  -0.00   0.03     0.01  -0.01  -0.16
  54   1    -0.05  -0.04   0.01     0.01   0.01   0.19     0.00   0.00   0.01
  55   1    -0.08  -0.02   0.01     0.02   0.01   0.24     0.01  -0.00  -0.01
  56   1    -0.08   0.02   0.01     0.01  -0.00   0.05     0.00  -0.00  -0.02
  57   1    -0.05   0.04   0.00    -0.01  -0.01  -0.18     0.00  -0.01  -0.02
  58   1    -0.02   0.02   0.00    -0.01  -0.01  -0.22    -0.00  -0.00  -0.01
  59   1     0.01  -0.05   0.00    -0.00  -0.00  -0.04    -0.00  -0.00  -0.07
  60   1     0.01  -0.04   0.00    -0.00  -0.00  -0.03    -0.00  -0.00  -0.07
  61   1     0.00  -0.05   0.00    -0.00   0.02  -0.00    -0.00   0.05  -0.01
  62   1     0.01   0.00  -0.01    -0.00   0.03  -0.00    -0.00   0.07  -0.01
  63   1     0.01   0.07  -0.01    -0.00   0.01  -0.00    -0.00   0.04  -0.01
  64   1     0.01   0.08  -0.01    -0.00  -0.00  -0.00    -0.00   0.00  -0.00
  65   1     0.02   0.03  -0.00    -0.00  -0.00  -0.01    -0.00  -0.00  -0.02
  66   1     0.04   0.02   0.01    -0.00  -0.00  -0.02    -0.00  -0.01  -0.05
  67   1     0.03  -0.00   0.02    -0.00  -0.00  -0.02    -0.00  -0.01  -0.05
  68   1     0.01  -0.00   0.01    -0.00  -0.00  -0.01    -0.00  -0.00  -0.02
  69   1    -0.01  -0.00   0.01    -0.00   0.00   0.01    -0.00   0.01   0.04
  70   1    -0.03   0.00   0.01    -0.00   0.00   0.02    -0.00   0.01   0.07
  71   1    -0.04   0.02  -0.00     0.00   0.00   0.02    -0.00   0.01   0.06
  72   1    -0.02   0.03  -0.01    -0.00   0.00   0.01    -0.00   0.00   0.02
  73   1    -0.00   0.09  -0.02    -0.00  -0.00  -0.00    -0.00  -0.00  -0.00
  74   1    -0.01   0.07  -0.01     0.00  -0.02   0.00    -0.00  -0.04   0.01
  75   1    -0.01  -0.00  -0.00     0.00  -0.03   0.01     0.00  -0.07   0.01
  76   1    -0.00  -0.05   0.00    -0.00  -0.02   0.00    -0.00  -0.05   0.01
  77   1    -0.00  -0.04   0.00    -0.00   0.00   0.03    -0.00   0.00   0.07
  78   1    -0.00  -0.05   0.00    -0.00   0.00   0.03    -0.00   0.00   0.07
  79   1     0.02   0.02  -0.00    -0.00   0.00  -0.04    -0.01   0.01   0.18
  80   1     0.05   0.04  -0.00     0.00   0.01  -0.00    -0.00   0.01   0.15
                      7                      8                      9
                        a                      a                      a 
 Frequencies --    42.6828                43.6805                51.5039
 Red. masses --    10.2735                10.9577                10.4838
 Frc consts  --     0.0000                 0.0000                 0.0000
 IR Inten    --     1.7301                 4.0690                 1.7392
 Raman Activ --     0.0000                 0.0000                 0.0000
 Depolar     --     0.0000                 0.0000                 0.0000
 Atom AN      X      Y      Z        X      Y      Z        X      Y      Z
   1   6    -0.02  -0.01   0.00     0.02   0.01   0.16    -0.09  -0.03  -0.18
   2   6    -0.03  -0.00   0.22     0.03  -0.01  -0.01    -0.10   0.02  -0.06
   3   6    -0.02   0.00   0.20     0.02  -0.02  -0.12    -0.07   0.04   0.06
   4   6     0.00  -0.01  -0.03     0.01  -0.01  -0.07    -0.03   0.02   0.07
   5   6     0.00  -0.00  -0.04     0.00  -0.02  -0.14    -0.00   0.04   0.14
   6   7     0.01  -0.01  -0.07    -0.00  -0.01  -0.15     0.01   0.04   0.14
   7   6     0.00  -0.01  -0.06    -0.00  -0.02  -0.14     0.01   0.03   0.08
   8   6    -0.00   0.00  -0.01    -0.01  -0.01  -0.07     0.01   0.03   0.04
   9   6    -0.02  -0.01  -0.12    -0.01  -0.01  -0.06     0.02   0.03   0.06
  10   6    -0.03   0.00  -0.05    -0.02  -0.01   0.05     0.03   0.03   0.01
  11   6    -0.02   0.02   0.13    -0.01   0.00   0.15     0.02   0.02  -0.05
  12   6    -0.01   0.03   0.24    -0.00   0.01   0.14     0.02   0.01  -0.06
  13   6     0.00   0.02   0.17    -0.00   0.00   0.03     0.01   0.02  -0.01
  14   7     0.01  -0.01  -0.09    -0.00  -0.02  -0.19     0.01   0.05   0.04
  15   6     0.00  -0.01  -0.05    -0.00  -0.02  -0.18    -0.00   0.04   0.09
  16   6     0.00  -0.00  -0.03    -0.00  -0.02  -0.13     0.00   0.02   0.03
  17   6     0.00  -0.01  -0.16     0.01  -0.01  -0.08    -0.03  -0.02  -0.27
  18   6     0.00  -0.01  -0.15     0.01   0.00   0.00    -0.03  -0.06  -0.31
  19   6     0.00   0.00   0.00    -0.00   0.01   0.04     0.01  -0.06  -0.04
  20   7     0.00   0.00   0.01    -0.00   0.02   0.08     0.00  -0.09  -0.02
  21   6     0.01   0.06   0.00     0.02   0.01   0.09     0.04  -0.08   0.00
  22   6     0.01   0.16  -0.02     0.05  -0.00   0.08     0.08  -0.16  -0.01
  23   6     0.01   0.20  -0.02     0.07  -0.01   0.09     0.11  -0.17   0.01
  24   6     0.01   0.13  -0.01     0.07  -0.01   0.12     0.12  -0.08   0.04
  25   6     0.01   0.04   0.01     0.05   0.00   0.13     0.08   0.01   0.05
  26   6     0.01   0.02   0.01     0.02   0.01   0.12     0.04   0.00   0.03
  27   6     0.00   0.00   0.02    -0.00   0.02   0.14     0.01   0.05   0.04
  28   6     0.00  -0.01  -0.02    -0.00   0.01   0.09     0.02   0.03   0.04
  29   6    -0.00  -0.02  -0.09    -0.01   0.02   0.16     0.04   0.05   0.10
  30   6    -0.00  -0.04  -0.19    -0.01   0.00   0.02     0.05   0.03   0.09
  31   6    -0.00  -0.04  -0.22    -0.01  -0.03  -0.17     0.04   0.00   0.01
  32   6     0.00  -0.03  -0.15    -0.01  -0.04  -0.23     0.03  -0.02  -0.06
  33   6     0.00  -0.01  -0.05    -0.00  -0.02  -0.09     0.02   0.00  -0.04
  34   6     0.00   0.00   0.02     0.00  -0.02  -0.11    -0.00  -0.00  -0.07
  35   6     0.01   0.02   0.08     0.00  -0.05  -0.28    -0.01  -0.04  -0.18
  36   6     0.01   0.04   0.18     0.01  -0.05  -0.25    -0.03  -0.03  -0.19
  37   6     0.01   0.04   0.20     0.01  -0.01  -0.04    -0.03   0.00  -0.08
  38   6     0.01   0.02   0.13     0.01   0.02   0.12    -0.02   0.04   0.03
  39   6     0.00   0.01   0.04     0.00   0.01   0.08    -0.01   0.03   0.03
  40   6     0.00  -0.02   0.02    -0.02   0.02   0.12    -0.03   0.05   0.01
  41   6     0.00  -0.05   0.02    -0.05   0.03   0.13    -0.06   0.13   0.02
  42   6    -0.00  -0.13   0.04    -0.07   0.05   0.11    -0.09   0.12  -0.00
  43   6    -0.00  -0.19   0.05    -0.07   0.06   0.08    -0.09   0.00  -0.01
  44   6    -0.00  -0.15   0.04    -0.05   0.05   0.07    -0.06  -0.08  -0.02
  45   6     0.00  -0.05   0.02    -0.02   0.03   0.09    -0.03  -0.03  -0.01
  46   6     0.00   0.01   0.13    -0.01   0.00  -0.02     0.03  -0.03   0.24
  47   6     0.00   0.00   0.11    -0.01  -0.01  -0.10     0.03   0.01   0.27
  48   7     0.01  -0.00  -0.01     0.00  -0.02  -0.20     0.00   0.06   0.17
  49   6     0.01  -0.02  -0.25    -0.00   0.01   0.10    -0.02  -0.03  -0.03
  50   6     0.00  -0.02  -0.24     0.00   0.02   0.21    -0.05  -0.05  -0.16
  51   1    -0.01  -0.00   0.01     0.01   0.01   0.07    -0.03  -0.02  -0.08
  52   1    -0.01   0.00   0.12     0.01  -0.00  -0.02    -0.04   0.01  -0.02
  53   1    -0.01   0.00   0.11     0.01  -0.01  -0.07    -0.02   0.02   0.04
  54   1    -0.01  -0.01  -0.08    -0.01  -0.01  -0.04     0.01   0.01   0.03
  55   1    -0.01  -0.00  -0.04    -0.01  -0.00   0.02     0.01   0.01   0.01
  56   1    -0.01   0.01   0.05    -0.00   0.00   0.07     0.01   0.00  -0.02
  57   1     0.00   0.01   0.11    -0.00   0.01   0.06     0.00   0.00  -0.03
  58   1     0.01   0.01   0.07     0.00   0.00   0.01     0.00   0.00  -0.01
  59   1     0.00  -0.01  -0.08     0.00  -0.00  -0.03    -0.02  -0.00  -0.13
  60   1     0.00  -0.00  -0.07     0.00   0.00   0.01    -0.02  -0.02  -0.16
  61   1     0.00   0.06  -0.01     0.01  -0.00   0.02     0.02  -0.06  -0.01
  62   1     0.00   0.08  -0.01     0.03  -0.01   0.02     0.04  -0.07   0.00
  63   1     0.00   0.04  -0.00     0.03  -0.00   0.04     0.04  -0.02   0.02
  64   1     0.00   0.00   0.00     0.01   0.00   0.04     0.02   0.02   0.02
  65   1    -0.00  -0.00  -0.02    -0.00   0.01   0.09     0.01   0.02   0.05
  66   1    -0.00  -0.01  -0.07    -0.00   0.00   0.02     0.02   0.01   0.04
  67   1    -0.00  -0.02  -0.09    -0.00  -0.01  -0.08     0.02  -0.00  -0.00
  68   1     0.00  -0.01  -0.05    -0.00  -0.02  -0.11     0.01  -0.01  -0.03
  69   1     0.00   0.00   0.02     0.00  -0.02  -0.13    -0.00  -0.02  -0.08
  70   1     0.00   0.01   0.07     0.00  -0.02  -0.11    -0.01  -0.02  -0.08
  71   1     0.00   0.02   0.08     0.00  -0.00  -0.00    -0.01   0.00  -0.02
  72   1     0.00   0.01   0.04     0.00   0.01   0.08    -0.01   0.02   0.03
  73   1     0.00  -0.00   0.01    -0.01   0.01   0.04    -0.02   0.06   0.01
  74   1    -0.00  -0.04   0.01    -0.03   0.01   0.04    -0.03   0.05  -0.00
  75   1    -0.00  -0.08   0.02    -0.03   0.02   0.02    -0.03  -0.01  -0.01
  76   1     0.00  -0.06   0.01    -0.01   0.02   0.01    -0.02  -0.05  -0.01
  77   1     0.00   0.00   0.07    -0.00   0.00   0.00     0.02  -0.01   0.13
  78   1     0.00   0.00   0.06    -0.00  -0.00  -0.04     0.02   0.01   0.14
  79   1     0.01  -0.01  -0.13    -0.00   0.00   0.04     0.00  -0.01  -0.01
  80   1     0.00  -0.01  -0.12    -0.00   0.01   0.10    -0.01  -0.03  -0.07
                     10                     11                     12
                        a                      a                      a 
 Frequencies --    51.6408                53.4295                53.7832
 Red. masses --    10.6613                10.7650                10.7745
 Frc consts  --     0.0000                 0.0000                 0.0000
 IR Inten    --     4.9632                 1.4453                 9.1589
 Raman Activ --     0.0000                 0.0000                 0.0000
 Depolar     --     0.0000                 0.0000                 0.0000
 Atom AN      X      Y      Z        X      Y      Z        X      Y      Z
   1   6     0.01  -0.00  -0.10     0.16   0.01  -0.09    -0.28  -0.18   0.04
   2   6     0.00   0.00  -0.00     0.16  -0.05  -0.02    -0.28  -0.06  -0.01
   3   6     0.00   0.00   0.07     0.10  -0.08   0.05    -0.16   0.01  -0.04
   4   6     0.00   0.00   0.06     0.05  -0.05   0.05    -0.05  -0.05  -0.01
   5   6     0.00   0.00   0.12     0.01  -0.07   0.08     0.03  -0.00  -0.01
   6   7    -0.00   0.01   0.19    -0.00  -0.07   0.09     0.05  -0.01  -0.01
   7   6    -0.00   0.01   0.17    -0.01  -0.07   0.05     0.03  -0.01   0.00
   8   6     0.00   0.00   0.09    -0.04  -0.06   0.03    -0.05   0.03   0.00
   9   6     0.01   0.01   0.09    -0.08  -0.08   0.03    -0.17  -0.03   0.03
  10   6     0.01  -0.00  -0.06    -0.12  -0.06  -0.00    -0.30   0.04   0.02
  11   6     0.00  -0.01  -0.20    -0.12  -0.01  -0.04    -0.31   0.18  -0.03
  12   6    -0.01  -0.02  -0.19    -0.08   0.01  -0.04    -0.19   0.25  -0.06
  13   6    -0.00  -0.01  -0.04    -0.04  -0.01  -0.00    -0.06   0.17  -0.04
  14   7    -0.00   0.02   0.20    -0.01  -0.09   0.04     0.03  -0.02   0.01
  15   6     0.00   0.00   0.12    -0.00  -0.09   0.05     0.02  -0.01  -0.00
  16   6     0.00  -0.00   0.04    -0.00  -0.04   0.01     0.03  -0.00  -0.00
  17   6     0.00   0.01   0.22     0.07  -0.00  -0.12     0.04   0.01   0.02
  18   6     0.00   0.01   0.17     0.07   0.09  -0.15     0.05   0.02   0.03
  19   6    -0.00  -0.01  -0.08    -0.00   0.14  -0.05     0.05   0.02   0.00
  20   7     0.00   0.00  -0.05    -0.01   0.22  -0.05     0.05   0.03  -0.00
  21   6     0.05   0.03  -0.02     0.00   0.13  -0.03     0.06   0.02  -0.00
  22   6     0.09   0.05  -0.05     0.02   0.25  -0.05     0.06   0.04  -0.00
  23   6     0.14   0.09  -0.04     0.03   0.16  -0.03     0.06   0.04  -0.00
  24   6     0.14   0.11   0.02     0.02  -0.07   0.02     0.05   0.01  -0.00
  25   6     0.09   0.07   0.05     0.01  -0.17   0.05     0.05  -0.01   0.00
  26   6     0.05   0.04   0.03     0.00  -0.06   0.02     0.06  -0.01   0.00
  27   6     0.00   0.02   0.07    -0.01  -0.09   0.03     0.06  -0.01  -0.00
  28   6     0.00   0.01   0.05    -0.04  -0.06   0.03     0.06  -0.01  -0.00
  29   6     0.00   0.01   0.06    -0.08  -0.06   0.05     0.06  -0.01  -0.01
  30   6     0.00  -0.01  -0.08    -0.10  -0.03   0.04     0.06  -0.01  -0.01
  31   6     0.00  -0.04  -0.22    -0.09  -0.00   0.02     0.06  -0.01  -0.00
  32   6     0.00  -0.04  -0.22    -0.05   0.00  -0.00     0.07  -0.01   0.00
  33   6     0.00  -0.02  -0.08    -0.02  -0.03   0.00     0.07  -0.01   0.00
  34   6    -0.00  -0.01  -0.05     0.01  -0.03  -0.01     0.07  -0.01   0.01
  35   6    -0.00  -0.02  -0.10     0.04  -0.01  -0.05     0.08   0.00   0.02
  36   6    -0.01  -0.01  -0.02     0.08  -0.03  -0.06     0.08   0.00   0.02
  37   6    -0.01   0.02   0.10     0.09  -0.06  -0.03     0.09  -0.01   0.01
  38   6    -0.00   0.03   0.14     0.06  -0.08   0.01     0.08  -0.01   0.00
  39   6    -0.00   0.02   0.06     0.02  -0.06   0.02     0.07  -0.01   0.00
  40   6    -0.05  -0.01   0.04    -0.02  -0.04   0.02     0.06  -0.01  -0.00
  41   6    -0.10  -0.04   0.08    -0.02  -0.12   0.04     0.07  -0.02  -0.00
  42   6    -0.15  -0.09   0.06    -0.02   0.02   0.01     0.07  -0.01  -0.00
  43   6    -0.15  -0.10  -0.00    -0.02   0.25  -0.05     0.07   0.03  -0.00
  44   6    -0.10  -0.06  -0.04    -0.02   0.30  -0.06     0.07   0.04  -0.00
  45   6    -0.05  -0.03  -0.01    -0.01   0.16  -0.03     0.06   0.02  -0.00
  46   6    -0.00  -0.02  -0.28    -0.08   0.10   0.07     0.03   0.01  -0.02
  47   6    -0.00  -0.01  -0.22    -0.08   0.01   0.10     0.03  -0.00  -0.02
  48   7     0.00   0.01   0.08     0.00  -0.09   0.09     0.03   0.00  -0.02
  49   6     0.01   0.00  -0.02     0.05   0.01  -0.02    -0.05  -0.18   0.05
  50   6     0.01  -0.00  -0.11     0.11   0.04  -0.09    -0.17  -0.24   0.07
  51   1     0.00  -0.00  -0.05     0.06   0.01  -0.04    -0.11  -0.07   0.02
  52   1     0.00   0.00   0.00     0.06  -0.02  -0.01    -0.11  -0.00  -0.01
  53   1    -0.00   0.00   0.04     0.03  -0.04   0.03    -0.05   0.03  -0.02
  54   1     0.00   0.00   0.06    -0.02  -0.03   0.02    -0.05  -0.04   0.02
  55   1     0.00   0.00  -0.02    -0.04  -0.02  -0.00    -0.12  -0.00   0.01
  56   1    -0.00  -0.01  -0.09    -0.04   0.00  -0.02    -0.12   0.07  -0.01
  57   1    -0.00  -0.01  -0.09    -0.02   0.01  -0.02    -0.05   0.10  -0.03
  58   1    -0.00  -0.00  -0.01    -0.00   0.00  -0.00     0.01   0.07  -0.02
  59   1     0.00   0.01   0.12     0.04  -0.01  -0.06     0.02   0.00   0.01
  60   1     0.00   0.00   0.09     0.04   0.04  -0.07     0.01   0.01   0.01
  61   1     0.03   0.01  -0.02     0.01   0.12  -0.03     0.02   0.02  -0.00
  62   1     0.05   0.03  -0.02     0.01   0.08  -0.02     0.02   0.02  -0.00
  63   1     0.05   0.04   0.01     0.01  -0.05   0.01     0.02   0.00  -0.00
  64   1     0.03   0.02   0.03     0.00  -0.09   0.02     0.02  -0.01   0.00
  65   1     0.00   0.01   0.05    -0.03  -0.03   0.02     0.02  -0.00  -0.00
  66   1     0.00  -0.00  -0.02    -0.04  -0.01   0.02     0.02  -0.00  -0.00
  67   1     0.00  -0.02  -0.10    -0.03   0.01   0.00     0.02  -0.00  -0.00
  68   1    -0.00  -0.02  -0.10    -0.01   0.01  -0.01     0.02  -0.00   0.00
  69   1    -0.00  -0.01  -0.06     0.01   0.00  -0.02     0.02   0.00   0.01
  70   1    -0.00  -0.00  -0.02     0.03  -0.00  -0.03     0.03   0.00   0.01
  71   1    -0.00   0.01   0.05     0.03  -0.02  -0.01     0.03  -0.00   0.00
  72   1    -0.00   0.02   0.07     0.02  -0.03   0.01     0.02  -0.01   0.00
  73   1    -0.03  -0.01   0.03    -0.01  -0.08   0.02     0.02  -0.01  -0.00
  74   1    -0.05  -0.04   0.02    -0.01  -0.01   0.01     0.02  -0.00  -0.00
  75   1    -0.05  -0.04  -0.01    -0.01   0.11  -0.02     0.02   0.01  -0.00
  76   1    -0.03  -0.01  -0.03    -0.01   0.13  -0.03     0.02   0.02  -0.00
  77   1    -0.00  -0.01  -0.14    -0.04   0.04   0.04     0.01   0.00  -0.01
  78   1    -0.00  -0.01  -0.11    -0.04  -0.01   0.06     0.01  -0.00  -0.01
  79   1     0.00  -0.00  -0.01     0.00   0.01  -0.01     0.01  -0.06   0.02
  80   1     0.00  -0.00  -0.05     0.03   0.03  -0.04    -0.05  -0.10   0.03
                     13                     14                     15
                        a                      a                      a 
 Frequencies --    73.5070                87.7181                95.3281
 Red. masses --    10.8372                10.2679                11.9561
 Frc consts  --     0.0000                 0.0000                 0.0000
 IR Inten    --     0.1687                 1.9393                 1.0580
 Raman Activ --     0.0000                 0.0000                 0.0000
 Depolar     --     0.0000                 0.0000                 0.0000
 Atom AN      X      Y      Z        X      Y      Z        X      Y      Z
   1   6    -0.07   0.01  -0.00     0.00   0.00   0.01     0.01  -0.00  -0.11
   2   6    -0.07   0.04  -0.00     0.00  -0.00  -0.00    -0.00  -0.00   0.01
   3   6    -0.04   0.05  -0.00     0.00  -0.00  -0.02    -0.01   0.00   0.12
   4   6    -0.01   0.04  -0.00     0.00  -0.00  -0.02    -0.01   0.00   0.11
   5   6     0.00   0.04  -0.00     0.00  -0.00  -0.02    -0.00  -0.00   0.12
   6   7    -0.01   0.05   0.01     0.00  -0.00  -0.05    -0.00   0.02   0.45
   7   6    -0.01   0.04   0.00     0.00  -0.00  -0.01    -0.00   0.00   0.13
   8   6     0.01   0.03  -0.00     0.00  -0.00  -0.01     0.00   0.00   0.12
   9   6     0.04   0.05  -0.00     0.00  -0.00  -0.01     0.00   0.00   0.12
  10   6     0.08   0.03  -0.00    -0.00   0.00   0.00     0.00  -0.00   0.01
  11   6     0.08  -0.00  -0.00     0.00   0.00   0.01    -0.01  -0.01  -0.12
  12   6     0.04  -0.02  -0.00     0.00   0.00   0.01    -0.01  -0.01  -0.10
  13   6     0.01  -0.00  -0.00     0.00   0.00  -0.00    -0.00  -0.00   0.03
  14   7    -0.02   0.05  -0.00     0.00   0.00   0.02    -0.00  -0.01  -0.21
  15   6    -0.01   0.03  -0.01     0.00   0.00   0.02    -0.00  -0.02  -0.27
  16   6    -0.00  -0.02  -0.00     0.00   0.00   0.03    -0.00  -0.02  -0.32
  17   6    -0.07  -0.06   0.01     0.00   0.00   0.03    -0.00  -0.02  -0.26
  18   6    -0.06  -0.13   0.02     0.00  -0.00   0.01    -0.00  -0.01  -0.06
  19   6    -0.00  -0.17   0.03     0.00  -0.00  -0.02    -0.00  -0.00   0.07
  20   7    -0.00  -0.24   0.04    -0.00  -0.00  -0.05     0.00  -0.01   0.11
  21   6     0.00  -0.10   0.02    -0.02  -0.01  -0.05    -0.04  -0.00   0.08
  22   6     0.00   0.07  -0.01    -0.05   0.00  -0.04    -0.08  -0.01   0.11
  23   6     0.01   0.30  -0.05    -0.08  -0.00  -0.06    -0.13  -0.00   0.08
  24   6     0.01   0.32  -0.06    -0.08  -0.02  -0.08    -0.13   0.02   0.03
  25   6     0.00   0.11  -0.02    -0.05  -0.03  -0.09    -0.09   0.02  -0.00
  26   6     0.00  -0.08   0.02    -0.02  -0.02  -0.08    -0.04   0.01   0.03
  27   6    -0.00  -0.14   0.03    -0.00  -0.02  -0.09     0.00   0.01  -0.00
  28   6    -0.04  -0.11   0.02    -0.00  -0.01  -0.07     0.00   0.00  -0.01
  29   6    -0.10  -0.12   0.03    -0.00   0.04   0.24     0.01   0.01   0.01
  30   6    -0.13  -0.08   0.02    -0.01   0.08   0.41     0.01   0.01   0.03
  31   6    -0.11  -0.03   0.00    -0.01   0.04   0.21     0.01   0.00   0.03
  32   6    -0.06  -0.02  -0.00    -0.00  -0.02  -0.13     0.00  -0.00  -0.00
  33   6    -0.02  -0.06   0.01    -0.00  -0.04  -0.23     0.00  -0.00  -0.02
  34   6     0.03  -0.07   0.01    -0.00  -0.05  -0.24     0.00  -0.00  -0.02
  35   6     0.07  -0.02   0.00     0.00  -0.03  -0.18    -0.00   0.00   0.00
  36   6     0.13  -0.04   0.01     0.00   0.03   0.16    -0.00   0.01   0.03
  37   6     0.14  -0.09   0.02     0.00   0.08   0.40    -0.00   0.01   0.03
  38   6     0.10  -0.13   0.03     0.00   0.05   0.27    -0.00   0.01   0.01
  39   6     0.04  -0.11   0.02     0.00  -0.01  -0.06     0.00   0.00  -0.02
  40   6    -0.00  -0.08   0.01     0.02  -0.01  -0.08     0.04   0.00   0.03
  41   6    -0.00   0.12  -0.03     0.05  -0.02  -0.10     0.09   0.00   0.00
  42   6    -0.00   0.33  -0.07     0.08  -0.02  -0.08     0.13  -0.00   0.03
  43   6    -0.00   0.29  -0.06     0.07  -0.01  -0.05     0.13   0.00   0.08
  44   6    -0.00   0.05  -0.01     0.05  -0.01  -0.04     0.08   0.01   0.10
  45   6    -0.00  -0.10   0.02     0.02  -0.01  -0.06     0.04   0.00   0.08
  46   6     0.06  -0.13   0.01     0.00  -0.00  -0.00     0.00  -0.01  -0.08
  47   6     0.06  -0.06  -0.00     0.00   0.00   0.02     0.00  -0.02  -0.27
  48   7     0.01   0.05  -0.01     0.00   0.00   0.01    -0.01  -0.01  -0.22
  49   6    -0.01   0.01  -0.00     0.00  -0.00  -0.01    -0.00  -0.00   0.03
  50   6    -0.04  -0.01  -0.00     0.00   0.00   0.01     0.00  -0.00  -0.10
  51   1    -0.03  -0.00  -0.00    -0.00   0.00   0.01     0.00  -0.00  -0.06
  52   1    -0.03   0.01  -0.00     0.00  -0.00  -0.00    -0.00  -0.00   0.01
  53   1    -0.01   0.02  -0.00     0.00  -0.00  -0.01    -0.00   0.00   0.06
  54   1     0.01   0.02  -0.00    -0.00  -0.00  -0.01     0.00   0.00   0.06
  55   1     0.03   0.01  -0.00    -0.00  -0.00   0.00     0.00   0.00   0.00
  56   1     0.03  -0.01  -0.00     0.00   0.00   0.01    -0.00  -0.00  -0.07
  57   1     0.01  -0.02  -0.00     0.00   0.00   0.01    -0.00  -0.00  -0.05
  58   1    -0.01  -0.01   0.00     0.00   0.00  -0.00    -0.00  -0.00   0.01
  59   1    -0.03  -0.01   0.00     0.00   0.00   0.01    -0.00  -0.01  -0.10
  60   1    -0.03  -0.05   0.01     0.00  -0.00  -0.00    -0.00  -0.00   0.00
  61   1     0.00   0.01  -0.00    -0.01   0.01  -0.01    -0.02  -0.01   0.04
  62   1     0.00   0.14  -0.02    -0.03   0.00  -0.01    -0.05  -0.00   0.03
  63   1     0.00   0.15  -0.03    -0.03  -0.01  -0.03    -0.05   0.01   0.00
  64   1     0.00   0.04  -0.01    -0.01  -0.01  -0.03    -0.03   0.01  -0.01
  65   1    -0.03  -0.05   0.01    -0.00   0.02   0.12     0.00   0.00   0.00
  66   1    -0.05  -0.02   0.01    -0.00   0.04   0.20     0.00   0.00   0.02
  67   1    -0.04   0.00  -0.00    -0.00   0.02   0.10     0.00   0.00   0.01
  68   1    -0.01   0.01  -0.00    -0.00  -0.01  -0.08     0.00  -0.00  -0.00
  69   1     0.02   0.01  -0.00    -0.00  -0.02  -0.10    -0.00  -0.00   0.00
  70   1     0.05  -0.00  -0.00     0.00   0.01   0.07    -0.00   0.00   0.01
  71   1     0.05  -0.03   0.01     0.00   0.04   0.21    -0.00   0.00   0.02
  72   1     0.03  -0.05   0.01     0.00   0.03   0.13    -0.00   0.00   0.00
  73   1    -0.00   0.04  -0.01     0.01  -0.01  -0.04     0.03   0.00  -0.01
  74   1    -0.00   0.15  -0.03     0.03  -0.01  -0.03     0.05  -0.00   0.00
  75   1    -0.00   0.13  -0.03     0.03  -0.00  -0.01     0.05   0.00   0.03
  76   1    -0.00   0.01  -0.00     0.01  -0.00  -0.00     0.02   0.00   0.04
  77   1     0.03  -0.05   0.00     0.00  -0.00  -0.00     0.00  -0.00  -0.01
  78   1     0.03  -0.01  -0.00     0.00   0.00   0.01     0.00  -0.01  -0.11
  79   1     0.00  -0.00  -0.00     0.00  -0.00  -0.00     0.00  -0.00   0.01
  80   1    -0.01  -0.01  -0.00    -0.00   0.00   0.01     0.00  -0.00  -0.06
                     16                     17                     18
                        a                      a                      a 
 Frequencies --   106.0567               109.8822               110.3438
 Red. masses --    10.2935                10.9320                11.3802
 Frc consts  --     0.0000                 0.0000                 0.0000
 IR Inten    --     0.7137                 6.5656                 0.8618
 Raman Activ --     0.0000                 0.0000                 0.0000
 Depolar     --     0.0000                 0.0000                 0.0000
 Atom AN      X      Y      Z        X      Y      Z        X      Y      Z
   1   6     0.00  -0.04   0.11     0.00   0.08  -0.16     0.00   0.10   0.19
   2   6     0.00  -0.01   0.04    -0.00   0.02  -0.05     0.01   0.02   0.07
   3   6     0.04   0.00  -0.07    -0.06  -0.00   0.12    -0.05  -0.02  -0.14
   4   6     0.06  -0.01  -0.11    -0.10   0.02   0.17    -0.11   0.01  -0.22
   5   6     0.07   0.00  -0.09    -0.12   0.00   0.14    -0.13  -0.02  -0.18
   6   7     0.10  -0.00   0.01    -0.14  -0.01   0.00    -0.15  -0.00  -0.01
   7   6     0.08   0.00   0.10    -0.12  -0.00  -0.13    -0.13   0.01   0.18
   8   6     0.06   0.01   0.12    -0.10  -0.03  -0.17    -0.11  -0.01   0.22
   9   6     0.04   0.00   0.08    -0.06  -0.00  -0.12    -0.05   0.02   0.14
  10   6     0.00   0.01  -0.04    -0.01  -0.03   0.05     0.01  -0.02  -0.07
  11   6    -0.00   0.05  -0.12    -0.00  -0.07   0.16     0.00  -0.10  -0.19
  12   6     0.03   0.06  -0.04    -0.05  -0.10   0.05    -0.05  -0.13  -0.04
  13   6     0.06   0.05   0.08    -0.10  -0.08  -0.12    -0.11  -0.09   0.16
  14   7     0.08  -0.01   0.12    -0.12  -0.01  -0.18    -0.14   0.02   0.24
  15   6     0.06   0.00  -0.01    -0.09   0.00  -0.00    -0.11  -0.00   0.01
  16   6     0.05   0.00  -0.01    -0.08   0.00  -0.00    -0.10   0.00   0.00
  17   6     0.04  -0.00   0.01    -0.06   0.02   0.08    -0.07   0.01  -0.06
  18   6     0.03  -0.00   0.00    -0.05   0.03   0.09    -0.06   0.01  -0.08
  19   6     0.01   0.00  -0.00    -0.02   0.01  -0.00    -0.03   0.01  -0.00
  20   7     0.01   0.00   0.00    -0.01   0.01  -0.00    -0.01   0.01  -0.00
  21   6    -0.01   0.08  -0.02     0.02   0.06   0.00     0.02   0.00   0.01
  22   6    -0.02   0.28  -0.04     0.04   0.18  -0.02     0.04   0.00  -0.00
  23   6    -0.03   0.15  -0.02     0.03   0.10  -0.01     0.05  -0.00   0.00
  24   6    -0.04  -0.21   0.04     0.03  -0.13   0.03     0.05  -0.00   0.01
  25   6    -0.03  -0.29   0.04     0.02  -0.17   0.04     0.03   0.00   0.02
  26   6    -0.02  -0.09   0.01     0.03  -0.04   0.02     0.03   0.01   0.01
  27   6    -0.04  -0.00   0.00     0.06   0.00  -0.00     0.06   0.00  -0.00
  28   6    -0.05  -0.01  -0.05     0.08  -0.00  -0.03     0.08   0.00  -0.00
  29   6    -0.07  -0.02  -0.08     0.11   0.00  -0.05     0.12   0.01   0.00
  30   6    -0.08   0.00  -0.01     0.13  -0.01   0.00     0.14  -0.01   0.00
  31   6    -0.08   0.04   0.11     0.13  -0.01   0.07     0.14  -0.03   0.00
  32   6    -0.06   0.04   0.11     0.10  -0.02   0.07     0.10  -0.03   0.00
  33   6    -0.05   0.00   0.01     0.08  -0.00   0.01     0.08  -0.00  -0.00
  34   6    -0.04   0.00   0.01     0.07   0.00   0.00     0.08   0.00  -0.00
  35   6    -0.05  -0.03  -0.09     0.10   0.01  -0.06     0.10   0.03  -0.00
  36   6    -0.07  -0.03  -0.12     0.12   0.01  -0.07     0.13   0.02  -0.00
  37   6    -0.07  -0.01  -0.02     0.13   0.01  -0.01     0.13   0.01  -0.00
  38   6    -0.06   0.02   0.07     0.11  -0.00   0.05     0.11  -0.01  -0.00
  39   6    -0.04   0.01   0.06     0.07   0.01   0.03     0.08   0.00  -0.00
  40   6    -0.02   0.08  -0.01     0.03   0.05  -0.02     0.03   0.00  -0.02
  41   6    -0.02   0.28  -0.04     0.03   0.17  -0.05     0.03  -0.00  -0.02
  42   6    -0.04   0.20  -0.03     0.03   0.12  -0.03     0.04  -0.01  -0.01
  43   6    -0.03  -0.16   0.03     0.03  -0.11   0.01     0.04  -0.00  -0.00
  44   6    -0.03  -0.28   0.05     0.03  -0.18   0.03     0.04   0.00  -0.00
  45   6    -0.01  -0.09   0.02     0.02  -0.06  -0.00     0.02   0.00  -0.01
  46   6     0.03   0.01  -0.01    -0.05  -0.01  -0.09    -0.06  -0.00   0.08
  47   6     0.04   0.01  -0.03    -0.06  -0.01  -0.08    -0.07  -0.01   0.07
  48   7     0.08  -0.00  -0.13    -0.13  -0.01   0.18    -0.14  -0.02  -0.23
  49   6     0.06  -0.05  -0.07    -0.10   0.08   0.12    -0.11   0.09  -0.16
  50   6     0.03  -0.06   0.04    -0.04   0.10  -0.05    -0.05   0.13   0.05
  51   1    -0.01  -0.02   0.06     0.01   0.03  -0.09     0.01   0.04   0.11
  52   1    -0.01  -0.00   0.02     0.01   0.00  -0.03     0.02  -0.00   0.04
  53   1     0.01   0.01  -0.03    -0.02  -0.01   0.05    -0.01  -0.02  -0.06
  54   1     0.01  -0.01   0.04    -0.02   0.01  -0.05    -0.01   0.02   0.06
  55   1    -0.01   0.00  -0.02     0.01  -0.00   0.03     0.02   0.00  -0.05
  56   1    -0.01   0.02  -0.07     0.01  -0.03   0.09     0.01  -0.04  -0.11
  57   1     0.01   0.02  -0.02    -0.01  -0.04   0.03    -0.02  -0.06  -0.03
  58   1     0.03   0.02   0.03    -0.04  -0.03  -0.05    -0.05  -0.03   0.07
  59   1     0.01   0.00   0.01    -0.01   0.00   0.04    -0.01  -0.00  -0.03
  60   1     0.01   0.00   0.00    -0.02   0.01   0.05    -0.02  -0.00  -0.04
  61   1    -0.00   0.15  -0.02     0.01   0.09  -0.01     0.01   0.00  -0.00
  62   1    -0.01   0.09  -0.01     0.01   0.05  -0.01     0.01  -0.00   0.00
  63   1    -0.01  -0.11   0.02     0.01  -0.07   0.02     0.02  -0.00   0.00
  64   1    -0.01  -0.14   0.02     0.01  -0.09   0.02     0.01   0.00   0.01
  65   1    -0.02  -0.02  -0.04     0.04   0.01  -0.03     0.04   0.01  -0.00
  66   1    -0.03   0.00  -0.01     0.04  -0.00  -0.00     0.05  -0.00   0.00
  67   1    -0.02   0.02   0.06     0.04  -0.00   0.04     0.04  -0.01   0.00
  68   1    -0.01   0.02   0.05     0.03  -0.01   0.04     0.03  -0.02   0.00
  69   1    -0.01  -0.02  -0.04     0.03   0.01  -0.03     0.03   0.02  -0.00
  70   1    -0.02  -0.02  -0.06     0.04   0.00  -0.04     0.04   0.01  -0.00
  71   1    -0.02  -0.00  -0.01     0.04   0.00  -0.00     0.04   0.00  -0.00
  72   1    -0.02   0.01   0.03     0.03  -0.01   0.03     0.03  -0.01   0.00
  73   1    -0.01   0.14  -0.02     0.01   0.09  -0.02     0.01  -0.00  -0.01
  74   1    -0.01   0.11  -0.02     0.01   0.06  -0.02     0.01  -0.00  -0.00
  75   1    -0.01  -0.09   0.02     0.01  -0.06   0.01     0.01  -0.00  -0.00
  76   1    -0.01  -0.15   0.03     0.01  -0.09   0.01     0.01   0.00   0.00
  77   1     0.01   0.00  -0.00    -0.02  -0.00  -0.05    -0.02   0.00   0.04
  78   1     0.01   0.00  -0.01    -0.01  -0.00  -0.04    -0.02   0.00   0.03
  79   1     0.03  -0.02  -0.03    -0.04   0.03   0.05    -0.05   0.03  -0.07
  80   1     0.01  -0.02   0.02    -0.01   0.04  -0.03    -0.02   0.06   0.03
                     19                     20                     21
                        a                      a                      a 
 Frequencies --   142.4378               144.2783               159.4149
 Red. masses --     9.7679                10.7544                10.8509
 Frc consts  --     0.0000                 0.0000                 0.0000
 IR Inten    --     3.4227                 2.0421                 0.6300
 Raman Activ --     0.0000                 0.0000                 0.0000
 Depolar     --     0.0000                 0.0000                 0.0000
 Atom AN      X      Y      Z        X      Y      Z        X      Y      Z
   1   6     0.03   0.00  -0.00    -0.13  -0.04   0.01    -0.01   0.05  -0.01
   2   6     0.03  -0.02  -0.00    -0.13   0.10  -0.00    -0.01   0.01  -0.00
   3   6    -0.00  -0.04   0.00     0.01   0.18  -0.02    -0.04  -0.01   0.00
   4   6    -0.02  -0.02   0.00     0.13   0.11  -0.01    -0.07   0.00  -0.00
   5   6    -0.02  -0.02   0.00     0.12   0.10  -0.00    -0.07  -0.01  -0.00
   6   7     0.00  -0.04  -0.00    -0.00   0.18   0.02    -0.08  -0.01   0.01
   7   6     0.03  -0.02   0.00    -0.12   0.10  -0.00    -0.06   0.00   0.00
   8   6     0.03  -0.02   0.00    -0.14   0.11  -0.01    -0.06  -0.01  -0.00
   9   6     0.00  -0.04   0.01    -0.02   0.18  -0.02    -0.04  -0.00  -0.00
  10   6    -0.03  -0.02   0.00     0.12   0.10  -0.00    -0.02  -0.02   0.00
  11   6    -0.03   0.01  -0.00     0.13  -0.04   0.01    -0.02  -0.05   0.01
  12   6     0.00   0.03  -0.00     0.00  -0.11   0.01    -0.04  -0.06   0.00
  13   6     0.03   0.01   0.00    -0.14  -0.02  -0.01    -0.06  -0.05   0.00
  14   7     0.03   0.01  -0.00    -0.13  -0.04  -0.01    -0.06   0.01  -0.00
  15   6     0.00   0.02  -0.00    -0.00  -0.12   0.00    -0.04   0.00  -0.00
  16   6     0.00   0.05  -0.00     0.00  -0.24   0.01    -0.02   0.01   0.00
  17   6    -0.00   0.05   0.00     0.03  -0.22   0.02     0.01   0.02   0.02
  18   6    -0.01   0.04   0.00     0.04  -0.17   0.02     0.02   0.02   0.01
  19   6    -0.00   0.04  -0.00     0.00  -0.15   0.02     0.05  -0.00   0.00
  20   7    -0.00   0.01  -0.00     0.00  -0.02   0.00     0.07  -0.01  -0.00
  21   6    -0.00   0.05  -0.01     0.00   0.08  -0.01     0.09  -0.00  -0.01
  22   6    -0.01   0.07  -0.01     0.00   0.19  -0.03     0.18  -0.00  -0.07
  23   6    -0.01  -0.03   0.01     0.00   0.07  -0.01     0.27   0.01  -0.03
  24   6    -0.02  -0.11   0.02    -0.01  -0.18   0.03     0.27  -0.00   0.02
  25   6    -0.01  -0.06   0.01    -0.00  -0.16   0.03     0.19  -0.01   0.06
  26   6    -0.00   0.02  -0.01     0.00   0.02  -0.00     0.08  -0.01   0.00
  27   6    -0.00  -0.01   0.00     0.00   0.05  -0.01     0.03  -0.00  -0.00
  28   6     0.00   0.01   0.09     0.01   0.06   0.01    -0.02  -0.01   0.00
  29   6    -0.00   0.06   0.35     0.04   0.07   0.06    -0.16  -0.04   0.02
  30   6    -0.00   0.03   0.23     0.06   0.05   0.04    -0.24   0.05   0.00
  31   6    -0.01  -0.05  -0.21     0.05   0.02  -0.05    -0.22   0.11  -0.03
  32   6    -0.00  -0.07  -0.33     0.02   0.01  -0.07    -0.10   0.12  -0.03
  33   6    -0.00  -0.02  -0.06     0.01   0.04  -0.02    -0.01   0.01  -0.00
  34   6     0.00  -0.00   0.03    -0.00   0.04   0.00    -0.01  -0.01   0.01
  35   6     0.01   0.06   0.30    -0.02   0.03   0.06    -0.10  -0.11   0.03
  36   6     0.02   0.04   0.23    -0.05   0.03   0.04    -0.22  -0.09   0.02
  37   6     0.02  -0.05  -0.19    -0.06   0.04  -0.05    -0.24  -0.03  -0.00
  38   6     0.01  -0.08  -0.33    -0.04   0.05  -0.08    -0.15   0.05  -0.02
  39   6     0.00  -0.03  -0.10    -0.01   0.05  -0.03    -0.02   0.01  -0.00
  40   6    -0.00  -0.03   0.00     0.00   0.01   0.00     0.08  -0.00  -0.00
  41   6    -0.01   0.12  -0.02     0.00  -0.11   0.02     0.19   0.00  -0.06
  42   6    -0.01   0.17  -0.03     0.01  -0.11   0.03     0.27   0.00  -0.02
  43   6    -0.01  -0.01  -0.00     0.01   0.07  -0.01     0.27  -0.01   0.03
  44   6    -0.01  -0.14   0.02     0.00   0.14  -0.02     0.18  -0.01   0.07
  45   6    -0.00  -0.07   0.01     0.00   0.05  -0.01     0.09  -0.01   0.01
  46   6     0.01   0.04  -0.01    -0.04  -0.17   0.02     0.02  -0.01  -0.00
  47   6     0.01   0.05  -0.01    -0.03  -0.22   0.01     0.02  -0.01  -0.00
  48   7    -0.02   0.00   0.00     0.13  -0.04  -0.01    -0.07  -0.01  -0.01
  49   6    -0.02   0.00   0.00     0.13  -0.02  -0.01    -0.07   0.05  -0.00
  50   6     0.00   0.02  -0.00    -0.00  -0.10   0.01    -0.04   0.07  -0.01
  51   1     0.01   0.00  -0.00    -0.06  -0.03   0.01     0.00   0.02  -0.00
  52   1     0.01  -0.01  -0.00    -0.07   0.05  -0.00     0.01  -0.00   0.00
  53   1    -0.00  -0.02   0.00     0.00   0.09  -0.01    -0.01  -0.01   0.00
  54   1     0.00  -0.02   0.00    -0.01   0.09  -0.01    -0.01   0.00  -0.00
  55   1    -0.01  -0.01   0.00     0.07   0.05  -0.00     0.00  -0.00   0.00
  56   1    -0.01   0.01  -0.00     0.06  -0.03   0.01     0.00  -0.02   0.00
  57   1     0.00   0.01  -0.00     0.00  -0.07   0.00    -0.01  -0.02   0.00
  58   1     0.02   0.01   0.00    -0.07  -0.02  -0.00    -0.02  -0.02  -0.00
  59   1    -0.00   0.01   0.00     0.02  -0.07   0.00     0.01   0.00   0.01
  60   1    -0.00   0.01   0.00     0.02  -0.05   0.01    -0.00   0.00   0.01
  61   1    -0.00   0.03  -0.00     0.00   0.09  -0.01     0.05  -0.01  -0.04
  62   1    -0.00  -0.01   0.00     0.00   0.04  -0.01     0.09   0.00  -0.02
  63   1    -0.01  -0.06   0.01    -0.00  -0.10   0.02     0.09  -0.00   0.01
  64   1    -0.00  -0.03   0.00    -0.00  -0.08   0.01     0.06  -0.00   0.05
  65   1    -0.00   0.03   0.17     0.01   0.03   0.03    -0.06  -0.04   0.02
  66   1    -0.00   0.02   0.12     0.02   0.02   0.02    -0.09   0.01   0.00
  67   1    -0.00  -0.03  -0.12     0.02  -0.00  -0.03    -0.08   0.05  -0.01
  68   1    -0.00  -0.04  -0.17     0.00  -0.01  -0.04    -0.02   0.07  -0.02
  69   1     0.00   0.03   0.16    -0.01   0.00   0.03    -0.02  -0.06   0.02
  70   1     0.01   0.03   0.13    -0.02   0.01   0.02    -0.08  -0.04   0.01
  71   1     0.01  -0.02  -0.10    -0.02   0.01  -0.03    -0.09  -0.00  -0.00
  72   1     0.00  -0.04  -0.16    -0.01   0.02  -0.04    -0.05   0.05  -0.01
  73   1    -0.00   0.06  -0.01     0.00  -0.06   0.01     0.05   0.00  -0.05
  74   1    -0.01   0.09  -0.02     0.00  -0.06   0.01     0.09   0.00  -0.01
  75   1    -0.00  -0.01   0.00     0.00   0.04  -0.01     0.09  -0.00   0.02
  76   1    -0.00  -0.07   0.01     0.00   0.07  -0.01     0.05   0.00   0.04
  77   1     0.00   0.01  -0.00    -0.02  -0.05   0.00     0.00  -0.00  -0.00
  78   1     0.00   0.01  -0.00    -0.02  -0.07   0.00     0.01   0.00  -0.00
  79   1    -0.01   0.00   0.00     0.07  -0.02  -0.00    -0.03   0.02  -0.00
  80   1     0.00   0.01  -0.00    -0.00  -0.06   0.00    -0.01   0.03  -0.00
                     22                     23                     24
                        a                      a                      a 
 Frequencies --   163.5655               180.7239               198.4811
 Red. masses --    12.4212                10.7365                11.1131
 Frc consts  --     0.0000                 0.0000                 0.0000
 IR Inten    --     3.1017                 1.0763                 0.6406
 Raman Activ --     0.0000                 0.0000                 0.0000
 Depolar     --     0.0000                 0.0000                 0.0000
 Atom AN      X      Y      Z        X      Y      Z        X      Y      Z
   1   6    -0.01  -0.01  -0.07     0.05   0.06  -0.04    -0.00   0.01   0.25
   2   6    -0.01   0.01  -0.03     0.05  -0.05  -0.00     0.01  -0.01  -0.00
   3   6     0.00   0.02   0.05    -0.06  -0.11   0.04     0.00  -0.03  -0.26
   4   6     0.02   0.01   0.07    -0.15  -0.06   0.03    -0.01  -0.02  -0.20
   5   6     0.01   0.01  -0.01    -0.10  -0.05  -0.01    -0.02   0.00   0.12
   6   7     0.00  -0.03  -0.52     0.00  -0.09  -0.07     0.00  -0.00   0.39
   7   6    -0.01   0.01  -0.01     0.10  -0.05  -0.01     0.02  -0.00   0.12
   8   6    -0.02   0.01   0.07     0.15  -0.06   0.03     0.01  -0.02  -0.21
   9   6    -0.01   0.02   0.05     0.07  -0.11   0.04    -0.00  -0.03  -0.26
  10   6     0.01   0.01  -0.03    -0.05  -0.05   0.00    -0.01  -0.01  -0.00
  11   6     0.01  -0.01  -0.07    -0.05   0.06  -0.04    -0.00   0.01   0.25
  12   6    -0.00  -0.02   0.02     0.04   0.11  -0.01     0.00   0.02  -0.01
  13   6    -0.02  -0.00   0.08     0.15   0.05   0.03     0.01  -0.00  -0.26
  14   7    -0.01   0.00   0.34     0.10   0.08  -0.00     0.02   0.01   0.17
  15   6    -0.00   0.00   0.17    -0.00   0.11  -0.02    -0.00   0.03   0.22
  16   6    -0.00  -0.02  -0.14    -0.00   0.08  -0.01    -0.00   0.02   0.01
  17   6     0.00  -0.02  -0.28    -0.12   0.01  -0.00    -0.02   0.00  -0.13
  18   6     0.00  -0.01  -0.22    -0.12  -0.17   0.03    -0.02  -0.02  -0.15
  19   6     0.00  -0.00  -0.04     0.00  -0.23   0.04    -0.00  -0.03  -0.04
  20   7     0.00  -0.00   0.07     0.00  -0.27   0.05     0.00  -0.04   0.04
  21   6    -0.01  -0.00   0.06     0.00  -0.06   0.01    -0.00  -0.02   0.03
  22   6    -0.04  -0.00   0.08     0.00   0.15  -0.02    -0.02   0.01   0.04
  23   6    -0.08  -0.00   0.07    -0.00   0.16  -0.02    -0.05   0.02   0.03
  24   6    -0.08   0.01   0.03    -0.01  -0.14   0.02    -0.05  -0.01   0.02
  25   6    -0.05   0.02   0.01    -0.01  -0.20   0.03    -0.03  -0.02   0.01
  26   6    -0.02   0.01   0.03     0.00  -0.05   0.01    -0.00  -0.01   0.02
  27   6     0.00   0.00   0.02     0.00   0.06  -0.01     0.00   0.01   0.01
  28   6    -0.00   0.00   0.01     0.01   0.08  -0.01     0.00   0.01   0.02
  29   6    -0.01  -0.00   0.01     0.07   0.10  -0.01     0.01   0.01   0.01
  30   6    -0.01   0.00  -0.00     0.10   0.07  -0.01     0.01   0.01  -0.00
  31   6    -0.01   0.00  -0.01     0.09   0.04  -0.01     0.01   0.00  -0.01
  32   6    -0.00   0.00   0.00     0.04   0.03  -0.01     0.00   0.01   0.00
  33   6    -0.00   0.00   0.01     0.01   0.07  -0.01     0.00   0.01   0.02
  34   6     0.00   0.00   0.01     0.00   0.07  -0.01     0.00   0.01   0.02
  35   6    -0.00  -0.00   0.01    -0.03   0.03  -0.00    -0.00   0.00   0.00
  36   6    -0.00  -0.00  -0.01    -0.09   0.05  -0.01    -0.01   0.00  -0.01
  37   6    -0.00  -0.00  -0.00    -0.10   0.08  -0.02    -0.01   0.01  -0.00
  38   6    -0.00   0.00   0.01    -0.06   0.10  -0.02    -0.01   0.02   0.01
  39   6     0.00   0.00   0.01     0.00   0.08  -0.01     0.00   0.01   0.02
  40   6     0.02   0.00   0.03    -0.00  -0.05   0.01     0.00  -0.01   0.02
  41   6     0.06   0.01   0.01    -0.00  -0.19   0.04     0.03  -0.02   0.01
  42   6     0.09   0.01   0.03    -0.01  -0.13   0.03     0.05  -0.01   0.02
  43   6     0.09   0.00   0.07    -0.01   0.16  -0.03     0.05   0.02   0.03
  44   6     0.05   0.00   0.08    -0.00   0.14  -0.03     0.02   0.01   0.04
  45   6     0.02  -0.00   0.06    -0.00  -0.06   0.01     0.00  -0.02   0.03
  46   6    -0.00  -0.02  -0.23     0.12  -0.17   0.03     0.02  -0.02  -0.16
  47   6    -0.00  -0.02  -0.29     0.12   0.01  -0.00     0.02   0.00  -0.13
  48   7     0.01   0.00   0.34    -0.10   0.08  -0.00    -0.02   0.01   0.17
  49   6     0.01  -0.00   0.08    -0.15   0.05   0.03    -0.01  -0.00  -0.25
  50   6     0.00  -0.01   0.02    -0.04   0.12  -0.01    -0.00   0.02  -0.01
  51   1    -0.00  -0.00  -0.04     0.04   0.03  -0.02    -0.00   0.01   0.17
  52   1    -0.00   0.00  -0.02     0.04  -0.03  -0.00     0.01  -0.01   0.02
  53   1     0.00   0.01   0.02    -0.02  -0.06   0.02     0.00  -0.01  -0.11
  54   1    -0.00   0.01   0.02     0.02  -0.06   0.02    -0.00  -0.01  -0.11
  55   1     0.00   0.00  -0.02    -0.04  -0.03  -0.00    -0.01  -0.01   0.02
  56   1     0.00  -0.00  -0.04    -0.04   0.03  -0.02     0.00   0.01   0.17
  57   1    -0.00  -0.01   0.00     0.01   0.06  -0.01     0.00   0.01   0.02
  58   1    -0.01  -0.00   0.03     0.07   0.03   0.01     0.01   0.00  -0.10
  59   1     0.00  -0.01  -0.11    -0.07   0.02  -0.00    -0.01   0.00  -0.05
  60   1     0.00  -0.00  -0.08    -0.07  -0.07   0.01    -0.01  -0.01  -0.06
  61   1    -0.01  -0.00   0.03     0.00   0.08  -0.01    -0.01   0.01   0.01
  62   1    -0.03  -0.00   0.02    -0.00   0.10  -0.02    -0.02   0.01   0.01
  63   1    -0.03   0.01   0.01    -0.00  -0.07   0.01    -0.02  -0.00   0.00
  64   1    -0.01   0.01  -0.01    -0.00  -0.09   0.01    -0.01  -0.01  -0.00
  65   1    -0.00  -0.00   0.00     0.03   0.04  -0.01     0.00   0.01   0.01
  66   1    -0.00  -0.00  -0.00     0.04   0.02  -0.00     0.00   0.00  -0.00
  67   1    -0.00   0.00  -0.01     0.03   0.00  -0.00     0.00  -0.00  -0.01
  68   1    -0.00   0.00  -0.00     0.01  -0.00  -0.00     0.00  -0.00  -0.00
  69   1    -0.00  -0.00   0.00    -0.01  -0.00   0.00    -0.00  -0.00   0.00
  70   1    -0.00  -0.00  -0.00    -0.03   0.01  -0.00    -0.00  -0.00  -0.01
  71   1    -0.00  -0.00  -0.00    -0.04   0.02  -0.01    -0.00   0.00  -0.00
  72   1    -0.00   0.00   0.00    -0.02   0.04  -0.01    -0.00   0.01   0.00
  73   1     0.02   0.01  -0.01    -0.00  -0.09   0.02     0.01  -0.01  -0.00
  74   1     0.03   0.01   0.00    -0.00  -0.07   0.01     0.02  -0.00   0.00
  75   1     0.03   0.00   0.02    -0.00   0.10  -0.02     0.02   0.01   0.01
  76   1     0.01   0.00   0.03    -0.00   0.08  -0.01     0.01   0.01   0.01
  77   1    -0.00  -0.00  -0.08     0.07  -0.07   0.01     0.01  -0.01  -0.07
  78   1    -0.00  -0.01  -0.11     0.07   0.02  -0.00     0.01   0.00  -0.05
  79   1     0.01  -0.00   0.03    -0.07   0.03   0.01    -0.01   0.00  -0.10
  80   1     0.00  -0.01   0.00    -0.01   0.06  -0.01    -0.00   0.01   0.02
                     25                     26                     27
                        a                      a                      a 
 Frequencies --   221.3127               235.4842               236.8411
 Red. masses --    12.3978                10.5068                10.5912
 Frc consts  --     0.0000                 0.0000                 0.0000
 IR Inten    --     5.3677                 0.6919                11.6392
 Raman Activ --     0.0000                 0.0000                 0.0000
 Depolar     --     0.0000                 0.0000                 0.0000
 Atom AN      X      Y      Z        X      Y      Z        X      Y      Z
   1   6    -0.02   0.02   0.20     0.03  -0.04   0.01     0.02  -0.03   0.02
   2   6    -0.01   0.02  -0.03     0.03  -0.03   0.00     0.02  -0.02  -0.00
   3   6     0.00   0.01  -0.22     0.02  -0.03  -0.00     0.03  -0.01  -0.01
   4   6     0.01   0.01  -0.12     0.01  -0.02  -0.00     0.02  -0.01  -0.00
   5   6    -0.00   0.02   0.12     0.01  -0.01   0.00     0.01   0.00   0.01
   6   7     0.01  -0.00   0.00     0.02   0.00   0.00     0.01   0.00  -0.00
   7   6    -0.00  -0.02  -0.12     0.02  -0.00  -0.01     0.00   0.01   0.01
   8   6     0.01  -0.01   0.12     0.05   0.02   0.00    -0.00   0.01  -0.01
   9   6     0.00  -0.01   0.22     0.05   0.02   0.01     0.00   0.01  -0.02
  10   6    -0.01  -0.02   0.03     0.03   0.04  -0.00     0.01   0.01  -0.00
  11   6    -0.02  -0.02  -0.20     0.03   0.07  -0.01     0.01   0.01   0.01
  12   6    -0.00  -0.02   0.01     0.04   0.07  -0.00     0.00   0.01  -0.00
  13   6     0.01  -0.01   0.20     0.05   0.06   0.01    -0.00   0.01  -0.01
  14   7     0.00  -0.04  -0.54     0.02   0.00  -0.03     0.00   0.00   0.03
  15   6    -0.01   0.00   0.00    -0.01  -0.00  -0.00    -0.01   0.01   0.01
  16   6    -0.00   0.00  -0.00    -0.03  -0.02   0.01    -0.01   0.01  -0.03
  17   6    -0.00   0.00   0.01    -0.06  -0.03   0.02    -0.03   0.01  -0.03
  18   6    -0.00   0.01   0.06    -0.07  -0.03   0.00    -0.03   0.01   0.02
  19   6    -0.00   0.00   0.00    -0.08  -0.02  -0.02    -0.04   0.02   0.06
  20   7     0.00  -0.00   0.00    -0.10   0.01  -0.03    -0.04  -0.00   0.08
  21   6     0.00   0.01  -0.00    -0.09  -0.09  -0.03    -0.05   0.02   0.06
  22   6     0.00   0.01   0.00     0.02  -0.10  -0.09     0.06   0.01  -0.01
  23   6     0.00  -0.01   0.00     0.13   0.06  -0.07     0.19   0.01   0.05
  24   6     0.00  -0.01   0.00     0.14   0.07  -0.01     0.20   0.00   0.12
  25   6     0.00   0.01  -0.00     0.03  -0.08   0.07     0.08   0.03   0.17
  26   6     0.00   0.01  -0.00    -0.09  -0.09   0.01    -0.07   0.03   0.08
  27   6     0.00  -0.00   0.00    -0.14   0.00  -0.01    -0.06   0.01   0.02
  28   6     0.00   0.00   0.01    -0.16   0.03  -0.01    -0.08  -0.01  -0.18
  29   6    -0.00  -0.00  -0.00    -0.01   0.08   0.06     0.00  -0.01  -0.29
  30   6    -0.00  -0.00  -0.01     0.11  -0.05   0.08     0.06  -0.03  -0.02
  31   6    -0.00   0.00  -0.00     0.07  -0.18  -0.03     0.05  -0.02   0.24
  32   6     0.00   0.00   0.01    -0.08  -0.19  -0.01    -0.03  -0.08  -0.02
  33   6     0.00   0.00   0.00    -0.19  -0.01   0.05    -0.09  -0.05  -0.27
  34   6     0.00  -0.00  -0.00    -0.20   0.05   0.13    -0.09  -0.04  -0.31
  35   6     0.00  -0.00  -0.01    -0.06   0.20   0.05    -0.03   0.07  -0.11
  36   6    -0.00  -0.00   0.00     0.10   0.13  -0.12     0.03   0.12   0.23
  37   6    -0.00   0.00   0.01     0.13   0.03  -0.07     0.04   0.03   0.02
  38   6    -0.00   0.00  -0.00    -0.00  -0.06   0.12    -0.01  -0.08  -0.29
  39   6     0.00  -0.00  -0.01    -0.17  -0.01   0.14    -0.07  -0.05  -0.22
  40   6     0.00  -0.01   0.00    -0.10   0.13  -0.07    -0.01  -0.04   0.08
  41   6     0.00  -0.01   0.00     0.07   0.11  -0.16    -0.03  -0.03   0.09
  42   6     0.00   0.01  -0.00     0.21  -0.10  -0.05    -0.04   0.05   0.08
  43   6     0.00   0.01  -0.00     0.21  -0.11   0.04    -0.04   0.06   0.08
  44   6     0.00  -0.01   0.00     0.05   0.12   0.07    -0.03  -0.02   0.09
  45   6     0.00  -0.02   0.00    -0.09   0.13  -0.03    -0.02  -0.04   0.09
  46   6    -0.00  -0.00  -0.06    -0.07  -0.01  -0.01    -0.03   0.02   0.02
  47   6    -0.00  -0.00  -0.01    -0.06  -0.01  -0.00    -0.03   0.02  -0.04
  48   7     0.00   0.04   0.54     0.01   0.01   0.01     0.01   0.00   0.03
  49   6     0.01   0.01  -0.20     0.01  -0.04  -0.00     0.03  -0.03  -0.01
  50   6    -0.00   0.02  -0.01     0.02  -0.04   0.00     0.02  -0.04   0.00
  51   1    -0.01   0.01   0.14     0.01  -0.01   0.00     0.00  -0.01   0.01
  52   1    -0.00   0.01  -0.00     0.01  -0.01   0.00     0.00  -0.00  -0.00
  53   1     0.00   0.00  -0.09     0.01  -0.01  -0.00     0.01  -0.00  -0.01
  54   1     0.00  -0.00   0.09     0.01   0.01   0.00     0.00   0.01  -0.01
  55   1    -0.00  -0.01   0.00     0.00   0.01   0.00     0.00   0.00  -0.00
  56   1    -0.01  -0.01  -0.14     0.00   0.02  -0.01     0.00   0.00   0.01
  57   1    -0.00  -0.00  -0.01     0.01   0.02  -0.00     0.00   0.00   0.00
  58   1     0.00  -0.00   0.08     0.02   0.02   0.00    -0.00   0.00  -0.01
  59   1    -0.00   0.00   0.00    -0.02  -0.01   0.01    -0.01   0.00  -0.02
  60   1    -0.00   0.00   0.03    -0.02  -0.01   0.00    -0.01   0.00   0.01
  61   1     0.00   0.00   0.00     0.00  -0.04  -0.06     0.02  -0.00  -0.04
  62   1     0.00  -0.01   0.00     0.06   0.05  -0.04     0.08  -0.00   0.00
  63   1     0.00  -0.01   0.00     0.06   0.05   0.00     0.07  -0.00   0.05
  64   1     0.00   0.00  -0.00     0.01  -0.03   0.05     0.02   0.01   0.08
  65   1    -0.00  -0.00  -0.00     0.01   0.07   0.02     0.01   0.01  -0.12
  66   1    -0.00  -0.00  -0.00     0.06  -0.01   0.04     0.03  -0.00   0.01
  67   1    -0.00   0.00  -0.00     0.04  -0.08  -0.03     0.02   0.00   0.17
  68   1     0.00   0.00   0.00    -0.04  -0.10  -0.01    -0.02  -0.04   0.01
  69   1     0.00  -0.00  -0.00    -0.03   0.10   0.01    -0.01   0.04  -0.03
  70   1    -0.00  -0.00   0.00     0.05   0.05  -0.08     0.02   0.06   0.17
  71   1    -0.00   0.00   0.00     0.07  -0.01  -0.05     0.03   0.01   0.04
  72   1    -0.00   0.00  -0.00     0.01  -0.06   0.05     0.00  -0.05  -0.11
  73   1     0.00  -0.00   0.00     0.02   0.04  -0.09    -0.01  -0.01   0.03
  74   1     0.00   0.01  -0.00     0.08  -0.08  -0.02    -0.01   0.03   0.02
  75   1     0.00   0.01  -0.00     0.08  -0.07   0.04    -0.01   0.03   0.02
  76   1     0.00  -0.00  -0.00     0.01   0.06   0.06    -0.01  -0.01   0.02
  77   1    -0.00  -0.00  -0.03    -0.02  -0.01  -0.01    -0.01   0.00   0.01
  78   1    -0.00   0.00  -0.00    -0.02  -0.01  -0.00    -0.01   0.00  -0.02
  79   1     0.00   0.00  -0.08     0.01  -0.01  -0.00     0.01  -0.01  -0.01
  80   1    -0.00   0.00   0.01     0.01  -0.01   0.00     0.01  -0.01   0.00
                     28                     29                     30
                        a                      a                      a 
 Frequencies --   241.0865               244.3054               250.9728
 Red. masses --    10.3884                10.9398                11.1683
 Frc consts  --     0.0000                 0.0000                 0.0000
 IR Inten    --     5.7459                73.6568                10.0824
 Raman Activ --     0.0000                 0.0000                 0.0000
 Depolar     --     0.0000                 0.0000                 0.0000
 Atom AN      X      Y      Z        X      Y      Z        X      Y      Z
   1   6    -0.01   0.01   0.01     0.05  -0.15   0.01     0.17  -0.21   0.02
   2   6    -0.01   0.02  -0.00     0.06  -0.04   0.01     0.17  -0.27   0.01
   3   6    -0.00   0.02  -0.01     0.14   0.02   0.01     0.06  -0.31   0.00
   4   6     0.00   0.01  -0.00     0.17  -0.00   0.01    -0.09  -0.19  -0.01
   5   6     0.00   0.01   0.01     0.07   0.04  -0.00    -0.08  -0.10   0.01
   6   7    -0.00   0.00  -0.00    -0.00  -0.00  -0.00    -0.17  -0.00  -0.00
   7   6    -0.01  -0.00  -0.00    -0.07   0.04  -0.01    -0.08   0.09  -0.01
   8   6    -0.02  -0.01   0.00    -0.16   0.01   0.01    -0.08   0.19   0.00
   9   6    -0.03  -0.02   0.00    -0.13   0.05   0.01     0.07   0.30  -0.00
  10   6    -0.02  -0.02   0.00    -0.04  -0.02   0.00     0.17   0.27  -0.01
  11   6    -0.02  -0.04  -0.00    -0.03  -0.12   0.00     0.17   0.23  -0.02
  12   6    -0.02  -0.04   0.00    -0.09  -0.16   0.01     0.03   0.16  -0.00
  13   6    -0.02  -0.03   0.00    -0.16  -0.10   0.01    -0.07   0.21   0.01
  14   7    -0.01   0.01  -0.01    -0.06   0.02  -0.02    -0.09   0.04  -0.04
  15   6     0.01   0.01   0.00    -0.01   0.08  -0.02    -0.03  -0.00   0.00
  16   6     0.01   0.01  -0.01    -0.01   0.21  -0.01    -0.04  -0.01   0.00
  17   6     0.02   0.02  -0.01    -0.06   0.20   0.00    -0.04  -0.01  -0.00
  18   6     0.02   0.02   0.01    -0.07   0.14  -0.00    -0.04  -0.00   0.00
  19   6     0.03   0.01   0.02    -0.02   0.11  -0.02    -0.03  -0.00   0.00
  20   7     0.04  -0.01   0.02    -0.02  -0.13   0.01    -0.02   0.01  -0.00
  21   6     0.03  -0.24   0.07    -0.01  -0.19   0.02     0.01   0.01   0.01
  22   6    -0.01  -0.20   0.09    -0.00  -0.12  -0.00     0.00   0.00   0.02
  23   6    -0.04   0.19   0.00     0.01   0.13  -0.04    -0.01   0.00   0.01
  24   6    -0.04   0.17  -0.02     0.01   0.06  -0.02    -0.01   0.00   0.01
  25   6    -0.01  -0.23   0.04    -0.00  -0.18   0.02    -0.00   0.00   0.00
  26   6     0.02  -0.25   0.06    -0.01  -0.16   0.02     0.01   0.00   0.01
  27   6     0.06  -0.00   0.01    -0.01   0.00  -0.01     0.04  -0.00   0.00
  28   6     0.07  -0.05  -0.19    -0.03   0.07   0.02     0.05  -0.02  -0.00
  29   6     0.01  -0.05  -0.12     0.05   0.09   0.03     0.01  -0.03   0.00
  30   6    -0.04   0.06   0.13     0.09   0.05  -0.00    -0.03   0.02  -0.00
  31   6    -0.02   0.09   0.08     0.08   0.01  -0.04    -0.02   0.05  -0.01
  32   6     0.04   0.05  -0.17     0.01   0.01   0.01     0.03   0.05  -0.01
  33   6     0.08  -0.02  -0.18    -0.02   0.07   0.03     0.07   0.00  -0.00
  34   6     0.09  -0.01   0.01    -0.00   0.07   0.04     0.06  -0.01  -0.00
  35   6     0.03  -0.05   0.13    -0.02   0.04   0.01     0.03  -0.06   0.01
  36   6    -0.04  -0.06   0.05    -0.07   0.05  -0.05    -0.02  -0.05   0.01
  37   6    -0.06  -0.04  -0.13    -0.07   0.06  -0.01    -0.03  -0.02   0.00
  38   6     0.00   0.03  -0.04    -0.05   0.08   0.03     0.01   0.02  -0.01
  39   6     0.07   0.03   0.09     0.01   0.06   0.02     0.05   0.01  -0.00
  40   6     0.05   0.23  -0.02    -0.02  -0.17   0.01     0.01   0.01  -0.01
  41   6    -0.04   0.22   0.03     0.01  -0.19   0.00    -0.01   0.01  -0.00
  42   6    -0.11  -0.15   0.08     0.03   0.06  -0.04    -0.01  -0.01  -0.00
  43   6    -0.11  -0.16   0.04     0.03   0.14  -0.05    -0.01  -0.01  -0.01
  44   6    -0.03   0.19  -0.07     0.01  -0.12   0.02     0.00   0.00  -0.02
  45   6     0.04   0.22  -0.03    -0.01  -0.20   0.02     0.01   0.01  -0.01
  46   6     0.03   0.01   0.01     0.04   0.15  -0.00    -0.04  -0.01  -0.00
  47   6     0.03   0.01  -0.01     0.03   0.20  -0.00    -0.04  -0.01   0.00
  48   7     0.00   0.01   0.03     0.06   0.02  -0.02    -0.09  -0.05   0.05
  49   6     0.00   0.01  -0.01     0.17  -0.12   0.01    -0.08  -0.20  -0.01
  50   6    -0.00   0.01  -0.00     0.10  -0.18   0.01     0.03  -0.14   0.00
  51   1    -0.00   0.00   0.01    -0.00  -0.05   0.00     0.07  -0.05   0.01
  52   1    -0.00   0.01  -0.00    -0.01   0.00   0.00     0.06  -0.08   0.00
  53   1    -0.00   0.01  -0.01     0.04   0.02   0.00     0.02  -0.13   0.00
  54   1    -0.01  -0.01   0.00    -0.04   0.03   0.00     0.02   0.13  -0.00
  55   1    -0.00  -0.00   0.00     0.01   0.01  -0.00     0.06   0.09  -0.00
  56   1    -0.00  -0.01  -0.00     0.01  -0.04  -0.00     0.07   0.06  -0.01
  57   1    -0.01  -0.01   0.00    -0.03  -0.06   0.00     0.01   0.01  -0.00
  58   1    -0.01  -0.01   0.00    -0.07  -0.04   0.00    -0.02   0.06   0.00
  59   1     0.01   0.00  -0.01    -0.03   0.07   0.00    -0.01  -0.00  -0.00
  60   1     0.01   0.00   0.00    -0.03   0.04   0.00    -0.01  -0.00   0.00
  61   1    -0.00  -0.07   0.04    -0.00  -0.04  -0.00     0.00   0.00   0.01
  62   1    -0.01   0.14  -0.01     0.01   0.10  -0.02    -0.01   0.00   0.01
  63   1    -0.02   0.13  -0.02     0.00   0.06  -0.01    -0.00   0.00   0.00
  64   1    -0.00  -0.09   0.00    -0.00  -0.07   0.01    -0.00  -0.00  -0.00
  65   1    -0.00  -0.03  -0.04     0.02   0.05   0.01    -0.00  -0.02   0.00
  66   1    -0.02   0.03   0.10     0.03   0.01  -0.00    -0.02   0.00   0.00
  67   1    -0.01   0.05   0.07     0.03  -0.01  -0.03    -0.01   0.02  -0.00
  68   1     0.02   0.03  -0.07    -0.00  -0.01   0.00     0.01   0.03  -0.00
  69   1     0.01  -0.03   0.06    -0.00   0.00   0.00     0.01  -0.03   0.00
  70   1    -0.02  -0.02   0.02    -0.02   0.01  -0.03    -0.01  -0.02   0.01
  71   1    -0.03  -0.02  -0.09    -0.02   0.02  -0.01    -0.02  -0.00  -0.00
  72   1    -0.01   0.03  -0.03    -0.02   0.04   0.01    -0.00   0.02  -0.00
  73   1    -0.01   0.09   0.03     0.00  -0.07  -0.00    -0.00   0.01   0.00
  74   1    -0.04  -0.12   0.04     0.01   0.06  -0.02    -0.01  -0.00  -0.00
  75   1    -0.04  -0.12   0.02     0.01   0.10  -0.02    -0.01  -0.01  -0.00
  76   1    -0.01   0.07  -0.04     0.00  -0.04   0.01     0.00   0.00  -0.01
  77   1     0.01   0.00   0.00     0.02   0.04   0.00    -0.02  -0.00  -0.00
  78   1     0.01   0.00  -0.01     0.02   0.07   0.00    -0.01  -0.00   0.00
  79   1     0.00   0.00  -0.00     0.08  -0.05   0.00    -0.03  -0.05  -0.00
  80   1    -0.00   0.00   0.00     0.03  -0.07   0.00     0.01  -0.00   0.00
                     31                     32                     33
                        a                      a                      a 
 Frequencies --   273.3265               291.0160               292.0418
 Red. masses --    10.6749                11.0683                 9.9552
 Frc consts  --     0.0000                 0.0000                 0.0000
 IR Inten    --    74.4256                15.4948                 0.9087
 Raman Activ --     0.0000                 0.0000                 0.0000
 Depolar     --     0.0000                 0.0000                 0.0000
 Atom AN      X      Y      Z        X      Y      Z        X      Y      Z
   1   6    -0.06   0.13  -0.01     0.00   0.05  -0.00    -0.00   0.02  -0.00
   2   6    -0.07   0.06  -0.00     0.00  -0.05   0.00    -0.00  -0.01   0.00
   3   6    -0.10   0.02   0.00    -0.08  -0.10   0.00    -0.03  -0.03  -0.00
   4   6    -0.09   0.02  -0.00    -0.13  -0.07  -0.01    -0.04  -0.02  -0.00
   5   6    -0.04  -0.03   0.00    -0.04  -0.04  -0.00    -0.01  -0.01  -0.00
   6   7     0.01  -0.00   0.00    -0.08  -0.00  -0.00    -0.03   0.00   0.00
   7   6     0.04  -0.04   0.00    -0.04   0.03   0.00    -0.01   0.01  -0.00
   8   6     0.10   0.01  -0.00    -0.13   0.07   0.01    -0.03   0.02   0.00
   9   6     0.11   0.01  -0.00    -0.08   0.10  -0.00    -0.02   0.03   0.00
  10   6     0.06   0.05  -0.00     0.00   0.05  -0.00     0.00   0.01  -0.00
  11   6     0.06   0.13  -0.01     0.01  -0.04   0.00     0.00  -0.01   0.00
  12   6     0.08   0.14  -0.01    -0.06  -0.08   0.00    -0.02  -0.02   0.00
  13   6     0.11   0.10  -0.00    -0.14  -0.02   0.00    -0.04  -0.01   0.00
  14   7     0.03  -0.13   0.00    -0.02   0.03  -0.02    -0.01   0.01  -0.01
  15   6    -0.00  -0.17   0.01     0.09  -0.00   0.00     0.03  -0.00   0.00
  16   6    -0.00  -0.22   0.02     0.14  -0.00  -0.00     0.04  -0.00   0.00
  17   6     0.14  -0.14   0.01     0.23   0.03  -0.01     0.07   0.01  -0.00
  18   6     0.13   0.09  -0.02     0.24   0.02  -0.00     0.07   0.01  -0.00
  19   6    -0.01   0.17  -0.03     0.24   0.01  -0.00     0.07   0.01  -0.00
  20   7    -0.01   0.14  -0.02     0.23   0.00  -0.00     0.07   0.00  -0.00
  21   6    -0.01  -0.14   0.03     0.10   0.01  -0.05     0.03  -0.11   0.00
  22   6    -0.01  -0.20   0.03     0.01   0.01   0.00    -0.00  -0.12   0.02
  23   6     0.01   0.10  -0.02    -0.06  -0.03  -0.03    -0.02   0.11  -0.03
  24   6     0.01   0.14  -0.02    -0.06  -0.02  -0.10    -0.02   0.04  -0.04
  25   6    -0.01  -0.19   0.04     0.02   0.01  -0.14     0.00  -0.19  -0.01
  26   6    -0.01  -0.18   0.04     0.08  -0.01  -0.10     0.02  -0.08  -0.02
  27   6     0.00  -0.02  -0.00    -0.06   0.00  -0.00    -0.01   0.00   0.00
  28   6    -0.02   0.04  -0.01    -0.13   0.03  -0.06    -0.03   0.05   0.19
  29   6     0.04   0.06  -0.01    -0.05   0.04  -0.09    -0.01   0.07   0.29
  30   6     0.07   0.04  -0.00     0.03  -0.03   0.06     0.01  -0.04  -0.18
  31   6     0.06   0.03  -0.01     0.00  -0.11   0.07     0.00  -0.06  -0.15
  32   6     0.01   0.02  -0.01    -0.09  -0.14  -0.06    -0.02   0.02   0.30
  33   6    -0.01   0.05  -0.01    -0.16  -0.02  -0.04    -0.04   0.03   0.17
  34   6     0.02   0.05   0.00    -0.16   0.03   0.04    -0.04  -0.02  -0.15
  35   6    -0.01   0.02   0.01    -0.08   0.15   0.06    -0.02  -0.02  -0.30
  36   6    -0.06   0.03  -0.02     0.01   0.11  -0.07     0.00   0.06   0.14
  37   6    -0.07   0.04  -0.01     0.03   0.03  -0.06     0.01   0.05   0.18
  38   6    -0.03   0.07   0.00    -0.06  -0.03   0.10    -0.02  -0.07  -0.28
  39   6     0.03   0.04   0.00    -0.13  -0.02   0.06    -0.03  -0.04  -0.18
  40   6    -0.00  -0.18   0.03     0.08  -0.00   0.10     0.02   0.07   0.01
  41   6     0.00  -0.19   0.03     0.02  -0.03   0.15     0.01   0.16   0.00
  42   6     0.01   0.14  -0.04    -0.06   0.04   0.09    -0.02  -0.03   0.03
  43   6     0.01   0.10  -0.02    -0.06   0.05   0.02    -0.02  -0.10   0.03
  44   6     0.00  -0.20   0.04     0.01  -0.04   0.00     0.00   0.10  -0.02
  45   6    -0.00  -0.14   0.03     0.11  -0.02   0.06     0.03   0.10  -0.01
  46   6    -0.16   0.09  -0.02     0.23  -0.01   0.00     0.07  -0.00  -0.00
  47   6    -0.15  -0.14   0.01     0.22  -0.02   0.01     0.06  -0.01   0.00
  48   7    -0.03  -0.13   0.00    -0.02  -0.04   0.02    -0.01  -0.01   0.01
[...]
   2   6    -0.02  -0.03  -0.00    -0.03  -0.06  -0.00     0.02   0.03   0.00
   3   6    -0.07   0.00  -0.00    -0.19   0.00  -0.01     0.08   0.00   0.00
   4   6    -0.00   0.00  -0.00    -0.00   0.00  -0.00     0.00  -0.00   0.00
   5   6    -0.00   0.00   0.00    -0.00  -0.00  -0.00    -0.00  -0.00   0.00
   6   7     0.00   0.00  -0.00     0.00  -0.00   0.00    -0.00   0.00  -0.00
   7   6    -0.00   0.00   0.00    -0.00  -0.00  -0.00     0.00  -0.00   0.00
   8   6    -0.00   0.00  -0.00    -0.00  -0.00   0.00    -0.00  -0.01   0.00
   9   6    -0.05  -0.00   0.00    -0.05  -0.00   0.00    -0.13  -0.00   0.01
  10   6    -0.01   0.01   0.00    -0.01   0.02   0.00    -0.03   0.06   0.00
  11   6    -0.00  -0.00   0.00     0.01   0.01  -0.00     0.04   0.06  -0.00
  12   6    -0.02  -0.00   0.00    -0.00  -0.00   0.00     0.07  -0.00  -0.00
  13   6    -0.03   0.06   0.00    -0.01   0.02   0.00     0.07  -0.13  -0.00
  14   7     0.00  -0.00   0.00    -0.00   0.00  -0.00     0.00  -0.00  -0.00
  15   6    -0.00   0.00  -0.00    -0.00  -0.00   0.00     0.00  -0.00   0.00
  16   6    -0.00   0.00  -0.00    -0.00  -0.00   0.00    -0.00   0.00  -0.00
  17   6     0.08   0.13  -0.01    -0.04  -0.07   0.00    -0.01  -0.02   0.00
  18   6    -0.02   0.04  -0.00     0.01  -0.02   0.00     0.00  -0.01   0.00
  19   6     0.00  -0.01   0.00     0.00   0.00  -0.00     0.00  -0.00   0.00
  20   7    -0.00   0.00   0.00    -0.00  -0.00  -0.00    -0.00   0.00   0.00
  21   6     0.00   0.00  -0.00     0.00  -0.00   0.00     0.00   0.00  -0.00
  22   6     0.00  -0.00  -0.00     0.00   0.00   0.00    -0.00   0.00   0.00
  23   6     0.00   0.00   0.00    -0.00  -0.00  -0.00     0.00   0.00   0.00
  24   6     0.00  -0.00  -0.00     0.00  -0.00  -0.00     0.00  -0.00  -0.00
  25   6     0.00  -0.00  -0.00     0.00  -0.00   0.00     0.00  -0.00  -0.00
  26   6    -0.00   0.00   0.00    -0.00   0.00   0.00    -0.00   0.00   0.00
  27   6     0.00   0.00  -0.00     0.00  -0.00   0.00     0.00   0.00  -0.00
  28   6     0.00   0.00  -0.00    -0.00  -0.00   0.00    -0.00  -0.00   0.00
  29   6     0.00  -0.00   0.00    -0.00   0.00  -0.00    -0.00   0.00  -0.00
  30   6     0.00  -0.00   0.00    -0.00   0.00  -0.00    -0.00   0.00  -0.00
  31   6    -0.00  -0.00   0.00     0.00   0.00  -0.00     0.00   0.00  -0.00
  32   6    -0.00   0.00  -0.00     0.00  -0.00   0.00     0.00  -0.00   0.00
  33   6    -0.00   0.00  -0.00     0.00  -0.00   0.00     0.00  -0.00   0.00
  34   6     0.00  -0.00   0.00    -0.00  -0.00   0.00    -0.00  -0.00   0.00
  35   6    -0.00  -0.00   0.00    -0.00  -0.00   0.00    -0.00  -0.00   0.00
  36   6    -0.00   0.00  -0.00    -0.00   0.00  -0.00    -0.00   0.00  -0.00
  37   6    -0.00  -0.00   0.00     0.00   0.00  -0.00     0.00   0.00  -0.00
  38   6    -0.00  -0.00   0.00     0.00   0.00  -0.00     0.00   0.00  -0.00
  39   6    -0.00   0.00  -0.00     0.00  -0.00   0.00     0.00  -0.00   0.00
  40   6    -0.00   0.00   0.00    -0.00  -0.00  -0.00    -0.00  -0.00  -0.00
  41   6    -0.00  -0.00  -0.00     0.00   0.00   0.00     0.00   0.00   0.00
  42   6    -0.00  -0.00  -0.00     0.00   0.00   0.00     0.00   0.00   0.00
  43   6    -0.00   0.00   0.00     0.00  -0.00  -0.00     0.00  -0.00  -0.00
  44   6    -0.00  -0.00  -0.00     0.00   0.00  -0.00     0.00  -0.00  -0.00
  45   6     0.00   0.00  -0.00     0.00  -0.00   0.00     0.00   0.00   0.00
  46   6     0.03   0.05  -0.00    -0.01  -0.01   0.00     0.01   0.02  -0.00
  47   6    -0.10   0.16  -0.01     0.03  -0.04   0.00    -0.03   0.05  -0.00
  48   7    -0.00  -0.00   0.00     0.00   0.00  -0.00    -0.00  -0.00   0.00
  49   6    -0.01  -0.02  -0.00    -0.06  -0.13  -0.00    -0.05  -0.09  -0.00
  50   6     0.00   0.00   0.00    -0.03  -0.00  -0.00    -0.04  -0.00  -0.00
  51   1    -0.03   0.05  -0.00    -0.04   0.06  -0.00     0.07  -0.12   0.01
  52   1     0.05   0.09   0.00     0.11   0.19   0.00    -0.06  -0.11  -0.00
  53   1     0.26   0.00   0.01     0.67   0.00   0.04    -0.28  -0.00  -0.01
  54   1     0.17   0.00  -0.01     0.18   0.00  -0.01     0.46   0.01  -0.02
  55   1     0.02  -0.03  -0.00     0.03  -0.06  -0.00     0.11  -0.18  -0.00
  56   1     0.01   0.01  -0.00    -0.02  -0.03   0.00    -0.12  -0.21   0.01
  57   1     0.07  -0.00  -0.00     0.00  -0.00  -0.00    -0.22   0.00   0.01
  58   1     0.11  -0.20  -0.00     0.04  -0.07  -0.00    -0.24   0.43   0.00
  59   1    -0.26  -0.44   0.03     0.15   0.25  -0.01     0.03   0.05  -0.00
  60   1     0.07  -0.13   0.01    -0.04   0.07  -0.00    -0.01   0.02  -0.00
  61   1    -0.00   0.00  -0.00    -0.00  -0.00   0.00     0.00  -0.00  -0.00
  62   1    -0.00  -0.00  -0.00     0.00   0.00   0.00    -0.00  -0.00  -0.00
  63   1    -0.00   0.00   0.00    -0.00   0.00   0.00    -0.00   0.00   0.00
  64   1    -0.00   0.00   0.00    -0.00   0.00   0.00    -0.00   0.00   0.00
  65   1    -0.01   0.00  -0.00     0.00  -0.00   0.00     0.00  -0.00   0.00
  66   1    -0.00   0.01  -0.00     0.00  -0.01   0.00     0.00  -0.01   0.00
  67   1     0.00   0.00  -0.00    -0.00  -0.00   0.00    -0.00  -0.00   0.00
  68   1     0.00  -0.00   0.00    -0.00   0.00  -0.00    -0.01   0.00  -0.00
  69   1     0.00   0.00  -0.00     0.01   0.00  -0.00     0.00   0.00  -0.00
  70   1     0.00  -0.00   0.00     0.00  -0.00   0.00     0.00  -0.00   0.00
  71   1     0.00   0.00  -0.00    -0.00  -0.01   0.00    -0.00  -0.00   0.00
  72   1     0.01   0.00  -0.00    -0.01  -0.00   0.00    -0.00  -0.00   0.00
  73   1     0.00   0.00   0.00    -0.00  -0.00  -0.00    -0.00  -0.00  -0.00
  74   1     0.00   0.00   0.00    -0.00  -0.00  -0.00    -0.00  -0.00  -0.00
  75   1     0.00  -0.00  -0.01    -0.00   0.00   0.00    -0.00   0.00   0.00
  76   1     0.00   0.00  -0.00    -0.00  -0.00  -0.00    -0.00   0.00   0.00
  77   1    -0.10  -0.17   0.01     0.02   0.04  -0.00    -0.03  -0.05   0.00
  78   1     0.34  -0.55   0.03    -0.09   0.15  -0.01     0.11  -0.19   0.01
  79   1     0.04   0.07   0.00     0.23   0.44   0.00     0.16   0.30   0.00
  80   1    -0.01  -0.00  -0.00     0.09   0.00   0.00     0.14   0.00   0.01
                    229                    230                    231
                        a                      a                      a 
 Frequencies --  3096.4631              3098.0944              3101.5008
 Red. masses --     1.8602                 1.8691                 1.8739
 Frc consts  --     0.0000                 0.0000                 0.0000
 IR Inten    --     0.7271                80.5502               106.5309
 Raman Activ --     0.0000                 0.0000                 0.0000
 Depolar     --     0.0000                 0.0000                 0.0000
 Atom AN      X      Y      Z        X      Y      Z        X      Y      Z
   1   6     0.02  -0.03   0.00     0.02  -0.04   0.00    -0.00   0.00  -0.00
   2   6    -0.01  -0.03  -0.00    -0.02  -0.04  -0.00     0.00   0.00   0.00
   3   6    -0.05  -0.00  -0.00    -0.09  -0.00  -0.00     0.00  -0.00   0.00
   4   6    -0.00   0.00  -0.00    -0.00   0.01  -0.00     0.00  -0.00   0.00
   5   6     0.00   0.00   0.00    -0.00   0.00  -0.00     0.00   0.00  -0.00
   6   7    -0.00  -0.00   0.00    -0.00  -0.00  -0.00     0.00  -0.00  -0.00
   7   6     0.00   0.00  -0.00    -0.00   0.00   0.00    -0.00   0.00  -0.00
   8   6    -0.00  -0.00   0.00    -0.00  -0.01   0.00     0.00   0.00  -0.00
   9   6     0.00   0.00  -0.00    -0.09  -0.00   0.00     0.00   0.00  -0.00
  10   6    -0.00   0.00   0.00    -0.02   0.04   0.00     0.00  -0.00  -0.00
  11   6     0.00   0.01  -0.00     0.02   0.04  -0.00    -0.00  -0.00   0.00
  12   6     0.01  -0.00  -0.00     0.05  -0.00  -0.00    -0.00  -0.00   0.00
  13   6     0.02  -0.03  -0.00     0.05  -0.09  -0.00    -0.00   0.00   0.00
  14   7     0.00   0.00  -0.00     0.00  -0.00   0.00     0.00  -0.00   0.00
  15   6     0.00   0.00  -0.00     0.00   0.00  -0.00     0.00   0.00  -0.00
  16   6    -0.01  -0.00   0.00     0.01   0.00  -0.00    -0.00   0.00  -0.00
  17   6    -0.09  -0.15   0.01     0.05   0.08  -0.00    -0.00  -0.00   0.00
  18   6     0.03  -0.05   0.00    -0.02   0.03  -0.00     0.00  -0.00   0.00
  19   6     0.01   0.00  -0.00    -0.00  -0.00   0.00    -0.00   0.00   0.00
  20   7    -0.00  -0.00  -0.00     0.00   0.00   0.00     0.00  -0.00  -0.00
  21   6     0.00  -0.00  -0.00    -0.00   0.00   0.00    -0.00   0.00   0.00
  22   6     0.00  -0.00   0.00    -0.00   0.00   0.00    -0.06   0.00   0.00
  23   6     0.00   0.00   0.00    -0.00  -0.00  -0.00     0.02   0.01   0.03
  24   6    -0.00   0.00   0.00     0.00  -0.00  -0.01    -0.06   0.02   0.11
  25   6     0.00  -0.00  -0.00     0.00  -0.00   0.00    -0.05   0.00   0.00
  26   6    -0.00   0.00   0.00    -0.00   0.00  -0.00     0.00  -0.00  -0.00
  27   6     0.00  -0.00   0.00     0.00  -0.00   0.00     0.00   0.00   0.00
  28   6    -0.00  -0.00   0.00    -0.00  -0.00   0.00    -0.00  -0.00   0.00
  29   6    -0.00   0.00  -0.00     0.00  -0.00   0.00    -0.00   0.00  -0.00
  30   6    -0.00   0.00  -0.00     0.00  -0.00   0.00    -0.00   0.00  -0.00
  31   6     0.00   0.00  -0.00    -0.00  -0.00   0.00     0.00   0.00  -0.00
  32   6     0.00  -0.00   0.00    -0.00   0.00  -0.00    -0.00   0.00  -0.00
  33   6     0.00  -0.00   0.00    -0.00   0.00  -0.00    -0.00  -0.00  -0.00
  34   6     0.00  -0.00   0.00    -0.00  -0.00   0.00     0.00  -0.00  -0.00
  35   6    -0.00  -0.00   0.00    -0.00  -0.00   0.00    -0.00  -0.00  -0.00
  36   6    -0.00   0.00  -0.00    -0.00   0.00  -0.00     0.00  -0.00   0.00
  37   6     0.00   0.00  -0.00     0.00   0.00  -0.00    -0.00  -0.00   0.00
  38   6    -0.00  -0.00   0.00     0.00   0.00  -0.00    -0.00  -0.00   0.00
  39   6    -0.00   0.00   0.00    -0.00   0.00  -0.00    -0.00   0.00   0.00
  40   6    -0.00  -0.00  -0.00    -0.00   0.00   0.00    -0.00  -0.00  -0.00
  41   6     0.00   0.00   0.00     0.00  -0.00  -0.00     0.09   0.00   0.00
  42   6    -0.00  -0.00  -0.00     0.00   0.00   0.01     0.09   0.03   0.17
  43   6     0.00  -0.00  -0.00    -0.00   0.00   0.00    -0.03   0.01   0.05
  44   6     0.00  -0.00  -0.00    -0.00  -0.00  -0.00     0.09   0.00  -0.00
  45   6     0.00   0.00   0.00    -0.00  -0.00  -0.00     0.00   0.00   0.00
  46   6     0.02   0.04  -0.00    -0.01  -0.03   0.00    -0.00  -0.00   0.00
  47   6    -0.07   0.12  -0.01     0.05  -0.08   0.00    -0.00   0.00   0.00
  48   7     0.00  -0.00   0.00     0.00   0.00   0.00    -0.00  -0.00   0.00
  49   6     0.06   0.11   0.00     0.06   0.12   0.00     0.00   0.00   0.00
  50   6     0.05   0.00   0.00     0.05   0.00   0.00    -0.00  -0.00  -0.00
  51   1    -0.07   0.11  -0.01    -0.08   0.14  -0.01     0.00  -0.00   0.00
  52   1     0.05   0.08   0.00     0.07   0.12   0.00    -0.00  -0.00  -0.00
  53   1     0.16   0.00   0.01     0.33   0.00   0.02    -0.00  -0.00  -0.00
  54   1    -0.01  -0.00   0.00     0.30   0.00  -0.02    -0.00  -0.00   0.00
  55   1     0.01  -0.01  -0.00     0.06  -0.11  -0.00    -0.00   0.00   0.00
  56   1    -0.02  -0.03   0.00    -0.07  -0.12   0.01     0.00   0.00  -0.00
  57   1    -0.04   0.00   0.00    -0.14   0.00   0.01     0.00  -0.00  -0.00
  58   1    -0.07   0.12   0.00    -0.18   0.32   0.00     0.00  -0.00  -0.00
  59   1     0.30   0.51  -0.03    -0.17  -0.29   0.02     0.00   0.00  -0.00
  60   1    -0.09   0.16  -0.01     0.05  -0.09   0.00    -0.00   0.00  -0.00
  61   1    -0.01   0.00  -0.00     0.00  -0.00   0.00     0.20  -0.01  -0.01
  62   1    -0.00  -0.00  -0.00     0.00   0.00   0.01    -0.07  -0.02  -0.11
  63   1     0.00  -0.00  -0.01    -0.01   0.00   0.03     0.20  -0.07  -0.36
  64   1    -0.00   0.00   0.00    -0.01   0.00   0.00     0.18  -0.00  -0.00
  65   1     0.00  -0.00   0.00    -0.00   0.00  -0.00     0.00  -0.00   0.00
  66   1     0.00  -0.00   0.00    -0.00   0.01  -0.00     0.00  -0.00   0.00
  67   1    -0.00  -0.00   0.00     0.00   0.00  -0.00    -0.00  -0.00   0.00
  68   1    -0.00   0.00  -0.00     0.00  -0.00   0.00     0.00  -0.00   0.00
  69   1     0.00   0.00  -0.00     0.00   0.00  -0.00     0.00   0.00   0.00
  70   1     0.00  -0.00   0.00     0.00  -0.00   0.00    -0.00   0.00  -0.00
  71   1    -0.00  -0.00   0.00    -0.00  -0.00   0.00     0.00   0.00  -0.00
  72   1     0.00   0.00  -0.00    -0.00  -0.00   0.00     0.00   0.00  -0.00
  73   1    -0.00  -0.00  -0.00    -0.01  -0.00  -0.00    -0.28  -0.00  -0.01
  74   1     0.01   0.00   0.01    -0.01  -0.01  -0.02    -0.32  -0.12  -0.57
  75   1    -0.00   0.00   0.00     0.00  -0.00  -0.01     0.11  -0.03  -0.17
  76   1    -0.00   0.00   0.00     0.00  -0.00  -0.00    -0.31  -0.00  -0.01
  77   1    -0.08  -0.13   0.01     0.05   0.08  -0.00     0.00   0.00  -0.00
  78   1     0.25  -0.41   0.02    -0.16   0.27  -0.02     0.00  -0.01   0.00
  79   1    -0.20  -0.38  -0.00    -0.23  -0.42  -0.00    -0.00  -0.00  -0.00
  80   1    -0.15  -0.00  -0.01    -0.17  -0.00  -0.01     0.00   0.00   0.00
                    232                    233                    234
                        a                      a                      a 
 Frequencies --  3101.6755              3108.6235              3109.0942
 Red. masses --     1.8727                 1.8735                 1.8749
 Frc consts  --     0.0000                 0.0000                 0.0000
 IR Inten    --   318.4940                64.7604                82.7539
 Raman Activ --     0.0000                 0.0000                 0.0000
 Depolar     --     0.0000                 0.0000                 0.0000
 Atom AN      X      Y      Z        X      Y      Z        X      Y      Z
   1   6     0.00  -0.00   0.00     0.00  -0.00   0.00     0.00  -0.00   0.00
   2   6    -0.00  -0.00  -0.00    -0.00  -0.00  -0.00    -0.00  -0.00  -0.00
   3   6    -0.00   0.00  -0.00    -0.00  -0.00  -0.00    -0.00   0.00  -0.00
   4   6    -0.00   0.00  -0.00     0.00   0.00  -0.00    -0.00   0.00   0.00
   5   6    -0.00  -0.00   0.00    -0.00  -0.00   0.00     0.00   0.00  -0.00
   6   7    -0.00  -0.00   0.00    -0.00   0.00   0.00    -0.00  -0.00   0.00
   7   6    -0.00   0.00  -0.00     0.00  -0.00   0.00    -0.00   0.00  -0.00
   8   6    -0.00  -0.00   0.00    -0.00   0.00  -0.00    -0.00  -0.00   0.00
   9   6    -0.00  -0.00   0.00    -0.00  -0.00   0.00    -0.00  -0.00   0.00
  10   6    -0.00   0.00   0.00    -0.00   0.00   0.00    -0.00   0.00   0.00
  11   6     0.00   0.00  -0.00     0.00   0.00  -0.00     0.00   0.00  -0.00
  12   6     0.00  -0.00  -0.00     0.00   0.00  -0.00     0.00  -0.00  -0.00
  13   6     0.00  -0.00  -0.00     0.00  -0.00  -0.00     0.00  -0.00  -0.00
  14   7     0.00  -0.00   0.00    -0.00   0.00  -0.00     0.00  -0.00   0.00
  15   6    -0.00  -0.00  -0.00    -0.00  -0.00   0.00    -0.00   0.00  -0.00
  16   6     0.00   0.00  -0.00     0.00  -0.00   0.00     0.00   0.00  -0.00
  17   6     0.00   0.00  -0.00    -0.00  -0.00  -0.00     0.00   0.00  -0.00
  18   6     0.00  -0.00   0.00    -0.00   0.00  -0.00    -0.00   0.01  -0.00
  19   6     0.00   0.00   0.00    -0.00  -0.00  -0.00    -0.00   0.00   0.00
  20   7    -0.00  -0.00  -0.00     0.00  -0.00  -0.00     0.00   0.00   0.00
  21   6    -0.00   0.00   0.00     0.00  -0.00  -0.00     0.00  -0.00  -0.00
  22   6    -0.09   0.00   0.00     0.20  -0.01  -0.01     0.14  -0.00  -0.00
  23   6     0.03   0.01   0.05     0.05   0.01   0.08     0.03   0.01   0.05
  24   6    -0.09   0.03   0.17    -0.03   0.01   0.06    -0.02   0.01   0.04
  25   6    -0.09   0.00   0.00    -0.02   0.00  -0.00    -0.02   0.00  -0.00
  26   6     0.00  -0.00  -0.00    -0.00  -0.00  -0.00    -0.00  -0.00  -0.00
  27   6    -0.00   0.00   0.00     0.00   0.00  -0.00     0.00   0.00   0.00
  28   6     0.00   0.00  -0.00    -0.00  -0.00   0.00    -0.00  -0.00   0.00
  29   6     0.00  -0.00   0.00    -0.00   0.00  -0.00    -0.00   0.00  -0.00
  30   6     0.00  -0.00   0.00     0.00  -0.00   0.00     0.00  -0.00   0.00
  31   6    -0.00  -0.00   0.00    -0.00  -0.00   0.00    -0.00  -0.00   0.00
  32   6     0.00  -0.00   0.00    -0.00   0.00  -0.00    -0.00   0.00  -0.00
  33   6     0.00  -0.00  -0.00    -0.00  -0.00  -0.00     0.00  -0.00  -0.00
  34   6     0.00   0.00  -0.00     0.00  -0.00  -0.00     0.00   0.00   0.00
  35   6     0.00   0.00  -0.00    -0.00  -0.00  -0.00    -0.00  -0.00   0.00
  36   6    -0.00   0.00  -0.00    -0.00   0.00  -0.00    -0.00   0.00  -0.00
  37   6     0.00   0.00  -0.00     0.00   0.00  -0.00     0.00   0.00  -0.00
  38   6     0.00   0.00  -0.00    -0.00  -0.00   0.00    -0.00  -0.00   0.00
  39   6     0.00  -0.00   0.00    -0.00   0.00   0.00    -0.00   0.00  -0.00
  40   6     0.00   0.00   0.00     0.00  -0.00  -0.00    -0.00   0.00   0.00
  41   6    -0.06  -0.00  -0.00     0.01  -0.00  -0.00    -0.02   0.00   0.00
  42   6    -0.06  -0.02  -0.10     0.02   0.01   0.04    -0.03  -0.01  -0.05
  43   6     0.02  -0.01  -0.03    -0.03   0.01   0.05     0.05  -0.01  -0.07
  44   6    -0.06  -0.00   0.00    -0.14  -0.00  -0.00     0.20   0.00   0.01
  45   6    -0.00  -0.00  -0.00    -0.00  -0.00  -0.00     0.00   0.00   0.00
  46   6     0.00   0.00  -0.00    -0.00  -0.00  -0.00    -0.00  -0.01   0.00
  47   6     0.00  -0.00   0.00     0.00  -0.00  -0.00     0.00  -0.00   0.00
  48   7     0.00   0.00  -0.00     0.00   0.00  -0.00    -0.00  -0.00   0.00
  49   6     0.00   0.00   0.00    -0.00  -0.00  -0.00     0.00   0.00   0.00
  50   6     0.00   0.00   0.00     0.00   0.00   0.00     0.00   0.00   0.00
  51   1    -0.00   0.01  -0.00    -0.00   0.00  -0.00    -0.00   0.00  -0.00
  52   1     0.00   0.01   0.00     0.00   0.00   0.00     0.00   0.00   0.00
  53   1     0.01  -0.00   0.00     0.00   0.00   0.00     0.00  -0.00   0.00
  54   1     0.01   0.00  -0.00     0.00   0.00  -0.00     0.00   0.00  -0.00
  55   1     0.00  -0.01  -0.00     0.00  -0.00  -0.00     0.00  -0.00  -0.00
  56   1    -0.00  -0.01   0.00    -0.00  -0.00   0.00    -0.00  -0.01   0.00
  57   1    -0.01   0.00   0.00    -0.00  -0.00   0.00    -0.00  -0.00   0.00
  58   1    -0.01   0.01   0.00    -0.00   0.00   0.00    -0.00   0.00   0.00
  59   1    -0.01  -0.02   0.00     0.00   0.00   0.00    -0.00  -0.01   0.00
  60   1    -0.00   0.00  -0.00     0.00  -0.01   0.00     0.01  -0.02   0.00
  61   1     0.33  -0.01  -0.01    -0.69   0.02   0.02    -0.49   0.02   0.01
  62   1    -0.11  -0.03  -0.16    -0.15  -0.04  -0.24    -0.11  -0.03  -0.17
  63   1     0.31  -0.11  -0.56     0.10  -0.04  -0.19     0.08  -0.03  -0.14
  64   1     0.28  -0.01  -0.01     0.07  -0.00  -0.00     0.06  -0.00  -0.00
  65   1    -0.01   0.00  -0.00     0.00  -0.00   0.00     0.00  -0.00   0.00
  66   1    -0.00   0.01  -0.00    -0.00   0.00  -0.00    -0.00   0.00  -0.00
  67   1     0.00   0.00  -0.00     0.00   0.00  -0.00     0.00   0.00  -0.00
  68   1    -0.00   0.00  -0.00     0.00  -0.00   0.00     0.00  -0.00   0.00
  69   1    -0.00  -0.00   0.00     0.00   0.00  -0.00     0.00   0.00  -0.00
  70   1     0.00  -0.00   0.00     0.00  -0.00   0.00     0.00  -0.00   0.00
  71   1    -0.00  -0.01   0.00    -0.00  -0.00   0.00    -0.00  -0.00   0.00
  72   1    -0.01  -0.00   0.00     0.00   0.00  -0.00     0.00   0.00  -0.00
  73   1     0.18   0.00   0.00    -0.04  -0.00  -0.00     0.07   0.00   0.00
  74   1     0.20   0.07   0.36    -0.07  -0.03  -0.13     0.10   0.04   0.18
  75   1    -0.07   0.02   0.11     0.11  -0.03  -0.17    -0.15   0.05   0.24
  76   1     0.21   0.00   0.00     0.50   0.01   0.01    -0.69  -0.01  -0.02
  77   1    -0.00  -0.00   0.00     0.00   0.00   0.00     0.01   0.02  -0.00
  78   1    -0.01   0.02  -0.00    -0.00   0.00  -0.00    -0.00   0.00  -0.00
  79   1    -0.00  -0.01  -0.00     0.00   0.00   0.00    -0.00  -0.00  -0.00
  80   1    -0.01  -0.00  -0.00    -0.00  -0.00  -0.00    -0.00  -0.00  -0.00
