$hessian                                                                        
        0.5545636068   0.1547933986  -0.1239861210  -0.5151069763  -0.1401544914
        0.1160887782  -0.0075206819  -0.0028834329   0.0039682904   0.0010110492
       -0.0018085943   0.0030940242  -0.0007105232   0.0003418726  -0.0000248048
        0.0001476693   0.0001115320  -0.0004796904   0.0007350474   0.0002495976
        0.0000994204  -0.0026865243   0.0007740472  -0.0004881412  -0.0113928920
       -0.0082374117  -0.0015611824  -0.0015594168   0.0014051539  -0.0021965731
        0.0008833100  -0.0003784311  -0.0008449629   0.0001397828   0.0002793738
        0.0005237211   0.0008004892   0.0001519282  -0.0009614636   0.0003735179
       -0.0025411294   0.0007872903  -0.0195488473  -0.0033839303   0.0041051769
       -0.0021161890  -0.0044315248  -0.0001029016   0.0000656431  -0.0002227909
       -0.0004078089   0.0001872393  -0.0010930912   0.0000221433  -0.0005890784
        0.0003446049  -0.0005263614  -0.0011877795   0.0054564595   0.0007626328
        0.0003197838   0.0004583016   0.0001119696   0.0013389251   0.0000076609
        0.0000357048  -0.0006777663   0.0000719227  -0.0000383317   0.0003056945
        0.0000115620   0.0001546871  -0.0001505614  -0.0000771415  -0.0000290404
       -0.0000189689   0.0000088436  -0.0000176136  -0.0000228121   0.0000119657
       -0.0000328408  -0.0000425540   0.0000739010   0.0000031945  -0.0000358644
        0.0000144155   0.0000850621  -0.0000166756  -0.0000739924   0.0000669946
       -0.0000407524  -0.0000172795  -0.0000086238   0.0000523513  -0.0000412977
        0.0000144156   0.0000665332  -0.0000404417  -0.0002012540  -0.0001093961
       -0.0000115950   0.0000292840  -0.0000459843   0.0000522812  -0.0001046407
        0.0000273097   0.0000033864  -0.0000655141   0.0000098775  -0.0000107485
        0.0000134262   0.0002843097  -0.0000903784   0.0000053660  -0.0001643178
       -0.0000859836  -0.0000012904   0.0000152449  -0.0000304824   0.0000003104
       -0.0000336948   0.0000386867  -0.0000062028   0.0000056179   0.0000154016
       -0.0000008846   0.0000099087  -0.0000051878   0.0000207626  -0.0000127464
        0.0001175590  -0.0000497418   0.0000813954   0.0000720546   0.0000508786
       -0.0001716030  -0.0002537587  -0.0001123498   0.0004199666   0.0001284841
       -0.0002339217  -0.0007254914  -0.0006724650   0.0000272889   0.0007889829
        0.0007319115  -0.0000363203  -0.0002073981  -0.0005677091  -0.0002598312
        0.0003999923   0.0001932877  -0.0001909549  -0.0001781038  -0.0001695533
        0.0000121350  -0.0000536838  -0.0000402638  -0.0000006781   0.0001119942
        0.0000741088   0.0000140408  -0.0000820031   0.0000029424   0.0000056365
        0.0000511481   0.0000549038  -0.0000061813  -0.0001993096   0.0000455015
        0.0000204091   0.0001428851  -0.0001455073  -0.0000333262  -0.0002635173
        0.0002044038   0.0000245455   0.0001825682  -0.0002732027  -0.0000243121
       -0.0001420392   0.0001612092   0.0000296524   0.0000274958  -0.0001978383
       -0.0000137591   0.0000536487   0.0000540122  -0.0000068632  -0.0000069770
       -0.0000816152  -0.0000063570   0.0000795439   0.0001190248  -0.0000283380
        0.0002200835   0.0004011823   0.0001288880  -0.0005635926  -0.0001465718
        0.0002984410   0.0001567544   0.0004294752   0.0002005989  -0.0002672078
       -0.0001225106   0.0000915875   0.0000074236  -0.0000524804  -0.0000336061
        0.0000042580   0.0000246424  -0.0000167070  -0.0000079869   0.0000078940
       -0.0000255671   0.0000005286  -0.0000274324  -0.0000210700   0.0000065182
       -0.0000256307   0.0000260224  -0.0000017844  -0.0000022374  -0.0000479234
       -0.0000032541   0.0000432654   0.0000294683  -0.0000209384  -0.0000395159
       -0.0000163444   0.0000025421   0.0000216099   0.0000387509   0.0000025373
       -0.0000539933   0.0000482951  -0.0000082572   0.0000444813  -0.0000404119
        0.0000813054  -0.0000939214   0.0000928807  -0.0000100319  -0.0000213432
        0.0000267571  -0.0000440835  -0.0000233042   0.0000206811   0.0004011878
       -0.0003554154  -0.0000103141  -0.0010222423   0.0006583059  -0.0000175473
        0.0011222519  -0.0000072906  -0.0004767015   0.0000838259  -0.0000384116
        0.0003223514   0.0002262417  -0.0000727810  -0.0000869488   0.0002167095
       -0.0001193446   0.0002142205   0.0020121891  -0.0002200185  -0.0000561299
       -0.0001962323  -0.0001515766   0.0009030031   0.0000023998  -0.0002880069
       -0.0000621808  -0.0002376910  -0.0001079018   0.0001925027  -0.0000456067
       -0.0001391615  -0.0001759302  -0.0001842277  -0.0000674849   0.0007191249
        0.0002561866   0.0013425299   0.0002248810   0.0000816683   0.0002185743
        0.0000288479   0.0001018232   0.0001138483   0.0001285053   0.0000125719
        0.0000226853   0.0000124485   0.0000205209  -0.0000320865  -0.0000071535
        0.0000202295  -0.0000183056  -0.0000454094   0.0000078577   0.0000219901
       -0.0000197297   0.0000345866  -0.0000212020   0.0000265830   0.0000800552
        0.0001150061   0.0001552890  -0.0001266578   0.0000593560  -0.0000141770
        0.0000067738  -0.0000253314   0.0000766291  -0.0000282527  -0.0000081855
        0.0000495299  -0.0000243348   0.0000053521   0.0000315547  -0.0000479607
       -0.0000071137   0.0000057791   0.0000120337  -0.0000039216  -0.0000047676
       -0.0000190105   0.0000056827  -0.0000091673   0.0000173544  -0.0000067062
       -0.0000019819   0.0000020400  -0.0000050616   0.0000000209   0.0000030155
        0.0000011462  -0.0000104392  -0.0000070003  -0.0000131541  -0.0000179018
       -0.0000063942   0.0000068874  -0.0000055982   0.0000127199  -0.0000135305
        0.0000016442  -0.0000061766  -0.0000258417  -0.0000017090  -0.0000229182
       -0.0000120445  -0.0000069898  -0.0000183459  -0.0000144196   0.0000038761
       -0.0000320291   0.0000024941  -0.0000011782  -0.0000201939   0.0000215338
       -0.0000051254   0.0000046530  -0.0000002056   0.0000029623  -0.0000186742
       -0.0000013584   0.0000180711  -0.0000026776   0.0000078354   0.0000107028
       -0.0000129010   0.0000036981   0.0000050094  -0.0000121391   0.0000222950
        0.0000096353  -0.0000052029  -0.0000001258  -0.0000062992  -0.0000061680
       -0.0000000643   0.0000256059  -0.0000060742   0.0000253925   0.0000228908
       -0.0000082483   0.0000256116  -0.0000046498  -0.0000101017   0.0000278097
        0.0000033035  -0.0000023093   0.0000244867  -0.0000207543  -0.0000051370
       -0.0000002379  -0.0000240793   0.0000000450   0.0000003490   0.0000127800
       -0.0000140341   0.0000191642  -0.0000095098   0.0000201335  -0.0000048772
        0.0000017857  -0.0000263498   0.0000510928   0.0000040343
        0.1547933986   0.0901536356  -0.0388464145  -0.1412007608  -0.0984814856
        0.0359963007  -0.0092353040   0.0033909754   0.0031534244   0.0003602465
       -0.0003127586   0.0028515574  -0.0005717408  -0.0004898917  -0.0000430570
        0.0000537096   0.0000768051  -0.0001515181  -0.0003086136  -0.0002520567
       -0.0005148540  -0.0012611631   0.0006033988  -0.0007712825  -0.0184446968
       -0.0021840815   0.0021444026  -0.0009844285   0.0019395938  -0.0002025234
        0.0010719427   0.0010255981  -0.0004357798  -0.0002205577   0.0005102165
       -0.0000818078   0.0011591758  -0.0003911014  -0.0012083082   0.0002451775
       -0.0024433681   0.0010189080   0.0108841471   0.0064365228  -0.0036931522
        0.0004461078   0.0018694220  -0.0005068180   0.0007138321   0.0011854960
        0.0002183054   0.0004012371   0.0005675591   0.0000192773  -0.0002553998
       -0.0007881544   0.0003045045  -0.0003021417  -0.0040165069   0.0002949926
        0.0007357481   0.0015458024  -0.0000615964   0.0001781339  -0.0005066494
       -0.0000334333   0.0000947936   0.0001776776  -0.0000064692   0.0006585505
       -0.0008507369  -0.0000651357  -0.0003004635   0.0001871466   0.0000369209
       -0.0000745926   0.0001421358  -0.0000310169  -0.0000611111   0.0000160558
        0.0000445366  -0.0000653209   0.0000585948  -0.0000052455  -0.0000702849
        0.0000070225   0.0000694602  -0.0000438374  -0.0000677713   0.0000692791
        0.0000033579  -0.0000812056  -0.0000516657  -0.0000252278   0.0001245269
        0.0001125314  -0.0000419969   0.0000173684  -0.0001913097   0.0001096424
       -0.0001417154   0.0000254031  -0.0000702807   0.0000243167  -0.0000580409
       -0.0000204370  -0.0000054172  -0.0000442803  -0.0000512244  -0.0000160920
        0.0000718078   0.0000013942  -0.0001144417  -0.0000018938   0.0001985168
        0.0003650723   0.0000157667   0.0000237104   0.0000315514   0.0000047587
        0.0000119555  -0.0000272913   0.0000209724  -0.0000067031   0.0000045967
       -0.0000116326   0.0000377206  -0.0000228526  -0.0000291280  -0.0000170956
       -0.0000601187   0.0000579055  -0.0001139061  -0.0000723738  -0.0000477268
        0.0001394866   0.0002447850   0.0000879102  -0.0003698900  -0.0000981426
        0.0001871763   0.0006292250   0.0005832345  -0.0000247941  -0.0006617747
       -0.0006087948   0.0000281132   0.0001588652   0.0004530377   0.0001954062
       -0.0003405615  -0.0001396505   0.0001529052   0.0001541730   0.0001554731
       -0.0000082660   0.0000073016   0.0000198343   0.0000004292  -0.0001052018
       -0.0000649641  -0.0000129531   0.0000547917  -0.0000095752  -0.0000047035
       -0.0000523619  -0.0000470342   0.0000030125   0.0001417253  -0.0000168606
       -0.0000158440  -0.0000927832   0.0001508594   0.0000206757   0.0001911089
       -0.0001463696  -0.0000183270  -0.0001432273   0.0001964800   0.0000120829
        0.0001412935  -0.0000915810  -0.0000254918  -0.0000082320   0.0001433839
        0.0000044113  -0.0000462943  -0.0000537710   0.0000010789  -0.0000100912
        0.0000483926  -0.0000009379  -0.0000573957  -0.0000918914   0.0000209437
       -0.0001714358  -0.0003433663  -0.0001198392   0.0004492861   0.0001165009
       -0.0002360942  -0.0001267629  -0.0003739305  -0.0001687235   0.0002612221
        0.0000881626  -0.0000904394  -0.0000235737   0.0000162008  -0.0000030334
       -0.0000068752  -0.0000205681   0.0000209057   0.0000048514  -0.0000117597
        0.0000059402  -0.0000008913   0.0000121412   0.0000076104   0.0000010258
        0.0000056971  -0.0000135595  -0.0000003721   0.0000047360   0.0000310358
        0.0000048656  -0.0000314630  -0.0000114522   0.0000181816   0.0000128936
        0.0000082538   0.0000015256  -0.0000196348  -0.0000182557   0.0000019182
        0.0000337084  -0.0000202461   0.0000001799  -0.0000331134   0.0000300934
       -0.0000647873   0.0000435794  -0.0000466252  -0.0000130575   0.0000101873
        0.0000005622  -0.0000099612   0.0000022497   0.0000072774  -0.0005134824
        0.0001997972  -0.0000076805   0.0007315884   0.0001394131  -0.0000146838
        0.0002776959   0.0002021798   0.0000958427  -0.0000765157  -0.0001840969
        0.0002425687   0.0000108408   0.0000502785   0.0001016573   0.0000774702
       -0.0000149566   0.0000148011  -0.0001081266  -0.0004650650   0.0002686892
       -0.0005259399   0.0004009515  -0.0000278283  -0.0000021564  -0.0000908210
        0.0000280331  -0.0003098237  -0.0001432991   0.0000563187  -0.0000143931
       -0.0000868803  -0.0003307652  -0.0006774440   0.0000045148   0.0000995935
        0.0022266100   0.0001792133   0.0000816675  -0.0000205724   0.0002120785
       -0.0000018169   0.0002228714  -0.0000507524  -0.0000574008   0.0000367018
        0.0000208797  -0.0000012333   0.0000283486   0.0000388790   0.0000223170
        0.0000300894   0.0000097357   0.0000105018   0.0000251589   0.0000157235
       -0.0000145569   0.0000040972   0.0000417601  -0.0000160603   0.0002589947
        0.0000435373   0.0000531073  -0.0001155120   0.0001653148  -0.0001111492
       -0.0000112801   0.0000201906  -0.0000022320  -0.0000348477  -0.0000002894
        0.0000369468  -0.0000395973  -0.0000013016   0.0000418744   0.0000360661
       -0.0000214003  -0.0000038754   0.0000024080   0.0000082975  -0.0000141783
        0.0000047765  -0.0000092777   0.0000128053  -0.0000176847   0.0000015304
        0.0000117710   0.0000007273   0.0000073604   0.0000061478  -0.0000027039
       -0.0000022591   0.0000138994   0.0000073218   0.0000069333   0.0000124115
        0.0000000474  -0.0000093086   0.0000025920  -0.0000150655   0.0000136817
       -0.0000020897  -0.0000005535   0.0000171383  -0.0000010455   0.0000057314
        0.0000071779   0.0000026633   0.0000049983   0.0000103208  -0.0000057495
        0.0000112747   0.0000025163  -0.0000019701   0.0000073404  -0.0000065470
        0.0000008312  -0.0000059872   0.0000042306  -0.0000036455   0.0000046780
        0.0000040025  -0.0000101456  -0.0000003347  -0.0000040468  -0.0000076495
        0.0000014722  -0.0000012937   0.0000005495   0.0000033466  -0.0000100101
        0.0000007219   0.0000029967   0.0000040610   0.0000004942   0.0000024855
       -0.0000016413  -0.0000116375   0.0000005509  -0.0000075993  -0.0000063550
        0.0000019787  -0.0000057575   0.0000014043   0.0000048887  -0.0000084047
        0.0000007387  -0.0000000261  -0.0000081420   0.0000071960   0.0000042933
       -0.0000006893   0.0000120194   0.0000030261   0.0000038425  -0.0000053855
        0.0000000048   0.0000030772  -0.0000044762  -0.0000086763  -0.0000035971
       -0.0000035408  -0.0000308639   0.0000247318   0.0000038234
       -0.1239861210  -0.0388464145   0.0722274150   0.1095320229   0.0332004585
       -0.0817843515   0.0204728310   0.0071926656  -0.0012358657  -0.0015949695
        0.0018519988  -0.0037889146   0.0004052554  -0.0002987174  -0.0013931869
        0.0006482086  -0.0001104443   0.0002889219   0.0008963775  -0.0008578961
        0.0009980809   0.0020767861  -0.0000144832   0.0015744062  -0.0110383623
       -0.0039518270   0.0090378268  -0.0010040349   0.0005006789  -0.0002623471
        0.0006962276   0.0003379809  -0.0010183954   0.0001455487  -0.0001084792
        0.0002257079   0.0013591236   0.0001546282  -0.0001632902   0.0006004570
        0.0004714713   0.0012292024  -0.0000786084   0.0001240858   0.0057971618
        0.0002610527   0.0005447880   0.0005486870  -0.0000737880  -0.0001589339
       -0.0005075429  -0.0000324172   0.0001632992   0.0000504574  -0.0000121408
        0.0001342491  -0.0006474192   0.0006978657   0.0000983333   0.0003854572
       -0.0000117838  -0.0006377627   0.0007444463  -0.0004302800   0.0001086308
       -0.0002431768   0.0001753500  -0.0000223303   0.0001828885  -0.0001466383
       -0.0000489356  -0.0007713652   0.0000080390   0.0000061425   0.0002239103
        0.0000440490   0.0000017226   0.0000754574   0.0000001517  -0.0000152248
       -0.0000170177  -0.0000382354   0.0000220492  -0.0000189433  -0.0000427588
       -0.0000089624   0.0000394546  -0.0000408959  -0.0000221774  -0.0000010766
       -0.0000344995   0.0000439798  -0.0000061863  -0.0000232284   0.0000347649
        0.0001595444  -0.0000219072   0.0000725714  -0.0001652179   0.0001011681
        0.0000347050   0.0000963408  -0.0000061685   0.0000582256   0.0000572551
       -0.0000422779   0.0000160387   0.0000817500   0.0000064257  -0.0000037559
        0.0000456429  -0.0001169547   0.0000409965   0.0000173016   0.0000224650
        0.0000186390  -0.0000172931   0.0000032471  -0.0000010761   0.0000031186
        0.0000004294   0.0000098292  -0.0000039817  -0.0000074732   0.0000006879
        0.0000025394  -0.0000100245   0.0000039615  -0.0000017753  -0.0000004022
       -0.0000208825   0.0000072987  -0.0000511845  -0.0000398813  -0.0000132414
        0.0000393105   0.0000851443   0.0000376956  -0.0001242243  -0.0000249323
        0.0000723218   0.0002027151   0.0001921322  -0.0000076136  -0.0002124574
       -0.0001940220   0.0000122389   0.0000485661   0.0001502431   0.0000716956
       -0.0001060061  -0.0000405861   0.0000539440   0.0000528708   0.0000488763
       -0.0000035507   0.0000119644   0.0000106661   0.0000043556  -0.0000356541
       -0.0000189822  -0.0000030517   0.0000137576  -0.0000059022   0.0000026723
       -0.0000325014  -0.0000088637   0.0000058390   0.0000489793   0.0000064814
       -0.0000016399  -0.0000194111   0.0000443197   0.0000102437   0.0000678713
       -0.0000518860  -0.0000035516  -0.0000471295   0.0000706050   0.0000082955
        0.0000437664  -0.0000234138  -0.0000042301   0.0000110218   0.0000488910
        0.0000054166  -0.0000091243  -0.0000340650   0.0000048335  -0.0000048489
        0.0000146532   0.0000044567  -0.0000210480  -0.0000360181   0.0000081385
       -0.0000457275  -0.0001059373  -0.0000427830   0.0001498745   0.0000281301
       -0.0000837156  -0.0000314065  -0.0001287325  -0.0000639062   0.0000878633
        0.0000177402  -0.0000356910   0.0000032000   0.0000000545  -0.0000022690
       -0.0000004526   0.0000043984  -0.0000042464   0.0000014082   0.0000032675
       -0.0000045979   0.0000013221   0.0000001700  -0.0000004028  -0.0000011966
       -0.0000011084  -0.0000044760  -0.0000018127   0.0000016004   0.0000012453
        0.0000001938  -0.0000121820  -0.0000077945   0.0000011914   0.0000035053
        0.0000010147  -0.0000036302  -0.0000024996  -0.0000040676  -0.0000044390
        0.0000064971  -0.0000094376  -0.0000008368  -0.0000142995   0.0000065339
       -0.0000137577   0.0000180079  -0.0000113500   0.0000003172   0.0000016018
       -0.0000037953   0.0000203597   0.0000196073  -0.0000115815  -0.0001365555
        0.0000720938  -0.0000000111   0.0001576611  -0.0000812199  -0.0000641448
       -0.0001136494   0.0002876354  -0.0002050655   0.0001990127   0.0000648266
       -0.0005565813   0.0000528590   0.0001838045  -0.0001485331  -0.0000742590
       -0.0000014582   0.0000697199   0.0009728111   0.0003521872  -0.0012337730
       -0.0002419421  -0.0004201327   0.0001884002   0.0000862042  -0.0001052134
       -0.0000460067  -0.0002221169  -0.0001357095   0.0000823307   0.0000210949
        0.0000643342   0.0000109414  -0.0000662513  -0.0000819897   0.0002673867
       -0.0002510541  -0.0001055507  -0.0003712004  -0.0000088468  -0.0000378240
       -0.0000219797  -0.0000362811  -0.0000100700   0.0000998857   0.0000124247
       -0.0000272042  -0.0000059865   0.0000086233   0.0000321045   0.0000181466
        0.0000102503   0.0000174124   0.0000383733   0.0000180172  -0.0000113546
        0.0000513741   0.0000256144  -0.0000022260  -0.0000217075   0.0001504133
        0.0000318742  -0.0000519725  -0.0000018938  -0.0000339851  -0.0001565324
        0.0000146478  -0.0000885882   0.0000469996  -0.0000126239  -0.0000379227
        0.0000097839   0.0000098800  -0.0000193333  -0.0000204821   0.0000174188
       -0.0000034328  -0.0000154043  -0.0000026948  -0.0000101385  -0.0000020032
        0.0000005395  -0.0000027459  -0.0000009448  -0.0000017005  -0.0000016023
       -0.0000055114   0.0000015588   0.0000010208  -0.0000026427  -0.0000012301
       -0.0000013648   0.0000012428   0.0000020456   0.0000029242   0.0000041355
        0.0000038277  -0.0000008459   0.0000001727   0.0000018291  -0.0000000672
       -0.0000014618   0.0000005758  -0.0000007522   0.0000010195  -0.0000003383
       -0.0000007263   0.0000041092   0.0000000618  -0.0000016028   0.0000017099
       -0.0000002564  -0.0000006006   0.0000041877   0.0000006222   0.0000009650
        0.0000043167  -0.0000006001   0.0000022906   0.0000005260   0.0000004286
        0.0000015741   0.0000000202  -0.0000013970   0.0000021692   0.0000013494
       -0.0000024667   0.0000021238   0.0000017943  -0.0000016664   0.0000027101
        0.0000017191   0.0000015500  -0.0000055963  -0.0000007342   0.0000012896
        0.0000002939   0.0000040121   0.0000008371  -0.0000005169  -0.0000014043
        0.0000010038  -0.0000045033   0.0000003334   0.0000000767  -0.0000016308
       -0.0000012373  -0.0000007627  -0.0000046995   0.0000035156   0.0000003638
        0.0000001531   0.0000074449   0.0000001571   0.0000031163  -0.0000040092
        0.0000034708  -0.0000092667  -0.0000002381  -0.0000084452  -0.0000138584
        0.0000002201   0.0000110460  -0.0000144403  -0.0000224764
       -0.5151069763  -0.1412007608   0.1095320229   0.7095674532   0.1018157113
       -0.0822657377  -0.0373401600  -0.0057431024   0.0101205578  -0.0012750459
       -0.0039646448   0.0154581019  -0.0021110825  -0.0009545318   0.0035937780
       -0.0017681059   0.0000669184  -0.0000366429  -0.0036445488   0.0013325184
       -0.0036046857   0.0039755566   0.0043665795  -0.0145369696  -0.0486913281
       -0.0285233995  -0.0205234902   0.0032043533  -0.0005003547   0.0064386397
        0.0036971236   0.0038306196  -0.0015462413  -0.0005797062   0.0000850604
       -0.0009452263   0.0032283599   0.0012528023  -0.0037811402  -0.0043860489
       -0.0060471833  -0.0090173675  -0.0873455002   0.0564680460  -0.0066643050
        0.0100871392   0.0129830175   0.0004851964   0.0021630004  -0.0044216205
        0.0000940042  -0.0012762456   0.0027877799  -0.0000103410  -0.0037729718
       -0.0040287457  -0.0002817924  -0.0203149921   0.0110009023  -0.0014981104
        0.0054927208   0.0015501262   0.0000563832  -0.0039573063  -0.0007090326
       -0.0001475674   0.0017568262   0.0003568446   0.0000513679  -0.0001655944
       -0.0008937194  -0.0001061570   0.0000236728   0.0002649334   0.0000255512
        0.0000113492   0.0001607282   0.0000597999   0.0000251463  -0.0000953381
        0.0000403162   0.0000191847  -0.0000153284  -0.0000506087  -0.0000009400
       -0.0000180415  -0.0000152816   0.0000098034   0.0000140839  -0.0001007306
        0.0000709919   0.0000346404  -0.0001220045  -0.0001995141   0.0002689717
        0.0000088958  -0.0001359933   0.0000281846   0.0003483541   0.0003317515
       -0.0001804931   0.0000076904  -0.0001091409  -0.0000636824   0.0001348087
        0.0000649482  -0.0000359587  -0.0000470633   0.0000173811  -0.0000574776
        0.0000717061  -0.0007542164  -0.0000284592  -0.0000394134   0.0005380022
        0.0007902796  -0.0000026553   0.0000081486   0.0000334856   0.0000333031
        0.0000687053  -0.0000760404   0.0000077443  -0.0000403904  -0.0000118981
       -0.0000128854   0.0000370268  -0.0000270588  -0.0000814306  -0.0000163128
       -0.0003281525   0.0002009344  -0.0003738310  -0.0002374596  -0.0001818536
        0.0005376545   0.0009235392   0.0003624830  -0.0014452529  -0.0003965199
        0.0007613200   0.0024806076   0.0022836758  -0.0001001514  -0.0026056859
       -0.0024159642   0.0001090936   0.0006580830   0.0018345952   0.0007946287
       -0.0013383036  -0.0005727560   0.0006173187   0.0006483451   0.0006217564
       -0.0000328138   0.0001036276   0.0000877648   0.0000027499  -0.0003999581
       -0.0002457466  -0.0000379411   0.0002277078  -0.0000207563  -0.0000115143
       -0.0002178733  -0.0001695242   0.0000200333   0.0005959152  -0.0000955774
       -0.0000605143  -0.0003901160   0.0005216378   0.0000967079   0.0008218471
       -0.0006133114  -0.0000726612  -0.0005552723   0.0008469026   0.0000650960
        0.0005056178  -0.0004348876  -0.0000953657  -0.0000455629   0.0005921262
        0.0000340795  -0.0001676765  -0.0002292208   0.0000160276  -0.0000001033
        0.0002171962   0.0000081377  -0.0002482499  -0.0003995737   0.0000867942
       -0.0006762996  -0.0013537086  -0.0004899639   0.0018147723   0.0004822772
       -0.0009219075  -0.0005223341  -0.0014638980  -0.0006504839   0.0010051946
        0.0003682752  -0.0003323841  -0.0000509436   0.0001343271   0.0000586973
       -0.0000332690  -0.0000646721   0.0000562906   0.0000157680  -0.0000391262
        0.0000378143  -0.0000069293   0.0000637146   0.0000449315  -0.0000136261
        0.0000379600  -0.0000738675   0.0000041658   0.0000045716   0.0001510977
        0.0000165959  -0.0001503384  -0.0000794438   0.0000714705   0.0000770791
        0.0000471171  -0.0000036733  -0.0000927515  -0.0001005282  -0.0000030068
        0.0001653086  -0.0001033169   0.0000100907  -0.0001247409   0.0001508497
       -0.0002724473   0.0002623859  -0.0002609493  -0.0000077334   0.0000513558
       -0.0000452267   0.0000685907   0.0000368910  -0.0000374978  -0.0017589017
        0.0002759150  -0.0000368494   0.0012941399   0.0003561769   0.0000579293
       -0.0014172892  -0.0001507030   0.0005043743  -0.0005100565  -0.0003688901
        0.0010037785  -0.0003230079  -0.0000885635   0.0002512205  -0.0002386048
        0.0004252448  -0.0011280582  -0.0036451790   0.0006629427  -0.0015607542
       -0.0019625599   0.0006391193  -0.0001786801   0.0001142864   0.0007105788
        0.0002727623  -0.0010033597  -0.0001459374   0.0004757143  -0.0001209111
       -0.0002039537  -0.0003067619  -0.0015954311   0.0006043353   0.0003280020
       -0.0011830858  -0.0035353087  -0.0003305528   0.0002451675  -0.0010037896
       -0.0000637497  -0.0001959090  -0.0001427564   0.0000046248   0.0000018578
       -0.0000075101  -0.0000007533  -0.0000087883   0.0000654682   0.0000345427
       -0.0000076513   0.0000406946   0.0000683943   0.0000060320  -0.0000111841
        0.0000370543  -0.0000373470   0.0000816551  -0.0000298892   0.0000183748
       -0.0001793747  -0.0003781140   0.0001135754   0.0000528752  -0.0000197309
       -0.0000157746   0.0001090783  -0.0001612354   0.0000254282   0.0000419684
       -0.0000460478  -0.0000061131   0.0000285910  -0.0000318344   0.0001137127
       -0.0000353280  -0.0000200669  -0.0000106329   0.0000256763  -0.0000065836
        0.0000310011  -0.0000266369   0.0000485666  -0.0000518277   0.0000150778
        0.0000216036  -0.0000002526   0.0000206128   0.0000098338  -0.0000105346
       -0.0000085275   0.0000476237   0.0000342960   0.0000313650   0.0000518619
        0.0000202562  -0.0000286753   0.0000149077  -0.0000375205   0.0000395795
       -0.0000050643   0.0000143923   0.0000699132   0.0000040201   0.0000538329
        0.0000254077   0.0000198450   0.0000394059   0.0000374910  -0.0000127757
        0.0000786725  -0.0000043893   0.0000020769   0.0000479144  -0.0000505219
        0.0000143004  -0.0000183429   0.0000087205  -0.0000076017   0.0000431579
        0.0000156449  -0.0000477353   0.0000043688  -0.0000277953  -0.0000390388
        0.0000304698  -0.0000109407  -0.0000130178   0.0000273161  -0.0000555547
       -0.0000147977   0.0000221728   0.0000047444   0.0000154372   0.0000204084
       -0.0000006746  -0.0000641969   0.0000140765  -0.0000564871  -0.0000505241
        0.0000186508  -0.0000516568   0.0000097176   0.0000272265  -0.0000636354
       -0.0000056528   0.0000027091  -0.0000560324   0.0000466264   0.0000151598
       -0.0000006599   0.0000553363   0.0000089793   0.0000010502  -0.0000356738
        0.0000282663  -0.0000263777   0.0000113341  -0.0000439499  -0.0000140519
        0.0000167657   0.0000732924  -0.0000940266   0.0000032944
       -0.1401544914  -0.0984814856   0.0332004585   0.1018157113   0.4063538223
       -0.0212050985  -0.0006853364  -0.0504127944   0.0362504745  -0.0044406343
       -0.0025398435   0.0030469108  -0.0009257176   0.0057577325   0.0008716809
        0.0003593310  -0.0002375431   0.0005519692   0.0010578842   0.0053336470
        0.0020483753   0.0051086183  -0.0030854581   0.0074244715  -0.0251679391
       -0.1009949174  -0.0604178970  -0.0016540838  -0.0241575534  -0.0108516244
        0.0023547572  -0.0038286574   0.0015220978   0.0001637039  -0.0012888373
       -0.0001286005   0.0005546206   0.0024409400   0.0011543643  -0.0047267461
        0.0052191581  -0.0066049201   0.0549421297  -0.1023553015   0.0108371645
        0.0073701804  -0.0352007025   0.0015943683  -0.0045887004  -0.0022904220
       -0.0003035846  -0.0004448152  -0.0041887940  -0.0000166468   0.0014221353
        0.0063355242  -0.0002734281   0.0122222089   0.0105301691  -0.0007634992
       -0.0037686980  -0.0063034047   0.0000300727   0.0014314035   0.0020057253
        0.0002211102  -0.0007850651  -0.0010798176   0.0000374175  -0.0022625351
        0.0032788337   0.0000324958   0.0010906429  -0.0006687775  -0.0000614921
        0.0003104740  -0.0005615275   0.0000923809   0.0001868080  -0.0000206038
       -0.0001973791   0.0001969270  -0.0001609815   0.0000263432   0.0002206070
        0.0000085249  -0.0001860258   0.0001305351   0.0001914003  -0.0001571757
       -0.0000004234   0.0002435305   0.0001770529   0.0000639767  -0.0004936768
       -0.0003103084   0.0000591055  -0.0000969059   0.0007498375  -0.0004489481
        0.0004629026   0.0000098779   0.0002001576  -0.0000598366   0.0002134850
        0.0000150478   0.0000625323   0.0001152388   0.0002027610   0.0000357218
       -0.0001769457   0.0000841394   0.0007490399   0.0000371961  -0.0009367216
       -0.0016952147  -0.0000504689  -0.0000595307  -0.0001208123  -0.0000470319
       -0.0000562889   0.0001286151  -0.0000681435   0.0000446582   0.0000012352
        0.0000321938  -0.0001423329   0.0000916896   0.0001186897   0.0000389603
        0.0003174158  -0.0002567337   0.0004752339   0.0002845537   0.0002047541
       -0.0006414598  -0.0010153559  -0.0003420480   0.0017777226   0.0004546833
       -0.0009105892  -0.0029547193  -0.0027251764   0.0001199372   0.0031887474
        0.0029426742  -0.0001341548  -0.0007710506  -0.0022742602  -0.0010101163
        0.0016223373   0.0006629783  -0.0007511769  -0.0007876172  -0.0007696179
        0.0000452679  -0.0001302438  -0.0001574553   0.0000032257   0.0003985644
        0.0003311011   0.0000709307  -0.0002096422   0.0000030292   0.0000125290
        0.0001955073   0.0001913683  -0.0000149240  -0.0005833167   0.0001145567
        0.0000652718   0.0004265256  -0.0004875226  -0.0000911386  -0.0008494326
        0.0005453035   0.0000755388   0.0005278361  -0.0008702844  -0.0000480274
       -0.0004562521   0.0004269030   0.0000959830   0.0000813700  -0.0005908724
       -0.0000269602   0.0001884201   0.0001904276  -0.0000060061   0.0000042494