$hessian                                                                        
        0.5470575562   0.1601559221  -0.1301549448  -0.5082609900  -0.1451213547
        0.1216179456  -0.0068557388  -0.0029092621   0.0039917776   0.0010705135
       -0.0018542266   0.0028826024  -0.0006989642   0.0003263541  -0.0000375433
        0.0001420513   0.0001265829  -0.0004768664   0.0007609082   0.0002272129
        0.0001174862  -0.0026574563   0.0007557466  -0.0003834741  -0.0116435275
       -0.0083493993  -0.0013531058  -0.0016388157   0.0014906159  -0.0021064285
        0.0008808904  -0.0003414364  -0.0009049034   0.0001516250   0.0002505217
        0.0005334919   0.0008101830   0.0001999092  -0.0009697876   0.0004276441
       -0.0025401914   0.0007285038  -0.0194508777  -0.0035961693   0.0046669299
       -0.0021012584  -0.0044972052  -0.0002121783   0.0000912011  -0.0002069939
       -0.0004327598   0.0001272921  -0.0011127977  -0.0000192279  -0.0005742144
        0.0003599319  -0.0005150331  -0.0011702061   0.0054174090   0.0009993679
        0.0002920526   0.0004612287   0.0001359548   0.0013563001   0.0000252612
       -0.0000006897  -0.0006977435   0.0000776743  -0.0000093413   0.0003172212
        0.0000285938   0.0001320033  -0.0001719478  -0.0000822458  -0.0000203221
       -0.0000194138   0.0000070538  -0.0000129983  -0.0000257764   0.0000154178
       -0.0000312222  -0.0000437623   0.0000727045   0.0000075535  -0.0000359707
        0.0000089159   0.0000877633  -0.0000179174  -0.0000776805   0.0000650977
       -0.0000421946  -0.0000163593  -0.0000032770   0.0000544527  -0.0000468909
        0.0000161414   0.0000485552  -0.0000311165  -0.0002049855  -0.0001084081
       -0.0000126470   0.0000325847  -0.0000500875   0.0000556514  -0.0001015847
        0.0000247521   0.0000044248  -0.0000631243   0.0000080707  -0.0000097486
        0.0000051452   0.0003350762  -0.0001016740  -0.0000110241  -0.0001415307
       -0.0000655423   0.0000001172   0.0000117643  -0.0000305597  -0.0000007859
       -0.0000344105   0.0000387799  -0.0000056335   0.0000061698   0.0000145212
       -0.0000005857   0.0000084653  -0.0000066993   0.0000203800  -0.0000125324
        0.0001238843  -0.0000482098   0.0001049441   0.0000694988   0.0000580366
       -0.0001778352  -0.0002780828  -0.0001219888   0.0004742240   0.0001205196
       -0.0002245906  -0.0008044024  -0.0007120891  -0.0000102447   0.0008725094
        0.0007709171   0.0000040581  -0.0002165104  -0.0005941942  -0.0002770573
        0.0004395832   0.0001862693  -0.0001773663  -0.0001883687  -0.0001636537
        0.0000019946  -0.0000520410  -0.0000299687  -0.0000013100   0.0001121376
        0.0000662172   0.0000133657  -0.0000606576   0.0000188754  -0.0000010902
        0.0000456412   0.0000684192  -0.0000028636  -0.0002012183   0.0000475210
        0.0000052860   0.0001363100  -0.0001683650  -0.0000077694  -0.0002611737
        0.0002091350   0.0000000260   0.0001737669  -0.0002701060  -0.0000042302
       -0.0001559052   0.0001677450   0.0000028343   0.0000157694  -0.0001993265
       -0.0000091554   0.0000737189   0.0000444951  -0.0000018966   0.0000016223
       -0.0000887072  -0.0000022606   0.0000794762   0.0001146283  -0.0000173145
        0.0002267736   0.0004176366   0.0001702010  -0.0006231329  -0.0001370064
        0.0002743692   0.0001604410   0.0004642610   0.0002197911  -0.0003028089
       -0.0001245926   0.0000840591   0.0000077485  -0.0000522855  -0.0000324076
        0.0000033255   0.0000258539  -0.0000170415  -0.0000084291   0.0000058220
       -0.0000245706   0.0000009864  -0.0000276687  -0.0000222092   0.0000074714
       -0.0000259474   0.0000260745  -0.0000025200  -0.0000012053  -0.0000493281
       -0.0000042443   0.0000438742   0.0000308394  -0.0000298314  -0.0000389614
       -0.0000210371   0.0000037024   0.0000224803   0.0000400584   0.0000024050
       -0.0000581956   0.0000455368  -0.0000080677   0.0000454264  -0.0000382055
        0.0000797039  -0.0000956520   0.0000888910  -0.0000117264  -0.0000226116
        0.0000256395  -0.0000429652  -0.0000246758   0.0000203570   0.0004423543
       -0.0003577386  -0.0000315857  -0.0010814147   0.0006911548   0.0000235635
        0.0011155744   0.0000265954  -0.0005154632   0.0001018699  -0.0000440241
        0.0002952531   0.0002214054  -0.0000610678  -0.0001018223   0.0002188408
       -0.0001277339   0.0002062001   0.0020361697  -0.0001875002  -0.0001480150
       -0.0001948282  -0.0001901140   0.0008963062  -0.0000010880  -0.0002844303
       -0.0000763381  -0.0002355538  -0.0001142137   0.0002010988  -0.0000455230
       -0.0001324164  -0.0001737199  -0.0001625234  -0.0001023206   0.0007354947
        0.0002477359   0.0013356300   0.0002627178   0.0000823223   0.0002199822
        0.0000344511   0.0000996601   0.0001173261   0.0001320197   0.0000122747
        0.0000187754   0.0000120032   0.0000179424  -0.0000306349  -0.0000079031
        0.0000176810  -0.0000178364  -0.0000445393   0.0000070104   0.0000198915
       -0.0000179268   0.0000370796  -0.0000241778   0.0000223994   0.0000874125
        0.0001107075   0.0001577377  -0.0001309849   0.0000607971  -0.0000124777
        0.0000055225  -0.0000304428   0.0000730713  -0.0000266398  -0.0000120672
        0.0000479594  -0.0000234155   0.0000011117   0.0000312398  -0.0000542762
       -0.0000126714   0.0000063802   0.0000095930  -0.0000072256  -0.0000029431
       -0.0000207083   0.0000176512  -0.0000236081  -0.0000021452  -0.0000008140
        0.0000074327  -0.0000018932   0.0000087931   0.0000128158  -0.0000011233
        0.0000124588  -0.0000161527  -0.0000054060  -0.0000055950  -0.0000136826
       -0.0000071658   0.0000111410   0.0000053892   0.0000116793  -0.0000288732
       -0.0000075606  -0.0000088587  -0.0000269160  -0.0000014793  -0.0000257354
       -0.0000232381   0.0000042188  -0.0000333560  -0.0000150410  -0.0000091712
       -0.0000340668   0.0000044354  -0.0000031629  -0.0000198255   0.0000232362
        0.0000037505   0.0000244902   0.0000118192  -0.0000081816  -0.0000128910
       -0.0000008366   0.0000128932   0.0000080548   0.0000028590   0.0000168920
        0.0000014034  -0.0000118865  -0.0000080702  -0.0000055978   0.0000037687
       -0.0000025735  -0.0000139551  -0.0000030412  -0.0000168912  -0.0000054298
       -0.0000021406   0.0000270985  -0.0000062664   0.0000250838   0.0000245466
       -0.0000091172   0.0000258503  -0.0000049003  -0.0000106159   0.0000285636
        0.0000046152   0.0000041322   0.0000253322  -0.0000216888  -0.0000056717
       -0.0000015078  -0.0000252678  -0.0000005345  -0.0000022847   0.0000219217
       -0.0000156673   0.0000029479   0.0000036703   0.0000211437  -0.0000045708
       -0.0000015856  -0.0000284970   0.0000270315   0.0000052793
        0.1601559221   0.0943742676  -0.0426491999  -0.1459723537  -0.1022186558
        0.0394742757  -0.0099869934   0.0029320814   0.0035931483   0.0005234783
       -0.0004880046   0.0029739392  -0.0005824063  -0.0004869701  -0.0000022914
        0.0000106334   0.0000854501  -0.0001537841  -0.0003404004  -0.0002038125
       -0.0005470847  -0.0013795991   0.0006303224  -0.0007837478  -0.0179894042
       -0.0021995738   0.0021613504  -0.0009580597   0.0019276358  -0.0001020308
        0.0010402407   0.0010159632  -0.0003915104  -0.0002316671   0.0005275639
       -0.0000641106   0.0010878045  -0.0003489423  -0.0012357115   0.0002614875
       -0.0025048282   0.0008879791   0.0107184891   0.0066548822  -0.0039154996
        0.0003944766   0.0017543838  -0.0004835201   0.0007452525   0.0011884085
        0.0002559567   0.0003728338   0.0005420451   0.0000296580  -0.0002016994
       -0.0007805598   0.0003016022  -0.0003291040  -0.0040235295   0.0001387102
        0.0007193079   0.0016162258  -0.0000499004   0.0002329612  -0.0004876835
       -0.0000490602   0.0000478589   0.0001767433  -0.0000114049   0.0006772850
       -0.0008460222  -0.0000854606  -0.0003036766   0.0001807411   0.0000416546
       -0.0000782284   0.0001425479  -0.0000274765  -0.0000604546   0.0000147937
        0.0000465479  -0.0000647263   0.0000587363   0.0000002263  -0.0000674709
        0.0000040467   0.0000710522  -0.0000404165  -0.0000706896   0.0000682879
        0.0000036928  -0.0000819001  -0.0000563693  -0.0000238783   0.0001187418
        0.0001101945  -0.0000406076   0.0000212718  -0.0001836537   0.0001032360
       -0.0001423467   0.0000113174  -0.0000695586   0.0000242495  -0.0000583626
       -0.0000224829  -0.0000034797  -0.0000474364  -0.0000487835  -0.0000191177
        0.0000742695   0.0000478966  -0.0001154592  -0.0000062312   0.0001745949
        0.0003499502   0.0000242088   0.0000214053   0.0000323187   0.0000048587
        0.0000168504  -0.0000263569   0.0000185311  -0.0000047280   0.0000005168
       -0.0000087560   0.0000450412  -0.0000257934  -0.0000308550  -0.0000139818
       -0.0000570487   0.0000543930  -0.0001007264  -0.0000574017  -0.0000402051
        0.0001351438   0.0002012041   0.0000702923  -0.0003544463  -0.0000882337
        0.0001602605   0.0005980367   0.0005270348   0.0000053663  -0.0006365235
       -0.0005582558  -0.0000037760   0.0001501901   0.0004271468   0.0001974037
       -0.0003173735  -0.0001217745   0.0001175414   0.0001453848   0.0001330957
        0.0000011971   0.0000153142   0.0000240788   0.0000013448  -0.0000883613
       -0.0000641608  -0.0000138598   0.0000396649  -0.0000009675  -0.0000003663
       -0.0000476116  -0.0000494812   0.0000007313   0.0001247861  -0.0000242554
       -0.0000050754  -0.0000842333   0.0001249540   0.0000110036   0.0001630469
       -0.0001330828  -0.0000027038  -0.0001180346   0.0001791067  -0.0000001039
        0.0001113851  -0.0000900904  -0.0000124870  -0.0000084781   0.0001264881
        0.0000023716  -0.0000503132  -0.0000445212  -0.0000016458   0.0000011835
        0.0000520939  -0.0000015381  -0.0000626524  -0.0000704937   0.0000128288
       -0.0001635273  -0.0003039748  -0.0001228981   0.0004403458   0.0000940408
       -0.0002057009  -0.0001240431  -0.0003462037  -0.0001635292   0.0002267033
        0.0000857375  -0.0000617044  -0.0000261041   0.0000200379   0.0000020384
       -0.0000058059  -0.0000214964   0.0000252235   0.0000045789  -0.0000094642
        0.0000044855  -0.0000007019   0.0000088178   0.0000053710   0.0000018004
        0.0000061841  -0.0000095821   0.0000001745   0.0000063673   0.0000330154
        0.0000042120  -0.0000260978  -0.0000127182   0.0000184785   0.0000129565
        0.0000042154   0.0000022241  -0.0000217454  -0.0000162446   0.0000016091
        0.0000352196  -0.0000176432  -0.0000007588  -0.0000333610   0.0000227308
       -0.0000620232   0.0000465812  -0.0000490629  -0.0000077339   0.0000111203
       -0.0000007326  -0.0000102534  -0.0000029863   0.0000096878  -0.0004776037
        0.0001784231   0.0000087097   0.0006662146   0.0001228518  -0.0000209984
        0.0002903413   0.0001894384   0.0001013148  -0.0000734474  -0.0001971564
        0.0002574421   0.0000112392   0.0000404448   0.0001072665   0.0000813319
       -0.0000159105   0.0000121660  -0.0001215853  -0.0004952629   0.0003006350
       -0.0005186619   0.0004189331  -0.0000005768  -0.0000060972  -0.0000898191
        0.0000240329  -0.0003014845  -0.0001394424   0.0000556572  -0.0000214347
       -0.0000763565  -0.0003328106  -0.0006739974   0.0000045174   0.0001082733
        0.0022497435   0.0001891232   0.0000464815  -0.0000209895   0.0002138211
        0.0000067381   0.0002235006  -0.0000500383  -0.0000673708   0.0000358808
        0.0000223343  -0.0000010837   0.0000282355   0.0000365068   0.0000224701
        0.0000296771   0.0000087230   0.0000081262   0.0000237457   0.0000172261
       -0.0000168956   0.0000037575   0.0000418315  -0.0000141371   0.0002536837
        0.0000418779   0.0000522950  -0.0001197037   0.0001712664  -0.0000952342
       -0.0000120033   0.0000234440  -0.0000024611  -0.0000338327  -0.0000005434
        0.0000380118  -0.0000395573  -0.0000032101   0.0000441211   0.0000318431
       -0.0000216821  -0.0000047395   0.0000016926   0.0000095526  -0.0000141011
        0.0000034006  -0.0000113650   0.0000150919  -0.0000186714   0.0000050321
        0.0000151903   0.0000017995   0.0000085218   0.0000056896  -0.0000036379
       -0.0000023606   0.0000165396   0.0000042461   0.0000052924   0.0000112208
       -0.0000030165  -0.0000105437   0.0000018383  -0.0000167009   0.0000167214
       -0.0000024107  -0.0000000923   0.0000199372  -0.0000008908   0.0000080819
        0.0000092374   0.0000020990   0.0000084730   0.0000121812  -0.0000041299
        0.0000141443   0.0000016564  -0.0000011349   0.0000076456  -0.0000088505
        0.0000009422  -0.0000078371   0.0000013773  -0.0000031264   0.0000031166
        0.0000022276  -0.0000080087  -0.0000013417  -0.0000022602  -0.0000105099
        0.0000017259   0.0000005647   0.0000004202   0.0000057295  -0.0000098890
       -0.0000010390   0.0000018342   0.0000051591  -0.0000001409   0.0000024033
       -0.0000015314  -0.0000124592   0.0000005118  -0.0000075579  -0.0000067560
        0.0000021453  -0.0000062566   0.0000011071   0.0000052590  -0.0000093992
        0.0000007015   0.0000000755  -0.0000084527   0.0000072730   0.0000044666
       -0.0000012759   0.0000124865   0.0000027294   0.0000048641  -0.0000038566
       -0.0000004213   0.0000066425  -0.0000063392  -0.0000096003  -0.0000034084
       -0.0000030685  -0.0000315815   0.0000455112   0.0000057026
       -0.1301549448  -0.0426491999   0.0757152530   0.1149723935   0.0365922969
       -0.0850241698   0.0202062154   0.0075039542  -0.0014479321  -0.0016953960
        0.0020106661  -0.0036497963   0.0003817230  -0.0002556825  -0.0014142328
        0.0006421699  -0.0001148080   0.0002751509   0.0009015782  -0.0009001198
        0.0009326814   0.0021383416  -0.0000549308   0.0014895915  -0.0112006692
       -0.0042078878   0.0092652495  -0.0010059530   0.0005585814  -0.0001644460
        0.0006932101   0.0004183786  -0.0010113412   0.0001336906  -0.0001074808
        0.0001940977   0.0013791712   0.0001552484  -0.0001974319   0.0006337980
        0.0003936628   0.0012654930   0.0009922609   0.0002725258   0.0055400497
        0.0003390627   0.0007023918   0.0005550530  -0.0000708231  -0.0000896200
       -0.0004951467  -0.0000100532   0.0002072372   0.0000578501  -0.0000176404
        0.0001220129  -0.0006224208   0.0007269213  -0.0002193333   0.0003507640
        0.0000281200  -0.0006062077   0.0007172413  -0.0004526821   0.0000868073
       -0.0002303975   0.0002008789  -0.0000178673   0.0001781946  -0.0001387007
       -0.0000490354  -0.0007783618   0.0000058977   0.0000068871   0.0002269135
        0.0000411481   0.0000043940   0.0000723352  -0.0000018859  -0.0000127619
       -0.0000128143  -0.0000389772   0.0000210797  -0.0000174649  -0.0000433177
       -0.0000091488   0.0000383601  -0.0000422389  -0.0000221212   0.0000019534
       -0.0000327540   0.0000391247  -0.0000051606  -0.0000203138   0.0000332349
        0.0001656747  -0.0000316117   0.0000813411  -0.0001632497   0.0001094015
        0.0000271976   0.0000941880  -0.0000057151   0.0000562086   0.0000596357
       -0.0000415692   0.0000129075   0.0000841704   0.0000057016  -0.0000049151
        0.0000462488  -0.0001284967   0.0000324272   0.0000226929   0.0000329686
        0.0000320240  -0.0000168614   0.0000025437   0.0000013814   0.0000036833
        0.0000025217   0.0000079478  -0.0000027223  -0.0000065463  -0.0000004374
        0.0000027824  -0.0000058622   0.0000015846  -0.0000031045   0.0000013241
       -0.0000232500   0.0000085690  -0.0000571281  -0.0000414607  -0.0000165359
        0.0000495938   0.0000918770   0.0000391603  -0.0001579982  -0.0000283698
        0.0000786570   0.0002499718   0.0002244232   0.0000025699  -0.0002740806
       -0.0002379120   0.0000021441   0.0000609839   0.0001869723   0.0000937142
       -0.0001401063  -0.0000477658   0.0000637543   0.0000618319   0.0000535209
       -0.0000010588   0.0000217261   0.0000157430   0.0000041028  -0.0000374355
       -0.0000177840  -0.0000074669   0.0000131406  -0.0000070131   0.0000040563
       -0.0000272870  -0.0000131723   0.0000037172   0.0000548512   0.0000007866
        0.0000015159  -0.0000244161   0.0000518109   0.0000060400   0.0000746129
       -0.0000552969   0.0000025458  -0.0000477191   0.0000760857   0.0000032209
        0.0000488975  -0.0000318526   0.0000016691   0.0000104097   0.0000541268
        0.0000056079  -0.0000163622  -0.0000282648   0.0000041724  -0.0000057109
        0.0000158265   0.0000029180  -0.0000232239  -0.0000367219   0.0000092321
       -0.0000579199  -0.0001313670  -0.0000600248   0.0001959037   0.0000308853
       -0.0000958086  -0.0000399264  -0.0001559331  -0.0000776921   0.0000992998
        0.0000252677  -0.0000318081   0.0000014400   0.0000036367   0.0000010751
       -0.0000001412   0.0000030139  -0.0000019243   0.0000016480   0.0000048186
       -0.0000032233   0.0000012845   0.0000005566   0.0000000551  -0.0000014079
        0.0000006840  -0.0000045387  -0.0000013263   0.0000021314   0.0000045260
        0.0000004091  -0.0000115127  -0.0000099387   0.0000035213   0.0000054403
        0.0000014281  -0.0000036026  -0.0000040513  -0.0000052343  -0.0000049416
        0.0000111313  -0.0000112196  -0.0000007949  -0.0000163264   0.0000034188
       -0.0000163617   0.0000240358  -0.0000161748   0.0000010460   0.0000040147
       -0.0000050084   0.0000225660   0.0000204430  -0.0000115216  -0.0001636161
        0.0000865755   0.0000059690   0.0002149023  -0.0000957539  -0.0000704156
       -0.0001434005   0.0002997294  -0.0001757645   0.0001754892   0.0000798839
       -0.0005522214   0.0000474352   0.0001904558  -0.0001361995  -0.0000753232
        0.0000005545   0.0000631640   0.0008818570   0.0003933341  -0.0012297830
       -0.0002477186  -0.0004142964   0.0001552397   0.0000848611  -0.0000998248
       -0.0000507076  -0.0002234719  -0.0001419730   0.0000811444   0.0000201251
        0.0000616564   0.0000017239  -0.0000833342  -0.0000884734   0.0002450245
       -0.0001824087  -0.0001165459  -0.0003739684  -0.0000126351  -0.0000347890
       -0.0000234120  -0.0000266666  -0.0000187115   0.0000957221   0.0000138436
       -0.0000266703  -0.0000080385   0.0000102431   0.0000340850   0.0000205099
        0.0000124301   0.0000164562   0.0000406916   0.0000204602  -0.0000130331
        0.0000497040   0.0000229615   0.0000021211  -0.0000235376   0.0001564278
        0.0000289762  -0.0000563129  -0.0000038761  -0.0000233712  -0.0001614714
        0.0000167650  -0.0000894511   0.0000429850  -0.0000133638  -0.0000382053
        0.0000100705   0.0000076286  -0.0000183785  -0.0000195026   0.0000198134
       -0.0000021897  -0.0000159105  -0.0000033021  -0.0000086710  -0.0000029968
        0.0000014763  -0.0000047005   0.0000017719  -0.0000002727  -0.0000018090
       -0.0000055511   0.0000024838  -0.0000008734  -0.0000052901  -0.0000003040
       -0.0000039660   0.0000002069   0.0000019534   0.0000018549   0.0000034344
        0.0000040778  -0.0000025950  -0.0000021192   0.0000006877   0.0000037343
        0.0000007655   0.0000010692   0.0000012521   0.0000009757   0.0000013655
        0.0000026217   0.0000013472   0.0000039941  -0.0000003535   0.0000040675
        0.0000016511  -0.0000009746   0.0000039740   0.0000014028  -0.0000008487
        0.0000019706  -0.0000054854  -0.0000003682   0.0000028495  -0.0000003678
        0.0000015552   0.0000003055  -0.0000040910   0.0000033270   0.0000017173
       -0.0000045384   0.0000055453   0.0000042313  -0.0000020317   0.0000037900
        0.0000026987   0.0000036701  -0.0000045951   0.0000013708   0.0000011887
        0.0000002700   0.0000023080   0.0000009781  -0.0000014614  -0.0000024090
        0.0000014628  -0.0000056958   0.0000004462   0.0000006307  -0.0000030221
       -0.0000013022  -0.0000020744  -0.0000058421   0.0000046375   0.0000009031
        0.0000002163   0.0000091636   0.0000004838   0.0000043530  -0.0000057630
        0.0000038132  -0.0000070715  -0.0000022194  -0.0000100722  -0.0000137614
        0.0000005001   0.0000096805  -0.0000131955  -0.0000227395
       -0.5082609900  -0.1459723537   0.1149723935   0.7044203461   0.1055130815
       -0.0863605322  -0.0371149007  -0.0050568675   0.0071288012  -0.0005192249
       -0.0044313207   0.0149295665  -0.0019241210  -0.0011258257   0.0036921146
       -0.0018178131   0.0000617320   0.0000005549  -0.0037983084   0.0014507727
       -0.0034630167   0.0031973074   0.0051989172  -0.0150299163  -0.0495386824
       -0.0289632431  -0.0224995361   0.0034527376  -0.0008566060   0.0063895210
        0.0036237621   0.0038919418  -0.0013693652  -0.0006246326   0.0001174936
       -0.0009669962   0.0030029033   0.0014340397  -0.0038227064  -0.0047644414
       -0.0059455097  -0.0094987220  -0.0878247840   0.0569030349  -0.0032624331
        0.0099960108   0.0130468568   0.0007002274   0.0020691537  -0.0043926333
        0.0000511076  -0.0012106283   0.0026923151   0.0001097119  -0.0037363839
       -0.0039395864  -0.0001850740  -0.0203970320   0.0109132321  -0.0005787079
        0.0055542579   0.0016108221  -0.0000998063  -0.0039415956  -0.0007230936
       -0.0000624701   0.0017260192   0.0003804645   0.0000044140  -0.0001369113
       -0.0009052340  -0.0000846881   0.0000453622   0.0002818149   0.0000159130
        0.0000027746   0.0001581339   0.0000536305   0.0000274578  -0.0000890814
        0.0000406350   0.0000247088  -0.0000175826  -0.0000478805   0.0000061036
       -0.0000149569  -0.0000274009   0.0000124184   0.0000267802  -0.0000993858
        0.0000741861   0.0000326009  -0.0001185477  -0.0001955775   0.0002679487
        0.0000068090  -0.0001249044   0.0000094397   0.0003729181   0.0003209361
       -0.0001751488  -0.0000194268  -0.0000909572  -0.0000732699   0.0001291033
        0.0000588752  -0.0000324957  -0.0000463739   0.0000146813  -0.0000549131
        0.0000676005  -0.0007881805  -0.0000326134  -0.0000131223   0.0005275076
        0.0007539278   0.0000130163   0.0000075352   0.0000353446   0.0000320973
        0.0000720989  -0.0000769216   0.0000073634  -0.0000403062  -0.0000109418
       -0.0000122615   0.0000453244  -0.0000246456  -0.0000819009  -0.0000126915
       -0.0003432410   0.0001974864  -0.0003851400  -0.0002071939  -0.0002065217
        0.0005346256   0.0009013373   0.0003731705  -0.0015068570  -0.0003538293
        0.0006982062   0.0025486050   0.0022316626   0.0000195051  -0.0026767118
       -0.0023608212  -0.0000183818   0.0006638695   0.0018037800   0.0008150929
       -0.0013590729  -0.0005292235   0.0005214309   0.0006440429   0.0005770803
        0.0000038707   0.0001147126   0.0000805783   0.0000033802  -0.0003683319
       -0.0002372992  -0.0000553361   0.0002042238  -0.0000460269   0.0000047795
       -0.0001783390  -0.0001881055   0.0000062520   0.0005624991  -0.0001158718
       -0.0000163739  -0.0003537343   0.0005117630   0.0000337302   0.0007640855
       -0.0005855208  -0.0000029260  -0.0004883006   0.0007942548   0.0000089453
        0.0004723274  -0.0004296221  -0.0000247356  -0.0000259549   0.0005592599
        0.0000216513  -0.0002043855  -0.0001773356   0.0000031497  -0.0000111878
        0.0002114552   0.0000002479  -0.0002668934  -0.0003518405   0.0000657204
       -0.0006703644  -0.0013021768  -0.0005181806   0.0018746750   0.0004371070
       -0.0008117805  -0.0005088143  -0.0014683888  -0.0006739466   0.0010200949
        0.0003567210  -0.0002866555  -0.0000532356   0.0001369820   0.0000614134
       -0.0000313794  -0.0000670926   0.0000586580   0.0000161944  -0.0000309840
        0.0000344215  -0.0000070051   0.0000627187   0.0000473819  -0.0000141776
        0.0000403656  -0.0000738597   0.0000053349   0.0000011478   0.0001567593
        0.0000166944  -0.0001473670  -0.0000882407   0.0000891261   0.0000756878
        0.0000591003  -0.0000042387  -0.0000942300  -0.0001050799  -0.0000026581
        0.0001776406  -0.0000980099   0.0000095468  -0.0001290739   0.0001350943
       -0.0002784309   0.0002751509  -0.0002537826  -0.0000014644   0.0000542473
       -0.0000430913   0.0000674542   0.0000382862  -0.0000369415  -0.0017302259
        0.0002485735   0.0000072068   0.0012934521   0.0003116826   0.0000488823
       -0.0014391612  -0.0001953835   0.0005954911  -0.0005028198  -0.0004212299
        0.0010288128  -0.0003079247  -0.0001072912   0.0002672538  -0.0002610073
        0.0004673769  -0.0011040745  -0.0036777302   0.0006800120  -0.0014232118
       -0.0019439124   0.0006592042  -0.0001242242   0.0001106417   0.0007122589
        0.0002940913  -0.0009734456  -0.0001518799   0.0004864619  -0.0001379261
       -0.0002160183  -0.0003310080  -0.0015933458   0.0006253601   0.0003449292
       -0.0011710413  -0.0034947211  -0.0004870166   0.0002331069  -0.0009980721
       -0.0000991587  -0.0001867406  -0.0001491859  -0.0000348401   0.0000013316
       -0.0000045705  -0.0000004012  -0.0000057548   0.0000632043   0.0000344445
       -0.0000052016   0.0000390451   0.0000684144   0.0000067375  -0.0000098464
        0.0000312354  -0.0000483082   0.0000880457  -0.0000233556   0.0000022649
       -0.0001780699  -0.0003945349   0.0001210097   0.0000485382  -0.0000084286
       -0.0000180938   0.0001236193  -0.0001531619   0.0000246252   0.0000483064
       -0.0000434618  -0.0000088119   0.0000331412  -0.0000247508   0.0001158572
       -0.0000272886  -0.0000196269  -0.0000095289   0.0000321180  -0.0000086964
        0.0000330397  -0.0000449795   0.0000683662  -0.0000265087   0.0000068994
        0.0000104215   0.0000038598  -0.0000006912  -0.0000139277  -0.0000099578
       -0.0000262229   0.0000475223   0.0000286790   0.0000249330   0.0000525783
        0.0000162638  -0.0000348930  -0.0000064685  -0.0000386848   0.0000702919
        0.0000101369   0.0000193286   0.0000751532   0.0000027533   0.0000606361
        0.0000499549  -0.0000008830   0.0000717736   0.0000411130   0.0000102849
        0.0000848193  -0.0000085001   0.0000060470   0.0000484439  -0.0000567880
       -0.0000025292  -0.0000521654  -0.0000170529   0.0000123618   0.0000401102
        0.0000127123  -0.0000472871  -0.0000148817  -0.0000209173  -0.0000444135
        0.0000070808   0.0000159043   0.0000074782   0.0000161603  -0.0000333736
       -0.0000027401   0.0000381457   0.0000090980   0.0000333707   0.0000194098
        0.0000027295  -0.0000670457   0.0000142098  -0.0000554358  -0.0000536684
        0.0000198112  -0.0000525327   0.0000093102   0.0000285512  -0.0000649216
       -0.0000080293  -0.0000100643  -0.0000577925   0.0000475817   0.0000164644
        0.0000005630   0.0000575752   0.0000097583   0.0000059768  -0.0000509964
        0.0000297609  -0.0000020679  -0.0000086354  -0.0000455380  -0.0000134566
        0.0000206700   0.0000726120  -0.0000804648   0.0000000622
       -0.1451213547  -0.1022186558   0.0365922969   0.1055130815   0.4087516566
       -0.0235689735   0.0003863276  -0.0533321442   0.0397959434  -0.0048255146
       -0.0029289365   0.0037288194  -0.0011316900   0.0056811670   0.0009680020
        0.0004265058  -0.0002892829   0.0006066507   0.0011683129   0.0051899595
        0.0021716406   0.0058773262  -0.0035748506   0.0078499283  -0.0258729979
       -0.0966736426  -0.0603159115  -0.0020636030  -0.0233866281  -0.0118051283
        0.0024732880  -0.0038786481   0.0011536096   0.0001915743  -0.0012982671
       -0.0001488053   0.0007990000   0.0023705903   0.0012755291  -0.0045804384
        0.0058680070  -0.0056550860   0.0551407065  -0.1028832615   0.0069217483
        0.0076829486  -0.0348237470   0.0001706307  -0.0045178934  -0.0023094029
       -0.0005025285  -0.0003615589  -0.0037746142  -0.0001398205   0.0009987152
        0.0059459332  -0.0002971576   0.0122446866   0.0106598619  -0.0006695943
       -0.0037453380  -0.0063945738   0.0000180380   0.0013203627   0.0018485870
        0.0002357851  -0.0004346934  -0.0011872851   0.0000312320  -0.0022740403
        0.0032828098   0.0001333807   0.0010588604  -0.0006853368  -0.0000842599
        0.0003157275  -0.0005644120   0.0000653329   0.0001822552  -0.0000144580
       -0.0002038559   0.0001934747  -0.0001598643   0.0000124976   0.0002122326
        0.0000157116  -0.0001875680   0.0001209648   0.0001947978  -0.0001528074
       -0.0000039593   0.0002384794   0.0001858001   0.0000615234  -0.0004762839
       -0.0003098470   0.0000732083  -0.0001162824   0.0007184594  -0.0004377693
        0.0004667755   0.0000516617   0.0002073713  -0.0000600224   0.0002099345
        0.0000131957   0.0000566866   0.0001279406   0.0001965714   0.0000427154
       -0.0001780598  -0.0002357941   0.0008202495   0.0000692261  -0.0009155665
       -0.0016582254  -0.0000884117  -0.0000606197  -0.0001187962  -0.0000467803
       -0.0000727981   0.0001289153  -0.0000632032   0.0000371788   0.0000019181
        0.0000328624  -0.0001525986   0.0000940291   0.0001198293   0.0000297572
        0.0003170407  -0.0002414956   0.0003909842   0.0002006298   0.0001934634
       -0.0006125349  -0.0008763275  -0.0003074722   0.0015747909   0.0004190696
       -0.0006914616  -0.0026812204  -0.0023453411  -0.0000204377   0.0028552833
        0.0025053825   0.0000183955  -0.0007113262  -0.0018964274  -0.0008393924
        0.0014277732   0.0005668799  -0.0005196402  -0.0006600005  -0.0006008459
       -0.0000015444  -0.0000559535  -0.0000807085  -0.0000051532   0.0004031833
        0.0002621408   0.0000673157  -0.0002145126   0.0000439437  -0.0000000887
        0.0002036873   0.0001989560  -0.0000029967  -0.0005913120   0.0001367838
        0.0000225789   0.0004124950  -0.0005446181  -0.0000449751  -0.0008010173
        0.0006256563   0.0000130019   0.0005466792  -0.0008632813  -0.0000057047
       -0.0004862598   0.0004510195   0.0000466371   0.0000618933  -0.0006040975
       -0.0000158507   0.0002101825   0.0001822064   0.0000030811   0.0000271310