      -----------------------------------------------------------      
     |                   =====================                   |     
     |                           x T B                           |     
     |                   =====================                   |     
     |                         S. Grimme                         |     
     |          Mulliken Center for Theoretical Chemistry        |     
     |                    University of Bonn                     |     
      -----------------------------------------------------------      

   * xtb version 6.7.1 (edcfbbe) compiled by 'albert@albert-system' on 2024-07-22

   xtb is free software: you can redistribute it and/or modify it under
   the terms of the GNU Lesser General Public License as published by
   the Free Software Foundation, either version 3 of the License, or
   (at your option) any later version.
   
   xtb is distributed in the hope that it will be useful,
   but WITHOUT ANY WARRANTY; without even the implied warranty of
   MERCHANTABILITY or FITNESS FOR A PARTICULAR PURPOSE.  See the
   GNU Lesser General Public License for more details.
   
   Cite this work as:
   * C. Bannwarth, E. Caldeweyher, S. Ehlert, A. Hansen, P. Pracht,
     J. Seibert, S. Spicher, S. Grimme, WIREs Comput. Mol. Sci., 2020, 11,
     e01493. DOI: 10.1002/wcms.1493
   
   for GFN2-xTB:
   * C. Bannwarth, S. Ehlert and S. Grimme., J. Chem. Theory Comput., 2019,
     15, 1652-1671. DOI: 10.1021/acs.jctc.8b01176
   for GFN1-xTB:
   * S. Grimme, C. Bannwarth, P. Shushkov, J. Chem. Theory Comput., 2017,
     13, 1989-2009. DOI: 10.1021/acs.jctc.7b00118
   for GFN0-xTB:
   * P. Pracht, E. Caldeweyher, S. Ehlert, S. Grimme, ChemRxiv, 2019, preprint.
     DOI: 10.26434/chemrxiv.8326202.v1
   for GFN-FF:
   * S. Spicher and S. Grimme, Angew. Chem. Int. Ed., 2020, 59, 15665-15673.
     DOI: 10.1002/anie.202004239
   
   for ALPB and GBSA implicit solvation:
   * S. Ehlert, M. Stahn, S. Spicher, S. Grimme, J. Chem. Theory Comput.,
     2021, 17, 4250-4261. DOI: 10.1021/acs.jctc.1c00471
   
   for ddCOSMO and CPCM-X implicit solvation:
   * M. Stahn, S. Ehlert, S. Grimme, J. Phys. Chem. A,
     2023, XX, XXXX-XXXX. DOI: 10.1021/acs.jpca.3c04382
   
   for DFT-D4:
   * E. Caldeweyher, C. Bannwarth and S. Grimme, J. Chem. Phys., 2017,
     147, 034112. DOI: 10.1063/1.4993215
   * E. Caldeweyher, S. Ehlert, A. Hansen, H. Neugebauer, S. Spicher,
     C. Bannwarth and S. Grimme, J. Chem. Phys., 2019, 150, 154122.
     DOI: 10.1063/1.5090222
   * E. Caldeweyher, J.-M. Mewes, S. Ehlert and S. Grimme, Phys. Chem. Chem. Phys.
     2020, 22, 8499-8512. DOI: 10.1039/D0CP00502A
   
   for sTDA-xTB:
   * S. Grimme and C. Bannwarth, J. Chem. Phys., 2016, 145, 054103.
     DOI: 10.1063/1.4959605
   
   in the mass-spec context:
   * V. Asgeirsson, C. Bauer and S. Grimme, Chem. Sci., 2017, 8, 4879.
     DOI: 10.1039/c7sc00601b
   * J. Koopman and S. Grimme, ACS Omega 2019, 4, 12, 15120-15133.
     DOI: 10.1021/acsomega.9b02011
   
   for metadynamics refer to:
   * S. Grimme, J. Chem. Theory Comput., 2019, 155, 2847-2862
     DOI: 10.1021/acs.jctc.9b00143
   
   for SPH calculations refer to:
   * S. Spicher and S. Grimme, J. Chem. Theory Comput., 2021, 17, 1701-1714
     DOI: 10.1021/acs.jctc.0c01306
   
   for ONIOM refer to:
   * C. Plett, A. Katbashev, S. Ehlert, S. Grimme, M. Bursch,
     Phys. Chem. Chem. Phys., 2023, 25, 17860-17868. DOI: 10.1039/D3CP02178E
   
   for DIPRO refer to:
   * J. Kohn, N. Gildemeister, S. Grimme, D. Fazzi, A. Hansen,
     J. Chem. Phys., 2023, just accepted.
   
   for PTB refer to:
   * S. Grimme, M. Mueller, A. Hansen, J. Chem. Phys., 2023, 158, 124111.
     DOI: 10.1063/5.0137838
   
   with help from (in alphabetical order)
   P. Atkinson, C. Bannwarth, F. Bohle, G. Brandenburg, E. Caldeweyher
   M. Checinski, S. Dohm, S. Ehlert, S. Ehrlich, I. Gerasimov, C. Hölzer
   A. Katbashev, J. Kohn, J. Koopman, C. Lavigne, S. Lehtola, F. März, M. Müller,
   F. Musil, H. Neugebauer, J. Pisarek, C. Plett, P. Pracht, F. Pultar,
   J. Seibert, P. Shushkov, S. Spicher, M. Stahn, M. Steiner, T. Strunk,
   J. Stückrath, T. Rose, and J. Unsleber
   
 * started run on 2025/09/02 at 18:51:01.476     
   ID    Z sym.   atoms
    1    6 C      1-5, 7-12, 14-29, 31-37, 39-56
    2    7 N      6, 13, 30, 38
    3    1 H      57-90

           -------------------------------------------------
          |                Calculation Setup                |
           -------------------------------------------------

          program call               : xtb data2507/toluene/pzpy/pzpy_toluene_S0_finalOpt.xtbopt.xyz --gfn 2 --uhf 2 --gbsa toluene --ohess vtight --parallel 40 --molden --ceasefiles --namespace data2507/toluene/pzpy/pzpy_toluene_T1_preOpt
          calculation namespace      : data2507/toluene/pzpy/pzpy_toluene_T1_preOpt
          coordinate file            : data2507/toluene/pzpy/pzpy_toluene_S0_finalOpt.xtbopt.xyz
          omp threads                :                    40


           -------------------------------------------------
          |                 G F N 2 - x T B                 |
           -------------------------------------------------

        Reference                      10.1021/acs.jctc.8b01176
      * Hamiltonian:
        H0-scaling (s, p, d)           1.850000    2.230000    2.230000
        zeta-weighting                 0.500000
      * Dispersion:
        s8                             2.700000
        a1                             0.520000
        a2                             5.000000
        s9                             5.000000
      * Repulsion:
        kExp                           1.500000    1.000000
        rExp                           1.000000
      * Coulomb:
        alpha                          2.000000
        third order                    shell-resolved
        anisotropic                    true
        a3                             3.000000
        a5                             4.000000
        cn-shift                       1.200000
        cn-exp                         4.000000
        max-rad                        5.000000

      * Solvation model:               GBSA
        Solvent                        toluene
        Parameter file                 internal GFN2-xTB/GBSA
        Dielectric constant                7.0000E+00
        Reference state                gsolv [1 M gas/solution]
        Free energy shift                  4.5239E-03 Eh       2.8388E+00 kcal/mol
        Temperature                        2.9815E+02 K
        Density                            8.6700E-01 kg/L
        Solvent mass                       9.2140E+01 g/mol
        Interaction kernel             Still
        Born radius scaling (c1)           1.5686E+00
        Born radii integrator          GBOBC
        Born offset                        0.0000E+00 a0       0.0000E+00 AA
        H-bond correction              false
        Ion screening                  false
        Surface tension                    1.0000E-05 Eh       1.5569E+01 dyn/cm
        Grid points                               230 per atom

          ...................................................
          :                      SETUP                      :
          :.................................................:
          :  # basis functions                 258          :
          :  # atomic orbitals                 258          :
          :  # shells                          146          :
          :  # electrons                       262          :
          :  max. iterations                   250          :
          :  Hamiltonian                  GFN2-xTB          :
          :  restarted?                      false          :
          :  GBSA solvation                   true          :
          :  PC potential                    false          :
          :  electronic temp.          300.0000000     K    :
          :  accuracy                    1.0000000          :
          :  -> integral cutoff          0.2500000E+02      :
          :  -> integral neglect         0.1000000E-07      :
          :  -> SCF convergence          0.1000000E-05 Eh   :
          :  -> wf. convergence          0.1000000E-03 e    :
          :  Broyden damping             0.4000000          :
          :  net charge                          0          :
          :  unpaired electrons                  2          :
          ...................................................

 iter      E             dE          RMSdq      gap      omega  full diag
   1   -142.9288939 -0.142929E+03  0.443E+00    0.53       0.0  T
   2   -143.0313794 -0.102486E+00  0.269E+00    0.56       1.0  T
   3   -142.9487644  0.826150E-01  0.129E+00    0.65       1.0  T
   4   -143.0524982 -0.103734E+00  0.368E-01    0.53       1.0  T
   5   -143.0642661 -0.117679E-01  0.157E-01    0.61       1.0  T
   6   -143.0661182 -0.185212E-02  0.494E-02    0.57       1.0  T
   7   -143.0662733 -0.155076E-03  0.183E-02    0.58       1.0  T
   8   -143.0662766 -0.337872E-05  0.993E-03    0.58       1.1  T
   9   -143.0662796 -0.294794E-05  0.195E-03    0.58       5.4  T
  10   -143.0662798 -0.224459E-06  0.101E-03    0.58      10.4  T
  11   -143.0662799 -0.579792E-07  0.519E-04    0.58      20.3  T
  12   -143.0662799 -0.522701E-08  0.305E-04    0.58      34.6  T

   *** convergence criteria satisfied after 12 iterations ***

         #    Occupation            Energy/Eh            Energy/eV
      -------------------------------------------------------------
         1        2.0000           -0.6902014             -18.7813
       ...           ...                  ...                  ...
       126        2.0000           -0.3848511             -10.4723
       127        2.0000           -0.3838230             -10.4444
       128        2.0000           -0.3837763             -10.4431
       129        2.0000           -0.3819005             -10.3920
       130        1.9999           -0.3817000             -10.3866
       131        1.0001           -0.3636701              -9.8960
       132        1.0000           -0.2849733              -7.7545 (HOMO)
       133        0.0000           -0.2637375              -7.1767 (LUMO)
       134        0.0000           -0.2635019              -7.1703
       135                         -0.2404199              -6.5422
       136                         -0.2403212              -6.5395
       137                         -0.2402717              -6.5381
       ...                                ...                  ...
       258                          0.7100620              19.3218
      -------------------------------------------------------------
                  HL-Gap            0.0212358 Eh            0.5779 eV
             Fermi-level           -0.3234827 Eh           -8.8024 eV
 
 transition dipole moment (au) for excitation:         131         132
     X       Y       Z   
  -1.9509   0.0003   0.0575  total (au/Debye):    1.952   4.961
 dE (eV)             :    2.141
 oscillator strength :  0.28264E+00

 SCC (total)                   0 d,  0 h,  0 min,  0.312 sec
 SCC setup                      ...        0 min,  0.013 sec (  4.260%)
 Dispersion                     ...        0 min,  0.007 sec (  2.379%)
 classical contributions        ...        0 min,  0.000 sec (  0.110%)
 integral evaluation            ...        0 min,  0.010 sec (  3.331%)
 iterations                     ...        0 min,  0.228 sec ( 73.220%)
 molecular gradient             ...        0 min,  0.014 sec (  4.541%)
 printout                       ...        0 min,  0.038 sec ( 12.128%)

         :::::::::::::::::::::::::::::::::::::::::::::::::::::
         ::                     SUMMARY                     ::
         :::::::::::::::::::::::::::::::::::::::::::::::::::::
         :: total energy            -140.426669690188 Eh    ::
         :: total w/o Gsasa/hb      -140.370886650893 Eh    ::
         :: gradient norm              0.118048758501 Eh/a0 ::
         :: HOMO-LUMO gap              0.577855725452 eV    ::
         ::.................................................::
         :: SCC energy              -143.066271672745 Eh    ::
         :: -> isotropic ES            0.037475919061 Eh    ::
         :: -> anisotropic ES          0.011780674503 Eh    ::
         :: -> anisotropic XC          0.087849685568 Eh    ::
         :: -> dispersion             -0.131210501880 Eh    ::
         :: -> Gsolv                  -0.061428281901 Eh    ::
         ::    -> Gelec               -0.005645242606 Eh    ::
         ::    -> Gsasa               -0.060306919167 Eh    ::
         ::    -> Ghb                  0.000000000000 Eh    ::
         ::    -> Gshift               0.004523879872 Eh    ::
         :: repulsion energy           2.639601982556 Eh    ::
         :: add. restraining           0.000000000000 Eh    ::
         :: total charge               0.000000000279 e     ::
         :::::::::::::::::::::::::::::::::::::::::::::::::::::

      ----------------------------------------------------------- 
     |                   =====================                   |
     |                        A N C O P T                        |
     |                   =====================                   |
     |               Approximate Normal Coordinate               |
     |                Rational Function Optimizer                |
      ----------------------------------------------------------- 

Optimization log is written to '/dev/null'
      ----------------------------------------------------------- 
     |                   =====================                   |
     |                        A N C O P T                        |
     |                   =====================                   |
     |               Approximate Normal Coordinate               |
     |                Rational Function Optimizer                |
      ----------------------------------------------------------- 

          ...................................................
          :                      SETUP                      :
          :.................................................:
          :   optimization level         verytight          :
          :   max. optcycles                  1800          :
          :   ANC micro-cycles                  20          :
          :   degrees of freedom               264          :
          :.................................................:
          :   RF solver                   davidson          :
          :   write xtbopt.log                true          :
          :   linear?                        false          :
          :   energy convergence         0.1000000E-06 Eh   :
          :   grad. convergence          0.2000000E-03 Eh/α :
          :   maxmium RF displ.          1.0000000          :
          :   Hlow (freq-cutoff)         0.1000000E-01      :
          :   Hmax (freq-cutoff)         5.0000000          :
          :   S6 in model hess.         20.0000000          :
          ...................................................

generating ANC from exact Hessian ...
Using Lindh-Hessian (1995)
 Shifting diagonal of input Hessian by   9.949879894046589E-003
 Lowest  eigenvalues of input Hessian
    0.000000    0.000000    0.000000    0.000000    0.000000    0.000000
    0.010000    0.010011    0.010027    0.010122    0.010141    0.010585
    0.010809    0.010866    0.011051    0.011144    0.011409    0.011628
 Highest eigenvalues
    2.116853    2.122250    2.215996    2.216021    2.248788    2.249114
 

........................................................................
.............................. CYCLE    1 ..............................
........................................................................

 iter      E             dE          RMSdq      gap      omega  full diag
   1   -143.0662799 -0.143066E+03  0.125E-04    0.58       0.0  T
   2   -143.0662799 -0.181899E-10  0.109E-04    0.58      96.5  T
   3   -143.0662799 -0.878032E-09  0.508E-05    0.58     207.5  T
     SCC iter.                  ...        0 min,  0.037 sec
     gradient                   ...        0 min,  0.014 sec
 * total energy  :  -140.4266697 Eh     change       -0.3358338E-08 Eh
   gradient norm :     0.1180490 Eh/α   predicted     0.0000000E+00 (-100.00%)
   displ. norm   :     0.1441356 α      lambda       -0.8780204E-02
   maximum displ.:     0.0740590 α      in ANC's #101, #59, #57, ...

........................................................................
.............................. CYCLE    2 ..............................
........................................................................

 iter      E             dE          RMSdq      gap      omega  full diag
   1   -143.0584908 -0.143058E+03  0.646E-02    0.71       0.0  T
   2   -143.0585031 -0.122669E-04  0.410E-02    0.70       1.0  T
   3   -143.0584818  0.212286E-04  0.181E-02    0.71       1.0  T
   4   -143.0585065 -0.246263E-04  0.538E-03    0.70       2.0  T
   5   -143.0585099 -0.343417E-05  0.703E-04    0.70      15.0  T
   6   -143.0585099 -0.684562E-08  0.349E-04    0.70      30.2  T
   7   -143.0585099 -0.285937E-08  0.165E-04    0.70      64.1  T
     SCC iter.                  ...        0 min,  0.078 sec
     gradient                   ...        0 min,  0.014 sec
 * total energy  :  -140.4327216 Eh     change       -0.6051948E-02 Eh
   gradient norm :     0.0501711 Eh/α   predicted    -0.4481381E-02 ( -25.95%)
   displ. norm   :     0.1126874 α      lambda       -0.2499016E-02
   maximum displ.:     0.0630802 α      in ANC's #20, #14, #17, ...

........................................................................
.............................. CYCLE    3 ..............................
........................................................................

 iter      E             dE          RMSdq      gap      omega  full diag
   1   -143.0571810 -0.143057E+03  0.423E-02    0.78       0.0  T
   2   -143.0571849 -0.394810E-05  0.259E-02    0.78       1.0  T
   3   -143.0571762  0.871134E-05  0.110E-02    0.78       1.0  T
   4   -143.0571862 -0.993789E-05  0.318E-03    0.78       3.3  T
   5   -143.0571873 -0.110132E-05  0.440E-04    0.78      23.9  T
   6   -143.0571873 -0.875730E-09  0.213E-04    0.78      49.5  T
   7   -143.0571873 -0.155484E-08  0.789E-05    0.78     133.7  T
     SCC iter.                  ...        0 min,  0.077 sec
     gradient                   ...        0 min,  0.014 sec
 * total energy  :  -140.4341147 Eh     change       -0.1393011E-02 Eh
   gradient norm :     0.0073831 Eh/α   predicted    -0.1265472E-02 (  -9.16%)
   displ. norm   :     0.0893775 α      lambda       -0.1848177E-03
   maximum displ.:     0.0584091 α      in ANC's #20, #14, #17, ...

........................................................................
.............................. CYCLE    4 ..............................
........................................................................

 iter      E             dE          RMSdq      gap      omega  full diag
   1   -143.0564097 -0.143056E+03  0.263E-02    0.79       0.0  T
   2   -143.0564099 -0.144183E-06  0.154E-02    0.79       1.0  T
   3   -143.0564095  0.422299E-06  0.215E-03    0.79       4.9  T
   4   -143.0564099 -0.496471E-06  0.369E-04    0.79      28.6  T
   5   -143.0564100 -0.633793E-08  0.220E-04    0.79      47.8  T
     SCC iter.                  ...        0 min,  0.055 sec
     gradient                   ...        0 min,  0.014 sec
 * total energy  :  -140.4342598 Eh     change       -0.1451625E-03 Eh
   gradient norm :     0.0035075 Eh/α   predicted    -0.9315913E-04 ( -35.82%)
   displ. norm   :     0.2168318 α      lambda       -0.2576944E-03
   maximum displ.:     0.1387249 α      in ANC's #20, #14, #17, ...

........................................................................
.............................. CYCLE    5 ..............................
........................................................................

 iter      E             dE          RMSdq      gap      omega  full diag
   1   -143.0553742 -0.143055E+03  0.589E-02    0.80       0.0  T
   2   -143.0553750 -0.784044E-06  0.345E-02    0.79       1.0  T
   3   -143.0553732  0.177860E-05  0.464E-03    0.79       2.3  T
   4   -143.0553753 -0.209008E-05  0.867E-04    0.79      12.2  T
   5   -143.0553753 -0.471049E-07  0.511E-04    0.79      20.6  T
   6   -143.0553753 -0.119834E-07  0.208E-04    0.79      50.7  T
     SCC iter.                  ...        0 min,  0.067 sec
     gradient                   ...        0 min,  0.014 sec
 * total energy  :  -140.4344368 Eh     change       -0.1769364E-03 Eh
   gradient norm :     0.0062495 Eh/α   predicted    -0.1349068E-03 ( -23.75%)
   displ. norm   :     0.2263938 α      lambda       -0.1569433E-03
   maximum displ.:     0.1376450 α      in ANC's #20, #14, #17, ...

........................................................................
.............................. CYCLE    6 ..............................
........................................................................

 iter      E             dE          RMSdq      gap      omega  full diag
   1   -143.0550158 -0.143055E+03  0.591E-02    0.79       0.0  T
   2   -143.0550167 -0.900583E-06  0.346E-02    0.79       1.0  T
   3   -143.0550162  0.507784E-06  0.323E-03    0.79       3.3  T
   4   -143.0550170 -0.737426E-06  0.727E-04    0.79      14.5  T
   5   -143.0550170 -0.202896E-07  0.405E-04    0.79      26.0  T
     SCC iter.                  ...        0 min,  0.056 sec
     gradient                   ...        0 min,  0.014 sec
 * total energy  :  -140.4345608 Eh     change       -0.1240577E-03 Eh
   gradient norm :     0.0075096 Eh/α   predicted    -0.8250276E-04 ( -33.50%)
   displ. norm   :     0.2961977 α      lambda       -0.2010827E-03
   maximum displ.:     0.1647182 α      in ANC's #20, #14, #17, ...

........................................................................
.............................. CYCLE    7 ..............................
........................................................................

 iter      E             dE          RMSdq      gap      omega  full diag
   1   -143.0551327 -0.143055E+03  0.774E-02    0.79       0.0  T
   2   -143.0551343 -0.159563E-05  0.453E-02    0.79       1.0  T
   3   -143.0551329  0.144234E-05  0.471E-03    0.79       2.2  T
   4   -143.0551346 -0.178912E-05  0.119E-03    0.78       8.8  T
   5   -143.0551347 -0.888461E-07  0.561E-04    0.79      18.8  T
   6   -143.0551348 -0.170460E-07  0.285E-04    0.79      37.0  T
     SCC iter.                  ...        0 min,  0.067 sec
     gradient                   ...        0 min,  0.015 sec
 * total energy  :  -140.4347247 Eh     change       -0.1639370E-03 Eh
   gradient norm :     0.0067398 Eh/α   predicted    -0.1093759E-03 ( -33.28%)
   displ. norm   :     0.3617612 α      lambda       -0.2401666E-03
   maximum displ.:     0.2029550 α      in ANC's #14, #20, #17, ...

........................................................................
.............................. CYCLE    8 ..............................
........................................................................

 iter      E             dE          RMSdq      gap      omega  full diag
   1   -143.0554593 -0.143055E+03  0.961E-02    0.78       0.0  T
   2   -143.0554617 -0.237651E-05  0.562E-02    0.78       1.0  T
   3   -143.0554575  0.418346E-05  0.701E-03    0.78       1.5  T
   4   -143.0554622 -0.472739E-05  0.172E-03    0.78       6.1  T
   5   -143.0554625 -0.251499E-06  0.710E-04    0.78      14.8  T
   6   -143.0554625 -0.237369E-07  0.333E-04    0.78      31.6  T
     SCC iter.                  ...        0 min,  0.067 sec
     gradient                   ...        0 min,  0.014 sec
 * total energy  :  -140.4348968 Eh     change       -0.1720355E-03 Eh
   gradient norm :     0.0052836 Eh/α   predicted    -0.1358026E-03 ( -21.06%)
   displ. norm   :     0.2142064 α      lambda       -0.1347830E-03
   maximum displ.:     0.1356404 α      in ANC's #14, #17, #20, ...

........................................................................
.............................. CYCLE    9 ..............................
........................................................................

 iter      E             dE          RMSdq      gap      omega  full diag
   1   -143.0568952 -0.143057E+03  0.583E-02    0.78       0.0  T
   2   -143.0568959 -0.695809E-06  0.342E-02    0.78       1.0  T
   3   -143.0568925  0.337989E-05  0.583E-03    0.78       1.8  T
   4   -143.0568962 -0.375185E-05  0.912E-04    0.78      11.6  T
   5   -143.0568963 -0.624124E-07  0.430E-04    0.78      24.5  T
   6   -143.0568963 -0.670209E-08  0.192E-04    0.78      54.8  T
     SCC iter.                  ...        0 min,  0.066 sec
     gradient                   ...        0 min,  0.014 sec
 * total energy  :  -140.4349918 Eh     change       -0.9499133E-04 Eh
   gradient norm :     0.0035298 Eh/α   predicted    -0.7048564E-04 ( -25.80%)
   displ. norm   :     0.1516376 α      lambda       -0.6874813E-04
   maximum displ.:     0.1046406 α      in ANC's #14, #3, #17, ...

........................................................................
.............................. CYCLE   10 ..............................
........................................................................

 iter      E             dE          RMSdq      gap      omega  full diag
   1   -143.0573344 -0.143057E+03  0.393E-02    0.78       0.0  T
   2   -143.0573347 -0.273434E-06  0.230E-02    0.78       1.0  T
   3   -143.0573332  0.147324E-05  0.384E-03    0.78       2.7  T
   4   -143.0573349 -0.164891E-05  0.556E-04    0.78      19.0  T
   5   -143.0573349 -0.195039E-07  0.287E-04    0.78      36.8  T
   6   -143.0573349 -0.291539E-08  0.118E-04    0.78      89.1  T
     SCC iter.                  ...        0 min,  0.066 sec
     gradient                   ...        0 min,  0.014 sec
 * total energy  :  -140.4350439 Eh     change       -0.5211399E-04 Eh
   gradient norm :     0.0021850 Eh/α   predicted    -0.3516827E-04 ( -32.52%)
   displ. norm   :     0.1450955 α      lambda       -0.5467342E-04
   maximum displ.:     0.0986117 α      in ANC's #14, #3, #1, ...

........................................................................
.............................. CYCLE   11 ..............................
........................................................................

 iter      E             dE          RMSdq      gap      omega  full diag
   1   -143.0571244 -0.143057E+03  0.346E-02    0.79       0.0  T
   2   -143.0571246 -0.184501E-06  0.203E-02    0.78       1.0  T
   3   -143.0571241  0.527858E-06  0.241E-03    0.79       4.4  T
   4   -143.0571247 -0.625370E-06  0.439E-04    0.78      24.0  T
   5   -143.0571247 -0.896176E-08  0.241E-04    0.78      43.8  T
     SCC iter.                  ...        0 min,  0.056 sec
     gradient                   ...        0 min,  0.014 sec
 * total energy  :  -140.4350897 Eh     change       -0.4584091E-04 Eh
   gradient norm :     0.0023815 Eh/α   predicted    -0.2791397E-04 ( -39.11%)
   displ. norm   :     0.1845256 α      lambda       -0.6523859E-04
   maximum displ.:     0.1182802 α      in ANC's #14, #3, #1, ...

........................................................................
.............................. CYCLE   12 ..............................
........................................................................

 iter      E             dE          RMSdq      gap      omega  full diag
   1   -143.0563802 -0.143056E+03  0.417E-02    0.79       0.0  T
   2   -143.0563805 -0.271750E-06  0.244E-02    0.79       1.0  T
   3   -143.0563803  0.206736E-06  0.180E-03    0.79       5.8  T
   4   -143.0563806 -0.319867E-06  0.483E-04    0.79      21.8  T
   5   -143.0563806 -0.574317E-08  0.284E-04    0.79      37.1  T
     SCC iter.                  ...        0 min,  0.055 sec
     gradient                   ...        0 min,  0.014 sec
 * total energy  :  -140.4351468 Eh     change       -0.5704860E-04 Eh
   gradient norm :     0.0032373 Eh/α   predicted    -0.3373177E-04 ( -40.87%)
   displ. norm   :     0.2722824 α      lambda       -0.8984088E-04
   maximum displ.:     0.1670981 α      in ANC's #14, #3, #1, ...

........................................................................
.............................. CYCLE   13 ..............................
........................................................................

 iter      E             dE          RMSdq      gap      omega  full diag
   1   -143.0553426 -0.143055E+03  0.595E-02    0.80       0.0  T
   2   -143.0553432 -0.605473E-06  0.349E-02    0.80       1.0  T
   3   -143.0553430  0.219072E-06  0.221E-03    0.80       4.8  T
   4   -143.0553434 -0.466010E-06  0.617E-04    0.80      17.1  T
   5   -143.0553434 -0.419456E-08  0.330E-04    0.80      32.0  T
     SCC iter.                  ...        0 min,  0.056 sec
     gradient                   ...        0 min,  0.014 sec
 * total energy  :  -140.4352219 Eh     change       -0.7513054E-04 Eh
   gradient norm :     0.0033961 Eh/α   predicted    -0.4825591E-04 ( -35.77%)
   displ. norm   :     0.3606009 α      lambda       -0.9227088E-04
   maximum displ.:     0.2155046 α      in ANC's #14, #3, #1, ...

........................................................................
.............................. CYCLE   14 ..............................
........................................................................

 iter      E             dE          RMSdq      gap      omega  full diag
   1   -143.0541276 -0.143054E+03  0.773E-02    0.81       0.0  T
   2   -143.0541287 -0.111356E-05  0.453E-02    0.81       1.0  T
   3   -143.0541283  0.445232E-06  0.304E-03    0.80       3.5  T
   4   -143.0541292 -0.889802E-06  0.798E-04    0.80      13.2  T
   5   -143.0541292 -0.897288E-08  0.397E-04    0.80      26.6  T
     SCC iter.                  ...        0 min,  0.056 sec
     gradient                   ...        0 min,  0.014 sec
 * total energy  :  -140.4352870 Eh     change       -0.6505440E-04 Eh
   gradient norm :     0.0023779 Eh/α   predicted    -0.5213826E-04 ( -19.85%)
   displ. norm   :     0.1819964 α      lambda       -0.3123967E-04
   maximum displ.:     0.1075298 α      in ANC's #3, #14, #1, ...

........................................................................
.............................. CYCLE   15 ..............................
........................................................................

 iter      E             dE          RMSdq      gap      omega  full diag
   1   -143.0549374 -0.143055E+03  0.367E-02    0.81       0.0  T
   2   -143.0549377 -0.254791E-06  0.215E-02    0.81       1.0  T
   3   -143.0549376  0.933159E-07  0.147E-03    0.81       7.2  T
   4   -143.0549378 -0.197416E-06  0.412E-04    0.81      25.6  T
   5   -143.0549378 -0.124001E-08  0.221E-04    0.81      47.8  T
     SCC iter.                  ...        0 min,  0.055 sec
     gradient                   ...        0 min,  0.014 sec
 * total energy  :  -140.4353107 Eh     change       -0.2370806E-04 Eh
   gradient norm :     0.0010915 Eh/α   predicted    -0.1614078E-04 ( -31.92%)
   displ. norm   :     0.1353245 α      lambda       -0.1870630E-04
   maximum displ.:     0.0922746 α      in ANC's #3, #1, #14, ...

........................................................................
.............................. CYCLE   16 ..............................
........................................................................

 iter      E             dE          RMSdq      gap      omega  full diag
   1   -143.0567953 -0.143057E+03  0.238E-02    0.81       0.0  T
   2   -143.0567954 -0.126539E-06  0.139E-02    0.81       1.0  T
   3   -143.0567953  0.980786E-07  0.133E-03    0.81       7.9  T
   4   -143.0567955 -0.153045E-06  0.309E-04    0.81      34.1  T
   5   -143.0567955 -0.636476E-09  0.179E-04    0.81      58.8  T
     SCC iter.                  ...        0 min,  0.055 sec
     gradient                   ...        0 min,  0.014 sec
 * total energy  :  -140.4353327 Eh     change       -0.2207081E-04 Eh
   gradient norm :     0.0010689 Eh/α   predicted    -0.9429889E-05 ( -57.27%)
   displ. norm   :     0.1092005 α      lambda       -0.1836499E-04
   maximum displ.:     0.0752972 α      in ANC's #3, #1, #8, ...

........................................................................
.............................. CYCLE   17 ..............................
........................................................................

 iter      E             dE          RMSdq      gap      omega  full diag
   1   -143.0574040 -0.143057E+03  0.167E-02    0.81       0.0  T
   2   -143.0574041 -0.650895E-07  0.980E-03    0.81       1.1  T
   3   -143.0574041  0.493253E-07  0.924E-04    0.81      11.4  T
   4   -143.0574041 -0.760657E-07  0.239E-04    0.81      44.1  T
     SCC iter.                  ...        0 min,  0.045 sec
     gradient                   ...        0 min,  0.014 sec
 * total energy  :  -140.4353575 Eh     change       -0.2476243E-04 Eh
   gradient norm :     0.0017806 Eh/α   predicted    -0.9234674E-05 ( -62.71%)
   displ. norm   :     0.1827562 α      lambda       -0.3099735E-04
   maximum displ.:     0.1179042 α      in ANC's #3, #1, #8, ...

........................................................................
.............................. CYCLE   18 ..............................
........................................................................

 iter      E             dE          RMSdq      gap      omega  full diag
   1   -143.0576448 -0.143058E+03  0.274E-02    0.81       0.0  T
   2   -143.0576450 -0.159906E-06  0.161E-02    0.81       1.0  T
   3   -143.0576448  0.155167E-06  0.149E-03    0.81       7.1  T
   4   -143.0576450 -0.222586E-06  0.400E-04    0.81      26.4  T
   5   -143.0576450 -0.520072E-08  0.206E-04    0.81      51.1  T
     SCC iter.                  ...        0 min,  0.055 sec
     gradient                   ...        0 min,  0.014 sec
 * total energy  :  -140.4353978 Eh     change       -0.4034374E-04 Eh
   gradient norm :     0.0018753 Eh/α   predicted    -0.1573132E-04 ( -61.01%)
   displ. norm   :     0.2557181 α      lambda       -0.3655335E-04
   maximum displ.:     0.1659316 α      in ANC's #3, #1, #8, ...

........................................................................
.............................. CYCLE   19 ..............................
........................................................................

 iter      E             dE          RMSdq      gap      omega  full diag
   1   -143.0570289 -0.143057E+03  0.355E-02    0.82       0.0  T
   2   -143.0570292 -0.274057E-06  0.208E-02    0.82       1.0  T
   3   -143.0570290  0.144482E-06  0.164E-03    0.82       6.4  T
   4   -143.0570293 -0.259443E-06  0.496E-04    0.82      21.3  T
   5   -143.0570293 -0.456222E-08  0.279E-04    0.82      37.8  T
     SCC iter.                  ...        0 min,  0.055 sec
     gradient                   ...        0 min,  0.014 sec
 * total energy  :  -140.4354418 Eh     change       -0.4392335E-04 Eh
   gradient norm :     0.0012321 Eh/α   predicted    -0.1881210E-04 ( -57.17%)
   displ. norm   :     0.2258824 α      lambda       -0.2584088E-04
   maximum displ.:     0.1511023 α      in ANC's #3, #1, #8, ...

........................................................................
.............................. CYCLE   20 ..............................
........................................................................

 iter      E             dE          RMSdq      gap      omega  full diag
   1   -143.0569205 -0.143057E+03  0.271E-02    0.82       0.0  T
   2   -143.0569206 -0.175351E-06  0.159E-02    0.82       1.0  T
   3   -143.0569205  0.140741E-06  0.154E-03    0.82       6.8  T
   4   -143.0569207 -0.223373E-06  0.427E-04    0.82      24.7  T
   5   -143.0569207 -0.142370E-08  0.263E-04    0.82      40.1  T
     SCC iter.                  ...        0 min,  0.061 sec
     gradient                   ...        0 min,  0.015 sec
 * total energy  :  -140.4354738 Eh     change       -0.3207644E-04 Eh
   gradient norm :     0.0009163 Eh/α   predicted    -0.1321575E-04 ( -58.80%)
   displ. norm   :     0.2011829 α      lambda       -0.2344124E-04
   maximum displ.:     0.1388812 α      in ANC's #3, #1, #8, ...
 * RMSD in coord.:     0.3215992 α      energy gain  -0.8804156E-02 Eh

generating ANC from exact Hessian ...
Using Lindh-Hessian (1995)
 Shifting diagonal of input Hessian by   9.948300196432202E-003
 Lowest  eigenvalues of input Hessian
    0.000000    0.000000    0.000000    0.000000    0.000000    0.000000
    0.010000    0.010001    0.010025    0.010122    0.010146    0.010603
    0.010803    0.010815    0.011071    0.011140    0.011356    0.011669
 Highest eigenvalues
    2.115503    2.116461    2.216724    2.216747    2.250717    2.251006
 

........................................................................
.............................. CYCLE   21 ..............................
........................................................................

 iter      E             dE          RMSdq      gap      omega  full diag
   1   -143.0564168 -0.143056E+03  0.208E-02    0.82       0.0  T
   2   -143.0564169 -0.121608E-06  0.121E-02    0.82       1.0  T
   3   -143.0564168  0.848466E-07  0.124E-03    0.82       8.5  T
   4   -143.0564169 -0.139287E-06  0.359E-04    0.82      29.4  T
   5   -143.0564169 -0.808825E-09  0.219E-04    0.82      48.1  T
     SCC iter.                  ...        0 min,  0.056 sec
     gradient                   ...        0 min,  0.014 sec
 * total energy  :  -140.4355044 Eh     change       -0.3059356E-04 Eh
   gradient norm :     0.0009165 Eh/α   predicted     0.0000000E+00 (-100.00%)
   displ. norm   :     0.0408646 α      lambda       -0.7719248E-06
   maximum displ.:     0.0257908 α      in ANC's #3, #17, #21, ...

........................................................................
.............................. CYCLE   22 ..............................
........................................................................

 iter      E             dE          RMSdq      gap      omega  full diag
   1   -143.0569871 -0.143057E+03  0.781E-03    0.82       0.0  T
   2   -143.0569871 -0.140843E-07  0.459E-03    0.82       2.3  T
   3   -143.0569871  0.942640E-08  0.389E-04    0.82      27.1  T
   4   -143.0569871 -0.149296E-07  0.103E-04    0.82     102.6  T
     SCC iter.                  ...        0 min,  0.045 sec
     gradient                   ...        0 min,  0.014 sec
 * total energy  :  -140.4355178 Eh     change       -0.1331315E-04 Eh
   gradient norm :     0.0004712 Eh/α   predicted    -0.5099458E-05 ( -61.70%)
   displ. norm   :     0.1345324 α      lambda       -0.2630620E-04
   maximum displ.:     0.0802338 α      in ANC's #3, #17, #1, ...

........................................................................
.............................. CYCLE   23 ..............................
........................................................................

 iter      E             dE          RMSdq      gap      omega  full diag
   1   -143.0570587 -0.143057E+03  0.251E-02    0.82       0.0  T
   2   -143.0570589 -0.156580E-06  0.147E-02    0.82       1.0  T
   3   -143.0570587  0.180143E-06  0.150E-03    0.82       7.0  T
   4   -143.0570589 -0.241234E-06  0.357E-04    0.82      29.5  T
   5   -143.0570589 -0.583569E-08  0.186E-04    0.82      56.7  T
     SCC iter.                  ...        0 min,  0.055 sec
     gradient                   ...        0 min,  0.014 sec
 * total energy  :  -140.4355478 Eh     change       -0.3007803E-04 Eh
   gradient norm :     0.0008568 Eh/α   predicted    -0.1326867E-04 ( -55.89%)
   displ. norm   :     0.1395262 α      lambda       -0.1774162E-04
   maximum displ.:     0.0907958 α      in ANC's #3, #17, #1, ...

........................................................................
.............................. CYCLE   24 ..............................
........................................................................

 iter      E             dE          RMSdq      gap      omega  full diag
   1   -143.0564031 -0.143056E+03  0.242E-02    0.82       0.0  T
   2   -143.0564032 -0.139881E-06  0.142E-02    0.82       1.0  T
   3   -143.0564030  0.198028E-06  0.157E-03    0.82       6.7  T
   4   -143.0564033 -0.261228E-06  0.338E-04    0.82      31.2  T
   5   -143.0564033 -0.401374E-08  0.181E-04    0.82      58.2  T
     SCC iter.                  ...        0 min,  0.055 sec
     gradient                   ...        0 min,  0.014 sec
 * total energy  :  -140.4355681 Eh     change       -0.2029872E-04 Eh
   gradient norm :     0.0007815 Eh/α   predicted    -0.8953574E-05 ( -55.89%)
   displ. norm   :     0.1082042 α      lambda       -0.1157739E-04
   maximum displ.:     0.0755501 α      in ANC's #3, #17, #1, ...

........................................................................
.............................. CYCLE   25 ..............................
........................................................................

 iter      E             dE          RMSdq      gap      omega  full diag
   1   -143.0563946 -0.143056E+03  0.175E-02    0.81       0.0  T
   2   -143.0563946 -0.716055E-07  0.103E-02    0.81       1.0  T
   3   -143.0563945  0.110841E-06  0.116E-03    0.81       9.1  T
   4   -143.0563947 -0.145311E-06  0.238E-04    0.81      44.3  T
   5   -143.0563947 -0.145113E-08  0.131E-04    0.81      80.4  T
     SCC iter.                  ...        0 min,  0.055 sec
     gradient                   ...        0 min,  0.014 sec
 * total energy  :  -140.4355834 Eh     change       -0.1524779E-04 Eh
   gradient norm :     0.0005710 Eh/α   predicted    -0.5819400E-05 ( -61.83%)
   displ. norm   :     0.1048688 α      lambda       -0.1306293E-04
   maximum displ.:     0.0746369 α      in ANC's #3, #1, #17, ...

........................................................................
.............................. CYCLE   26 ..............................
........................................................................

 iter      E             dE          RMSdq      gap      omega  full diag
   1   -143.0564141 -0.143056E+03  0.161E-02    0.81       0.0  T
   2   -143.0564142 -0.494947E-07  0.944E-03    0.81       1.1  T
   3   -143.0564141  0.696391E-07  0.971E-04    0.81      10.9  T
   4   -143.0564142 -0.951312E-07  0.198E-04    0.81      53.1  T
     SCC iter.                  ...        0 min,  0.045 sec
     gradient                   ...        0 min,  0.014 sec
 * total energy  :  -140.4356014 Eh     change       -0.1805638E-04 Eh
   gradient norm :     0.0004007 Eh/α   predicted    -0.6563643E-05 ( -63.65%)
   displ. norm   :     0.1402192 α      lambda       -0.1804282E-04
   maximum displ.:     0.0988379 α      in ANC's #3, #1, #21, ...

........................................................................
.............................. CYCLE   27 ..............................
........................................................................

 iter      E             dE          RMSdq      gap      omega  full diag
   1   -143.0566667 -0.143057E+03  0.210E-02    0.81       0.0  T
   2   -143.0566668 -0.809341E-07  0.123E-02    0.81       1.0  T
   3   -143.0566666  0.150966E-06  0.135E-03    0.81       7.8  T
   4   -143.0566668 -0.192542E-06  0.265E-04    0.81      39.8  T
   5   -143.0566668 -0.170346E-08  0.159E-04    0.81      66.3  T
     SCC iter.                  ...        0 min,  0.056 sec
     gradient                   ...        0 min,  0.014 sec
 * total energy  :  -140.4356255 Eh     change       -0.2402991E-04 Eh
   gradient norm :     0.0004584 Eh/α   predicted    -0.9105136E-05 ( -62.11%)
   displ. norm   :     0.1665771 α      lambda       -0.1878526E-04
   maximum displ.:     0.1177004 α      in ANC's #3, #1, #21, ...

........................................................................
.............................. CYCLE   28 ..............................
........................................................................

 iter      E             dE          RMSdq      gap      omega  full diag
   1   -143.0568733 -0.143057E+03  0.232E-02    0.81       0.0  T
   2   -143.0568734 -0.965911E-07  0.136E-02    0.81       1.0  T
   3   -143.0568732  0.141051E-06  0.136E-03    0.81       7.8  T
   4   -143.0568734 -0.189428E-06  0.275E-04    0.81      38.3  T
   5   -143.0568734 -0.133124E-08  0.165E-04    0.81      63.8  T
     SCC iter.                  ...        0 min,  0.055 sec
     gradient                   ...        0 min,  0.014 sec
 * total energy  :  -140.4356504 Eh     change       -0.2495788E-04 Eh
   gradient norm :     0.0005431 Eh/α   predicted    -0.9508592E-05 ( -61.90%)
   displ. norm   :     0.1691980 α      lambda       -0.1739666E-04
   maximum displ.:     0.1201565 α      in ANC's #3, #1, #8, ...

........................................................................
.............................. CYCLE   29 ..............................
........................................................................

 iter      E             dE          RMSdq      gap      omega  full diag
   1   -143.0570164 -0.143057E+03  0.215E-02    0.81       0.0  T
   2   -143.0570165 -0.787554E-07  0.126E-02    0.81       1.0  T
   3   -143.0570164  0.110137E-06  0.120E-03    0.81       8.8  T
   4   -143.0570165 -0.152503E-06  0.249E-04    0.81      42.4  T
   5   -143.0570165 -0.464041E-09  0.145E-04    0.81      72.9  T
     SCC iter.                  ...        0 min,  0.055 sec
     gradient                   ...        0 min,  0.014 sec
 * total energy  :  -140.4356745 Eh     change       -0.2403200E-04 Eh
   gradient norm :     0.0005621 Eh/α   predicted    -0.8813114E-05 ( -63.33%)
   displ. norm   :     0.1762794 α      lambda       -0.1848095E-04
   maximum displ.:     0.1249154 α      in ANC's #3, #1, #8, ...

........................................................................
.............................. CYCLE   30 ..............................
........................................................................

 iter      E             dE          RMSdq      gap      omega  full diag
   1   -143.0570565 -0.143057E+03  0.200E-02    0.81       0.0  T
   2   -143.0570566 -0.716079E-07  0.117E-02    0.81       1.0  T
   3   -143.0570565  0.121479E-06  0.121E-03    0.81       8.7  T
   4   -143.0570566 -0.162393E-06  0.242E-04    0.81      43.5  T
   5   -143.0570566 -0.541831E-09  0.143E-04    0.81      73.7  T
     SCC iter.                  ...        0 min,  0.056 sec
     gradient                   ...        0 min,  0.014 sec
 * total energy  :  -140.4357005 Eh     change       -0.2599790E-04 Eh
   gradient norm :     0.0005288 Eh/α   predicted    -0.9372315E-05 ( -63.95%)
   displ. norm   :     0.2122952 α      lambda       -0.2278221E-04
   maximum displ.:     0.1495420 α      in ANC's #3, #1, #8, ...

........................................................................
.............................. CYCLE   31 ..............................
........................................................................

 iter      E             dE          RMSdq      gap      omega  full diag
   1   -143.0568879 -0.143057E+03  0.217E-02    0.81       0.0  T
   2   -143.0568880 -0.105238E-06  0.127E-02    0.81       1.0  T
   3   -143.0568878  0.221017E-06  0.158E-03    0.81       6.7  T
   4   -143.0568880 -0.279286E-06  0.296E-04    0.81      35.6  T
   5   -143.0568880 -0.196567E-08  0.170E-04    0.81      61.9  T
     SCC iter.                  ...        0 min,  0.055 sec
     gradient                   ...        0 min,  0.014 sec
 * total energy  :  -140.4357321 Eh     change       -0.3162701E-04 Eh
   gradient norm :     0.0004380 Eh/α   predicted    -0.1161962E-04 ( -63.26%)
   displ. norm   :     0.2708553 α      lambda       -0.2739470E-04
   maximum displ.:     0.1906910 α      in ANC's #3, #1, #8, ...

........................................................................
.............................. CYCLE   32 ..............................
........................................................................

 iter      E             dE          RMSdq      gap      omega  full diag
   1   -143.0565431 -0.143057E+03  0.258E-02    0.81       0.0  T
   2   -143.0565433 -0.184362E-06  0.151E-02    0.81       1.0  T
   3   -143.0565429  0.359432E-06  0.203E-03    0.81       5.2  T
   4   -143.0565433 -0.448552E-06  0.393E-04    0.81      26.8  T
   5   -143.0565434 -0.562363E-08  0.215E-04    0.81      48.9  T
     SCC iter.                  ...        0 min,  0.056 sec
     gradient                   ...        0 min,  0.014 sec
 * total energy  :  -140.4357688 Eh     change       -0.3675690E-04 Eh
   gradient norm :     0.0003672 Eh/α   predicted    -0.1414461E-04 ( -61.52%)
   displ. norm   :     0.3022159 α      lambda       -0.2629682E-04
   maximum displ.:     0.2139230 α      in ANC's #3, #1, #8, ...

........................................................................
.............................. CYCLE   33 ..............................
........................................................................

 iter      E             dE          RMSdq      gap      omega  full diag
   1   -143.0561095 -0.143056E+03  0.277E-02    0.81       0.0  T
   2   -143.0561097 -0.223680E-06  0.162E-02    0.81       1.0  T
   3   -143.0561093  0.433171E-06  0.223E-03    0.81       4.7  T
   4   -143.0561098 -0.540195E-06  0.431E-04    0.81      24.5  T
   5   -143.0561098 -0.666810E-08  0.238E-04    0.81      44.2  T
     SCC iter.                  ...        0 min,  0.055 sec
     gradient                   ...        0 min,  0.014 sec
 * total energy  :  -140.4358032 Eh     change       -0.3438977E-04 Eh
   gradient norm :     0.0003337 Eh/α   predicted    -0.1368624E-04 ( -60.20%)
   displ. norm   :     0.2826383 α      lambda       -0.2069832E-04
   maximum displ.:     0.2014123 α      in ANC's #3, #1, #8, ...

........................................................................
.............................. CYCLE   34 ..............................
........................................................................

 iter      E             dE          RMSdq      gap      omega  full diag
   1   -143.0558684 -0.143056E+03  0.258E-02    0.81       0.0  T
   2   -143.0558685 -0.172500E-06  0.150E-02    0.81       1.0  T
   3   -143.0558683  0.227584E-06  0.172E-03    0.81       6.1  T
   4   -143.0558686 -0.305049E-06  0.387E-04    0.81      27.2  T
   5   -143.0558686 -0.466369E-08  0.217E-04    0.81      48.5  T
     SCC iter.                  ...        0 min,  0.055 sec
     gradient                   ...        0 min,  0.014 sec
 * total energy  :  -140.4358310 Eh     change       -0.2776851E-04 Eh
   gradient norm :     0.0003431 Eh/α   predicted    -0.1071926E-04 ( -61.40%)
   displ. norm   :     0.2626274 α      lambda       -0.1794991E-04
   maximum displ.:     0.1879872 α      in ANC's #3, #1, #8, ...

........................................................................
.............................. CYCLE   35 ..............................
........................................................................

 iter      E             dE          RMSdq      gap      omega  full diag
   1   -143.0558428 -0.143056E+03  0.243E-02    0.81       0.0  T
   2   -143.0558429 -0.125589E-06  0.142E-02    0.81       1.0  T
   3   -143.0558428  0.118054E-06  0.132E-03    0.81       8.0  T
   4   -143.0558430 -0.178461E-06  0.336E-04    0.81      31.4  T
   5   -143.0558430 -0.180611E-08  0.194E-04    0.81      54.3  T
     SCC iter.                  ...        0 min,  0.055 sec
     gradient                   ...        0 min,  0.014 sec
 * total energy  :  -140.4358561 Eh     change       -0.2515186E-04 Eh
   gradient norm :     0.0003374 Eh/α   predicted    -0.9253636E-05 ( -63.21%)
   displ. norm   :     0.2869827 α      lambda       -0.2017013E-04
   maximum displ.:     0.2052902 α      in ANC's #3, #1, #8, ...

........................................................................
.............................. CYCLE   36 ..............................
........................................................................

 iter      E             dE          RMSdq      gap      omega  full diag
   1   -143.0558674 -0.143056E+03  0.275E-02    0.81       0.0  T
   2   -143.0558675 -0.134264E-06  0.161E-02    0.81       1.0  T
   3   -143.0558675  0.418217E-07  0.108E-03    0.81       9.8  T
   4   -143.0558676 -0.105720E-06  0.346E-04    0.81      30.4  T
   5   -143.0558676 -0.240647E-09  0.193E-04    0.81      54.7  T
     SCC iter.                  ...        0 min,  0.055 sec
     gradient                   ...        0 min,  0.014 sec
 * total energy  :  -140.4358853 Eh     change       -0.2912084E-04 Eh
   gradient norm :     0.0003473 Eh/α   predicted    -0.1045440E-04 ( -64.10%)
   displ. norm   :     0.3875445 α      lambda       -0.2844682E-04
   maximum displ.:     0.2760439 α      in ANC's #3, #1, #17, ...

........................................................................
.............................. CYCLE   37 ..............................
........................................................................

 iter      E             dE          RMSdq      gap      omega  full diag
   1   -143.0558649 -0.143056E+03  0.385E-02    0.81       0.0  T
   2   -143.0558652 -0.247236E-06  0.225E-02    0.81       1.0  T
   3   -143.0558651  0.403196E-07  0.135E-03    0.81       7.8  T
   4   -143.0558653 -0.158717E-06  0.472E-04    0.81      22.3  T
   5   -143.0558653  0.635197E-09  0.246E-04    0.81      42.9  T
     SCC iter.                  ...        0 min,  0.055 sec
     gradient                   ...        0 min,  0.014 sec
 * total energy  :  -140.4359272 Eh     change       -0.4189397E-04 Eh
   gradient norm :     0.0003626 Eh/α   predicted    -0.1517525E-04 ( -63.78%)
   displ. norm   :     0.6054904 α      lambda       -0.4579018E-04
   maximum displ.:     0.4301485 α      in ANC's #3, #1, #17, ...

........................................................................
.............................. CYCLE   38 ..............................
........................................................................

 iter      E             dE          RMSdq      gap      omega  full diag
   1   -143.0554320 -0.143055E+03  0.612E-02    0.81       0.0  T
   2   -143.0554326 -0.606802E-06  0.358E-02    0.81       1.0  T
   3   -143.0554324  0.139231E-06  0.217E-03    0.81       4.8  T
   4   -143.0554329 -0.430435E-06  0.737E-04    0.81      14.3  T
   5   -143.0554329 -0.982396E-09  0.366E-04    0.81      28.8  T
     SCC iter.                  ...        0 min,  0.055 sec
     gradient                   ...        0 min,  0.014 sec
 * total energy  :  -140.4359965 Eh     change       -0.6933513E-04 Eh
   gradient norm :     0.0005874 Eh/α   predicted    -0.2662651E-04 ( -61.60%)
   displ. norm   :     0.6114369 α      lambda       -0.4748410E-04
   maximum displ.:     0.4349243 α      in ANC's #3, #1, #17, ...

........................................................................
.............................. CYCLE   39 ..............................
........................................................................

 iter      E             dE          RMSdq      gap      omega  full diag
   1   -143.0541673 -0.143054E+03  0.609E-02    0.81       0.0  T
   2   -143.0541680 -0.636317E-06  0.356E-02    0.82       1.0  T
   3   -143.0541676  0.348954E-06  0.260E-03    0.81       4.0  T
   4   -143.0541683 -0.669486E-06  0.762E-04    0.82      13.8  T
   5   -143.0541683 -0.268074E-09  0.389E-04    0.82      27.1  T
     SCC iter.                  ...        0 min,  0.055 sec
     gradient                   ...        0 min,  0.014 sec
 * total energy  :  -140.4360675 Eh     change       -0.7098557E-04 Eh
   gradient norm :     0.0011879 Eh/α   predicted    -0.2768834E-04 ( -60.99%)
   displ. norm   :     1.1321649 α      lambda       -0.9273775E-04
   maximum displ.:     0.8063446 α      in ANC's #3, #1, #17, ...

........................................................................
.............................. CYCLE   40 ..............................
........................................................................

 iter      E             dE          RMSdq      gap      omega  full diag
   1   -143.0503565 -0.143050E+03  0.113E-01    0.82       0.0  T
   2   -143.0503588 -0.228716E-05  0.661E-02    0.82       1.0  T
   3   -143.0503565  0.232095E-05  0.576E-03    0.82       1.8  T
   4   -143.0503600 -0.353578E-05  0.144E-03    0.82       7.3  T
   5   -143.0503600 -0.440451E-08  0.758E-04    0.82      13.9  T
   6   -143.0503600 -0.276652E-07  0.193E-04    0.82      54.5  T
     SCC iter.                  ...        0 min,  0.066 sec
     gradient                   ...        0 min,  0.014 sec
 * total energy  :  -140.4361829 Eh     change       -0.1154422E-03 Eh
   gradient norm :     0.0029658 Eh/α   predicted    -0.7279292E-04 ( -36.94%)
   displ. norm   :     0.6116178 α      lambda       -0.6821606E-04
   maximum displ.:     0.4376336 α      in ANC's #3, #1, #17, ...

........................................................................
.............................. CYCLE   41 ..............................
........................................................................

 iter      E             dE          RMSdq      gap      omega  full diag
   1   -143.0493082 -0.143049E+03  0.619E-02    0.82       0.0  T
   2   -143.0493089 -0.660384E-06  0.362E-02    0.82       1.0  T
   3   -143.0493086  0.207000E-06  0.238E-03    0.82       4.4  T
   4   -143.0493092 -0.517898E-06  0.763E-04    0.82      13.8  T
   5   -143.0493092 -0.252953E-09  0.414E-04    0.82      25.5  T
     SCC iter.                  ...        0 min,  0.055 sec
     gradient                   ...        0 min,  0.014 sec
 * total energy  :  -140.4362361 Eh     change       -0.5320666E-04 Eh
   gradient norm :     0.0036214 Eh/α   predicted    -0.4686815E-04 ( -11.91%)
   displ. norm   :     0.4428554 α      lambda       -0.7682585E-04
   maximum displ.:     0.3187374 α      in ANC's #3, #1, #51, ...

........................................................................
.............................. CYCLE   42 ..............................
........................................................................

 iter      E             dE          RMSdq      gap      omega  full diag
   1   -143.0524981 -0.143052E+03  0.470E-02    0.82       0.0  T
   2   -143.0524986 -0.449837E-06  0.275E-02    0.82       1.0  T
   3   -143.0524982  0.360622E-06  0.234E-03    0.82       4.5  T
   4   -143.0524988 -0.557153E-06  0.653E-04    0.82      16.1  T
   5   -143.0524988 -0.775762E-08  0.361E-04    0.82      29.2  T
     SCC iter.                  ...        0 min,  0.055 sec
     gradient                   ...        0 min,  0.014 sec
 * total energy  :  -140.4362991 Eh     change       -0.6297710E-04 Eh
   gradient norm :     0.0028130 Eh/α   predicted    -0.4594955E-04 ( -27.04%)
   displ. norm   :     0.3506920 α      lambda       -0.7833465E-04
   maximum displ.:     0.2546774 α      in ANC's #3, #1, #51, ...
 * RMSD in coord.:     0.7053418 α      energy gain  -0.8252608E-03 Eh

generating ANC from exact Hessian ...
Using Lindh-Hessian (1995)
 Shifting diagonal of input Hessian by   9.950612724164757E-003
 Lowest  eigenvalues of input Hessian
    0.000000    0.000000    0.000000    0.000000    0.000000    0.000000
    0.010000    0.010002    0.010029    0.010125    0.010149    0.010635
    0.010758    0.010843    0.011062    0.011125    0.011311    0.011706
 Highest eigenvalues
    2.116406    2.117396    2.216870    2.216915    2.253228    2.253495
 

........................................................................
.............................. CYCLE   43 ..............................
........................................................................

 iter      E             dE          RMSdq      gap      omega  full diag
   1   -143.0578711 -0.143058E+03  0.404E-02    0.83       0.0  T
   2   -143.0578717 -0.611790E-06  0.238E-02    0.83       1.0  T
   3   -143.0578697  0.201949E-05  0.446E-03    0.83       2.4  T
   4   -143.0578721 -0.234683E-05  0.665E-04    0.83      15.9  T
   5   -143.0578721 -0.163484E-07  0.363E-04    0.83      29.0  T
   6   -143.0578721 -0.335402E-08  0.198E-04    0.83      53.3  T
     SCC iter.                  ...        0 min,  0.066 sec
     gradient                   ...        0 min,  0.014 sec
 * total energy  :  -140.4363553 Eh     change       -0.5621110E-04 Eh
   gradient norm :     0.0013119 Eh/α   predicted     0.0000000E+00 (-100.00%)
   displ. norm   :     0.0449617 α      lambda       -0.1310616E-04
   maximum displ.:     0.0178968 α      in ANC's #16, #3, #6, ...

........................................................................
.............................. CYCLE   44 ..............................
........................................................................

 iter      E             dE          RMSdq      gap      omega  full diag
   1   -143.0583132 -0.143058E+03  0.773E-03    0.83       0.0  T
   2   -143.0583132 -0.338537E-07  0.457E-03    0.83       2.3  T
   3   -143.0583131  0.148547E-06  0.124E-03    0.83       8.5  T
   4   -143.0583133 -0.170647E-06  0.176E-04    0.83      59.9  T
   5   -143.0583133 -0.209175E-08  0.736E-05    0.83     143.2  T
     SCC iter.                  ...        0 min,  0.055 sec
     gradient                   ...        0 min,  0.014 sec
 * total energy  :  -140.4363716 Eh     change       -0.1627136E-04 Eh
   gradient norm :     0.0005026 Eh/α   predicted    -0.6775480E-05 ( -58.36%)
   displ. norm   :     0.1429743 α      lambda       -0.2857552E-04
   maximum displ.:     0.0591052 α      in ANC's #6, #3, #16, ...

........................................................................
.............................. CYCLE   45 ..............................
........................................................................

 iter      E             dE          RMSdq      gap      omega  full diag
   1   -143.0579125 -0.143058E+03  0.208E-02    0.83       0.0  T
   2   -143.0579126 -0.188499E-06  0.123E-02    0.83       1.0  T
   3   -143.0579117  0.976125E-06  0.311E-03    0.83       3.4  T
   4   -143.0579128 -0.111353E-05  0.399E-04    0.83      26.4  T
   5   -143.0579128 -0.912556E-08  0.187E-04    0.83      56.5  T
   6   -143.0579128 -0.401712E-09  0.979E-05    0.83     107.7  T
     SCC iter.                  ...        0 min,  0.066 sec
     gradient                   ...        0 min,  0.014 sec
 * total energy  :  -140.4364002 Eh     change       -0.2861537E-04 Eh
   gradient norm :     0.0014903 Eh/α   predicted    -0.1442012E-04 ( -49.61%)
   displ. norm   :     0.1135578 α      lambda       -0.1346628E-04
   maximum displ.:     0.0543561 α      in ANC's #3, #6, #16, ...

........................................................................
.............................. CYCLE   46 ..............................
........................................................................

 iter      E             dE          RMSdq      gap      omega  full diag
   1   -143.0569173 -0.143057E+03  0.167E-02    0.83       0.0  T
   2   -143.0569175 -0.162330E-06  0.987E-03    0.83       1.1  T
   3   -143.0569169  0.577096E-06  0.240E-03    0.83       4.4  T
   4   -143.0569175 -0.653692E-06  0.385E-04    0.83      27.4  T
   5   -143.0569176 -0.110119E-07  0.149E-04    0.83      70.5  T
     SCC iter.                  ...        0 min,  0.055 sec
     gradient                   ...        0 min,  0.014 sec
 * total energy  :  -140.4364148 Eh     change       -0.1456415E-04 Eh
   gradient norm :     0.0011710 Eh/α   predicted    -0.6772867E-05 ( -53.50%)
   displ. norm   :     0.0938216 α      lambda       -0.9509678E-05
   maximum displ.:     0.0522365 α      in ANC's #3, #6, #16, ...

........................................................................
.............................. CYCLE   47 ..............................
........................................................................

 iter      E             dE          RMSdq      gap      omega  full diag
   1   -143.0564906 -0.143056E+03  0.148E-02    0.83       0.0  T
   2   -143.0564907 -0.123443E-06  0.870E-03    0.83       1.2  T
   3   -143.0564904  0.310126E-06  0.182E-03    0.83       5.8  T
   4   -143.0564907 -0.357682E-06  0.339E-04    0.83      31.1  T
   5   -143.0564907 -0.772224E-08  0.138E-04    0.83      76.1  T
     SCC iter.                  ...        0 min,  0.055 sec
     gradient                   ...        0 min,  0.014 sec
 * total energy  :  -140.4364257 Eh     change       -0.1095218E-04 Eh
   gradient norm :     0.0004531 Eh/α   predicted    -0.4774894E-05 ( -56.40%)
   displ. norm   :     0.0834955 α      lambda       -0.8028132E-05
   maximum displ.:     0.0519276 α      in ANC's #3, #6, #7, ...

........................................................................
.............................. CYCLE   48 ..............................
........................................................................

 iter      E             dE          RMSdq      gap      omega  full diag
   1   -143.0563059 -0.143056E+03  0.145E-02    0.83       0.0  T
   2   -143.0563059 -0.698373E-07  0.850E-03    0.83       1.2  T
   3   -143.0563058  0.145155E-06  0.130E-03    0.83       8.1  T
   4   -143.0563060 -0.174553E-06  0.247E-04    0.83      42.7  T
   5   -143.0563060 -0.313878E-08  0.126E-04    0.83      83.9  T
     SCC iter.                  ...        0 min,  0.055 sec
     gradient                   ...        0 min,  0.014 sec
 * total energy  :  -140.4364355 Eh     change       -0.9770053E-05 Eh
   gradient norm :     0.0005962 Eh/α   predicted    -0.4040965E-05 ( -58.64%)
   displ. norm   :     0.0900246 α      lambda       -0.8166347E-05
   maximum displ.:     0.0577909 α      in ANC's #3, #6, #7, ...

........................................................................
.............................. CYCLE   49 ..............................
........................................................................

 iter      E             dE          RMSdq      gap      omega  full diag
   1   -143.0565000 -0.143057E+03  0.168E-02    0.83       0.0  T
   2   -143.0565001 -0.536006E-07  0.984E-03    0.83       1.1  T
   3   -143.0565000  0.103988E-06  0.113E-03    0.83       9.3  T
   4   -143.0565001 -0.132995E-06  0.237E-04    0.83      44.4  T
   5   -143.0565001 -0.113300E-08  0.143E-04    0.83      73.8  T
     SCC iter.                  ...        0 min,  0.055 sec
     gradient                   ...        0 min,  0.014 sec
 * total energy  :  -140.4364458 Eh     change       -0.1026013E-04 Eh
   gradient norm :     0.0009584 Eh/α   predicted    -0.4104340E-05 ( -60.00%)
   displ. norm   :     0.1090375 α      lambda       -0.9218592E-05
   maximum displ.:     0.0706246 α      in ANC's #3, #6, #7, ...

........................................................................
.............................. CYCLE   50 ..............................
........................................................................

 iter      E             dE          RMSdq      gap      omega  full diag
   1   -143.0568912 -0.143057E+03  0.209E-02    0.83       0.0  T
   2   -143.0568913 -0.791898E-07  0.122E-02    0.83       1.0  T
   3   -143.0568911  0.160026E-06  0.134E-03    0.83       7.9  T
   4   -143.0568913 -0.200464E-06  0.275E-04    0.83      38.3  T
   5   -143.0568913 -0.241306E-08  0.159E-04    0.83      66.4  T
     SCC iter.                  ...        0 min,  0.055 sec
     gradient                   ...        0 min,  0.014 sec
 * total energy  :  -140.4364574 Eh     change       -0.1168770E-04 Eh
   gradient norm :     0.0009129 Eh/α   predicted    -0.4636983E-05 ( -60.33%)
   displ. norm   :     0.1310288 α      lambda       -0.1016310E-04
   maximum displ.:     0.0859093 α      in ANC's #3, #6, #7, ...

........................................................................
.............................. CYCLE   51 ..............................
........................................................................

 iter      E             dE          RMSdq      gap      omega  full diag
   1   -143.0572273 -0.143057E+03  0.251E-02    0.83       0.0  T
   2   -143.0572274 -0.113916E-06  0.147E-02    0.83       1.0  T
   3   -143.0572272  0.189809E-06  0.148E-03    0.83       7.1  T
   4   -143.0572275 -0.244556E-06  0.316E-04    0.83      33.4  T
   5   -143.0572275 -0.292542E-08  0.185E-04    0.83      56.9  T
     SCC iter.                  ...        0 min,  0.055 sec
     gradient                   ...        0 min,  0.014 sec
 * total energy  :  -140.4364704 Eh     change       -0.1293485E-04 Eh
   gradient norm :     0.0005694 Eh/α   predicted    -0.5120744E-05 ( -60.41%)
   displ. norm   :     0.1533840 α      lambda       -0.1087531E-04
   maximum displ.:     0.1018488 α      in ANC's #3, #6, #7, ...

........................................................................
.............................. CYCLE   52 ..............................
........................................................................

 iter      E             dE          RMSdq      gap      omega  full diag
   1   -143.0574669 -0.143057E+03  0.289E-02    0.83       0.0  T
   2   -143.0574671 -0.142058E-06  0.169E-02    0.83       1.0  T
   3   -143.0574668  0.243743E-06  0.168E-03    0.83       6.3  T
   4   -143.0574671 -0.318075E-06  0.327E-04    0.83      32.2  T
   5   -143.0574671 -0.166503E-08  0.201E-04    0.83      52.5  T
     SCC iter.                  ...        0 min,  0.055 sec
     gradient                   ...        0 min,  0.014 sec
 * total energy  :  -140.4364841 Eh     change       -0.1369936E-04 Eh
   gradient norm :     0.0004183 Eh/α   predicted    -0.5495434E-05 ( -59.89%)
   displ. norm   :     0.1677149 α      lambda       -0.1063488E-04
   maximum displ.:     0.1124698 α      in ANC's #3, #6, #7, ...

........................................................................
.............................. CYCLE   53 ..............................
........................................................................

 iter      E             dE          RMSdq      gap      omega  full diag
   1   -143.0574239 -0.143057E+03  0.309E-02    0.83       0.0  T
   2   -143.0574241 -0.147321E-06  0.181E-02    0.83       1.0  T
   3   -143.0574239  0.217677E-06  0.164E-03    0.83       6.4  T
   4   -143.0574242 -0.297181E-06  0.341E-04    0.83      30.9  T
   5   -143.0574242 -0.317272E-09  0.210E-04    0.83      50.2  T
     SCC iter.                  ...        0 min,  0.055 sec
     gradient                   ...        0 min,  0.014 sec
 * total energy  :  -140.4364975 Eh     change       -0.1339517E-04 Eh
   gradient norm :     0.0006473 Eh/α   predicted    -0.5385145E-05 ( -59.80%)
   displ. norm   :     0.1639312 α      lambda       -0.9408919E-05
   maximum displ.:     0.1112115 α      in ANC's #3, #6, #7, ...

........................................................................
.............................. CYCLE   54 ..............................
........................................................................

 iter      E             dE          RMSdq      gap      omega  full diag
   1   -143.0571964 -0.143057E+03  0.296E-02    0.83       0.0  T
   2   -143.0571965 -0.153023E-06  0.173E-02    0.83       1.0  T
   3   -143.0571963  0.219214E-06  0.165E-03    0.83       6.4  T
   4   -143.0571966 -0.295475E-06  0.357E-04    0.83      29.6  T
   5   -143.0571966 -0.195661E-08  0.209E-04    0.83      50.4  T
     SCC iter.                  ...        0 min,  0.055 sec
     gradient                   ...        0 min,  0.014 sec
 * total energy  :  -140.4365093 Eh     change       -0.1180821E-04 Eh
   gradient norm :     0.0006938 Eh/α   predicted    -0.4761816E-05 ( -59.67%)
   displ. norm   :     0.1389162 α      lambda       -0.7351876E-05
   maximum displ.:     0.0958378 α      in ANC's #3, #6, #2, ...

........................................................................
.............................. CYCLE   55 ..............................
........................................................................

 iter      E             dE          RMSdq      gap      omega  full diag
   1   -143.0569628 -0.143057E+03  0.247E-02    0.83       0.0  T
   2   -143.0569629 -0.119192E-06  0.144E-02    0.83       1.0  T
   3   -143.0569628  0.149411E-06  0.138E-03    0.83       7.7  T
   4   -143.0569630 -0.201464E-06  0.323E-04    0.83      32.7  T
   5   -143.0569630 -0.297979E-08  0.179E-04    0.83      58.8  T
     SCC iter.                  ...        0 min,  0.055 sec
     gradient                   ...        0 min,  0.014 sec
 * total energy  :  -140.4365185 Eh     change       -0.9246106E-05 Eh
   gradient norm :     0.0005225 Eh/α   predicted    -0.3708499E-05 ( -59.89%)
   displ. norm   :     0.1026771 α      lambda       -0.5326501E-05
   maximum displ.:     0.0723681 α      in ANC's #3, #6, #2, ...

........................................................................
.............................. CYCLE   56 ..............................
........................................................................

 iter      E             dE          RMSdq      gap      omega  full diag
   1   -143.0567598 -0.143057E+03  0.179E-02    0.83       0.0  T
   2   -143.0567598 -0.719524E-07  0.105E-02    0.83       1.0  T
   3   -143.0567598  0.738942E-07  0.999E-04    0.83      10.6  T
   4   -143.0567599 -0.102403E-06  0.255E-04    0.83      41.4  T
     SCC iter.                  ...        0 min,  0.044 sec
     gradient                   ...        0 min,  0.014 sec
 * total energy  :  -140.4365254 Eh     change       -0.6894516E-05 Eh
   gradient norm :     0.0002932 Eh/α   predicted    -0.2679562E-05 ( -61.13%)
   displ. norm   :     0.0782715 α      lambda       -0.4418071E-05
   maximum displ.:     0.0559633 α      in ANC's #3, #10, #2, ...

........................................................................
.............................. CYCLE   57 ..............................
........................................................................

 iter      E             dE          RMSdq      gap      omega  full diag
   1   -143.0566657 -0.143057E+03  0.132E-02    0.83       0.0  T
   2   -143.0566657 -0.360282E-07  0.770E-03    0.83       1.4  T
   3   -143.0566657  0.654933E-07  0.870E-04    0.83      12.1  T
   4   -143.0566657 -0.827341E-07  0.197E-04    0.83      53.6  T
     SCC iter.                  ...        0 min,  0.044 sec
     gradient                   ...        0 min,  0.015 sec
 * total energy  :  -140.4365314 Eh     change       -0.5982761E-05 Eh
   gradient norm :     0.0002666 Eh/α   predicted    -0.2219320E-05 ( -62.90%)
   displ. norm   :     0.0771697 α      lambda       -0.4891386E-05
   maximum displ.:     0.0542729 α      in ANC's #3, #10, #2, ...

........................................................................
.............................. CYCLE   58 ..............................
........................................................................

 iter      E             dE          RMSdq      gap      omega  full diag
   1   -143.0566384 -0.143057E+03  0.123E-02    0.83       0.0  T
   2   -143.0566384 -0.291130E-07  0.718E-03    0.83       1.5  T
   3   -143.0566384  0.298429E-07  0.640E-04    0.83      16.5  T
   4   -143.0566384 -0.434875E-07  0.175E-04    0.83      60.2  T
     SCC iter.                  ...        0 min,  0.046 sec
     gradient                   ...        0 min,  0.014 sec
 * total energy  :  -140.4365381 Eh     change       -0.6720482E-05 Eh
   gradient norm :     0.0004127 Eh/α   predicted    -0.2454684E-05 ( -63.47%)
   displ. norm   :     0.1052041 α      lambda       -0.6642913E-05
   maximum displ.:     0.0719961 α      in ANC's #3, #10, #2, ...

........................................................................
.............................. CYCLE   59 ..............................
........................................................................

 iter      E             dE          RMSdq      gap      omega  full diag
   1   -143.0565864 -0.143057E+03  0.161E-02    0.83       0.0  T
   2   -143.0565864 -0.486559E-07  0.943E-03    0.83       1.1  T
   3   -143.0565864  0.153341E-07  0.639E-04    0.83      16.5  T
   4   -143.0565865 -0.368014E-07  0.217E-04    0.83      48.6  T
     SCC iter.                  ...        0 min,  0.045 sec
     gradient                   ...        0 min,  0.014 sec
 * total energy  :  -140.4365470 Eh     change       -0.8914578E-05 Eh
   gradient norm :     0.0005533 Eh/α   predicted    -0.3339092E-05 ( -62.54%)
   displ. norm   :     0.1437078 α      lambda       -0.8152147E-05
   maximum displ.:     0.0971355 α      in ANC's #3, #10, #2, ...

........................................................................
.............................. CYCLE   60 ..............................
........................................................................

 iter      E             dE          RMSdq      gap      omega  full diag
   1   -143.0566597 -0.143057E+03  0.214E-02    0.83       0.0  T
   2   -143.0566598 -0.835262E-07  0.126E-02    0.83       1.0  T
   3   -143.0566598  0.229806E-07  0.827E-04    0.83      12.7  T
   4   -143.0566598 -0.603139E-07  0.276E-04    0.83      38.2  T
     SCC iter.                  ...        0 min,  0.045 sec
     gradient                   ...        0 min,  0.014 sec
 * total energy  :  -140.4365570 Eh     change       -0.9992349E-05 Eh
   gradient norm :     0.0006032 Eh/α   predicted    -0.4115280E-05 ( -58.82%)
   displ. norm   :     0.1205000 α      lambda       -0.5757475E-05
   maximum displ.:     0.0825257 α      in ANC's #3, #2, #10, ...

........................................................................
.............................. CYCLE   61 ..............................
........................................................................

 iter      E             dE          RMSdq      gap      omega  full diag
   1   -143.0567795 -0.143057E+03  0.174E-02    0.83       0.0  T
   2   -143.0567795 -0.535286E-07  0.102E-02    0.83       1.0  T
   3   -143.0567795  0.250504E-07  0.749E-04    0.83      14.1  T
   4   -143.0567796 -0.498768E-07  0.216E-04    0.83      48.8  T
     SCC iter.                  ...        0 min,  0.045 sec
     gradient                   ...        0 min,  0.014 sec
 * total energy  :  -140.4365644 Eh     change       -0.7333604E-05 Eh
   gradient norm :     0.0005183 Eh/α   predicted    -0.2899720E-05 ( -60.46%)
   displ. norm   :     0.0989024 α      lambda       -0.4894891E-05
   maximum displ.:     0.0683333 α      in ANC's #3, #2, #10, ...

........................................................................
.............................. CYCLE   62 ..............................
........................................................................

[...]
    50   6 C       85   1 H                                       1.0798136
    51   6 C       86   1 H                                       1.0787427
    53   6 C       87   1 H                                       1.0796789
    54   6 C       88   1 H                                       1.0801181
    55   6 C       89   1 H                                       1.0793376
    56   6 C       90   1 H                                       1.0800402

 * 3 distinct bonds (by element types)

   Z      Z             #   av. dist./Å        max./Å        min./Å
   1 H    6 C          34     1.0797635     1.0802384     1.0787264
   6 C    6 C          52     1.3948360     1.4295231     1.3775061
   6 C    7 N          10     1.3675545     1.4039967     1.3071750

           -------------------------------------------------
          |               Frequency Printout                |
           -------------------------------------------------
 projected vibrational frequencies (cm⁻¹)
eigval :       -0.00    -0.00     0.00     0.00     0.00     0.00
eigval :       -2.05    11.33    13.17    21.58    24.97    34.64
eigval :       39.57    42.62    55.70    58.17    61.09    62.15
eigval :       70.28    71.17    76.39    78.87    88.47    94.31
eigval :      102.90   115.80   145.40   157.70   172.03   183.03
eigval :      185.85   186.84   206.22   207.34   219.16   231.39
eigval :      250.90   254.43   263.71   284.20   285.64   303.48
eigval :      323.06   332.66   342.21   352.73   369.60   371.70
eigval :      373.42   375.35   378.97   379.71   383.52   386.74
eigval :      407.18   408.88   414.77   419.73   425.39   426.98
eigval :      463.43   471.48   483.61   485.05   493.56   507.53
eigval :      539.65   541.67   549.91   550.11   566.60   570.34
eigval :      574.42   579.07   585.09   586.12   587.35   596.10
eigval :      600.45   614.69   615.18   625.43   640.80   652.45
eigval :      655.59   664.08   666.69   675.19   676.27   676.48
eigval :      685.13   687.00   696.72   710.77   712.25   718.49
eigval :      722.17   746.22   750.28   760.04   764.50   765.29
eigval :      773.80   773.86   813.30   817.65   844.92   850.32
eigval :      862.56   864.75   865.00   866.67   870.82   874.70
eigval :      878.04   880.07   883.61   884.13   891.29   893.47
eigval :      893.97   899.25   899.91   903.95   904.54   905.93
eigval :      907.27   909.90   912.57   919.00   920.49   921.40
eigval :      924.37   930.05   930.72   932.25   932.49   933.87
eigval :      934.09   944.95   965.89   968.01   990.47   993.71
eigval :     1030.20  1032.11  1061.52  1061.62  1080.18  1080.46
eigval :     1102.09  1104.89  1113.25  1117.57  1117.91  1125.49
eigval :     1128.60  1130.30  1132.44  1132.64  1134.71  1136.77
eigval :     1173.19  1173.23  1178.31  1178.48  1179.29  1179.92
eigval :     1181.25  1186.39  1191.66  1195.42  1195.83  1198.56
eigval :     1208.49  1209.53  1230.82  1253.95  1258.07  1259.65
eigval :     1261.97  1265.83  1277.31  1277.60  1278.65  1290.55
eigval :     1290.68  1297.15  1297.93  1305.94  1308.55  1315.58
eigval :     1316.90  1319.16  1319.31  1333.79  1360.88  1360.99
eigval :     1361.52  1364.60  1374.73  1374.93  1379.31  1405.25
eigval :     1406.62  1408.36  1413.04  1413.16  1420.68  1429.22
eigval :     1429.36  1458.09  1458.26  1471.13  1472.78  1480.55
eigval :     1483.67  1485.06  1486.26  1522.80  1525.37  1526.03
eigval :     1528.18  1533.70  1534.21  1553.08  1569.77  1573.47
eigval :     1578.93  1578.94  1586.71  1586.73  1595.59  1595.61
eigval :     1612.78  1612.93  3074.32  3074.35  3074.47  3074.55
eigval :     3074.60  3075.93  3078.23  3078.26  3078.49  3078.56
eigval :     3079.51  3079.80  3080.87  3081.91  3083.17  3085.04
eigval :     3085.13  3085.57  3089.48  3089.49  3090.32  3090.70
eigval :     3092.30  3092.38  3092.86  3094.83  3095.25  3098.33
eigval :     3100.00  3100.16  3100.56  3100.61  3100.98  3103.52
 reduced masses (amu)
   1: 11.63   2: 11.62   3: 11.63   4: 11.58   5: 11.45   6: 11.27   7: 11.47   8: 11.16
   9: 11.03  10: 10.97  11: 10.88  12: 10.61  13: 11.06  14: 10.51  15: 10.57  16: 10.79
  17: 10.65  18: 10.69  19: 10.97  20: 10.58  21: 10.67  22: 10.67  23: 10.45  24: 10.60
  25: 10.38  26: 11.25  27: 10.09  28: 11.00  29: 10.54  30: 10.99  31: 10.66  32: 10.69
  33: 10.94  34: 10.97  35: 10.53  36: 11.05  37: 11.19  38: 10.66  39: 10.69  40: 11.22
  41: 11.30  42: 10.85  43: 11.07  44: 10.64  45: 11.00  46: 11.08  47: 10.17  48: 10.27
  49:  9.10  50:  9.84  51: 10.69  52:  9.37  53: 10.89  54:  9.52  55: 10.02  56: 10.12
  57: 10.52  58: 10.68  59:  9.84  60: 10.75  61: 10.85  62:  9.98  63: 10.58  64: 10.74
  65: 10.62  66:  9.98  67: 11.60  68: 11.59  69: 10.56  70: 10.55  71: 10.85  72: 11.37
  73: 11.25  74: 10.68  75: 11.11  76: 11.14  77: 11.21  78: 11.21  79: 10.77  80: 11.35
  81: 11.20  82: 11.12  83: 11.38  84: 11.50  85: 11.41  86: 11.31  87: 11.27  88: 11.35
  89:  9.38  90:  9.46  91: 11.35  92: 11.43  93: 11.44  94: 11.68  95: 11.79  96: 11.59
  97: 11.43  98:  4.40  99:  9.42 100:  3.89 101:  5.33 102:  5.32 103:  3.84 104:  3.89
 105:  5.03 106:  5.05 107:  3.47 108:  3.50 109:  4.04 110: 10.65 111: 10.55 112:  3.98
 113:  3.44 114:  3.26 115:  3.29 116:  3.28 117: 11.68 118: 11.67 119:  4.77 120:  4.07
 121: 10.37 122:  3.90 123:  4.00 124:  3.51 125:  3.56 126:  3.81 127:  3.93 128: 11.17
 129: 11.35 130:  2.90 131:  3.05 132:  3.01 133:  2.74 134:  3.85 135:  3.60 136:  3.86
 137:  3.63 138:  3.22 139:  3.18 140: 10.81 141: 11.46 142: 11.41 143: 10.90 144: 10.90
 145:  8.72 146:  8.38 147:  6.29 148:  6.31 149:  7.07 150:  7.08 151:  7.39 152:  6.14
 153:  6.46 154:  4.23 155:  4.26 156:  7.00 157:  5.40 158:  7.04 159:  5.62 160:  5.63
 161:  6.83 162:  5.26 163:  2.91 164:  2.90 165:  1.40 166:  1.37 167:  3.82 168:  1.46
 169:  1.52 170:  2.77 171:  5.12 172:  2.20 173:  2.29 174:  7.30 175:  6.42 176:  7.02
 177:  4.90 178:  4.39 179:  5.48 180:  6.51 181:  5.45 182:  3.87 183:  3.65 184:  3.65
 185: 10.27 186:  9.23 187:  9.40 188:  9.94 189:  9.71 190: 11.26 191: 11.06 192: 11.14
 193: 11.33 194: 11.86 195: 11.77 196: 10.44 197: 11.35 198: 11.30 199: 10.61 200: 10.97
 201: 10.73 202:  8.33 203: 11.16 204: 10.29 205: 10.22 206:  8.71 207:  9.79 208:  9.79
 209: 10.29 210:  9.07 211:  9.08 212:  9.40 213:  9.39 214:  9.98 215: 10.00 216: 10.18
 217: 10.52 218: 10.49 219: 10.90 220: 11.27 221: 11.57 222: 11.86 223: 11.29 224: 11.74
 225: 11.70 226: 11.51 227: 11.47 228: 11.48 229: 11.50 230: 11.50 231: 11.61 232: 11.61
 233: 11.51 234: 11.51 235: 11.79 236: 11.79 237:  1.75 238:  1.75 239:  1.76 240:  1.75
 241:  1.75 242:  1.76 243:  1.79 244:  1.79 245:  1.80 246:  1.81 247:  1.79 248:  1.79
 249:  1.78 250:  1.79 251:  1.83 252:  1.85 253:  1.85 254:  1.84 255:  1.88 256:  1.88
 257:  1.88 258:  1.88 259:  1.89 260:  1.89 261:  1.88 262:  1.84 263:  1.86 264:  1.88
 265:  1.88 266:  1.88 267:  1.88 268:  1.88 269:  1.83 270:  1.86
 IR intensities (km·mol⁻¹)
   1:  0.00   2:  0.01   3:  0.00   4:  0.01   5:  0.01   6:  0.01   7:  0.38   8:  0.30
   9:  0.09  10:  0.00  11:  0.17  12:  0.03  13:  0.06  14:  0.23  15:  0.04  16:  1.04
  17:  0.63  18:  0.47  19:  0.44  20:  0.66  21:  0.08  22:  1.20  23:  0.13  24:  1.06
  25:  2.27  26:  0.24  27:  0.12  28:  2.65  29:  0.00  30:  1.95  31:  0.95  32:  0.07
  33:  1.63  34:  1.50  35:  0.00  36:  0.48  37:  2.61  38:  0.69  39:  0.00  40:  3.64
  41:  0.02  42:  6.56  43:  0.51  44:  1.53  45:  6.37  46:  0.24  47:  0.80  48:  0.04
  49:  0.12  50:  0.25  51:  0.05  52:  1.10  53:  0.14  54:  0.15  55:  2.45  56:  0.25
  57:  4.13  58:  0.85  59: 12.08  60:  0.00  61:  9.22  62:  0.00  63:  3.35  64:  0.27
  65:  0.04  66:  1.86  67:  0.00  68:  6.01  69:  7.73  70:  1.38  71:  0.08  72:  0.83
  73:  2.06  74:  2.61  75:  1.02  76:  0.21  77:  2.05  78:  2.49  79:  2.79  80:  3.24
  81:  2.12  82:  2.10  83:  1.41  84:  6.50  85:  0.49  86: 13.59  87:  0.39  88:  0.31
  89: 25.92  90: 11.83  91: 11.57  92:  0.01  93:  0.89  94:  0.66  95: 16.43  96:  0.71
  97:  0.10  98:  0.92  99:  5.25 100: 39.32 101: 25.81 102: 61.01 103: 33.78 104: 42.78
 105:  7.65 106: 10.72 107:  0.03 108:  0.00 109: 21.16 110: 13.45 111:  5.95 112:  0.38
 113:  0.31 114:  0.43 115:  2.53 116:  3.28 117:  0.27 118: 12.64 119:  0.10 120:  6.64
 121:  0.31 122:  0.04 123:  2.31 124:  0.01 125:  0.01 126:  1.09 127:  1.37 128:  0.81
 129: 26.91 130:  0.32 131:  0.05 132:  0.63 133:  0.96 134:  0.85 135:  4.77 136:  2.95
 137:  6.90 138:  0.34 139:  0.94 140:  0.07 141: 16.63 142: 10.85 143:  5.43 144:  1.95
 145: 11.56 146:  1.20 147:  0.22 148:  0.53 149:  0.58 150:  0.63 151:  0.01 152:  6.84
 153:  0.14 154:  4.04 155:  4.12 156:  6.76 157:  5.95 158: 11.57 159:  0.05 160:  6.52
 161: 14.65 162:  7.52 163:  5.66 164:  5.63 165:  0.04 166:  0.03 167:  5.06 168:  2.86
 169:  0.17 170:  0.03 171: 10.41 172: 13.85 173: 14.74 174:  0.61 175: 13.26 176:  2.12
 177:  0.22 178:  1.07 179:  3.47 180:  2.96 181:  2.79 182:  8.29 183:  3.59 184:  5.06
 185:  2.61 186: 56.25 187: 54.29 188: 22.03 189:  9.87 190: 14.39 191: 80.79 192:251.81
 193: 89.43 194: 42.29 195: 10.92 196:288.48 197: 21.03 198:115.54 199:  0.93 200:  0.72
 201:855.79 202:135.14 203:  1.41 204: 11.69 205:  1.77 206:  0.09 207:315.30 208: 36.67
 209:  0.69 210: 35.57 211:  1.52 212:272.71 213:  2.50 214:  8.64 215:414.66 216:  0.24
 217: 98.76 218:  6.72 219:  1.24 220:  1.87 221:  1.05 222: 81.75 223:  0.14 224: 31.08
 225:  4.29 226:  1.12 227: 34.78 228:  2.04 229:  7.98 230:  0.51 231:  1.49 232:  1.09
 233:  0.61 234:  0.58 235: 68.81 236: 39.91 237:  4.00 238:  1.52 239:  0.73 240:  7.53
 241:  6.89 242:  5.68 243: 24.85 244: 25.12 245: 17.09 246: 58.36 247: 23.76 248:  6.80
 249: 50.37 250: 73.71 251: 93.39 252:184.16 253:107.27 254: 32.94 255: 71.78 256:146.22
 257: 84.24 258: 51.85 259: 77.30 260: 92.15 261: 20.65 262: 73.80 263: 57.15 264: 61.48
 265: 31.17 266: 55.25 267: 91.75 268:131.99 269:131.11 270: 26.36
 Raman intensities (Ä⁴*amu⁻¹)
   1:  0.00   2:  0.00   3:  0.00   4:  0.00   5:  0.00   6:  0.00   7:  0.00   8:  0.00
   9:  0.00  10:  0.00  11:  0.00  12:  0.00  13:  0.00  14:  0.00  15:  0.00  16:  0.00
  17:  0.00  18:  0.00  19:  0.00  20:  0.00  21:  0.00  22:  0.00  23:  0.00  24:  0.00
  25:  0.00  26:  0.00  27:  0.00  28:  0.00  29:  0.00  30:  0.00  31:  0.00  32:  0.00
  33:  0.00  34:  0.00  35:  0.00  36:  0.00  37:  0.00  38:  0.00  39:  0.00  40:  0.00
  41:  0.00  42:  0.00  43:  0.00  44:  0.00  45:  0.00  46:  0.00  47:  0.00  48:  0.00
  49:  0.00  50:  0.00  51:  0.00  52:  0.00  53:  0.00  54:  0.00  55:  0.00  56:  0.00
  57:  0.00  58:  0.00  59:  0.00  60:  0.00  61:  0.00  62:  0.00  63:  0.00  64:  0.00
  65:  0.00  66:  0.00  67:  0.00  68:  0.00  69:  0.00  70:  0.00  71:  0.00  72:  0.00
  73:  0.00  74:  0.00  75:  0.00  76:  0.00  77:  0.00  78:  0.00  79:  0.00  80:  0.00
  81:  0.00  82:  0.00  83:  0.00  84:  0.00  85:  0.00  86:  0.00  87:  0.00  88:  0.00
  89:  0.00  90:  0.00  91:  0.00  92:  0.00  93:  0.00  94:  0.00  95:  0.00  96:  0.00
  97:  0.00  98:  0.00  99:  0.00 100:  0.00 101:  0.00 102:  0.00 103:  0.00 104:  0.00
 105:  0.00 106:  0.00 107:  0.00 108:  0.00 109:  0.00 110:  0.00 111:  0.00 112:  0.00
 113:  0.00 114:  0.00 115:  0.00 116:  0.00 117:  0.00 118:  0.00 119:  0.00 120:  0.00
 121:  0.00 122:  0.00 123:  0.00 124:  0.00 125:  0.00 126:  0.00 127:  0.00 128:  0.00
 129:  0.00 130:  0.00 131:  0.00 132:  0.00 133:  0.00 134:  0.00 135:  0.00 136:  0.00
 137:  0.00 138:  0.00 139:  0.00 140:  0.00 141:  0.00 142:  0.00 143:  0.00 144:  0.00
 145:  0.00 146:  0.00 147:  0.00 148:  0.00 149:  0.00 150:  0.00 151:  0.00 152:  0.00
 153:  0.00 154:  0.00 155:  0.00 156:  0.00 157:  0.00 158:  0.00 159:  0.00 160:  0.00
 161:  0.00 162:  0.00 163:  0.00 164:  0.00 165:  0.00 166:  0.00 167:  0.00 168:  0.00
 169:  0.00 170:  0.00 171:  0.00 172:  0.00 173:  0.00 174:  0.00 175:  0.00 176:  0.00
 177:  0.00 178:  0.00 179:  0.00 180:  0.00 181:  0.00 182:  0.00 183:  0.00 184:  0.00
 185:  0.00 186:  0.00 187:  0.00 188:  0.00 189:  0.00 190:  0.00 191:  0.00 192:  0.00
 193:  0.00 194:  0.00 195:  0.00 196:  0.00 197:  0.00 198:  0.00 199:  0.00 200:  0.00
 201:  0.00 202:  0.00 203:  0.00 204:  0.00 205:  0.00 206:  0.00 207:  0.00 208:  0.00
 209:  0.00 210:  0.00 211:  0.00 212:  0.00 213:  0.00 214:  0.00 215:  0.00 216:  0.00
 217:  0.00 218:  0.00 219:  0.00 220:  0.00 221:  0.00 222:  0.00 223:  0.00 224:  0.00
 225:  0.00 226:  0.00 227:  0.00 228:  0.00 229:  0.00 230:  0.00 231:  0.00 232:  0.00
 233:  0.00 234:  0.00 235:  0.00 236:  0.00 237:  0.00 238:  0.00 239:  0.00 240:  0.00
 241:  0.00 242:  0.00 243:  0.00 244:  0.00 245:  0.00 246:  0.00 247:  0.00 248:  0.00
 249:  0.00 250:  0.00 251:  0.00 252:  0.00 253:  0.00 254:  0.00 255:  0.00 256:  0.00
 257:  0.00 258:  0.00 259:  0.00 260:  0.00 261:  0.00 262:  0.00 263:  0.00 264:  0.00
 265:  0.00 266:  0.00 267:  0.00 268:  0.00 269:  0.00 270:  0.00
 output can be read by thermo (or use thermo option).
 writing <g98.out> molden fake output.
 recommended (thermochemical) frequency scaling factor: 1.0
           -------------------------------------------------
          |             Thermodynamic Functions             |
           -------------------------------------------------

Molecule has the following symmetry elements: (C2) 
It seems to be the C2 point group
c2  symmetry found (for desy threshold:  0.10E+00) used in thermo
 inverting freq            1   2.04698474911388     

          ...................................................
          :                      SETUP                      :
          :.................................................:
          :  # frequencies                         264      :
          :  # imaginary freq.                       0      :
          :  linear?                             false      :
          :  only rotor calc.                    false      :
          :  symmetry                               c2      :
          :  rotational number                       2      :
          :  scaling factor                  1.0000000      :
          :  rotor cutoff                   50.0000000 cm⁻¹ :
          :  imag. cutoff                  -20.0000000 cm⁻¹ :
          :.................................................:

    mode    ω/cm⁻¹     T·S(HO)/kcal·mol⁻¹    T·S(FR)/kcal·mol⁻¹   T·S(vib)
   ------------------------------------------------------------------------
       1      2.05    -3.32824 (  0.00%)    -2.00313 (100.00%)    -2.00313
       2     11.33    -2.31440 (  0.26%)    -1.49626 ( 99.74%)    -1.49841
       3     13.17    -2.22536 (  0.48%)    -1.45173 ( 99.52%)    -1.45544
       4     21.58    -1.93308 (  3.35%)    -1.30552 ( 96.65%)    -1.32655
       5     24.97    -1.84656 (  5.86%)    -1.26221 ( 94.14%)    -1.29644
       6     34.64    -1.65305 ( 18.72%)    -1.16529 ( 81.28%)    -1.25660
       7     39.57    -1.57445 ( 28.17%)    -1.12589 ( 71.83%)    -1.25222
       8     42.62    -1.53046 ( 34.56%)    -1.10382 ( 65.44%)    -1.25128
       9     55.70    -1.37267 ( 60.63%)    -1.02456 ( 39.37%)    -1.23563
      10     58.17    -1.34714 ( 64.69%)    -1.01171 ( 35.31%)    -1.22870
      11     61.09    -1.31832 ( 69.02%)    -0.99720 ( 30.98%)    -1.21885
      12     62.15    -1.30816 ( 70.48%)    -0.99209 ( 29.52%)    -1.21486
      13     70.28    -1.23597 ( 79.61%)    -0.95568 ( 20.39%)    -1.17881
      14     71.17    -1.22858 ( 80.41%)    -0.95195 ( 19.59%)    -1.17440
      15     76.39    -1.18711 ( 84.49%)    -0.93100 ( 15.51%)    -1.14739
      16     78.87    -1.16838 ( 86.09%)    -0.92152 ( 13.91%)    -1.13405
      17     88.47    -1.10122 ( 90.74%)    -0.88749 (  9.26%)    -1.08144
      18     94.31    -1.06401 ( 92.68%)    -0.86858 (  7.32%)    -1.04970
      19    102.90    -1.01331 ( 94.72%)    -0.84274 (  5.28%)    -1.00430
      20    115.80    -0.94494 ( 96.64%)    -0.80776 (  3.36%)    -0.94034
      21    145.40    -0.81441 ( 98.62%)    -0.74032 (  1.38%)    -0.81339
      22    157.70    -0.76838 ( 99.00%)    -0.71626 (  1.00%)    -0.76786
      23    172.03    -0.71948 ( 99.29%)    -0.69049 (  0.71%)    -0.71927
      24    183.03    -0.68495 ( 99.45%)    -0.67214 (  0.55%)    -0.68488
      25    185.85    -0.67645 ( 99.48%)    -0.66761 (  0.52%)    -0.67640
      26    186.84    -0.67349 ( 99.49%)    -0.66603 (  0.51%)    -0.67345
      27    206.22    -0.61922 ( 99.66%)    -0.63680 (  0.34%)    -0.61928
      28    207.34    -0.61627 ( 99.66%)    -0.63520 (  0.34%)    -0.61633
      29    219.16    -0.58618 ( 99.73%)    -0.61877 (  0.27%)    -0.58627
      30    231.39    -0.55699 ( 99.78%)    -0.60269 (  0.22%)    -0.55709
      31    250.90    -0.51408 ( 99.84%)    -0.57870 (  0.16%)    -0.51418
      32    254.43    -0.50676 ( 99.85%)    -0.57456 (  0.15%)    -0.50686
      33    263.71    -0.48810 ( 99.87%)    -0.56395 (  0.13%)    -0.48820
      34    284.20    -0.44969 ( 99.90%)    -0.54178 (  0.10%)    -0.44977
      35    285.64    -0.44712 ( 99.91%)    -0.54029 (  0.09%)    -0.44721
   ------------------------------------------------------------------------

   temp. (K)  partition function   enthalpy   heat capacity  entropy
                                   cal/mol     cal/K/mol   cal/K/mol   J/K/mol
 298.15  VIB  0.522E+21            25613.519    163.321    161.435
         ROT  0.799E+08              888.752      2.981     39.141
         INT  0.417E+29            26502.271    166.302    200.576
         TR   0.185E+29             1481.254      4.968     45.560
         TOT                       27983.5251   171.2702   246.1362  1029.8340

       T/K    H(0)-H(T)+PV         H(T)/Eh          T*S/Eh         G(T)/Eh
   ------------------------------------------------------------------------
    298.15    0.445946E-01    0.732364E+00    0.116947E+00    0.615417E+00
   ------------------------------------------------------------------------

         :::::::::::::::::::::::::::::::::::::::::::::::::::::
         ::                  THERMODYNAMIC                  ::
         :::::::::::::::::::::::::::::::::::::::::::::::::::::
         :: total free energy        -139.821300294795 Eh   ::
         ::.................................................::
         :: total energy             -140.436717077244 Eh   ::
         :: zero point energy           0.687769460984 Eh   ::
         :: G(RRHO) w/o ZPVE           -0.072352678535 Eh   ::
         :: G(RRHO) contrib.            0.615416782449 Eh   ::
         :::::::::::::::::::::::::::::::::::::::::::::::::::::

optimized geometry written to: xtbopt.xyz


           -------------------------------------------------
          | TOTAL ENERGY             -140.436717077244 Eh   |
          | TOTAL ENTHALPY           -139.704353030487 Eh   |
          | TOTAL FREE ENERGY        -139.821300294795 Eh   |
          | GRADIENT NORM               0.000067006099 Eh/α |
          | HOMO-LUMO GAP               0.835268488759 eV   |
           -------------------------------------------------

------------------------------------------------------------------------
 * finished run on 2025/09/02 at 18:51:14.698     
------------------------------------------------------------------------
 total:
 * wall-time:     0 d,  0 h,  0 min, 13.220 sec
 *  cpu-time:     0 d,  0 h,  8 min, 25.315 sec
 * ratio c/w:    38.223 speedup
 SCF:
 * wall-time:     0 d,  0 h,  0 min,  0.313 sec
 *  cpu-time:     0 d,  0 h,  0 min, 11.615 sec
 * ratio c/w:    37.132 speedup
 ANC optimizer:
 * wall-time:     0 d,  0 h,  0 min,  7.590 sec
 *  cpu-time:     0 d,  0 h,  5 min,  3.566 sec
 * ratio c/w:    39.995 speedup
 analytical hessian:
 * wall-time:     0 d,  0 h,  0 min,  5.088 sec
 *  cpu-time:     0 d,  0 h,  3 min,  1.717 sec
 * ratio c/w:    35.716 speedup

