 Entering Gaussian System
 *********************************************
 Gaussian 98:
 frequency output generated by the xtb code
 *********************************************
                         Standard orientation:
 --------------------------------------------------------------------
  Center     Atomic     Atomic              Coordinates (Angstroms)
  Number     Number      Type              X           Y           Z
 --------------------------------------------------------------------
    1          6             0        5.798467    0.507700   -0.786816
    2          6             0        5.545332   -0.860418   -0.126820
    3          6             0        6.871755   -1.490664    0.334899
    4          6             0        4.892226   -1.767297   -1.152495
    5          6             0        5.605366   -2.121558   -2.290384
    6          6             0        5.054630   -2.895464   -3.293932
    7          6             0        3.741829   -3.313102   -3.177023
    8          6             0        3.010750   -2.973814   -2.058184
    9          6             0        3.573552   -2.217946   -1.026546
   10          7             0        2.823870   -1.914148    0.106306
   11          6             0        1.415261   -1.974782    0.054891
   12          6             0        0.701537   -3.149777    0.042951
   13          6             0       -0.699410   -3.150364   -0.035158
   14          6             0       -1.413936   -1.975894   -0.050034
   15          7             0       -2.822586   -1.916302   -0.101630
   16          6             0       -3.572094   -2.217595    1.032007
   17          6             0       -3.008913   -2.970641    2.065499
   18          6             0       -3.739796   -3.307454    3.185213
   19          6             0       -5.052774   -2.890097    3.301136
   20          6             0       -5.603897   -2.118948    2.295679
   21          6             0       -4.890964   -1.767222    1.156874
   22          6             0       -5.544514   -0.863208    0.128952
   23          6             0       -6.870719   -1.495152   -0.331069
   24          6             0       -5.798155    0.506473    0.785500
   25          6             0       -4.659248   -0.655771   -1.082086
   26          6             0       -5.123795    0.091574   -2.156891
   27          6             0       -4.362165    0.294101   -3.292376
   28          6             0       -3.109359   -0.287589   -3.379758
   29          6             0       -2.624403   -1.027810   -2.323418
   30          6             0       -3.370873   -1.187720   -1.151767
   31          6             0       -0.707101   -0.745691   -0.004169
   32          7             0       -1.378872    0.413049    0.076131
   33          6             0       -0.712100    1.542018    0.082753
   34          6             0       -1.513769    2.752348    0.286787
   35          6             0       -2.774419    2.825411   -0.303340
   36          6             0       -3.565003    3.942682   -0.114974
   37          6             0       -3.112716    4.989907    0.671494
   38          6             0       -1.869385    4.911850    1.278325
   39          6             0       -1.070200    3.800042    1.090256
   40          6             0        0.710960    1.542317   -0.086538
   41          6             0        1.511719    2.752745   -0.293527
   42          6             0        1.067241    3.798218   -1.099384
   43          6             0        1.865530    4.910210   -1.290142
   44          6             0        3.108875    4.990649   -0.683654
   45          6             0        3.562082    3.945603    0.105181
   46          6             0        2.772393    2.828158    0.296256
   47          7             0        1.378535    0.413839   -0.077170
   48          6             0        0.707586   -0.745178    0.005982
   49          6             0        3.371747   -1.182601    1.154593
   50          6             0        2.625138   -1.019989    2.325785
   51          6             0        3.109687   -0.276792    3.380221
   52          6             0        4.362242    0.305222    3.291415
   53          6             0        5.124041    0.100070    2.156516
   54          6             0        4.659889   -0.650256    1.083619
   55          1             0        4.851428    0.951939   -1.088290
   56          1             0        6.426339    0.402511   -1.667805
   57          1             0        6.290120    1.184848   -0.093071
   58          1             0        7.553941   -1.624464   -0.499523
   59          1             0        6.681295   -2.464083    0.783106
   60          1             0        7.365098   -0.864722    1.072862
   61          1             0        6.620971   -1.775416   -2.408424
   62          1             0        5.639831   -3.155871   -4.162709
   63          1             0        3.281544   -3.901084   -3.957260
   64          1             0        1.981708   -3.289287   -1.992127
   65          1             0        1.225866   -4.092746    0.091222
   66          1             0       -1.223083   -4.093815   -0.081085
   67          1             0       -1.979737   -3.285827    2.000173
   68          1             0       -3.279223   -3.893289    3.966895
   69          1             0       -5.637823   -3.148587    4.170587
   70          1             0       -6.619648   -1.772957    2.412903
   71          1             0       -7.552800   -1.627093    0.503735
   72          1             0       -7.364358   -0.871287   -1.070591
   73          1             0       -6.679904   -2.469634   -0.776808
   74          1             0       -6.290122    1.181666    0.090074
   75          1             0       -4.851278    0.951857    1.085793
   76          1             0       -6.425933    0.403259    1.666790
   77          1             0       -6.105372    0.538759   -2.108609
   78          1             0       -4.748326    0.889374   -4.106020
   79          1             0       -2.509809   -0.167176   -4.269975
   80          1             0       -1.650794   -1.489479   -2.400588
   81          1             0       -3.114491    2.000911   -0.912015
   82          1             0       -4.537724    3.996240   -0.581142
   83          1             0       -3.730504    5.863670    0.817698
   84          1             0       -1.521552    5.720575    1.904063
   85          1             0       -0.109341    3.734891    1.579652
   86          1             0        0.106372    3.731183   -1.588508
   87          1             0        1.516976    5.717210   -1.917704
   88          1             0        3.725960    5.864554   -0.831965
   89          1             0        4.534833    4.000995    0.571072
   90          1             0        3.113195    2.005336    0.906790
   91          1             0        1.651739   -1.481903    2.404113
   92          1             0        2.510015   -0.154320    4.270075
   93          1             0        4.748083    0.902781    4.103533
   94          1             0        6.105435    0.547537    2.107146
 --------------------------------------------------------------------
     1 basis functions        1 primitive gaussians
     1 alpha electrons        1 beta electrons
 
 Harmonic frequencies (cm**-1), IR intensities (km*mol⁻¹),
 Raman scattering activities (A**4/amu), Raman depolarization ratios,
 reduced masses (AMU), force constants (mDyne/A) and normal coordinates:
                      1                      2                      3
                        a                      a                      a 
 Frequencies --    13.5624                15.4172                18.8589
 Red. masses --    10.7863                10.5692                10.1540
 Frc consts  --     0.0000                 0.0000                 0.0000
 IR Inten    --     0.0732                 0.2873                 0.0154
 Raman Activ --     0.0000                 0.0000                 0.0000
 Depolar     --     0.0000                 0.0000                 0.0000
 Atom AN      X      Y      Z        X      Y      Z        X      Y      Z
   1   6    -0.09   0.09   0.02    -0.13   0.05  -0.18    -0.22   0.11  -0.14
   2   6    -0.03   0.05  -0.03    -0.03   0.05  -0.13    -0.07   0.12  -0.06
   3   6    -0.00   0.07  -0.10     0.02   0.12  -0.21     0.01   0.27  -0.07
   4   6    -0.03   0.08  -0.06    -0.06   0.00  -0.07    -0.01   0.01   0.00
   5   6    -0.05   0.15  -0.09    -0.12  -0.01  -0.10     0.01  -0.02   0.02
   6   6    -0.06   0.17  -0.11    -0.15  -0.05  -0.05     0.05  -0.11   0.07
   7   6    -0.04   0.12  -0.09    -0.13  -0.08   0.03     0.08  -0.19   0.10
   8   6    -0.02   0.05  -0.05    -0.08  -0.07   0.06     0.06  -0.16   0.08
   9   6    -0.02   0.04  -0.04    -0.04  -0.03   0.01     0.02  -0.06   0.03
  10   7     0.00  -0.03  -0.01     0.01  -0.01   0.05     0.00  -0.04   0.02
  11   6    -0.00  -0.03  -0.00     0.01  -0.00   0.10     0.00  -0.05   0.01
  12   6     0.00  -0.03  -0.01    -0.00  -0.00   0.13    -0.00  -0.05   0.01
  13   6    -0.00  -0.03   0.01    -0.00   0.00   0.13     0.00  -0.05  -0.01
  14   6     0.00  -0.03   0.00     0.01   0.00   0.10    -0.00  -0.05  -0.01
  15   7    -0.00  -0.03   0.01     0.01   0.01   0.05    -0.00  -0.04  -0.02
  16   6     0.02   0.04   0.04    -0.04   0.03   0.01    -0.02  -0.06  -0.03
  17   6     0.02   0.05   0.05    -0.08   0.07   0.06    -0.06  -0.16  -0.08
  18   6     0.04   0.12   0.09    -0.13   0.08   0.03    -0.08  -0.19  -0.10
  19   6     0.06   0.17   0.11    -0.15   0.05  -0.05    -0.05  -0.12  -0.07
  20   6     0.05   0.15   0.09    -0.12   0.01  -0.10    -0.01  -0.02  -0.02
  21   6     0.03   0.08   0.06    -0.06  -0.00  -0.07     0.01   0.01  -0.00
  22   6     0.03   0.05   0.03    -0.03  -0.05  -0.13     0.07   0.12   0.06
  23   6     0.00   0.07   0.10     0.02  -0.12  -0.21    -0.01   0.27   0.07
  24   6     0.09   0.09  -0.02    -0.13  -0.05  -0.18     0.22   0.11   0.14
  25   6     0.01  -0.03   0.00     0.04  -0.05  -0.08     0.05   0.09   0.05
  26   6    -0.00  -0.06  -0.02     0.08  -0.07  -0.12     0.08   0.16   0.08
  27   6    -0.02  -0.13  -0.05     0.14  -0.08  -0.08     0.08   0.14   0.07
  28   6    -0.03  -0.15  -0.04     0.15  -0.05  -0.00     0.04   0.06   0.03
  29   6    -0.02  -0.11  -0.02     0.11  -0.02   0.04     0.01  -0.00   0.00
  30   6    -0.00  -0.05  -0.00     0.05  -0.02  -0.00     0.02   0.02   0.01
  31   6     0.00  -0.03  -0.01     0.01   0.00   0.10     0.00  -0.05  -0.00
  32   7    -0.00  -0.03  -0.04     0.01   0.00   0.09    -0.00  -0.05  -0.00
  33   6    -0.00  -0.03  -0.03     0.02   0.00   0.08     0.00  -0.05  -0.00
  34   6    -0.02  -0.03  -0.10     0.02   0.01   0.07     0.00  -0.04  -0.02
  35   6     0.02  -0.04  -0.19     0.02   0.00   0.07     0.02  -0.03  -0.05
  36   6     0.01  -0.03  -0.26     0.02   0.01   0.07     0.03  -0.02  -0.07
  37   6    -0.05  -0.02  -0.24     0.02   0.01   0.07     0.02  -0.02  -0.06
  38   6    -0.09  -0.01  -0.15     0.02   0.01   0.06     0.00  -0.04  -0.02
  39   6    -0.07  -0.01  -0.08     0.02   0.01   0.07    -0.01  -0.05  -0.00
  40   6     0.00  -0.03   0.03     0.02  -0.00   0.08     0.00  -0.05   0.00
  41   6     0.02  -0.03   0.10     0.02  -0.01   0.07    -0.00  -0.04   0.02
  42   6     0.07  -0.01   0.08     0.02  -0.01   0.07     0.01  -0.05   0.00
  43   6     0.09  -0.01   0.15     0.02  -0.01   0.06    -0.00  -0.04   0.02
  44   6     0.05  -0.02   0.24     0.02  -0.01   0.07    -0.02  -0.03   0.06
  45   6    -0.01  -0.03   0.26     0.02  -0.01   0.07    -0.03  -0.02   0.07
  46   6    -0.02  -0.03   0.19     0.02  -0.00   0.07    -0.02  -0.03   0.05
  47   7     0.00  -0.03   0.04     0.01  -0.00   0.09     0.00  -0.05   0.00
  48   6    -0.00  -0.03   0.01     0.01  -0.00   0.10    -0.00  -0.05   0.00
  49   6     0.00  -0.05   0.00     0.05   0.02  -0.00    -0.02   0.02  -0.01
  50   6     0.02  -0.11   0.02     0.11   0.02   0.04    -0.01  -0.00  -0.00
  51   6     0.03  -0.15   0.04     0.15   0.05  -0.00    -0.04   0.06  -0.03
  52   6     0.02  -0.13   0.05     0.14   0.08  -0.08    -0.08   0.14  -0.07
  53   6    -0.00  -0.06   0.02     0.08   0.07  -0.12    -0.09   0.15  -0.08
  54   6    -0.01  -0.03  -0.00     0.04   0.05  -0.08    -0.05   0.09  -0.05
  55   1    -0.03   0.02   0.02    -0.05   0.00  -0.04    -0.08   0.00  -0.03
  56   1    -0.03   0.04  -0.00    -0.06   0.02  -0.06    -0.07   0.04  -0.04
  57   1    -0.03   0.02   0.01    -0.03   0.02  -0.07    -0.08   0.05  -0.05
  58   1    -0.01   0.04  -0.04    -0.01   0.04  -0.07     0.00   0.09  -0.02
  59   1     0.01   0.01  -0.04     0.03   0.03  -0.05     0.04   0.08  -0.01
  60   1     0.00   0.01  -0.02     0.01   0.04  -0.07    -0.01   0.10  -0.03
  61   1    -0.02   0.05  -0.03    -0.04   0.01  -0.05    -0.00   0.01  -0.00
  62   1    -0.02   0.06  -0.04    -0.05  -0.02  -0.02     0.02  -0.04   0.02
  63   1    -0.01   0.04  -0.03    -0.05  -0.03   0.02     0.03  -0.08   0.04
  64   1    -0.00   0.00  -0.01    -0.02  -0.03   0.04     0.02  -0.06   0.03
  65   1     0.00  -0.01  -0.00    -0.00  -0.00   0.04    -0.00  -0.01   0.01
  66   1    -0.00  -0.01   0.00    -0.00   0.00   0.04     0.00  -0.01  -0.01
  67   1     0.00   0.00   0.01    -0.02   0.03   0.04    -0.02  -0.06  -0.03
  68   1     0.01   0.04   0.03    -0.05   0.03   0.02    -0.03  -0.08  -0.04
  69   1     0.02   0.06   0.04    -0.05   0.02  -0.02    -0.02  -0.04  -0.02
  70   1     0.02   0.05   0.03    -0.04  -0.01  -0.05     0.00   0.01   0.00
  71   1     0.01   0.04   0.04    -0.01  -0.04  -0.07    -0.00   0.09   0.02
  72   1    -0.00   0.02   0.02     0.01  -0.04  -0.07     0.01   0.10   0.03
  73   1    -0.01   0.01   0.04     0.03  -0.03  -0.05    -0.04   0.08   0.01
  74   1     0.03   0.02  -0.01    -0.03  -0.02  -0.07     0.08   0.05   0.05
  75   1     0.03   0.02  -0.02    -0.05  -0.00  -0.04     0.08   0.00   0.04
  76   1     0.03   0.04   0.00    -0.06  -0.02  -0.06     0.07   0.04   0.05
  77   1     0.00  -0.01  -0.01     0.02  -0.03  -0.05     0.03   0.06   0.03
  78   1    -0.01  -0.05  -0.02     0.05  -0.03  -0.03     0.03   0.06   0.03
  79   1    -0.01  -0.06  -0.02     0.06  -0.02   0.01     0.01   0.01   0.01
  80   1    -0.01  -0.04  -0.00     0.04  -0.00   0.03    -0.01  -0.02  -0.01
  81   1     0.02  -0.01  -0.06     0.00   0.00   0.02     0.01  -0.01  -0.02
  82   1     0.01  -0.01  -0.09     0.01   0.00   0.02     0.01  -0.00  -0.03
  83   1    -0.02  -0.01  -0.09     0.01   0.00   0.02     0.01  -0.01  -0.02
  84   1    -0.04  -0.00  -0.04     0.01   0.00   0.02    -0.00  -0.01  -0.00
  85   1    -0.03  -0.00  -0.00     0.01   0.00   0.02    -0.01  -0.02   0.01
  86   1     0.03  -0.00   0.00     0.01  -0.00   0.02     0.01  -0.02  -0.01
  87   1     0.04  -0.00   0.04     0.01  -0.00   0.02     0.00  -0.01   0.00
  88   1     0.02  -0.01   0.09     0.01  -0.00   0.02    -0.01  -0.01   0.02
  89   1    -0.01  -0.01   0.09     0.01  -0.00   0.02    -0.01  -0.00   0.03
  90   1    -0.02  -0.01   0.06     0.00  -0.00   0.02    -0.01  -0.01   0.02
  91   1     0.01  -0.04   0.00     0.04   0.00   0.03     0.01  -0.02   0.01
  92   1     0.01  -0.06   0.02     0.06   0.02   0.01    -0.01   0.01  -0.01
  93   1     0.01  -0.05   0.02     0.05   0.03  -0.03    -0.03   0.05  -0.03
  94   1    -0.00  -0.01   0.01     0.02   0.03  -0.05    -0.03   0.06  -0.03
                      4                      5                      6
                        a                      a                      a 
 Frequencies --    19.1157                22.9801                23.2781
 Red. masses --    10.9009                10.7814                10.3836
 Frc consts  --     0.0000                 0.0000                 0.0000
 IR Inten    --     0.1277                 0.0989                 0.0279
 Raman Activ --     0.0000                 0.0000                 0.0000
 Depolar     --     0.0000                 0.0000                 0.0000
 Atom AN      X      Y      Z        X      Y      Z        X      Y      Z
   1   6    -0.03   0.07   0.09    -0.11   0.12   0.08    -0.21   0.12  -0.02
   2   6    -0.02   0.04   0.02    -0.05   0.09   0.04    -0.08   0.11  -0.00
   3   6    -0.01   0.01  -0.04    -0.02   0.13   0.01    -0.02   0.24  -0.01
   4   6    -0.05   0.09  -0.01    -0.02   0.10   0.01    -0.01   0.04   0.02
   5   6    -0.08   0.17  -0.06    -0.02   0.18  -0.01     0.03   0.05   0.03
   6   6    -0.11   0.22  -0.08     0.01   0.18  -0.03     0.08  -0.01   0.05
   7   6    -0.10   0.18  -0.05     0.04   0.11  -0.03     0.11  -0.08   0.04
   8   6    -0.06   0.11  -0.00     0.03   0.03  -0.01     0.07  -0.09   0.02
   9   6    -0.03   0.07   0.01     0.01   0.03   0.01     0.01  -0.03   0.01
  10   7    -0.00  -0.01   0.06    -0.00  -0.05   0.02    -0.02  -0.04  -0.02
  11   6    -0.00  -0.01   0.08    -0.00  -0.05   0.01    -0.02  -0.03  -0.05
  12   6    -0.01  -0.00   0.08    -0.00  -0.05  -0.00    -0.04  -0.01  -0.07
  13   6    -0.01   0.00   0.08    -0.00  -0.05  -0.01    -0.04   0.02  -0.07
  14   6    -0.00   0.01   0.08     0.00  -0.05  -0.01    -0.02   0.03  -0.05
  15   7    -0.00   0.01   0.06     0.00  -0.05  -0.02    -0.02   0.05  -0.01
  16   6    -0.03  -0.06   0.01    -0.00   0.03  -0.01     0.01   0.03   0.01
  17   6    -0.06  -0.11  -0.00    -0.03   0.04   0.01     0.07   0.09   0.02
  18   6    -0.09  -0.18  -0.05    -0.03   0.11   0.03     0.11   0.07   0.04
  19   6    -0.11  -0.22  -0.08    -0.00   0.19   0.04     0.09  -0.01   0.04
  20   6    -0.08  -0.17  -0.06     0.02   0.17   0.02     0.02  -0.06   0.03
  21   6    -0.05  -0.09  -0.01     0.02   0.10  -0.01    -0.01  -0.05   0.02
  22   6    -0.02  -0.04   0.02     0.05   0.08  -0.04    -0.08  -0.12   0.00
  23   6    -0.01  -0.01  -0.04     0.02   0.11  -0.01    -0.02  -0.25  -0.01
  24   6    -0.03  -0.07   0.09     0.10   0.11  -0.08    -0.22  -0.13  -0.02
  25   6     0.01   0.02   0.05     0.05   0.01  -0.05    -0.09  -0.05   0.01
  26   6     0.03   0.06   0.07     0.07  -0.01  -0.07    -0.14  -0.07   0.02
  27   6     0.05   0.11   0.10     0.07  -0.08  -0.08    -0.16  -0.01   0.01
  28   6     0.06   0.11   0.10     0.05  -0.12  -0.06    -0.12   0.07   0.01
  29   6     0.04   0.08   0.08     0.03  -0.10  -0.04    -0.08   0.09  -0.00
  30   6     0.01   0.03   0.06     0.02  -0.05  -0.04    -0.06   0.03  -0.00
  31   6     0.00   0.00   0.08     0.00  -0.05  -0.00     0.00   0.02  -0.05
  32   7     0.01   0.01   0.06     0.00  -0.06   0.02     0.03   0.04  -0.03
  33   6     0.02   0.01   0.01     0.00  -0.06   0.02     0.05   0.02  -0.02
  34   6     0.03   0.02  -0.05     0.02  -0.05   0.08     0.08   0.04  -0.00
  35   6     0.03   0.00  -0.04    -0.00  -0.02   0.14     0.07   0.05   0.04
  36   6     0.04   0.03  -0.11     0.02  -0.02   0.21     0.10   0.07   0.04
  37   6     0.06   0.07  -0.19     0.06  -0.05   0.23     0.15   0.08   0.01
  38   6     0.06   0.10  -0.19     0.09  -0.08   0.16     0.16   0.06  -0.02
  39   6     0.05   0.07  -0.12     0.07  -0.08   0.09     0.13   0.04  -0.03
  40   6     0.02  -0.01   0.01    -0.00  -0.06  -0.02     0.05  -0.01  -0.01
  41   6     0.03  -0.02  -0.05    -0.02  -0.06  -0.08     0.09  -0.03   0.00
  42   6     0.05  -0.07  -0.12    -0.06  -0.09  -0.09     0.14  -0.03  -0.02
  43   6     0.06  -0.10  -0.19    -0.08  -0.09  -0.16     0.17  -0.05  -0.01
  44   6     0.06  -0.07  -0.19    -0.05  -0.06  -0.23     0.15  -0.07   0.03
  45   6     0.04  -0.03  -0.12    -0.01  -0.03  -0.21     0.10  -0.07   0.06
  46   6     0.03  -0.00  -0.05     0.01  -0.03  -0.14     0.07  -0.05   0.05
  47   7     0.01  -0.01   0.06     0.00  -0.06  -0.02     0.03  -0.03  -0.03
  48   6     0.00  -0.00   0.08    -0.00  -0.05  -0.00     0.00  -0.01  -0.05
  49   6     0.01  -0.03   0.06    -0.03  -0.05   0.04    -0.06  -0.02  -0.01
  50   6     0.04  -0.08   0.08    -0.04  -0.11   0.04    -0.07  -0.08  -0.01
  51   6     0.06  -0.12   0.10    -0.06  -0.12   0.06    -0.12  -0.06   0.00
  52   6     0.06  -0.11   0.10    -0.09  -0.07   0.08    -0.15   0.01   0.01
  53   6     0.03  -0.06   0.07    -0.08  -0.01   0.07    -0.14   0.07   0.01
  54   6     0.01  -0.02   0.05    -0.05   0.01   0.05    -0.09   0.04   0.00
  55   1    -0.01   0.02   0.03    -0.04   0.02   0.02    -0.07   0.01  -0.01
  56   1    -0.01   0.03   0.02    -0.03   0.05   0.03    -0.06   0.05  -0.01
  57   1    -0.01   0.01   0.03    -0.05   0.04   0.03    -0.08   0.05  -0.01
  58   1    -0.01   0.01  -0.02    -0.01   0.05  -0.00    -0.00   0.09  -0.00
  59   1    -0.00  -0.00  -0.02     0.01   0.03  -0.00     0.02   0.06   0.00
  60   1     0.00  -0.01  -0.01    -0.01   0.04   0.00    -0.02   0.08  -0.00
  61   1    -0.03   0.06  -0.02    -0.01   0.07  -0.00     0.00   0.03   0.01
  62   1    -0.04   0.08  -0.03     0.00   0.07  -0.02     0.03   0.00   0.02
  63   1    -0.03   0.06  -0.02     0.02   0.03  -0.01     0.04  -0.04   0.01
  64   1    -0.01   0.02   0.01     0.02  -0.01  -0.00     0.03  -0.04   0.00
  65   1    -0.00  -0.00   0.02    -0.00  -0.02   0.00    -0.02  -0.01  -0.02
  66   1    -0.00   0.00   0.02    -0.00  -0.02  -0.00    -0.02   0.01  -0.02
  67   1    -0.01  -0.02   0.01    -0.01  -0.01   0.00     0.03   0.04   0.00
  68   1    -0.03  -0.06  -0.02    -0.01   0.03   0.01     0.05   0.04   0.01
  69   1    -0.04  -0.08  -0.03    -0.00   0.07   0.02     0.03  -0.01   0.02
  70   1    -0.03  -0.06  -0.02     0.01   0.07   0.01     0.00  -0.04   0.01
  71   1    -0.01  -0.01  -0.02     0.01   0.04   0.00    -0.00  -0.09  -0.00
  72   1     0.00   0.01  -0.01     0.01   0.03  -0.00    -0.02  -0.09  -0.00
  73   1    -0.00   0.00  -0.02    -0.00   0.03   0.00     0.02  -0.07   0.00
  74   1    -0.01  -0.01   0.03     0.04   0.03  -0.03    -0.08  -0.05  -0.01
  75   1    -0.01  -0.02   0.03     0.03   0.02  -0.02    -0.08  -0.01  -0.00
  76   1    -0.01  -0.03   0.02     0.02   0.05  -0.03    -0.06  -0.05  -0.01
  77   1     0.01   0.02   0.02     0.03   0.01  -0.02    -0.05  -0.04   0.01
  78   1     0.02   0.04   0.03     0.03  -0.03  -0.03    -0.06  -0.01   0.01
  79   1     0.02   0.04   0.03     0.02  -0.05  -0.02    -0.04   0.03   0.00
  80   1     0.01   0.02   0.02     0.00  -0.04  -0.01    -0.01   0.04  -0.00
  81   1     0.00  -0.01   0.00    -0.01   0.00   0.04     0.01   0.02   0.02
  82   1     0.01   0.00  -0.03    -0.00   0.00   0.08     0.02   0.03   0.02
  83   1     0.02   0.03  -0.07     0.02  -0.02   0.08     0.05   0.03   0.00
  84   1     0.02   0.04  -0.07     0.04  -0.03   0.05     0.06   0.02  -0.01
  85   1     0.01   0.03  -0.03     0.03  -0.03   0.01     0.04   0.01  -0.02
  86   1     0.01  -0.03  -0.03    -0.02  -0.03  -0.01     0.04  -0.00  -0.01
  87   1     0.02  -0.04  -0.07    -0.03  -0.03  -0.05     0.06  -0.01  -0.01
  88   1     0.02  -0.03  -0.07    -0.02  -0.02  -0.08     0.05  -0.03   0.01
  89   1     0.01  -0.00  -0.03     0.00  -0.00  -0.07     0.02  -0.03   0.03
  90   1     0.00   0.01   0.00     0.01  -0.00  -0.03     0.01  -0.02   0.02
  91   1     0.01  -0.02   0.02    -0.01  -0.04   0.01    -0.01  -0.04  -0.01
  92   1     0.02  -0.04   0.03    -0.02  -0.05   0.02    -0.04  -0.03  -0.00
  93   1     0.02  -0.04   0.03    -0.03  -0.02   0.03    -0.05   0.01   0.00
  94   1     0.01  -0.02   0.02    -0.03   0.01   0.02    -0.05   0.04   0.00
                      7                      8                      9
                        a                      a                      a 
 Frequencies --    37.6904                42.2220                46.5666
 Red. masses --    10.5852                10.6731                10.5663
 Frc consts  --     0.0000                 0.0000                 0.0000
 IR Inten    --     0.2214                 0.1134                 0.0033
 Raman Activ --     0.0000                 0.0000                 0.0000
 Depolar     --     0.0000                 0.0000                 0.0000
 Atom AN      X      Y      Z        X      Y      Z        X      Y      Z
   1   6     0.16  -0.02   0.02    -0.09  -0.00  -0.00     0.14  -0.04   0.02
   2   6    -0.00   0.01   0.01     0.00  -0.02  -0.00    -0.01  -0.02   0.01
   3   6    -0.09  -0.11   0.08     0.06   0.05  -0.06    -0.09  -0.13   0.09
   4   6    -0.03   0.06  -0.01     0.01  -0.04   0.01    -0.02   0.02  -0.02
   5   6    -0.05   0.09  -0.03     0.02  -0.07   0.02    -0.02   0.07  -0.04
   6   6    -0.07   0.12  -0.04     0.02  -0.09   0.03    -0.02   0.10  -0.07
   7   6    -0.07   0.13  -0.04     0.01  -0.07   0.03    -0.01   0.08  -0.07
   8   6    -0.05   0.09  -0.01     0.01  -0.04   0.01    -0.00   0.02  -0.05
   9   6    -0.03   0.06   0.00     0.00  -0.02   0.00    -0.01  -0.01  -0.03
  10   7    -0.02   0.02   0.03    -0.00   0.01  -0.01    -0.00  -0.08  -0.01
  11   6    -0.02   0.00   0.02    -0.00   0.02  -0.01    -0.00  -0.09  -0.01
  12   6    -0.01  -0.00   0.05    -0.00   0.02  -0.00     0.00  -0.09  -0.00
  13   6    -0.01   0.00   0.05     0.00   0.02   0.00    -0.00  -0.09   0.01
  14   6    -0.02  -0.00   0.02     0.00   0.02   0.01     0.00  -0.09   0.01
  15   7    -0.02  -0.02   0.03     0.00   0.01   0.01     0.00  -0.08   0.01
  16   6    -0.03  -0.06   0.00    -0.00  -0.02  -0.00     0.01  -0.01   0.03
  17   6    -0.05  -0.09  -0.01    -0.01  -0.04  -0.01     0.00   0.02   0.05
  18   6    -0.07  -0.13  -0.04    -0.01  -0.07  -0.03     0.01   0.08   0.07
  19   6    -0.07  -0.12  -0.04    -0.02  -0.09  -0.03     0.02   0.10   0.07
  20   6    -0.05  -0.09  -0.03    -0.02  -0.07  -0.02     0.02   0.07   0.04
  21   6    -0.03  -0.06  -0.01    -0.01  -0.04  -0.01     0.02   0.02   0.02
  22   6    -0.00  -0.01   0.01    -0.00  -0.02   0.00     0.01  -0.02  -0.01
  23   6    -0.09   0.11   0.08    -0.06   0.05   0.06     0.09  -0.13  -0.09
  24   6     0.16   0.02   0.02     0.09  -0.00   0.00    -0.14  -0.04  -0.02
  25   6    -0.04  -0.09  -0.02    -0.03  -0.07  -0.02     0.06   0.04   0.04
  26   6    -0.05  -0.15  -0.06    -0.05  -0.12  -0.05     0.10   0.12   0.07
  27   6    -0.07  -0.22  -0.08    -0.07  -0.16  -0.07     0.13   0.17   0.10
  28   6    -0.07  -0.22  -0.07    -0.05  -0.13  -0.05     0.11   0.12   0.09
  29   6    -0.04  -0.14  -0.03    -0.02  -0.06  -0.02     0.06   0.03   0.05
  30   6    -0.03  -0.08  -0.01    -0.02  -0.04  -0.01     0.04  -0.01   0.03
  31   6    -0.02   0.00  -0.02    -0.00   0.02   0.00     0.00  -0.09   0.01
  32   7    -0.01   0.02  -0.03    -0.01   0.03   0.02    -0.00  -0.09   0.03
  33   6     0.01   0.01  -0.02     0.00   0.02   0.01     0.00  -0.09   0.02
  34   6     0.04   0.02   0.01     0.05   0.05   0.03     0.04  -0.07   0.01
  35   6     0.05   0.10   0.00     0.09   0.16  -0.03     0.08   0.02  -0.05
  36   6     0.10   0.13   0.03     0.18   0.24  -0.06     0.16   0.09  -0.11
  37   6     0.15   0.09   0.06     0.25   0.20  -0.04     0.20   0.06  -0.10
  38   6     0.14   0.01   0.07     0.21   0.08   0.03     0.16  -0.03  -0.02
  39   6     0.09  -0.02   0.05     0.11   0.00   0.06     0.08  -0.10   0.03
  40   6     0.01  -0.01  -0.02    -0.00   0.02  -0.01    -0.00  -0.09  -0.02
  41   6     0.04  -0.02   0.01    -0.05   0.05  -0.03    -0.04  -0.07  -0.01
  42   6     0.09   0.02   0.05    -0.11   0.00  -0.06    -0.08  -0.10  -0.03
  43   6     0.14  -0.01   0.07    -0.20   0.08  -0.03    -0.16  -0.03   0.02
  44   6     0.15  -0.09   0.06    -0.25   0.20   0.04    -0.20   0.06   0.10
  45   6     0.10  -0.13   0.03    -0.18   0.24   0.06    -0.16   0.09   0.11
  46   6     0.05  -0.10   0.00    -0.09   0.16   0.03    -0.08   0.02   0.05
  47   7    -0.01  -0.02  -0.03     0.01   0.03  -0.02     0.00  -0.09  -0.03
  48   6    -0.02  -0.00  -0.02     0.00   0.02  -0.00    -0.00  -0.09  -0.01
  49   6    -0.03   0.08  -0.01     0.02  -0.04   0.01    -0.04  -0.01  -0.03
  50   6    -0.04   0.14  -0.03     0.02  -0.06   0.02    -0.06   0.03  -0.05
  51   6    -0.07   0.22  -0.07     0.05  -0.13   0.05    -0.11   0.12  -0.09
  52   6    -0.07   0.22  -0.08     0.07  -0.16   0.07    -0.13   0.17  -0.10
  53   6    -0.05   0.15  -0.06     0.05  -0.12   0.05    -0.10   0.12  -0.07
  54   6    -0.04   0.09  -0.02     0.03  -0.07   0.02    -0.06   0.04  -0.04
  55   1     0.06   0.02  -0.01    -0.04  -0.01   0.01     0.05   0.01  -0.00
  56   1     0.05  -0.02   0.01    -0.04   0.01  -0.01     0.05  -0.03   0.02
  57   1     0.05  -0.02   0.01    -0.03   0.01  -0.00     0.05  -0.02   0.01
  58   1    -0.02  -0.06   0.03     0.01   0.03  -0.02    -0.02  -0.06   0.04
  59   1    -0.06  -0.02   0.03     0.04   0.01  -0.02    -0.06  -0.03   0.02
  60   1    -0.02  -0.04   0.03     0.01   0.02  -0.02    -0.03  -0.05   0.03
  61   1    -0.01   0.02  -0.01     0.01  -0.02   0.01    -0.01   0.02  -0.01
  62   1    -0.02   0.04  -0.02     0.01  -0.03   0.01    -0.01   0.04  -0.02
  63   1    -0.02   0.04  -0.01     0.00  -0.02   0.01    -0.00   0.03  -0.03
  64   1    -0.01   0.02  -0.00     0.00  -0.01   0.00     0.00  -0.00  -0.01
  65   1    -0.00   0.00   0.02     0.00   0.01  -0.00     0.00  -0.02  -0.00
  66   1    -0.00  -0.00   0.02    -0.00   0.01   0.00    -0.00  -0.02   0.00
  67   1    -0.01  -0.02  -0.00    -0.00  -0.01  -0.00    -0.00  -0.00   0.01
  68   1    -0.02  -0.04  -0.01    -0.00  -0.02  -0.01     0.00   0.03   0.03
  69   1    -0.02  -0.04  -0.02    -0.01  -0.03  -0.01     0.01   0.04   0.02
  70   1    -0.01  -0.02  -0.01    -0.01  -0.02  -0.01     0.01   0.02   0.01
  71   1    -0.02   0.06   0.03    -0.01   0.03   0.02     0.02  -0.06  -0.04
  72   1    -0.02   0.04   0.03    -0.01   0.02   0.02     0.03  -0.05  -0.03
  73   1    -0.06   0.02   0.03    -0.04   0.01   0.02     0.06  -0.03  -0.02
  74   1     0.05   0.02   0.01     0.03   0.01   0.00    -0.05  -0.02  -0.01
  75   1     0.06  -0.02  -0.01     0.04  -0.01  -0.01    -0.05   0.01   0.00
  76   1     0.05   0.02   0.01     0.04   0.01   0.01    -0.05  -0.03  -0.02
  77   1    -0.01  -0.04  -0.02    -0.02  -0.04  -0.02     0.03   0.04   0.02
  78   1    -0.03  -0.08  -0.03    -0.03  -0.06  -0.03     0.05   0.07   0.04
  79   1    -0.02  -0.08  -0.02    -0.02  -0.04  -0.02     0.04   0.04   0.03
  80   1    -0.01  -0.04  -0.00    -0.00  -0.01  -0.00     0.01  -0.00   0.01
  81   1     0.01   0.04  -0.01     0.01   0.06  -0.01     0.01   0.01  -0.02
  82   1     0.03   0.06   0.01     0.06   0.10  -0.03     0.05   0.05  -0.05
  83   1     0.05   0.03   0.02     0.09   0.07  -0.02     0.08   0.03  -0.04
  84   1     0.05  -0.01   0.03     0.07   0.01   0.01     0.05  -0.02  -0.00
  85   1     0.02  -0.02   0.01     0.02  -0.03   0.03     0.01  -0.05   0.02
  86   1     0.02   0.02   0.01    -0.02  -0.03  -0.03    -0.01  -0.05  -0.03
  87   1     0.05   0.01   0.03    -0.07   0.01  -0.01    -0.05  -0.02   0.00
  88   1     0.05  -0.03   0.02    -0.09   0.07   0.02    -0.08   0.03   0.04
  89   1     0.03  -0.06   0.01    -0.06   0.10   0.03    -0.05   0.05   0.05
  90   1     0.01  -0.04  -0.01    -0.01   0.06   0.01    -0.01   0.01   0.02
  91   1    -0.01   0.04  -0.00     0.00  -0.01   0.00    -0.01  -0.00  -0.01
  92   1    -0.02   0.08  -0.02     0.02  -0.04   0.02    -0.04   0.04  -0.03
  93   1    -0.03   0.08  -0.03     0.03  -0.06   0.03    -0.05   0.07  -0.04
  94   1    -0.01   0.04  -0.02     0.02  -0.04   0.02    -0.03   0.04  -0.02
                     10                     11                     12
                        a                      a                      a 
 Frequencies --    56.3239                63.4378                64.5036
 Red. masses --     9.7871                11.1326                11.0960
 Frc consts  --     0.0000                 0.0000                 0.0000
 IR Inten    --     0.0472                 1.6218                 0.0335
 Raman Activ --     0.0000                 0.0000                 0.0000
 Depolar     --     0.0000                 0.0000                 0.0000
 Atom AN      X      Y      Z        X      Y      Z        X      Y      Z
   1   6    -0.05   0.03  -0.01     0.04  -0.02  -0.05     0.03   0.02  -0.01
   2   6    -0.01   0.03   0.00     0.01  -0.00  -0.02     0.03   0.01  -0.01
   3   6     0.01   0.06  -0.01     0.00   0.00   0.03     0.02   0.05   0.05
   4   6    -0.00   0.01   0.01     0.03  -0.02  -0.01     0.09  -0.00  -0.04
   5   6    -0.00   0.01   0.01     0.06  -0.07   0.03     0.16  -0.04   0.02
   6   6     0.00  -0.00   0.02     0.07  -0.06   0.02     0.21  -0.04  -0.01
   7   6     0.01  -0.01   0.02     0.04   0.02  -0.04     0.19   0.00  -0.10
   8   6     0.01  -0.01   0.02     0.01   0.06  -0.08     0.12   0.04  -0.16
   9   6     0.00   0.01   0.01     0.01   0.02  -0.04     0.07   0.03  -0.12
  10   7    -0.00   0.01   0.01    -0.01   0.04  -0.06     0.01   0.04  -0.18
  11   6    -0.00   0.01   0.01    -0.00   0.01  -0.03     0.01   0.01  -0.15
  12   6     0.00   0.00   0.02     0.01   0.00  -0.17     0.01   0.02  -0.08
  13   6     0.00  -0.00   0.02     0.01  -0.00  -0.17    -0.01   0.02   0.08
  14   6    -0.00  -0.01   0.01    -0.00  -0.01  -0.03    -0.01   0.02   0.15
  15   7    -0.00  -0.01   0.01    -0.01  -0.04  -0.06    -0.01   0.04   0.18
  16   6     0.00  -0.01   0.01     0.01  -0.02  -0.04    -0.07   0.03   0.13
  17   6     0.01   0.01   0.02     0.01  -0.06  -0.08    -0.12   0.04   0.16
  18   6     0.01   0.01   0.02     0.04  -0.02  -0.04    -0.19   0.00   0.10
  19   6     0.00   0.00   0.02     0.07   0.06   0.02    -0.21  -0.04   0.01
  20   6    -0.00  -0.01   0.01     0.06   0.07   0.03    -0.16  -0.04  -0.02
  21   6    -0.00  -0.01   0.01     0.03   0.02  -0.01    -0.09  -0.00   0.04
  22   6    -0.01  -0.03   0.00     0.01   0.00  -0.02    -0.03   0.01   0.01
  23   6     0.01  -0.06  -0.01    -0.00  -0.00   0.03    -0.02   0.05  -0.05
  24   6    -0.05  -0.03  -0.01     0.04   0.02  -0.05    -0.03   0.02   0.01
  25   6    -0.00  -0.01   0.01    -0.01  -0.03  -0.04     0.03  -0.01   0.05
  26   6     0.01   0.01   0.02    -0.03  -0.06  -0.05     0.08  -0.03   0.01
  27   6     0.01   0.04   0.03    -0.03  -0.05  -0.05     0.12  -0.08   0.03
  28   6     0.02   0.04   0.03     0.00   0.01  -0.03     0.11  -0.12   0.09
  29   6     0.01   0.02   0.02     0.02   0.03  -0.02     0.06  -0.09   0.13
  30   6     0.00  -0.00   0.01     0.00  -0.01  -0.04     0.03  -0.02   0.12
  31   6    -0.01  -0.00   0.01    -0.03  -0.01   0.14     0.00   0.02   0.07
  32   7    -0.02  -0.01  -0.00    -0.05  -0.03   0.25     0.01   0.02   0.13
  33   6    -0.02  -0.01  -0.00    -0.07  -0.01   0.28     0.01   0.02   0.05
  34   6    -0.02  -0.00  -0.01    -0.07   0.00   0.20    -0.00   0.02   0.03
  35   6     0.11   0.13  -0.26    -0.03  -0.00   0.11    -0.03  -0.04   0.08
  36   6     0.14   0.16  -0.30     0.03   0.07  -0.09    -0.04  -0.04   0.04
  37   6     0.03   0.03  -0.06     0.04   0.15  -0.20    -0.02   0.03  -0.07
  38   6    -0.10  -0.12   0.20    -0.01   0.15  -0.09     0.01   0.09  -0.11
  39   6    -0.12  -0.13   0.21    -0.07   0.07   0.11     0.01   0.08  -0.06
  40   6    -0.02   0.01  -0.00    -0.07   0.01   0.28    -0.01   0.02  -0.05
  41   6    -0.02   0.00  -0.01    -0.07  -0.00   0.20     0.00   0.02  -0.03
  42   6    -0.12   0.13   0.21    -0.07  -0.07   0.11    -0.01   0.08   0.05
  43   6    -0.10   0.12   0.20    -0.01  -0.14  -0.09    -0.01   0.09   0.11
  44   6     0.03  -0.03  -0.06     0.04  -0.15  -0.20     0.02   0.03   0.07
  45   6     0.14  -0.16  -0.30     0.03  -0.07  -0.09     0.04  -0.04  -0.03
  46   6     0.11  -0.13  -0.26    -0.03   0.00   0.11     0.03  -0.04  -0.08
  47   7    -0.02   0.01  -0.00    -0.05   0.03   0.25    -0.01   0.02  -0.13
  48   6    -0.01   0.00   0.00    -0.03   0.01   0.14     0.00   0.02  -0.08
  49   6     0.00   0.00   0.01     0.00   0.01  -0.04    -0.03  -0.02  -0.11
  50   6     0.01  -0.02   0.02     0.02  -0.03  -0.02    -0.06  -0.09  -0.13
  51   6     0.02  -0.04   0.03     0.00  -0.01  -0.03    -0.11  -0.12  -0.09
  52   6     0.01  -0.04   0.03    -0.03   0.05  -0.05    -0.12  -0.08  -0.03
  53   6     0.01  -0.01   0.02    -0.03   0.06  -0.05    -0.08  -0.03  -0.01
  54   6    -0.00   0.01   0.01    -0.01   0.03  -0.04    -0.03  -0.01  -0.05
  55   1    -0.02  -0.00  -0.01     0.01  -0.00  -0.02     0.01  -0.00  -0.02
  56   1    -0.00   0.01   0.00     0.01  -0.02  -0.02     0.02   0.01   0.01
  57   1    -0.03   0.02   0.00     0.02  -0.01  -0.02    -0.01   0.01   0.00
  58   1    -0.00   0.02  -0.01     0.01   0.00   0.02     0.02   0.02   0.02
  59   1     0.01   0.02   0.00    -0.00   0.00   0.01     0.01   0.01   0.01
  60   1     0.00   0.02  -0.01    -0.01   0.00   0.02    -0.01   0.02   0.02
  61   1    -0.00   0.01   0.00     0.02  -0.04   0.02     0.05  -0.02   0.02
  62   1     0.00  -0.00   0.00     0.03  -0.03   0.01     0.08  -0.02   0.01
  63   1     0.00  -0.01   0.01     0.01   0.01  -0.02     0.07   0.00  -0.04
  64   1     0.00  -0.00   0.01    -0.00   0.04  -0.04     0.03   0.02  -0.06
  65   1     0.00   0.00   0.01     0.01   0.00  -0.08     0.00   0.00  -0.04
  66   1     0.00  -0.00   0.01     0.01  -0.00  -0.08    -0.00   0.00   0.04
  67   1     0.00   0.00   0.01    -0.00  -0.04  -0.04    -0.03   0.02   0.06
  68   1     0.00   0.01   0.01     0.01  -0.01  -0.02    -0.07   0.00   0.04
  69   1     0.00   0.00   0.00     0.03   0.03   0.01    -0.08  -0.02  -0.01
  70   1    -0.00  -0.01   0.00     0.02   0.04   0.02    -0.05  -0.02  -0.02
  71   1    -0.00  -0.02  -0.01     0.01  -0.00   0.02    -0.02   0.02  -0.02
  72   1     0.01  -0.03  -0.01    -0.01  -0.00   0.02     0.01   0.02  -0.02
  73   1     0.01  -0.02   0.00    -0.00  -0.00   0.01    -0.01   0.01  -0.01
  74   1    -0.03  -0.02   0.00     0.02   0.01  -0.02     0.01   0.01  -0.00
  75   1    -0.02   0.00  -0.01     0.01   0.00  -0.02    -0.01  -0.00   0.02
  76   1    -0.00  -0.01   0.00     0.01   0.02  -0.02    -0.02   0.01  -0.01
  77   1     0.00   0.00   0.01    -0.01  -0.03  -0.02     0.03  -0.00  -0.01
  78   1     0.01   0.02   0.01    -0.01  -0.02  -0.02     0.05  -0.03   0.00
  79   1     0.01   0.02   0.01     0.00   0.01  -0.01     0.04  -0.05   0.03
  80   1     0.00   0.01   0.00     0.01   0.02  -0.00     0.01  -0.03   0.05
  81   1     0.05   0.07  -0.12    -0.01  -0.02   0.05    -0.01  -0.02   0.04
  82   1     0.07   0.08  -0.15     0.02   0.02  -0.05    -0.02  -0.03   0.02
  83   1     0.02   0.02  -0.02     0.03   0.06  -0.11    -0.01   0.01  -0.03
  84   1    -0.06  -0.06   0.11    -0.00   0.06  -0.05     0.01   0.04  -0.05
  85   1    -0.06  -0.07   0.11    -0.03   0.02   0.05     0.01   0.04  -0.02
  86   1    -0.06   0.07   0.11    -0.03  -0.02   0.05    -0.01   0.04   0.02
  87   1    -0.06   0.06   0.11    -0.00  -0.06  -0.05    -0.01   0.04   0.05
  88   1     0.01  -0.02  -0.02     0.03  -0.06  -0.11     0.01   0.01   0.03
  89   1     0.07  -0.08  -0.14     0.02  -0.02  -0.05     0.02  -0.03  -0.02
  90   1     0.05  -0.07  -0.12    -0.01   0.02   0.05     0.01  -0.02  -0.04
  91   1     0.00  -0.01   0.00     0.01  -0.02  -0.00    -0.01  -0.03  -0.05
  92   1     0.01  -0.02   0.01     0.00  -0.01  -0.01    -0.04  -0.05  -0.03
  93   1     0.01  -0.02   0.01    -0.01   0.02  -0.02    -0.05  -0.03   0.00
  94   1     0.00  -0.00   0.01    -0.01   0.03  -0.02    -0.03  -0.00   0.01
                     13                     14                     15
                        a                      a                      a 
 Frequencies --    77.1533                79.3474                93.8373
 Red. masses --    10.6733                10.0053                 9.7724
 Frc consts  --     0.0000                 0.0000                 0.0000
 IR Inten    --     0.1764                 0.0106                 0.5145
 Raman Activ --     0.0000                 0.0000                 0.0000
 Depolar     --     0.0000                 0.0000                 0.0000
 Atom AN      X      Y      Z        X      Y      Z        X      Y      Z
   1   6    -0.08   0.03  -0.01    -0.02   0.01   0.01     0.20   0.08   0.08
   2   6     0.03   0.01   0.01    -0.03   0.01   0.01     0.03   0.06  -0.03
   3   6     0.09   0.10  -0.06    -0.03  -0.01  -0.01    -0.05  -0.12  -0.03
   4   6     0.03  -0.01   0.03    -0.04   0.01   0.01    -0.00   0.13  -0.07
   5   6     0.05  -0.09   0.06    -0.07   0.05  -0.02    -0.01   0.22  -0.11
   6   6     0.03  -0.08   0.06    -0.08   0.04  -0.00     0.07   0.06  -0.03
   7   6    -0.02   0.04   0.01    -0.05  -0.03   0.05     0.17  -0.22   0.11
   8   6    -0.03   0.13  -0.03    -0.02  -0.06   0.08     0.16  -0.24   0.11
   9   6    -0.01   0.09  -0.01    -0.02  -0.03   0.06     0.06  -0.03   0.00
  10   7    -0.02   0.16  -0.04    -0.01  -0.04   0.07     0.02   0.02  -0.03
  11   6    -0.02   0.07  -0.02    -0.00  -0.02   0.05     0.02   0.01  -0.03
  12   6     0.04   0.03   0.02    -0.00  -0.03   0.04     0.00   0.02  -0.01
  13   6     0.04  -0.03   0.02     0.00  -0.03  -0.04    -0.00   0.02   0.01
  14   6    -0.02  -0.07  -0.02     0.00  -0.02  -0.05    -0.02   0.01   0.03
  15   7    -0.02  -0.16  -0.04     0.01  -0.04  -0.07    -0.02   0.02   0.03
  16   6    -0.01  -0.09  -0.01     0.02  -0.03  -0.06    -0.06  -0.03  -0.00
  17   6    -0.03  -0.13  -0.03     0.02  -0.06  -0.08    -0.16  -0.24  -0.11
  18   6    -0.02  -0.04   0.01     0.05  -0.03  -0.05    -0.17  -0.22  -0.11
  19   6     0.03   0.08   0.06     0.08   0.04   0.00    -0.07   0.06   0.03
  20   6     0.05   0.09   0.06     0.07   0.05   0.02     0.01   0.22   0.11
  21   6     0.03   0.01   0.03     0.04   0.01  -0.01     0.00   0.13   0.07
  22   6     0.03  -0.01   0.01     0.03   0.01  -0.01    -0.03   0.06   0.03
  23   6     0.09  -0.10  -0.05     0.03  -0.01   0.01     0.05  -0.12   0.03
  24   6    -0.08  -0.03  -0.01     0.02   0.01  -0.01    -0.21   0.08  -0.08
  25   6     0.05   0.02   0.03     0.01   0.00  -0.02    -0.02   0.05   0.04
  26   6     0.11   0.11   0.07    -0.01   0.00  -0.02    -0.05  -0.01   0.01
  27   6     0.11   0.09   0.07    -0.03   0.01  -0.03    -0.08  -0.06  -0.02
  28   6     0.04  -0.05   0.01    -0.02   0.02  -0.04    -0.07  -0.04  -0.00
  29   6    -0.01  -0.15  -0.03    -0.01   0.01  -0.05    -0.04   0.02   0.02
  30   6    -0.00  -0.10  -0.02     0.00  -0.01  -0.05    -0.02   0.04   0.04
  31   6    -0.09  -0.02  -0.06    -0.00  -0.02  -0.01    -0.00   0.01   0.01
  32   7    -0.14  -0.04  -0.09     0.01  -0.03   0.04     0.00   0.01   0.02
  33   6    -0.15  -0.02  -0.08     0.00  -0.02   0.04     0.00   0.01   0.00
  34   6    -0.12  -0.00  -0.03     0.00  -0.02   0.06    -0.00   0.01  -0.00
  35   6    -0.14   0.10   0.04    -0.08  -0.12   0.23     0.01   0.02  -0.02
  36   6    -0.03   0.18   0.08    -0.05  -0.09   0.14     0.00   0.02  -0.02
  37   6     0.10   0.14   0.04     0.08   0.08  -0.15    -0.01   0.00   0.01
  38   6     0.12   0.04  -0.01     0.16   0.17  -0.30    -0.02  -0.01   0.03
  39   6     0.01  -0.04  -0.05     0.10   0.11  -0.16    -0.02   0.00   0.02
  40   6    -0.15   0.02  -0.08    -0.00  -0.02  -0.04    -0.00   0.01  -0.00
  41   6    -0.12   0.00  -0.03    -0.00  -0.02  -0.06     0.00   0.01   0.00
  42   6     0.01   0.04  -0.05    -0.10   0.11   0.16     0.02   0.00  -0.02
  43   6     0.12  -0.03  -0.01    -0.16   0.17   0.30     0.02  -0.01  -0.03
  44   6     0.10  -0.14   0.04    -0.08   0.08   0.15     0.01   0.00  -0.01
  45   6    -0.03  -0.18   0.08     0.05  -0.08  -0.14    -0.00   0.02   0.02
  46   6    -0.14  -0.10   0.04     0.08  -0.12  -0.23    -0.01   0.02   0.02
  47   7    -0.14   0.04  -0.09    -0.01  -0.03  -0.04    -0.00   0.01  -0.02
  48   6    -0.09   0.02  -0.06     0.00  -0.02   0.01     0.00   0.01  -0.01
  49   6    -0.00   0.10  -0.02    -0.00  -0.01   0.05     0.02   0.04  -0.04
  50   6    -0.01   0.15  -0.03     0.01   0.01   0.05     0.04   0.01  -0.02
  51   6     0.04   0.05   0.01     0.02   0.02   0.04     0.07  -0.04   0.00
  52   6     0.12  -0.09   0.07     0.03   0.01   0.03     0.08  -0.06   0.02
  53   6     0.11  -0.11   0.07     0.01   0.00   0.02     0.05  -0.01  -0.01
  54   6     0.05  -0.02   0.03    -0.01   0.00   0.02     0.02   0.05  -0.04
  55   1    -0.03  -0.01   0.01    -0.00  -0.00  -0.01     0.08   0.06   0.02
  56   1    -0.03   0.02  -0.01     0.01   0.00   0.01     0.07   0.02   0.03
  57   1    -0.03   0.02  -0.01    -0.02   0.01   0.01     0.07  -0.01   0.04
  58   1     0.02   0.05  -0.02    -0.02  -0.02  -0.01    -0.02  -0.05  -0.01
  59   1     0.05   0.02  -0.02    -0.01   0.00   0.01    -0.05  -0.03  -0.02
  60   1     0.02   0.03  -0.02     0.00   0.00  -0.02     0.00  -0.06   0.00
  61   1     0.02  -0.05   0.02    -0.03   0.03  -0.02    -0.02   0.11  -0.05
  62   1     0.01  -0.04   0.03    -0.03   0.02  -0.01     0.02   0.03  -0.02
  63   1    -0.01   0.02   0.00    -0.02  -0.02   0.02     0.07  -0.12   0.06
  64   1    -0.02   0.06  -0.02    -0.00  -0.03   0.03     0.06  -0.13   0.05
  65   1     0.03   0.02   0.01    -0.00  -0.01   0.02    -0.00   0.00   0.00
  66   1     0.03  -0.02   0.01     0.00  -0.01  -0.02     0.00   0.00  -0.00
  67   1    -0.02  -0.06  -0.02     0.00  -0.03  -0.03    -0.06  -0.13  -0.05
  68   1    -0.01  -0.02   0.00     0.02  -0.02  -0.02    -0.07  -0.12  -0.06
  69   1     0.01   0.04   0.03     0.03   0.02   0.01    -0.02   0.03   0.02
  70   1     0.02   0.05   0.02     0.03   0.03   0.02     0.02   0.11   0.05
  71   1     0.02  -0.05  -0.02     0.02  -0.02   0.01     0.02  -0.05   0.01
  72   1     0.02  -0.03  -0.02    -0.00   0.00   0.02    -0.00  -0.06  -0.00
  73   1     0.05  -0.02  -0.02     0.01   0.00  -0.01     0.05  -0.03   0.02
  74   1    -0.03  -0.02  -0.01     0.02   0.01  -0.01    -0.07  -0.01  -0.04
  75   1    -0.03   0.01   0.01     0.00  -0.00   0.01    -0.08   0.06  -0.02
  76   1    -0.03  -0.02  -0.01    -0.01   0.00  -0.01    -0.07   0.02  -0.03
  77   1     0.04   0.06   0.03    -0.00  -0.00  -0.00    -0.02  -0.01   0.00
  78   1     0.05   0.05   0.03    -0.01   0.00  -0.01    -0.03  -0.03  -0.01
  79   1     0.01  -0.03  -0.00    -0.01   0.01  -0.01    -0.02  -0.02  -0.01
  80   1    -0.02  -0.08  -0.02    -0.00   0.01  -0.02    -0.01   0.01   0.01
  81   1    -0.07   0.04   0.02    -0.05  -0.07   0.12     0.01   0.01  -0.01
  82   1    -0.01   0.08   0.04    -0.03  -0.05   0.08     0.00   0.01  -0.01
  83   1     0.05   0.06   0.02     0.04   0.04  -0.08    -0.01  -0.00   0.01
  84   1     0.07   0.00  -0.01     0.07   0.08  -0.15    -0.01  -0.01   0.02
  85   1     0.01  -0.04  -0.02     0.04   0.05  -0.07    -0.01  -0.00   0.01
  86   1     0.01   0.04  -0.02    -0.04   0.05   0.07     0.01  -0.00  -0.01
  87   1     0.06  -0.00  -0.01    -0.07   0.08   0.15     0.01  -0.01  -0.02
  88   1     0.05  -0.06   0.02    -0.04   0.04   0.08     0.01  -0.00  -0.01
  89   1    -0.01  -0.08   0.04     0.03  -0.05  -0.08    -0.00   0.01   0.01
  90   1    -0.07  -0.04   0.02     0.05  -0.07  -0.12    -0.01   0.01   0.01
  91   1    -0.02   0.08  -0.02     0.00   0.01   0.02     0.01   0.01  -0.01
  92   1     0.01   0.03  -0.00     0.01   0.01   0.01     0.02  -0.02   0.01
  93   1     0.05  -0.05   0.03     0.01   0.00   0.01     0.03  -0.03   0.01
  94   1     0.04  -0.06   0.03     0.00  -0.00   0.00     0.02  -0.01  -0.00
                     16                     17                     18
                        a                      a                      a 
 Frequencies --    94.9831               107.1449               109.2040
 Red. masses --     9.8265                 9.8011                 9.8222
 Frc consts  --     0.0000                 0.0000                 0.0000
 IR Inten    --     0.5511                 0.0856                 0.2574
 Raman Activ --     0.0000                 0.0000                 0.0000
 Depolar     --     0.0000                 0.0000                 0.0000
 Atom AN      X      Y      Z        X      Y      Z        X      Y      Z
   1   6     0.15   0.07   0.09     0.12  -0.02  -0.11    -0.16  -0.01   0.10
   2   6    -0.00   0.05  -0.03    -0.04   0.05  -0.03     0.01  -0.07   0.04
   3   6    -0.08  -0.13  -0.05    -0.13  -0.04   0.12     0.10   0.02  -0.11
   4   6    -0.04   0.12  -0.07    -0.04   0.02  -0.01     0.01  -0.05   0.02
   5   6    -0.05   0.20  -0.11    -0.02  -0.05   0.02    -0.02   0.04  -0.03
   6   6     0.02   0.04  -0.03    -0.02  -0.08   0.04    -0.03   0.09  -0.06
   7   6     0.12  -0.23   0.11    -0.04  -0.02   0.01    -0.01   0.02  -0.02
   8   6     0.12  -0.25   0.11    -0.05   0.03  -0.01     0.02  -0.06   0.02
   9   6     0.02  -0.03   0.00    -0.04   0.03  -0.01     0.02  -0.06   0.02
  10   7    -0.01   0.04  -0.03    -0.01  -0.00   0.01     0.01  -0.05   0.02
  11   6    -0.01   0.02  -0.04    -0.01   0.03   0.04     0.01  -0.02  -0.03
  12   6     0.00   0.01  -0.01    -0.00   0.02   0.01    -0.01  -0.01  -0.04
  13   6     0.00  -0.01  -0.01     0.00   0.02  -0.01    -0.01   0.01  -0.04
  14   6    -0.01  -0.02  -0.04     0.01   0.03  -0.04     0.01   0.02  -0.03
  15   7    -0.01  -0.04  -0.03     0.01  -0.00  -0.01     0.01   0.05   0.02
  16   6     0.02   0.03   0.00     0.04   0.03   0.01     0.02   0.06   0.02
  17   6     0.11   0.25   0.11     0.05   0.03   0.01     0.02   0.06   0.02
  18   6     0.12   0.23   0.11     0.04  -0.02  -0.01    -0.01  -0.02  -0.02
  19   6     0.02  -0.04  -0.03     0.02  -0.08  -0.04    -0.03  -0.09  -0.06
  20   6    -0.05  -0.20  -0.11     0.02  -0.05  -0.02    -0.02  -0.04  -0.03
  21   6    -0.04  -0.12  -0.07     0.04   0.02   0.01     0.01   0.05   0.02
  22   6    -0.00  -0.05  -0.03     0.04   0.05   0.03     0.01   0.07   0.04
  23   6    -0.08   0.13  -0.05     0.13  -0.04  -0.12     0.10  -0.02  -0.11
  24   6     0.15  -0.07   0.09    -0.12  -0.02   0.11    -0.16   0.01   0.10
  25   6    -0.00  -0.02  -0.02     0.06   0.13   0.06     0.04   0.14   0.07
  26   6     0.04   0.06   0.01     0.11   0.20   0.10     0.07   0.18   0.08
  27   6     0.05   0.08   0.03     0.04   0.01   0.01    -0.01  -0.02  -0.01
  28   6     0.02   0.01  -0.01    -0.10  -0.27  -0.12    -0.13  -0.26  -0.11
  29   6    -0.01  -0.05  -0.04    -0.11  -0.27  -0.11    -0.11  -0.21  -0.09
  30   6    -0.01  -0.05  -0.04    -0.01  -0.05  -0.02    -0.02  -0.00   0.00
  31   6    -0.03  -0.01  -0.03    -0.00   0.03  -0.04     0.03   0.01  -0.03
  32   7    -0.07  -0.03  -0.00    -0.01   0.04  -0.09     0.05   0.01   0.02
  33   6    -0.09  -0.01   0.03    -0.01   0.04  -0.04     0.07   0.00   0.10
  34   6    -0.08  -0.01   0.05    -0.01   0.04  -0.03     0.05  -0.01   0.10
  35   6    -0.08   0.03   0.05    -0.02   0.04  -0.01     0.07  -0.06   0.04
  36   6    -0.03   0.07   0.01    -0.02   0.04   0.02     0.04  -0.07  -0.05
  37   6     0.03   0.09  -0.04    -0.01   0.03   0.02    -0.01  -0.02  -0.08
  38   6     0.01   0.04  -0.02     0.00   0.03  -0.00    -0.04   0.02  -0.01
  39   6    -0.04  -0.01   0.02    -0.00   0.03  -0.03    -0.01   0.03   0.08
  40   6    -0.09   0.01   0.03     0.01   0.04   0.04     0.07  -0.00   0.10
  41   6    -0.08   0.01   0.05     0.01   0.04   0.03     0.05   0.01   0.10
  42   6    -0.04   0.01   0.02     0.00   0.03   0.03    -0.01  -0.03   0.08
  43   6     0.01  -0.04  -0.02    -0.00   0.03   0.00    -0.04  -0.02  -0.01
  44   6     0.03  -0.09  -0.04     0.01   0.03  -0.02    -0.01   0.02  -0.08
  45   6    -0.03  -0.07   0.01     0.02   0.04  -0.02     0.04   0.07  -0.05
  46   6    -0.08  -0.03   0.05     0.02   0.04   0.01     0.07   0.06   0.04
  47   7    -0.07   0.03  -0.00     0.01   0.04   0.09     0.05  -0.01   0.02
  48   6    -0.03   0.01  -0.03     0.00   0.03   0.04     0.03  -0.01  -0.03
  49   6    -0.01   0.05  -0.04     0.01  -0.05   0.02    -0.02   0.00   0.00
  50   6    -0.01   0.05  -0.04     0.11  -0.27   0.11    -0.11   0.21  -0.09
  51   6     0.02  -0.01  -0.01     0.10  -0.27   0.12    -0.13   0.26  -0.11
  52   6     0.06  -0.08   0.03    -0.04   0.01  -0.01    -0.01   0.02  -0.01
  53   6     0.04  -0.06   0.01    -0.11   0.20  -0.10     0.07  -0.18   0.09
  54   6    -0.00   0.02  -0.02    -0.06   0.13  -0.06     0.04  -0.14   0.07
  55   1     0.06   0.06   0.03     0.05   0.01  -0.06    -0.07  -0.02   0.06
  56   1     0.05   0.03   0.03     0.05  -0.04  -0.02    -0.07   0.03   0.01
  57   1     0.06  -0.01   0.05     0.04  -0.00  -0.04    -0.05  -0.00   0.03
  58   1    -0.03  -0.05  -0.02    -0.03  -0.06   0.05     0.02   0.06  -0.05
  59   1    -0.06  -0.04  -0.03    -0.07   0.01   0.06     0.07  -0.02  -0.07
  60   1    -0.00  -0.06  -0.00    -0.03  -0.00   0.02     0.02  -0.01  -0.02
  61   1    -0.03   0.11  -0.05    -0.00  -0.03   0.01    -0.01   0.02  -0.01
  62   1     0.00   0.03  -0.02    -0.00  -0.04   0.02    -0.02   0.05  -0.03
  63   1     0.06  -0.12   0.06    -0.01  -0.01   0.01    -0.00   0.01  -0.01
  64   1     0.05  -0.13   0.06    -0.02   0.02  -0.00     0.01  -0.03   0.01
  65   1     0.00   0.00   0.01     0.00   0.01  -0.00    -0.01  -0.01  -0.01
  66   1     0.00  -0.00   0.01    -0.00   0.01   0.00    -0.01   0.01  -0.01
  67   1     0.05   0.12   0.06     0.02   0.02   0.00     0.01   0.03   0.01
  68   1     0.06   0.12   0.06     0.01  -0.01  -0.01    -0.00  -0.01  -0.01
  69   1     0.00  -0.03  -0.02     0.00  -0.04  -0.02    -0.02  -0.05  -0.03
  70   1    -0.03  -0.11  -0.05     0.00  -0.03  -0.01    -0.01  -0.02  -0.01
  71   1    -0.03   0.05  -0.02     0.03  -0.06  -0.05     0.02  -0.06  -0.05
  72   1    -0.00   0.06  -0.00     0.03  -0.00  -0.02     0.02   0.01  -0.02
  73   1    -0.06   0.04  -0.03     0.07   0.01  -0.06     0.07   0.02  -0.07
  74   1     0.06   0.01   0.05    -0.04  -0.00   0.04    -0.05   0.00   0.03
  75   1     0.06  -0.06   0.03    -0.05   0.01   0.06    -0.07   0.02   0.06
  76   1     0.05  -0.03   0.03    -0.05  -0.04   0.02    -0.07  -0.03   0.01
  77   1     0.02   0.03   0.01     0.06   0.11   0.05     0.04   0.09   0.04
  78   1     0.03   0.04   0.02     0.02   0.02   0.01    -0.00  -0.01  -0.00
  79   1     0.01   0.01  -0.00    -0.06  -0.13  -0.06    -0.07  -0.13  -0.06
  80   1    -0.01  -0.03  -0.02    -0.06  -0.13  -0.05    -0.05  -0.10  -0.04
  81   1    -0.03   0.01   0.02    -0.01   0.01  -0.00     0.03  -0.03   0.02
  82   1    -0.01   0.03   0.00    -0.01   0.01   0.01     0.02  -0.03  -0.03
  83   1     0.02   0.04  -0.02    -0.00   0.01   0.01    -0.01  -0.01  -0.04
  84   1     0.02   0.01  -0.01     0.00   0.01  -0.00    -0.03   0.02  -0.01
  85   1    -0.01  -0.01   0.01     0.00   0.01  -0.01    -0.01   0.02   0.03
  86   1    -0.01   0.01   0.01    -0.00   0.01   0.01    -0.01  -0.02   0.03
  87   1     0.02  -0.01  -0.01    -0.00   0.01   0.00    -0.03  -0.02  -0.01
  88   1     0.02  -0.04  -0.02     0.00   0.01  -0.01    -0.01   0.01  -0.04
  89   1    -0.01  -0.03   0.00     0.01   0.01  -0.01     0.02   0.03  -0.03
  90   1    -0.03  -0.01   0.02     0.01   0.01   0.00     0.03   0.03   0.02
  91   1    -0.01   0.03  -0.02     0.06  -0.13   0.05    -0.05   0.10  -0.04
  92   1     0.01  -0.01  -0.00     0.06  -0.13   0.06    -0.07   0.13  -0.06
  93   1     0.03  -0.04   0.02    -0.02   0.02  -0.01    -0.00   0.01  -0.00
  94   1     0.02  -0.03   0.01    -0.06   0.11  -0.05     0.04  -0.09   0.04
                     19                     20                     21
                        a                      a                      a 
 Frequencies --   116.1351               128.1960               128.4181
 Red. masses --    10.9325                 2.5356                 2.6422
 Frc consts  --     0.0000                 0.0000                 0.0000
 IR Inten    --     0.0343                 0.0568                 0.3782
 Raman Activ --     0.0000                 0.0000                 0.0000
 Depolar     --     0.0000                 0.0000                 0.0000
 Atom AN      X      Y      Z        X      Y      Z        X      Y      Z
   1   6     0.12   0.02  -0.06    -0.01  -0.05  -0.09     0.02   0.05   0.09
   2   6     0.12   0.05   0.00     0.00  -0.01   0.00     0.01   0.01  -0.00
   3   6     0.14   0.10   0.03    -0.01   0.07   0.13     0.03  -0.06  -0.12
   4   6     0.11   0.02   0.04     0.02  -0.04   0.02    -0.01   0.04  -0.01
   5   6     0.13  -0.01   0.06    -0.02   0.03  -0.02     0.02  -0.02   0.03
   6   6     0.13   0.03   0.03    -0.03   0.07  -0.04     0.04  -0.06   0.05
   7   6     0.10   0.12  -0.02    -0.01   0.01  -0.01     0.02  -0.00   0.01
   8   6     0.09   0.12  -0.03     0.01  -0.04   0.02    -0.00   0.04  -0.02
   9   6     0.09   0.06   0.02     0.02  -0.04   0.02    -0.01   0.04  -0.01
  10   7     0.07   0.02   0.03    -0.00   0.00  -0.00     0.01  -0.01   0.02
  11   6     0.05  -0.05   0.04    -0.00  -0.00  -0.02     0.00  -0.00   0.02
  12   6     0.01  -0.04   0.01    -0.00  -0.00  -0.03     0.00  -0.00   0.01
  13   6    -0.01  -0.04  -0.01    -0.00   0.00  -0.03    -0.00  -0.00  -0.01
  14   6    -0.05  -0.05  -0.04    -0.00   0.00  -0.02    -0.00  -0.00  -0.02
  15   7    -0.07   0.02  -0.03    -0.00  -0.00  -0.00    -0.01  -0.01  -0.02
  16   6    -0.09   0.06  -0.02     0.02   0.04   0.02     0.01   0.04   0.01
  17   6    -0.09   0.12   0.03     0.01   0.04   0.02     0.00   0.04   0.02
  18   6    -0.10   0.12   0.02    -0.01  -0.01  -0.01    -0.02  -0.00  -0.01
  19   6    -0.13   0.03  -0.03    -0.03  -0.07  -0.04    -0.04  -0.06  -0.05
  20   6    -0.13  -0.01  -0.06    -0.01  -0.03  -0.02    -0.02  -0.02  -0.03
  21   6    -0.11   0.02  -0.04     0.02   0.04   0.02     0.01   0.04   0.01
  22   6    -0.12   0.05  -0.00     0.00   0.01   0.00    -0.01   0.01   0.00
  23   6    -0.14   0.10  -0.03    -0.01  -0.07   0.13    -0.03  -0.06   0.13
  24   6    -0.12   0.02   0.06    -0.01   0.05  -0.09    -0.02   0.05  -0.09
  25   6    -0.10   0.06   0.02    -0.01  -0.02  -0.01    -0.03  -0.02  -0.02
  26   6    -0.14   0.07   0.04     0.03   0.05   0.02     0.01   0.05   0.02
  27   6    -0.20   0.05  -0.00     0.04   0.06   0.03     0.02   0.07   0.03
  28   6    -0.21   0.02  -0.04     0.01  -0.01  -0.00    -0.02  -0.00  -0.01
  29   6    -0.16   0.04  -0.05    -0.02  -0.06  -0.02    -0.04  -0.05  -0.03
  30   6    -0.10   0.04  -0.01    -0.02  -0.04  -0.02    -0.03  -0.04  -0.02
  31   6    -0.00  -0.08  -0.03    -0.00   0.00  -0.01    -0.00  -0.01  -0.02
  32   7    -0.00  -0.09  -0.04     0.00   0.00   0.00    -0.00  -0.01  -0.04
  33   6     0.00  -0.09  -0.01     0.01   0.00   0.02    -0.00  -0.01  -0.02
  34   6     0.01  -0.09   0.00     0.01   0.00   0.02    -0.00  -0.01  -0.01
  35   6     0.01  -0.09   0.01     0.01  -0.01   0.02    -0.01  -0.01   0.01
  36   6     0.04  -0.06  -0.01     0.00  -0.01   0.01    -0.01  -0.01   0.02
  37   6     0.08  -0.05  -0.04    -0.00  -0.00  -0.01     0.01  -0.00   0.00
  38   6     0.08  -0.07  -0.04    -0.00   0.01  -0.01     0.03   0.00  -0.03
  39   6     0.04  -0.10  -0.01     0.00   0.01   0.01     0.02  -0.00  -0.03
  40   6    -0.00  -0.09   0.01     0.01  -0.00   0.02     0.00  -0.01   0.02
  41   6    -0.01  -0.09  -0.00     0.01   0.00   0.02     0.00  -0.01   0.01
  42   6    -0.04  -0.10   0.01     0.00  -0.01   0.01    -0.02  -0.00   0.03
  43   6    -0.08  -0.07   0.04    -0.00  -0.01  -0.01    -0.03   0.00   0.03
  44   6    -0.08  -0.05   0.04    -0.00   0.00  -0.01    -0.01  -0.00  -0.00
  45   6    -0.04  -0.06   0.01     0.00   0.01   0.01     0.01  -0.01  -0.02
  46   6    -0.01  -0.09  -0.01     0.01   0.01   0.02     0.01  -0.01  -0.01
  47   7     0.00  -0.09   0.04     0.00  -0.00   0.00     0.00  -0.01   0.04
  48   6     0.00  -0.08   0.03    -0.00  -0.00  -0.01     0.00  -0.01   0.02
  49   6     0.10   0.04   0.01    -0.02   0.04  -0.02     0.03  -0.03   0.02
  50   6     0.16   0.04   0.05    -0.02   0.06  -0.02     0.04  -0.05   0.03
  51   6     0.21   0.02   0.04     0.01   0.01  -0.00     0.02  -0.00   0.01
  52   6     0.20   0.05   0.00     0.04  -0.06   0.03    -0.02   0.07  -0.03
  53   6     0.14   0.07  -0.04     0.03  -0.05   0.02    -0.01   0.05  -0.02
  54   6     0.10   0.06  -0.02    -0.01   0.02  -0.01     0.03  -0.02   0.02
  55   1     0.04  -0.00  -0.03     0.00  -0.09  -0.16    -0.00   0.08   0.15
  56   1     0.05  -0.00  -0.01     0.11  -0.01   0.05    -0.11   0.01  -0.05
  57   1     0.02   0.02  -0.02    -0.13   0.05   0.00     0.13  -0.04  -0.01
  58   1     0.03  -0.00   0.01    -0.11  -0.30   0.00     0.11   0.30  -0.00
  59   1     0.04   0.05   0.05    -0.04   0.17   0.35     0.04  -0.17  -0.35
  60   1     0.05   0.06  -0.02     0.14   0.20  -0.21    -0.13  -0.20   0.21
  61   1     0.04  -0.01   0.03    -0.01   0.02  -0.02     0.01  -0.02   0.02
  62   1     0.04   0.00   0.01    -0.02   0.04  -0.02     0.02  -0.03   0.02
  63   1     0.02   0.05  -0.01    -0.01   0.01  -0.01     0.01  -0.00   0.00
  64   1     0.02   0.05  -0.02     0.01  -0.02   0.01    -0.00   0.02  -0.01
  65   1    -0.01  -0.02  -0.00    -0.00  -0.00  -0.01    -0.00  -0.00   0.00
  66   1     0.01  -0.02   0.00    -0.00   0.00  -0.01     0.00  -0.00  -0.00
  67   1    -0.02   0.05   0.02     0.01   0.02   0.01     0.00   0.02   0.01
  68   1    -0.02   0.05   0.01    -0.01  -0.01  -0.01    -0.01  -0.00  -0.00
  69   1    -0.04   0.00  -0.01    -0.02  -0.04  -0.02    -0.02  -0.04  -0.02
  70   1    -0.04  -0.01  -0.03    -0.01  -0.02  -0.02    -0.01  -0.02  -0.02
  71   1    -0.03  -0.00  -0.01    -0.11   0.29   0.00    -0.11   0.30   0.00
  72   1    -0.05   0.06   0.02     0.14  -0.20  -0.21     0.13  -0.20  -0.21
  73   1    -0.04   0.05  -0.05    -0.04  -0.17   0.35    -0.04  -0.17   0.35
  74   1    -0.02   0.02   0.02    -0.13  -0.05   0.00    -0.13  -0.04   0.01
  75   1    -0.04  -0.00   0.03     0.00   0.08  -0.16     0.00   0.08  -0.16
  76   1    -0.05  -0.00   0.01     0.11   0.01   0.05     0.11   0.01   0.05
  77   1    -0.04   0.02   0.02     0.02   0.03   0.01     0.01   0.03   0.01
  78   1    -0.06   0.01   0.00     0.02   0.04   0.02     0.01   0.04   0.02
  79   1    -0.07  -0.00  -0.02     0.00  -0.01  -0.00    -0.01  -0.00  -0.00
  80   1    -0.05   0.01  -0.02    -0.01  -0.03  -0.01    -0.02  -0.02  -0.01
  81   1    -0.00  -0.03   0.01     0.00  -0.01   0.01    -0.01  -0.00   0.00
  82   1     0.01  -0.01   0.00     0.00  -0.01   0.00    -0.01  -0.00   0.01
  83   1     0.03  -0.01  -0.02    -0.00  -0.00  -0.01     0.01   0.00   0.00
  84   1     0.03  -0.02  -0.02    -0.00   0.01  -0.01     0.01   0.00  -0.01
  85   1     0.01  -0.03  -0.00     0.00   0.01   0.00     0.01  -0.00  -0.01
  86   1    -0.01  -0.03   0.00     0.00  -0.01   0.00    -0.01  -0.00   0.01
  87   1    -0.03  -0.02   0.02    -0.00  -0.01  -0.01    -0.01   0.00   0.01
  88   1    -0.03  -0.01   0.02    -0.00   0.00  -0.01    -0.01   0.00  -0.00
  89   1    -0.01  -0.01  -0.00    -0.00   0.01   0.00     0.01  -0.00  -0.01
  90   1     0.00  -0.03  -0.01     0.00   0.01   0.01     0.01  -0.00  -0.00
  91   1     0.05   0.01   0.02    -0.01   0.03  -0.01     0.02  -0.02   0.01
  92   1     0.07  -0.00   0.02     0.00   0.01  -0.00     0.01  -0.00   0.00
  93   1     0.06   0.01  -0.00     0.02  -0.04   0.02    -0.01   0.04  -0.02
  94   1     0.04   0.02  -0.03     0.02  -0.03   0.01    -0.01   0.03  -0.01
                     22                     23                     24
                        a                      a                      a 
 Frequencies --   151.4709               155.6020               162.1901
 Red. masses --    10.7185                11.0914                10.7962
 Frc consts  --     0.0000                 0.0000                 0.0000
 IR Inten    --     0.1985                 0.0125                11.7789
 Raman Activ --     0.0000                 0.0000                 0.0000
 Depolar     --     0.0000                 0.0000                 0.0000
 Atom AN      X      Y      Z        X      Y      Z        X      Y      Z
   1   6     0.07   0.09  -0.00    -0.05  -0.07   0.01     0.02  -0.00  -0.02
   2   6    -0.05   0.10  -0.04     0.05  -0.08   0.02     0.01   0.01  -0.01
   3   6    -0.11  -0.00  -0.01     0.10   0.00  -0.01     0.00   0.02   0.02
   4   6    -0.06   0.12  -0.04     0.06  -0.09   0.02     0.02  -0.00  -0.02
   5   6    -0.03  -0.03   0.02     0.04   0.04  -0.03     0.01  -0.04  -0.01
   6   6     0.01  -0.15   0.10     0.04   0.13  -0.09    -0.02  -0.03  -0.01
   7   6    -0.03  -0.06   0.06     0.07   0.03  -0.06    -0.03   0.01  -0.02
   8   6    -0.08   0.12  -0.03     0.10  -0.11   0.00    -0.02   0.03  -0.02
   9   6    -0.07   0.14  -0.05     0.06  -0.11   0.02     0.01   0.03  -0.03
  10   7    -0.06   0.14  -0.05     0.03  -0.09   0.01     0.03  -0.00  -0.03
  11   6    -0.04   0.00  -0.03     0.02   0.01   0.01     0.02   0.02  -0.03
  12   6    -0.02  -0.01  -0.04    -0.00   0.02  -0.02     0.02   0.02   0.37
  13   6    -0.02   0.01  -0.04    -0.00   0.02   0.02     0.02  -0.02   0.37
  14   6    -0.04  -0.00  -0.03    -0.02   0.01  -0.01     0.02  -0.02  -0.03
  15   7    -0.06  -0.14  -0.05    -0.03  -0.09  -0.01     0.03   0.00  -0.03
  16   6    -0.07  -0.14  -0.05    -0.06  -0.11  -0.02     0.01  -0.03  -0.03
  17   6    -0.08  -0.12  -0.03    -0.10  -0.11  -0.00    -0.02  -0.03  -0.02
  18   6    -0.03   0.06   0.06    -0.07   0.03   0.06    -0.03  -0.01  -0.02
  19   6     0.01   0.15   0.10    -0.04   0.13   0.09    -0.02   0.03  -0.01
  20   6    -0.03   0.02   0.02    -0.04   0.04   0.03     0.01   0.04  -0.01
  21   6    -0.06  -0.12  -0.04    -0.06  -0.09  -0.02     0.02   0.00  -0.02
  22   6    -0.05  -0.10  -0.04    -0.05  -0.08  -0.02     0.01  -0.01  -0.01
  23   6    -0.11   0.00  -0.01    -0.10   0.00   0.01     0.00  -0.02   0.02
  24   6     0.07  -0.09  -0.00     0.05  -0.07  -0.01     0.02   0.00  -0.02
  25   6    -0.06  -0.11  -0.04    -0.05  -0.10  -0.02    -0.01  -0.01  -0.01
  26   6     0.02   0.04   0.03    -0.00  -0.01   0.02    -0.05  -0.02   0.00
  27   6     0.07   0.13   0.09     0.06   0.10   0.08    -0.07   0.04   0.00
  28   6     0.01   0.01   0.03     0.03   0.04   0.06    -0.05   0.08  -0.01
  29   6    -0.07  -0.15  -0.05    -0.04  -0.09  -0.00    -0.02   0.06  -0.03
  30   6    -0.08  -0.15  -0.05    -0.06  -0.11  -0.02     0.01   0.02  -0.02
  31   6    -0.05   0.01  -0.01    -0.01   0.02  -0.08     0.04  -0.02  -0.24
  32   7     0.05   0.07   0.01    -0.01   0.04  -0.27     0.03  -0.04  -0.23
  33   6     0.13   0.02   0.05    -0.02   0.05  -0.16     0.01  -0.03   0.04
  34   6     0.15   0.03   0.04    -0.04   0.05  -0.19    -0.02  -0.09   0.17
  35   6     0.17  -0.06  -0.01    -0.08   0.10  -0.08    -0.01  -0.12   0.15
  36   6     0.08  -0.13  -0.03    -0.08   0.09   0.09     0.03  -0.06  -0.02
  37   6    -0.02  -0.11  -0.01    -0.01   0.05   0.11     0.07   0.02  -0.15
  38   6    -0.02   0.00   0.00     0.06   0.02  -0.05     0.01   0.00  -0.03
  39   6     0.08   0.07   0.03     0.03   0.02  -0.18    -0.04  -0.06   0.15
  40   6     0.13  -0.02   0.05     0.02   0.05   0.16     0.01   0.03   0.04
  41   6     0.15  -0.03   0.04     0.04   0.05   0.19    -0.02   0.09   0.17
  42   6     0.08  -0.07   0.03    -0.03   0.02   0.18    -0.04   0.06   0.15
  43   6    -0.02  -0.00   0.00    -0.06   0.02   0.05     0.01  -0.00  -0.03
  44   6    -0.02   0.11  -0.01     0.01   0.05  -0.11     0.07  -0.02  -0.15
  45   6     0.08   0.13  -0.03     0.08   0.09  -0.09     0.03   0.06  -0.02
  46   6     0.17   0.06  -0.01     0.08   0.10   0.08    -0.01   0.12   0.15
  47   7     0.05  -0.07   0.01     0.01   0.04   0.27     0.03   0.04  -0.23
  48   6    -0.05  -0.01  -0.01     0.01   0.02   0.08     0.04   0.01  -0.24
  49   6    -0.08   0.15  -0.05     0.06  -0.11   0.02     0.01  -0.02  -0.02
  50   6    -0.07   0.15  -0.05     0.04  -0.09   0.00    -0.02  -0.06  -0.03
  51   6     0.01  -0.01   0.03    -0.03   0.04  -0.06    -0.05  -0.08  -0.01
  52   6     0.07  -0.13   0.09    -0.06   0.10  -0.08    -0.07  -0.04   0.00
  53   6     0.02  -0.04   0.03     0.00  -0.01  -0.02    -0.05   0.02   0.00
  54   6    -0.06   0.11  -0.04     0.05  -0.10   0.02    -0.01   0.01  -0.01
  55   1     0.03   0.05  -0.01    -0.02  -0.04  -0.00     0.01   0.00  -0.01
  56   1     0.02   0.02   0.00    -0.01  -0.01   0.01     0.01  -0.01  -0.00
  57   1     0.03   0.01   0.01    -0.03  -0.01   0.00     0.01  -0.00  -0.01
  58   1    -0.03  -0.01   0.00     0.02  -0.01  -0.01     0.00   0.00   0.01
  59   1    -0.06  -0.00  -0.01     0.05   0.01   0.02    -0.00   0.01   0.01
  60   1    -0.03  -0.02   0.01     0.03   0.02  -0.02    -0.00   0.01   0.00
  61   1    -0.00  -0.02   0.01     0.01   0.03  -0.01     0.01  -0.02  -0.00
  62   1     0.02  -0.09   0.05     0.00   0.08  -0.05    -0.01  -0.02  -0.00
  63   1    -0.00  -0.04   0.03     0.02   0.02  -0.02    -0.01   0.01  -0.01
  64   1    -0.03   0.06  -0.02     0.03  -0.05   0.00    -0.01   0.01   0.01
  65   1    -0.01  -0.00  -0.02    -0.00   0.00  -0.02     0.01   0.01   0.18
  66   1    -0.01   0.00  -0.02     0.00   0.00   0.02     0.01  -0.01   0.18
  67   1    -0.03  -0.06  -0.02    -0.03  -0.05  -0.00    -0.01  -0.01   0.01
  68   1    -0.00   0.04   0.03    -0.02   0.02   0.02    -0.01  -0.01  -0.01
  69   1     0.02   0.09   0.05    -0.00   0.08   0.04    -0.01   0.02  -0.00
  70   1    -0.00   0.02   0.01    -0.01   0.03   0.01     0.01   0.02  -0.00
  71   1    -0.03   0.01   0.00    -0.02  -0.01   0.01     0.00  -0.00   0.01
  72   1    -0.03   0.02   0.01    -0.03   0.02   0.02    -0.00  -0.01   0.00
  73   1    -0.06   0.00  -0.01    -0.05   0.01  -0.02    -0.00  -0.01   0.01
  74   1     0.03  -0.01   0.01     0.03  -0.01  -0.00     0.01   0.00  -0.01
  75   1     0.03  -0.05  -0.01     0.02  -0.04   0.00     0.01  -0.00  -0.01
  76   1     0.02  -0.02   0.00     0.01  -0.01  -0.01     0.01   0.01  -0.00
  77   1     0.01   0.03   0.02     0.00   0.00   0.01    -0.02  -0.02   0.01
  78   1     0.04   0.08   0.05     0.03   0.06   0.04    -0.03   0.01   0.00
  79   1     0.01   0.02   0.01     0.02   0.03   0.03    -0.02   0.03  -0.00
  80   1    -0.03  -0.07  -0.02    -0.02  -0.04  -0.01    -0.00   0.02  -0.02
  81   1     0.07  -0.03  -0.00    -0.04   0.04  -0.03    -0.00  -0.05   0.06
  82   1     0.03  -0.06  -0.02    -0.04   0.03   0.06     0.02  -0.02  -0.02
  83   1    -0.03  -0.05  -0.00    -0.00   0.01   0.07     0.04   0.03  -0.10
  84   1    -0.03   0.01   0.00     0.04  -0.00  -0.01     0.00   0.02  -0.03
  85   1     0.02   0.04   0.01     0.02  -0.00  -0.07    -0.02  -0.02   0.06
  86   1     0.02  -0.04   0.01    -0.02  -0.00   0.07    -0.02   0.02   0.06
  87   1    -0.03  -0.01   0.00    -0.04  -0.00   0.01     0.00  -0.02  -0.03
  88   1    -0.03   0.05  -0.00     0.00   0.01  -0.07     0.04  -0.03  -0.10
  89   1     0.02   0.06  -0.02     0.04   0.03  -0.06     0.02   0.02  -0.02
  90   1     0.07   0.03  -0.00     0.04   0.04   0.03    -0.00   0.05   0.06
  91   1    -0.03   0.07  -0.02     0.02  -0.04   0.01    -0.00  -0.02  -0.02
  92   1     0.01  -0.02   0.01    -0.02   0.03  -0.03    -0.02  -0.03  -0.00
  93   1     0.04  -0.08   0.05    -0.03   0.06  -0.04    -0.03  -0.01   0.00
  94   1     0.01  -0.03   0.02    -0.00   0.00  -0.01    -0.02   0.02   0.01
                     25                     26                     27
                        a                      a                      a 
 Frequencies --   166.0807               195.9620               203.3970
 Red. masses --    10.9132                10.6144                 3.1444
 Frc consts  --     0.0000                 0.0000                 0.0000
 IR Inten    --     0.0000                 1.8786                 0.0308
 Raman Activ --     0.0000                 0.0000                 0.0000
 Depolar     --     0.0000                 0.0000                 0.0000
 Atom AN      X      Y      Z        X      Y      Z        X      Y      Z
   1   6    -0.04  -0.08  -0.01    -0.05  -0.03  -0.02    -0.01  -0.08  -0.13
   2   6     0.05  -0.08   0.04    -0.03  -0.00   0.03    -0.01  -0.01   0.00
   3   6     0.10   0.01   0.02    -0.05  -0.02   0.05    -0.02  -0.01   0.04
   4   6     0.05  -0.10   0.06    -0.03  -0.03   0.05     0.01  -0.05   0.04
   5   6     0.02   0.02  -0.00    -0.06  -0.01   0.03     0.02   0.01   0.03
   6   6    -0.02   0.14  -0.07    -0.09   0.04   0.01     0.00   0.10  -0.02
   7   6     0.01   0.06  -0.03    -0.08   0.02   0.04     0.02   0.05  -0.01
   8   6     0.06  -0.10   0.06    -0.04  -0.03   0.08     0.03  -0.06   0.04
   9   6     0.06  -0.11   0.07    -0.01  -0.05   0.08     0.01  -0.05   0.04
  10   7     0.04  -0.09   0.06    -0.00  -0.02   0.08    -0.02  -0.00   0.02
  11   6     0.02   0.02   0.01     0.01   0.03  -0.10    -0.02  -0.01  -0.02
  12   6    -0.00   0.03   0.03     0.02   0.02  -0.36    -0.03  -0.01  -0.02
  13   6     0.00   0.03  -0.03     0.02  -0.02  -0.36    -0.03   0.01  -0.02
  14   6    -0.02   0.02  -0.01     0.01  -0.03  -0.10    -0.02   0.01  -0.02
  15   7    -0.04  -0.09  -0.05    -0.00   0.02   0.08    -0.02   0.00   0.02
  16   6    -0.06  -0.11  -0.06    -0.01   0.05   0.08     0.01   0.05   0.04
  17   6    -0.06  -0.10  -0.05    -0.04   0.03   0.08     0.03   0.06   0.03
  18   6    -0.01   0.06   0.03    -0.08  -0.02   0.04     0.02  -0.05  -0.01
  19   6     0.02   0.14   0.07    -0.09  -0.04   0.01     0.00  -0.09  -0.02
  20   6    -0.02   0.02   0.00    -0.06   0.01   0.03     0.02  -0.01   0.03
  21   6    -0.05  -0.10  -0.06    -0.03   0.03   0.05     0.01   0.05   0.04
  22   6    -0.05  -0.08  -0.04    -0.03   0.00   0.03    -0.01   0.01   0.00
  23   6    -0.10   0.01  -0.02    -0.05   0.02   0.05    -0.02   0.01   0.04
  24   6     0.04  -0.08   0.01    -0.05   0.03  -0.02    -0.01   0.07  -0.13
  25   6    -0.05  -0.07  -0.03    -0.02  -0.04   0.03    -0.03  -0.05  -0.02
  26   6     0.00   0.07   0.04     0.02  -0.08  -0.01     0.01  -0.03  -0.02
  27   6     0.02   0.12   0.06     0.09  -0.03   0.04     0.07   0.04   0.03
  28   6    -0.05  -0.02  -0.02     0.11   0.01   0.10     0.06   0.02   0.04
  29   6    -0.09  -0.13  -0.07     0.03  -0.04   0.09    -0.01  -0.07   0.01
  30   6    -0.07  -0.11  -0.06    -0.01  -0.03   0.06    -0.03  -0.05  -0.01
  31   6    -0.01   0.02   0.06     0.03  -0.03  -0.15    -0.02   0.01  -0.05
  32   7     0.03   0.04   0.22     0.02  -0.05  -0.14    -0.01   0.02  -0.05
  33   6     0.02   0.05   0.14     0.01  -0.05  -0.05     0.00   0.01   0.01
  34   6     0.01   0.04   0.19    -0.03  -0.12   0.05     0.01   0.02   0.03
  35   6     0.05   0.00   0.09    -0.04  -0.13   0.07     0.01   0.01   0.02
  36   6     0.03   0.01  -0.07     0.03  -0.08  -0.01    -0.01   0.00   0.01
  37   6    -0.07   0.05  -0.07     0.12  -0.04  -0.11    -0.02   0.01  -0.00
  38   6    -0.13   0.08   0.07     0.07  -0.10  -0.02    -0.02   0.03  -0.00
  39   6    -0.08   0.09   0.18    -0.00  -0.15   0.07    -0.01   0.04   0.02
  40   6    -0.02   0.05  -0.14     0.01   0.05  -0.05     0.00  -0.01   0.01
  41   6    -0.01   0.04  -0.19    -0.03   0.12   0.05     0.01  -0.02   0.03
  42   6     0.08   0.09  -0.18    -0.00   0.15   0.07    -0.01  -0.04   0.02
  43   6     0.13   0.08  -0.07     0.07   0.10  -0.02    -0.02  -0.03  -0.00
  44   6     0.07   0.05   0.07     0.12   0.04  -0.11    -0.02  -0.01  -0.00
  45   6    -0.03   0.01   0.07     0.03   0.08  -0.01    -0.01  -0.00   0.01
  46   6    -0.05   0.00  -0.09    -0.04   0.13   0.07     0.01  -0.01   0.02
  47   7    -0.03   0.04  -0.22     0.02   0.05  -0.14    -0.01  -0.02  -0.05
  48   6     0.01   0.02  -0.06     0.03   0.03  -0.15    -0.02  -0.01  -0.05
  49   6     0.07  -0.11   0.06    -0.01   0.03   0.06    -0.03   0.05  -0.01
  50   6     0.09  -0.13   0.07     0.03   0.04   0.09    -0.01   0.07   0.01
  51   6     0.05  -0.02   0.02     0.11  -0.01   0.10     0.06  -0.02   0.04
  52   6    -0.02   0.12  -0.06     0.09   0.03   0.04     0.07  -0.04   0.04
  53   6    -0.00   0.07  -0.04     0.02   0.08  -0.01     0.01   0.03  -0.02
  54   6     0.05  -0.07   0.03    -0.02   0.04   0.03    -0.03   0.05  -0.02
  55   1    -0.02  -0.04   0.01    -0.02   0.02   0.07     0.02  -0.16  -0.32
  56   1    -0.02  -0.02  -0.01    -0.08  -0.02  -0.05     0.24  -0.01   0.13
  57   1    -0.01  -0.01  -0.01     0.06  -0.02  -0.04    -0.27   0.10   0.04
  58   1     0.03   0.03   0.01    -0.01   0.00   0.02     0.07   0.18   0.04
  59   1     0.05  -0.01  -0.01    -0.02  -0.01   0.00     0.01  -0.09  -0.17
  60   1     0.01   0.00   0.02    -0.02  -0.01   0.03    -0.10  -0.10   0.16
  61   1     0.00   0.01   0.00    -0.02  -0.00   0.00     0.01   0.00   0.02
  62   1    -0.02   0.08  -0.04    -0.03   0.02  -0.01    -0.01   0.05  -0.02
  63   1    -0.00   0.03  -0.02    -0.03   0.02   0.01     0.00   0.03  -0.01
  64   1     0.03  -0.05   0.02    -0.01  -0.01   0.02     0.01  -0.03   0.01
  65   1    -0.00   0.01   0.02     0.01   0.01  -0.12    -0.01  -0.00   0.00
  66   1     0.00   0.01  -0.02     0.01  -0.01  -0.12    -0.01   0.00   0.00
  67   1    -0.03  -0.05  -0.02    -0.01   0.01   0.02     0.01   0.03   0.01
  68   1     0.00   0.03   0.02    -0.03  -0.02   0.01     0.00  -0.03  -0.01
  69   1     0.02   0.08   0.04    -0.03  -0.02  -0.01    -0.01  -0.05  -0.02
  70   1    -0.00   0.01  -0.00    -0.02   0.00   0.00     0.01  -0.00   0.02
  71   1    -0.03   0.03  -0.01    -0.01  -0.00   0.02     0.07  -0.17   0.04
  72   1    -0.01   0.00  -0.02    -0.02   0.01   0.03    -0.10   0.10   0.15
  73   1    -0.05  -0.01   0.01    -0.02   0.01   0.00     0.01   0.08  -0.16
  74   1     0.01  -0.01   0.01     0.06   0.02  -0.04    -0.26  -0.09   0.03
  75   1     0.02  -0.04  -0.01    -0.02  -0.02   0.07     0.02   0.16  -0.31
  76   1     0.02  -0.02   0.01    -0.08   0.02  -0.05     0.23   0.01   0.13
  77   1     0.01   0.04   0.02    -0.00  -0.03  -0.02     0.00  -0.01  -0.01
  78   1     0.02   0.07   0.04     0.04  -0.00   0.01     0.04   0.03   0.02
  79   1    -0.02  -0.00  -0.01     0.05   0.01   0.04     0.03   0.02   0.02
  80   1    -0.04  -0.06  -0.03     0.01  -0.02   0.03    -0.01  -0.03   0.00
  81   1     0.03  -0.01   0.03    -0.02  -0.05   0.03     0.01   0.00   0.00
  82   1     0.02  -0.01  -0.05     0.01  -0.01  -0.00    -0.00  -0.01   0.00
  83   1    -0.02   0.02  -0.05     0.06   0.01  -0.06    -0.01   0.00  -0.00
  84   1    -0.06   0.03   0.02     0.03  -0.02  -0.01    -0.01   0.01  -0.01
  85   1    -0.03   0.04   0.07    -0.01  -0.06   0.03    -0.00   0.02   0.01
  86   1     0.03   0.04  -0.07    -0.01   0.06   0.03    -0.00  -0.02   0.01
  87   1     0.06   0.03  -0.02     0.03   0.02  -0.01    -0.01  -0.01  -0.01
  88   1     0.02   0.02   0.05     0.06  -0.01  -0.06    -0.01  -0.00  -0.00
  89   1    -0.02  -0.01   0.05     0.01   0.01  -0.00    -0.00   0.01   0.00
  90   1    -0.03  -0.01  -0.03    -0.02   0.05   0.03     0.01  -0.00   0.00
  91   1     0.04  -0.06   0.03     0.01   0.02   0.03    -0.01   0.03   0.00
  92   1     0.02  -0.00   0.01     0.05  -0.01   0.04     0.03  -0.02   0.02
  93   1    -0.02   0.07  -0.04     0.04   0.00   0.01     0.04  -0.03   0.02
  94   1    -0.01   0.04  -0.02    -0.00   0.03  -0.02     0.00   0.01  -0.01
                     28                     29                     30
                        a                      a                      a 
 Frequencies --   204.1210               213.2989               219.9279
 Red. masses --     1.9473                 8.5670                 8.2289
 Frc consts  --     0.0000                 0.0000                 0.0000
 IR Inten    --     0.0062                 0.2822                 0.0080
 Raman Activ --     0.0000                 0.0000                 0.0000
[...]
  44   6    -0.00  -0.00   0.00    -0.00  -0.00   0.00    -0.00  -0.00   0.00
  45   6     0.00   0.00   0.00    -0.00  -0.00  -0.00     0.00   0.00   0.00
  46   6     0.00  -0.01   0.00    -0.00   0.00  -0.00     0.00  -0.00   0.00
  47   7    -0.00   0.00  -0.00     0.00  -0.00  -0.00    -0.00   0.00   0.00
  48   6     0.00   0.00   0.00    -0.00  -0.00  -0.00     0.00   0.00   0.00
  49   6     0.00   0.00   0.00    -0.00  -0.00  -0.00     0.00   0.00   0.00
  50   6     0.04   0.02  -0.00    -0.04  -0.02   0.00     0.03   0.01  -0.00
  51   6     0.05  -0.01  -0.07    -0.05   0.01   0.08     0.03  -0.01  -0.05
  52   6    -0.04  -0.06  -0.09     0.04   0.07   0.09    -0.03  -0.04  -0.05
  53   6    -0.07  -0.03   0.00     0.07   0.03  -0.00    -0.04  -0.02   0.00
  54   6    -0.00   0.00   0.00     0.00  -0.00  -0.00    -0.00   0.00   0.00
  55   1    -0.00  -0.00  -0.00     0.00   0.00   0.00    -0.00  -0.00   0.00
  56   1    -0.00   0.00   0.01     0.01  -0.00  -0.01     0.01  -0.00  -0.01
  57   1     0.01   0.01   0.01    -0.01  -0.01  -0.01     0.00   0.01   0.01
  58   1    -0.01   0.00   0.01     0.01  -0.00  -0.01     0.02  -0.00  -0.03
  59   1     0.00   0.00  -0.00    -0.00   0.00   0.00    -0.00  -0.00   0.00
  60   1     0.01   0.01   0.01    -0.01  -0.01  -0.01     0.01   0.01   0.01
  61   1    -0.19  -0.07   0.02     0.20   0.07  -0.02     0.31   0.11  -0.03
  62   1    -0.14   0.06   0.21     0.14  -0.06  -0.21     0.22  -0.10  -0.33
  63   1     0.04   0.06   0.07    -0.05  -0.06  -0.08    -0.07  -0.09  -0.12
  64   1    -0.06  -0.02   0.00     0.07   0.02  -0.00     0.13   0.04  -0.01
  65   1    -0.00   0.01  -0.00    -0.00   0.01  -0.00    -0.02   0.03  -0.00
  66   1     0.00   0.01   0.00    -0.00  -0.01  -0.00    -0.02  -0.03  -0.00
  67   1     0.06  -0.02  -0.00     0.07  -0.02  -0.00     0.13  -0.04  -0.01
  68   1    -0.04   0.06  -0.07    -0.04   0.06  -0.08    -0.07   0.09  -0.12
  69   1     0.14   0.06  -0.21     0.14   0.06  -0.21     0.22   0.10  -0.33
  70   1     0.20  -0.07  -0.02     0.20  -0.07  -0.02     0.32  -0.11  -0.03
  71   1     0.01   0.00  -0.01     0.01   0.00  -0.01     0.02   0.00  -0.03
  72   1    -0.01   0.01  -0.01    -0.01   0.01  -0.01     0.01  -0.01   0.01
  73   1    -0.00   0.00   0.00    -0.00  -0.00   0.00    -0.00   0.00   0.00
  74   1    -0.01   0.01  -0.01    -0.01   0.01  -0.01     0.00  -0.01   0.01
  75   1     0.00  -0.00   0.00     0.00  -0.00   0.00    -0.00   0.00   0.00
  76   1     0.01   0.00  -0.01     0.01   0.00  -0.01     0.01   0.00  -0.01
  77   1    -0.22   0.10   0.01    -0.21   0.10   0.01     0.14  -0.06  -0.01
  78   1    -0.14   0.22  -0.30    -0.14   0.21  -0.29     0.09  -0.13   0.18
  79   1     0.17   0.03  -0.25     0.16   0.03  -0.24    -0.10  -0.02   0.15
  80   1     0.15  -0.07  -0.01     0.14  -0.07  -0.01    -0.09   0.04   0.01
  81   1     0.01   0.02   0.01     0.01   0.01   0.01    -0.01  -0.02  -0.01
  82   1     0.00   0.00   0.00     0.01  -0.00   0.00     0.00  -0.00   0.00
  83   1    -0.00   0.00   0.00     0.01  -0.01  -0.00     0.00  -0.00  -0.00
  84   1     0.00   0.00   0.00    -0.01  -0.01  -0.01    -0.00  -0.00  -0.00
  85   1     0.00  -0.00   0.00    -0.01   0.00  -0.01    -0.00   0.00  -0.00
  86   1    -0.00  -0.00  -0.00    -0.01  -0.00  -0.01    -0.00  -0.00  -0.00
  87   1    -0.00   0.00  -0.00    -0.01   0.01  -0.01    -0.00   0.00  -0.00
  88   1     0.00   0.00  -0.00     0.01   0.01  -0.00     0.00   0.00  -0.00
  89   1    -0.00   0.00  -0.00     0.01   0.00   0.00     0.00   0.00   0.00
  90   1    -0.01   0.02  -0.01     0.01  -0.02   0.01    -0.01   0.02  -0.01
  91   1    -0.14  -0.07   0.01     0.15   0.07  -0.01    -0.09  -0.04   0.01
  92   1    -0.17   0.03   0.25     0.17  -0.03  -0.25    -0.10   0.02   0.15
  93   1     0.14   0.22   0.29    -0.14  -0.22  -0.30     0.09   0.13   0.18
  94   1     0.22   0.10  -0.01    -0.22  -0.10   0.01     0.14   0.06  -0.01
                    271                    272                    273
                        a                      a                      a 
 Frequencies --  3095.3562              3095.8501              3099.1388
 Red. masses --     1.8905                 1.8760                 1.8853
 Frc consts  --     0.0000                 0.0000                 0.0000
 IR Inten    --     0.2820                15.6154                 2.1450
 Raman Activ --     0.0000                 0.0000                 0.0000
 Depolar     --     0.0000                 0.0000                 0.0000
 Atom AN      X      Y      Z        X      Y      Z        X      Y      Z
   1   6    -0.00  -0.00   0.00     0.00   0.00  -0.00    -0.00  -0.00  -0.00
   2   6    -0.00  -0.00   0.00     0.00   0.00  -0.00    -0.00  -0.00  -0.00
   3   6    -0.01  -0.00   0.00     0.00  -0.00  -0.00    -0.00  -0.00   0.00
   4   6    -0.00  -0.00  -0.00     0.00   0.00   0.00     0.00  -0.00  -0.00
   5   6    -0.09  -0.03   0.01     0.02   0.01  -0.00    -0.00  -0.00   0.00
   6   6    -0.07   0.03   0.10     0.01  -0.01  -0.02    -0.00   0.00   0.00
   7   6     0.02   0.03   0.03    -0.00  -0.01  -0.01     0.00   0.00   0.00
   8   6    -0.04  -0.01   0.00     0.00   0.00  -0.00     0.00   0.00  -0.00
   9   6    -0.00   0.00   0.00     0.00  -0.00  -0.00    -0.00   0.00   0.00
  10   7    -0.00   0.00  -0.00    -0.00   0.00  -0.00     0.00   0.00  -0.00
  11   6     0.00   0.00   0.00     0.01   0.00   0.00    -0.00   0.00  -0.00
  12   6     0.02  -0.03   0.00     0.09  -0.17   0.01    -0.00   0.00  -0.00
  13   6    -0.02  -0.03  -0.00    -0.09  -0.17  -0.01     0.00   0.00   0.00
  14   6    -0.00   0.00  -0.00    -0.01   0.00  -0.00     0.00   0.00   0.00
  15   7     0.00   0.00   0.00     0.00   0.00   0.00    -0.00   0.00   0.00
  16   6     0.00   0.00  -0.00    -0.00  -0.00   0.00     0.00   0.00  -0.00
  17   6     0.04  -0.01  -0.00    -0.00   0.00   0.00    -0.00   0.00   0.00
  18   6    -0.02   0.03  -0.03     0.00  -0.01   0.01    -0.00   0.00  -0.00
  19   6     0.06   0.03  -0.10    -0.01  -0.01   0.02     0.00   0.00  -0.00
  20   6     0.09  -0.03  -0.01    -0.02   0.01   0.00     0.00  -0.00  -0.00
  21   6     0.00  -0.00   0.00    -0.00   0.00  -0.00    -0.00  -0.00   0.00
  22   6     0.00  -0.00  -0.00    -0.00   0.00   0.00     0.00  -0.00   0.00
  23   6     0.01  -0.00  -0.00    -0.00  -0.00   0.00     0.00  -0.00  -0.00
  24   6     0.00  -0.00  -0.00    -0.00   0.00   0.00     0.00  -0.00   0.00
  25   6     0.00   0.00  -0.00    -0.00  -0.00   0.00     0.00   0.00  -0.00
  26   6     0.04  -0.02  -0.00    -0.01   0.00   0.00     0.00  -0.00  -0.00
  27   6     0.03  -0.04   0.05    -0.01   0.01  -0.01     0.00  -0.00   0.01
  28   6    -0.03  -0.01   0.04     0.01   0.00  -0.01    -0.00  -0.00   0.00
  29   6    -0.02   0.01   0.00     0.00  -0.00  -0.00    -0.00   0.00   0.00
  30   6    -0.00   0.00  -0.00     0.00  -0.00  -0.00    -0.00   0.00  -0.00
  31   6    -0.00   0.00  -0.00     0.00   0.00   0.00     0.00  -0.00   0.00
  32   7     0.00  -0.00   0.00    -0.00  -0.00   0.00    -0.00  -0.00  -0.00
  33   6     0.00  -0.00  -0.00     0.00   0.00  -0.00    -0.00   0.00   0.00
  34   6     0.00  -0.00  -0.00    -0.00   0.00  -0.00    -0.00   0.00   0.00
  35   6    -0.00  -0.01  -0.01     0.00   0.01   0.01     0.05   0.13   0.09
  36   6     0.00  -0.00   0.00    -0.00  -0.00  -0.00     0.08  -0.00   0.04
  37   6     0.01  -0.01  -0.00    -0.00   0.01   0.00     0.03  -0.04  -0.01
  38   6    -0.00  -0.01  -0.01     0.00   0.01   0.01    -0.01  -0.02  -0.01
  39   6    -0.01   0.00  -0.00     0.01  -0.00   0.00    -0.01  -0.00  -0.00
  40   6    -0.00  -0.00   0.00    -0.00   0.00   0.00     0.00   0.00  -0.00
  41   6    -0.00  -0.00   0.00     0.00   0.00   0.00     0.00   0.00  -0.00
  42   6     0.01   0.00   0.00    -0.01  -0.00  -0.00     0.01  -0.00   0.00
  43   6     0.00  -0.01   0.01    -0.00   0.01  -0.01     0.01  -0.02   0.01
  44   6    -0.01  -0.01   0.00     0.00   0.01  -0.00    -0.03  -0.04   0.01
  45   6    -0.00  -0.00  -0.00     0.00  -0.00   0.00    -0.08  -0.00  -0.04
  46   6     0.00  -0.01   0.01    -0.00   0.01  -0.01    -0.05   0.13  -0.10
  47   7    -0.00  -0.00  -0.00     0.00  -0.00  -0.00     0.00  -0.00   0.00
  48   6     0.00   0.00   0.00    -0.00   0.00  -0.00    -0.00  -0.00  -0.00
  49   6     0.00   0.00   0.00    -0.00  -0.00   0.00     0.00   0.00   0.00
  50   6     0.02   0.01  -0.00    -0.00  -0.00   0.00     0.00   0.00  -0.00
  51   6     0.03  -0.01  -0.04    -0.01   0.00   0.01     0.00  -0.00  -0.00
  52   6    -0.03  -0.04  -0.05     0.01   0.01   0.01    -0.00  -0.00  -0.01
  53   6    -0.04  -0.02   0.00     0.01   0.00  -0.00    -0.01  -0.00   0.00
  54   6    -0.00   0.00   0.00     0.00  -0.00  -0.00    -0.00   0.00   0.00
  55   1     0.00  -0.00   0.00    -0.00   0.00  -0.00     0.00  -0.00  -0.00
  56   1     0.01  -0.00  -0.02    -0.00   0.00   0.00    -0.00   0.00   0.00
  57   1     0.00   0.01   0.01    -0.00  -0.00  -0.00     0.00   0.00   0.00
  58   1     0.02  -0.00  -0.03    -0.00   0.00   0.01     0.00  -0.00  -0.00
  59   1    -0.00  -0.00   0.00     0.00   0.00  -0.00     0.00   0.00  -0.00
  60   1     0.01   0.01   0.01    -0.00  -0.00  -0.00     0.00   0.00   0.00
  61   1     0.31   0.11  -0.03    -0.06  -0.02   0.01     0.01   0.00  -0.00
  62   1     0.22  -0.10  -0.32    -0.04   0.02   0.06     0.01  -0.00  -0.01
  63   1    -0.07  -0.09  -0.12     0.02   0.02   0.03    -0.00  -0.00  -0.00
  64   1     0.14   0.04  -0.01    -0.02  -0.00   0.00    -0.00  -0.00   0.00
  65   1    -0.07   0.12  -0.01    -0.32   0.58  -0.03     0.01  -0.01   0.00
  66   1     0.06   0.12   0.01     0.32   0.58   0.03    -0.01  -0.01  -0.00
  67   1    -0.14   0.04   0.01     0.02  -0.00  -0.00     0.00  -0.00  -0.00
  68   1     0.07  -0.09   0.12    -0.02   0.02  -0.03     0.00  -0.00   0.00
  69   1    -0.22  -0.10   0.32     0.04   0.02  -0.06    -0.01  -0.00   0.01
  70   1    -0.31   0.11   0.03     0.06  -0.02  -0.01    -0.01   0.00   0.00
  71   1    -0.02  -0.00   0.03     0.00   0.00  -0.01    -0.00  -0.00   0.00
  72   1    -0.01   0.01  -0.01     0.00  -0.00   0.00    -0.00   0.00  -0.00
  73   1     0.00  -0.00  -0.00    -0.00   0.00   0.00    -0.00   0.00   0.00
  74   1    -0.00   0.01  -0.01     0.00  -0.00   0.00    -0.00   0.00  -0.00
  75   1    -0.00  -0.00  -0.00     0.00   0.00   0.00    -0.00  -0.00   0.00
  76   1    -0.01  -0.00   0.02     0.00   0.00  -0.00     0.00   0.00  -0.00
  77   1    -0.14   0.06   0.01     0.03  -0.02  -0.00    -0.02   0.01   0.00
  78   1    -0.08   0.13  -0.18     0.02  -0.03   0.04    -0.01   0.01  -0.02
  79   1     0.10   0.02  -0.14    -0.02  -0.00   0.03     0.01   0.00  -0.01
  80   1     0.08  -0.04  -0.01    -0.01   0.00   0.00     0.01  -0.00  -0.00
  81   1     0.02   0.04   0.03    -0.01  -0.03  -0.02    -0.18  -0.44  -0.33
  82   1    -0.01   0.00  -0.01     0.01  -0.00   0.00    -0.25   0.01  -0.12
  83   1    -0.02   0.03   0.01     0.02  -0.02  -0.00    -0.09   0.13   0.02
  84   1     0.01   0.03   0.03    -0.01  -0.03  -0.02     0.02   0.06   0.04
  85   1     0.02  -0.00   0.01    -0.02   0.00  -0.01     0.02  -0.00   0.01
  86   1    -0.02  -0.00  -0.01     0.02   0.00   0.01    -0.02  -0.00  -0.01
  87   1    -0.01   0.03  -0.03     0.01  -0.03   0.02    -0.03   0.06  -0.04
  88   1     0.02   0.03  -0.01    -0.02  -0.02   0.00     0.09   0.13  -0.02
  89   1     0.01   0.00   0.01    -0.01  -0.00  -0.00     0.26   0.01   0.12
  90   1    -0.02   0.04  -0.03     0.01  -0.03   0.02     0.19  -0.46   0.34
  91   1    -0.08  -0.04   0.01     0.01   0.00  -0.00    -0.01  -0.00   0.00
  92   1    -0.10   0.02   0.14     0.02  -0.00  -0.03    -0.01   0.00   0.01
  93   1     0.08   0.13   0.18    -0.02  -0.03  -0.04     0.01   0.01   0.02
  94   1     0.14   0.06  -0.01    -0.03  -0.02   0.00     0.02   0.01  -0.00
                    274                    275                    276
                        a                      a                      a 
 Frequencies --  3099.2052              3107.0300              3107.1071
 Red. masses --     1.8844                 1.8481                 1.8481
 Frc consts  --     0.0000                 0.0000                 0.0000
 IR Inten    --    24.1123                11.4108                46.9017
 Raman Activ --     0.0000                 0.0000                 0.0000
 Depolar     --     0.0000                 0.0000                 0.0000
 Atom AN      X      Y      Z        X      Y      Z        X      Y      Z
   1   6     0.00   0.00   0.00    -0.00  -0.00  -0.00     0.00   0.00   0.00
   2   6     0.00   0.00   0.00     0.00  -0.00  -0.00    -0.00   0.00   0.00
   3   6     0.00   0.00  -0.00    -0.00  -0.00  -0.00     0.00   0.00   0.00
   4   6     0.00   0.00   0.00    -0.00  -0.00   0.00     0.00   0.00  -0.00
   5   6     0.00   0.00  -0.00    -0.01  -0.00   0.00     0.01   0.00  -0.00
   6   6    -0.00   0.00   0.00    -0.02   0.01   0.02     0.02  -0.01  -0.02
   7   6    -0.00  -0.00  -0.00     0.03   0.03   0.04    -0.03  -0.03  -0.04
   8   6    -0.00  -0.00   0.00     0.17   0.05  -0.01    -0.18  -0.05   0.01
   9   6    -0.00   0.00   0.00     0.00  -0.00  -0.00    -0.00   0.00   0.00
  10   7    -0.00  -0.00   0.00     0.00   0.00   0.00    -0.00  -0.00  -0.00
  11   6     0.00  -0.00  -0.00    -0.00  -0.00  -0.00     0.00   0.00   0.00
  12   6    -0.00   0.00  -0.00     0.00  -0.00  -0.00     0.00  -0.00   0.00
  13   6     0.00   0.00   0.00    -0.00  -0.00   0.00     0.00   0.00   0.00
  14   6     0.00   0.00  -0.00     0.00  -0.00   0.00     0.00  -0.00   0.00
  15   7    -0.00   0.00   0.00    -0.00   0.00  -0.00    -0.00   0.00  -0.00
  16   6    -0.00  -0.00   0.00    -0.00  -0.00   0.00    -0.00  -0.00   0.00
  17   6    -0.00   0.00   0.00    -0.18   0.05   0.01    -0.17   0.05   0.01
  18   6    -0.00   0.00  -0.00    -0.03   0.03  -0.04    -0.03   0.03  -0.04
  19   6     0.00  -0.00  -0.00     0.02   0.01  -0.02     0.02   0.01  -0.02
  20   6     0.00  -0.00  -0.00     0.01  -0.00  -0.00     0.01  -0.00  -0.00
  21   6     0.00  -0.00   0.00     0.00  -0.00  -0.00     0.00  -0.00  -0.00
  22   6     0.00  -0.00   0.00    -0.00  -0.00   0.00    -0.00  -0.00   0.00
  23   6     0.00  -0.00  -0.00     0.00  -0.00   0.00     0.00  -0.00   0.00
  24   6     0.00  -0.00   0.00     0.00  -0.00   0.00     0.00  -0.00   0.00
  25   6     0.00   0.00  -0.00    -0.00  -0.00   0.00    -0.00  -0.00   0.00
  26   6     0.00  -0.00  -0.00     0.00  -0.00  -0.00     0.00  -0.00  -0.00
  27   6     0.00  -0.00   0.00     0.00  -0.00   0.00     0.00  -0.00   0.00
  28   6    -0.00  -0.00   0.00    -0.00  -0.00   0.00    -0.00  -0.00   0.00
  29   6    -0.00   0.00   0.00    -0.00   0.00   0.00    -0.00   0.00   0.00
  30   6    -0.00   0.00  -0.00    -0.00   0.00  -0.00    -0.00   0.00  -0.00
  31   6    -0.00  -0.00   0.00     0.00   0.00  -0.00     0.00   0.00  -0.00
  32   7    -0.00  -0.00  -0.00     0.00  -0.00   0.00     0.00  -0.00   0.00
  33   6     0.00   0.00   0.00    -0.00   0.00   0.00    -0.00   0.00  -0.00
  34   6    -0.00   0.00   0.00     0.00  -0.00   0.00     0.00  -0.00   0.00
  35   6     0.05   0.13   0.10    -0.00  -0.00  -0.00    -0.00  -0.00  -0.00
  36   6     0.08  -0.00   0.04    -0.00   0.00  -0.00    -0.00   0.00  -0.00
  37   6     0.03  -0.04  -0.01    -0.00   0.00   0.00    -0.00   0.00   0.00
  38   6    -0.01  -0.02  -0.02     0.00  -0.00   0.00    -0.00  -0.00  -0.00
  39   6    -0.02   0.00  -0.01    -0.00   0.00  -0.00    -0.00   0.00  -0.00
  40   6     0.00  -0.00   0.00     0.00   0.00  -0.00    -0.00  -0.00  -0.00
  41   6    -0.00  -0.00   0.00    -0.00  -0.00  -0.00     0.00   0.00   0.00
  42   6    -0.02  -0.00  -0.01     0.00   0.00   0.00    -0.00  -0.00  -0.00
  43   6    -0.01   0.02  -0.01    -0.00  -0.00   0.00    -0.00   0.00  -0.00
  44   6     0.03   0.04  -0.01     0.00   0.00  -0.00    -0.00  -0.00   0.00
  45   6     0.08   0.00   0.04     0.00   0.00   0.00    -0.00  -0.00  -0.00
  46   6     0.05  -0.13   0.10     0.00  -0.00   0.00    -0.00   0.00  -0.00
  47   7    -0.00   0.00  -0.00    -0.00  -0.00  -0.00     0.00   0.00   0.00
  48   6    -0.00   0.00   0.00    -0.00   0.00   0.00     0.00  -0.00  -0.00
  49   6    -0.00  -0.00  -0.00     0.00   0.00   0.00    -0.00  -0.00  -0.00
  50   6    -0.00  -0.00   0.00     0.00   0.00  -0.00    -0.00  -0.00   0.00
  51   6    -0.00   0.00   0.00     0.00  -0.00  -0.00    -0.00   0.00   0.00
  52   6     0.00   0.00   0.00    -0.00  -0.00  -0.00     0.00   0.00   0.00
  53   6     0.00   0.00  -0.00    -0.00  -0.00   0.00     0.00   0.00  -0.00
  54   6     0.00  -0.00  -0.00     0.00  -0.00  -0.00    -0.00   0.00   0.00
  55   1    -0.00   0.00   0.00     0.00  -0.00   0.00     0.00   0.00   0.00
  56   1     0.00  -0.00  -0.00     0.00  -0.00  -0.00    -0.00   0.00   0.00
  57   1    -0.00  -0.00  -0.00     0.00   0.00   0.00    -0.00  -0.00  -0.00
  58   1    -0.00   0.00   0.00     0.00  -0.00  -0.00    -0.00   0.00   0.00
  59   1    -0.00  -0.00   0.00    -0.00   0.00  -0.00     0.00  -0.00   0.00
  60   1    -0.00  -0.00  -0.00     0.00   0.00   0.00    -0.00  -0.00  -0.00
  61   1    -0.00  -0.00   0.00     0.04   0.01  -0.00    -0.04  -0.01   0.00
  62   1     0.00  -0.00  -0.00     0.05  -0.02  -0.08    -0.06   0.02   0.08
  63   1     0.00   0.00   0.00    -0.08  -0.10  -0.13     0.08   0.10   0.14
  64   1     0.01   0.00  -0.00    -0.61  -0.19   0.04     0.62   0.19  -0.05
  65   1     0.00  -0.00   0.00    -0.01   0.01  -0.00    -0.01   0.01   0.00
  66   1    -0.00  -0.00   0.00     0.01   0.01   0.00    -0.01  -0.01   0.00
  67   1     0.01  -0.00  -0.00     0.62  -0.19  -0.04     0.61  -0.19  -0.04
  68   1     0.00  -0.00   0.00     0.08  -0.10   0.14     0.08  -0.10   0.13
  69   1    -0.00  -0.00   0.00    -0.05  -0.02   0.08    -0.05  -0.02   0.08
  70   1    -0.00   0.00   0.00    -0.04   0.01   0.00    -0.04   0.01   0.00
  71   1    -0.00  -0.00   0.00    -0.00  -0.00   0.00    -0.00  -0.00   0.00
  72   1    -0.00   0.00  -0.00    -0.00   0.00  -0.00    -0.00   0.00  -0.00
  73   1    -0.00   0.00   0.00     0.00   0.00   0.00     0.00   0.00   0.00
  74   1    -0.00   0.00  -0.00    -0.00   0.00  -0.00    -0.00   0.00  -0.00
  75   1    -0.00  -0.00   0.00    -0.00  -0.00  -0.00     0.00  -0.00   0.00
  76   1     0.00   0.00  -0.00    -0.00  -0.00   0.00    -0.00  -0.00   0.00
  77   1    -0.01   0.01   0.00    -0.00   0.00   0.00    -0.00   0.00   0.00
  78   1    -0.01   0.01  -0.02    -0.00   0.01  -0.01    -0.00   0.00  -0.01
  79   1     0.01   0.00  -0.01     0.01   0.00  -0.01     0.00   0.00  -0.01
  80   1     0.01  -0.00  -0.00     0.01  -0.01  -0.00     0.01  -0.00  -0.00
  81   1    -0.19  -0.46  -0.34     0.00   0.00   0.00     0.00   0.00   0.00
  82   1    -0.25   0.01  -0.12     0.00  -0.00   0.00     0.00  -0.00   0.00
  83   1    -0.09   0.13   0.02     0.00  -0.00  -0.00     0.00  -0.00  -0.00
  84   1     0.03   0.06   0.05    -0.00  -0.00  -0.00     0.00   0.00   0.00
  85   1     0.06  -0.00   0.03     0.00  -0.00   0.00     0.00  -0.00   0.00
  86   1     0.06   0.00   0.03    -0.00  -0.00  -0.00     0.00   0.00   0.00
  87   1     0.03  -0.06   0.05    -0.00   0.00  -0.00     0.00  -0.00   0.00
  88   1    -0.09  -0.12   0.02    -0.00  -0.00   0.00     0.00   0.00  -0.00
  89   1    -0.24  -0.01  -0.12    -0.00  -0.00  -0.00     0.00   0.00   0.00
  90   1    -0.19   0.44  -0.33    -0.00   0.00  -0.00     0.00  -0.00   0.00
  91   1     0.01   0.00  -0.00    -0.01  -0.01   0.00     0.01   0.00  -0.00
  92   1     0.01  -0.00  -0.01    -0.01   0.00   0.01     0.00  -0.00  -0.01
  93   1    -0.01  -0.01  -0.02     0.00   0.01   0.01    -0.00  -0.01  -0.01
  94   1    -0.01  -0.01   0.00     0.00   0.00  -0.00    -0.00  -0.00   0.00
