 Entering Gaussian System
 *********************************************
 Gaussian 98:
 frequency output generated by the xtb code
 *********************************************
                         Standard orientation:
 --------------------------------------------------------------------
  Center     Atomic     Atomic              Coordinates (Angstroms)
  Number     Number      Type              X           Y           Z
 --------------------------------------------------------------------
    1          6             0       -7.015732   -3.067195   -2.658335
    2          6             0       -6.616990   -2.223973   -1.633825
    3          6             0       -5.302516   -1.804304   -1.549564
    4          6             0       -4.358915   -2.225417   -2.486398
    5          6             0       -2.960876   -1.780806   -2.390732
    6          6             0       -1.915797   -2.686689   -2.637104
    7          6             0       -0.589538   -2.318556   -2.533440
    8          6             0       -0.309501   -1.010071   -2.171222
    9          7             0        0.892886   -0.389168   -1.964021
   10          6             0        0.684251    0.896772   -1.557018
   11          6             0        1.634837    1.890677   -1.192595
   12          6             0        2.978145    1.607464   -0.789155
   13          6             0        4.015463    2.512785   -1.110416
   14          6             0        5.334569    2.236545   -0.889479
   15          6             0        5.680306    1.016967   -0.257392
   16          6             0        4.658522    0.122916    0.135616
   17          7             0        5.240551   -0.926797    0.810654
   18          6             0        6.594478   -0.742518    0.866527
   19          6             0        7.574269   -1.531302    1.444083
   20          6             0        8.886685   -1.100859    1.347042
   21          6             0        9.212328    0.090341    0.689364
   22          6             0        8.244908    0.883993    0.114853
   23          6             0        6.909509    0.473847    0.192285
   24          6             0        3.302834    0.383188   -0.061381
   25          6             0        2.273285   -0.467186    0.488800
   26          6             0        2.342323   -1.868187    0.369324
   27          6             0        1.281929   -2.712408    0.680794
   28          6             0        1.410841   -4.158512    0.453860
   29          6             0        2.592067   -4.832211    0.762000
   30          6             0        2.708642   -6.192159    0.542970
   31          6             0        1.649073   -6.904631    0.005598
   32          6             0        0.470033   -6.246746   -0.306079
   33          6             0        0.349855   -4.888163   -0.081798
   34          6             0        0.076065   -2.180793    1.154168
   35          6             0       -0.011866   -0.811521    1.354800
   36          6             0        1.082932    0.033347    1.063790
   37          7             0        0.776107    1.305078    1.460880
   38          6             0       -0.520443    1.346601    1.901904
   39          6             0       -1.281516    2.422110    2.332154
   40          6             0       -2.594549    2.180756    2.683241
   41          6             0       -3.152402    0.893601    2.635353
   42          6             0       -4.564628    0.688137    2.992661
   43          6             0       -4.951900   -0.403904    3.767474
   44          6             0       -6.280877   -0.602577    4.092848
   45          6             0       -7.248357    0.282425    3.645488
   46          6             0       -6.876372    1.369908    2.872131
   47          6             0       -5.546937    1.573001    2.550963
   48          6             0       -2.371346   -0.184771    2.235493
   49          6             0       -1.056660    0.037645    1.858236
   50          6             0        1.110288    3.205891   -1.118059
   51          6             0       -0.243219    3.486519   -1.185264
   52          6             0       -0.712436    4.864818   -0.993911
   53          6             0       -0.030743    5.938969   -1.565635
   54          6             0       -0.474735    7.234879   -1.380935
   55          6             0       -1.603175    7.483258   -0.616008
   56          6             0       -2.288049    6.424545   -0.041156
   57          6             0       -1.850641    5.127384   -0.231519
   58          6             0       -1.178282    2.451945   -1.386408
   59          6             0       -0.700474    1.167721   -1.601308
   60          6             0       -1.345713   -0.070688   -1.943880
   61          6             0       -2.669336   -0.463474   -2.050382
   62          6             0       -4.772264   -3.075490   -3.511432
   63          6             0       -6.088759   -3.488858   -3.597816
   64          1             0       -8.043663   -3.392832   -2.725317
   65          1             0       -7.332844   -1.893455   -0.894492
   66          1             0       -4.997761   -1.159009   -0.738232
   67          1             0       -2.160898   -3.708141   -2.887815
   68          1             0        0.203113   -3.030934   -2.707673
   69          1             0        1.791636   -0.839336   -2.016351
   70          1             0        3.749831    3.421665   -1.629902
   71          1             0        6.107900    2.924476   -1.193782
   72          1             0        4.733965   -1.654813    1.285552
   73          1             0        7.323684   -2.449614    1.954898
   74          1             0        9.675224   -1.693703    1.786359
   75          1             0       10.249545    0.389142    0.636159
   76          1             0        8.505921    1.802422   -0.389304
   77          1             0        3.212311   -2.298920   -0.106534
   78          1             0        3.418237   -4.289692    1.198833
   79          1             0        3.629187   -6.699656    0.794275
   80          1             0        1.741274   -7.966910   -0.167565
   81          1             0       -0.359168   -6.796064   -0.728691
   82          1             0       -0.565012   -4.377365   -0.343854
   83          1             0       -0.756154   -2.825372    1.385962
   84          1             0        1.365909    2.109177    1.327290
   85          1             0       -0.865170    3.417611    2.375177
   86          1             0       -3.209950    3.001647    3.021275
   87          1             0       -4.200277   -1.089471    4.131955
   88          1             0       -6.564049   -1.450715    4.700123
   89          1             0       -8.286925    0.125310    3.898345
   90          1             0       -7.626926    2.061483    2.516079
   91          1             0       -5.266466    2.414519    1.933638
   92          1             0       -2.794419   -1.176681    2.181932
   93          1             0        1.788579    4.008757   -0.870487
   94          1             0        0.840204    5.750843   -2.176911
   95          1             0        0.060068    8.055846   -1.837113
   96          1             0       -1.947554    8.496674   -0.469763
   97          1             0       -3.166852    6.612747    0.559200
   98          1             0       -2.377457    4.306470    0.232496
   99          1             0       -2.233280    2.665134   -1.434476
  100          1             0       -3.465079    0.245914   -1.880812
  101          1             0       -4.059599   -3.393881   -4.258672
  102          1             0       -6.394735   -4.141430   -4.403261
 --------------------------------------------------------------------
     1 basis functions        1 primitive gaussians
     1 alpha electrons        1 beta electrons
 
 Harmonic frequencies (cm**-1), IR intensities (km*mol⁻¹),
 Raman scattering activities (A**4/amu), Raman depolarization ratios,
 reduced masses (AMU), force constants (mDyne/A) and normal coordinates:
                      1                      2                      3
                        a                      a                      a 
 Frequencies --    11.9543                13.7906                16.4087
 Red. masses --    11.1105                11.1514                11.0528
 Frc consts  --     0.0000                 0.0000                 0.0000
 IR Inten    --     0.2347                 0.1849                 0.4335
 Raman Activ --     0.0000                 0.0000                 0.0000
 Depolar     --     0.0000                 0.0000                 0.0000
 Atom AN      X      Y      Z        X      Y      Z        X      Y      Z
   1   6     0.04  -0.02  -0.08     0.12  -0.19  -0.10    -0.05   0.14  -0.34
   2   6     0.04  -0.03  -0.07     0.09  -0.20  -0.08    -0.09   0.10  -0.29
   3   6     0.04  -0.03  -0.07     0.08  -0.16  -0.06    -0.08   0.05  -0.19
   4   6     0.04  -0.01  -0.07     0.10  -0.12  -0.07    -0.03   0.05  -0.14
   5   6     0.04  -0.01  -0.07     0.08  -0.08  -0.05    -0.03   0.02  -0.06
   6   6     0.04  -0.00  -0.07     0.11  -0.05  -0.07    -0.03  -0.00  -0.01
   7   6     0.04   0.00  -0.07     0.10  -0.02  -0.05    -0.03  -0.02   0.04
   8   6     0.03   0.00  -0.06     0.06  -0.02  -0.03    -0.03  -0.02   0.03
   9   7     0.03   0.01  -0.06     0.05   0.00  -0.01    -0.03  -0.02   0.06
  10   6     0.02   0.01  -0.06     0.02  -0.01   0.01    -0.02  -0.02   0.03
  11   6     0.02   0.01  -0.05    -0.01   0.00   0.03    -0.02  -0.01   0.03
  12   6     0.00   0.01  -0.02    -0.00   0.01   0.03    -0.02  -0.01   0.01
  13   6     0.02   0.00   0.01    -0.01   0.02   0.05    -0.03  -0.01  -0.02
  14   6     0.01   0.00   0.05    -0.01   0.01   0.03    -0.02  -0.01  -0.05
  15   6    -0.01  -0.00   0.05    -0.00  -0.00  -0.01    -0.01  -0.01  -0.05
  16   6    -0.02  -0.00   0.02     0.00  -0.01  -0.01     0.00  -0.00  -0.01
  17   7    -0.05  -0.00   0.04     0.01  -0.03  -0.05     0.03   0.00  -0.02
  18   6    -0.05  -0.00   0.08     0.01  -0.03  -0.06     0.03  -0.00  -0.07
  19   6    -0.07  -0.00   0.11     0.02  -0.05  -0.10     0.04  -0.00  -0.10
  20   6    -0.06  -0.00   0.16     0.02  -0.06  -0.11     0.04  -0.01  -0.15
  21   6    -0.04  -0.00   0.17     0.01  -0.04  -0.09     0.02  -0.01  -0.17
  22   6    -0.02  -0.00   0.14     0.00  -0.02  -0.05     0.01  -0.01  -0.14
  23   6    -0.03  -0.00   0.09     0.00  -0.02  -0.04     0.01  -0.01  -0.09
  24   6    -0.02   0.00  -0.02    -0.00   0.00   0.01    -0.00  -0.00   0.02
  25   6    -0.03   0.00  -0.04    -0.01   0.01   0.02     0.01  -0.00   0.04
  26   6    -0.03   0.01  -0.04    -0.03   0.01   0.01     0.02  -0.00   0.07
  27   6    -0.03   0.01  -0.04    -0.05   0.03   0.00     0.03  -0.01   0.08
  28   6    -0.04   0.01  -0.05    -0.08   0.03  -0.01     0.05  -0.01   0.13
  29   6    -0.04  -0.00  -0.07    -0.09   0.00  -0.00     0.05   0.01   0.18
  30   6    -0.05   0.00  -0.09    -0.12   0.00  -0.01     0.07   0.01   0.23
  31   6    -0.06   0.01  -0.09    -0.13   0.03  -0.02     0.08  -0.03   0.24
  32   6    -0.06   0.02  -0.08    -0.12   0.05  -0.02     0.08  -0.05   0.19
  33   6    -0.05   0.02  -0.06    -0.09   0.06  -0.02     0.06  -0.04   0.14
  34   6    -0.03   0.01  -0.02    -0.04   0.05   0.00     0.02  -0.01   0.06
  35   6    -0.03   0.01  -0.02    -0.02   0.05   0.01     0.01  -0.00   0.04
  36   6    -0.03   0.01  -0.04     0.00   0.03   0.02     0.00  -0.00   0.04
  37   7    -0.03   0.01  -0.06     0.04   0.03   0.04    -0.00  -0.00   0.03
  38   6    -0.02   0.01  -0.03     0.03   0.06   0.04    -0.01  -0.00   0.02
  39   6    -0.02   0.01  -0.02     0.06   0.07   0.06    -0.01  -0.00   0.01
  40   6    -0.01   0.00   0.02     0.05   0.09   0.05    -0.01  -0.01   0.01
  41   6     0.01  -0.00   0.07     0.02   0.11   0.03    -0.00  -0.01   0.03
  42   6     0.03  -0.01   0.16     0.01   0.14   0.02     0.01  -0.02   0.05
  43   6     0.11   0.02   0.24    -0.02   0.13  -0.01     0.03  -0.00   0.08
  44   6     0.13   0.01   0.35    -0.03   0.17  -0.01     0.04  -0.01   0.11
  45   6     0.09  -0.02   0.38     0.00   0.21   0.01     0.02  -0.03   0.11
  46   6     0.01  -0.05   0.30     0.04   0.22   0.04    -0.00  -0.04   0.08
  47   6    -0.01  -0.05   0.20     0.04   0.19   0.05    -0.01  -0.04   0.05
  48   6    -0.00   0.00   0.04    -0.00   0.10   0.01     0.00  -0.01   0.03
  49   6    -0.02   0.01  -0.01     0.00   0.07   0.02     0.00  -0.01   0.03
  50   6     0.01   0.01  -0.06    -0.03  -0.01   0.05    -0.02  -0.01   0.03
  51   6     0.01   0.01  -0.07    -0.04  -0.04   0.05    -0.02  -0.01   0.01
  52   6     0.01   0.01  -0.09    -0.07  -0.05   0.08    -0.02  -0.01   0.01
  53   6     0.01   0.00  -0.10    -0.10  -0.03   0.09    -0.01  -0.01   0.03
  54   6     0.00   0.00  -0.12    -0.12  -0.04   0.12    -0.01  -0.01   0.03
  55   6    -0.01   0.01  -0.13    -0.12  -0.08   0.13    -0.02  -0.01   0.02
  56   6    -0.01   0.01  -0.12    -0.10  -0.10   0.11    -0.02  -0.01   0.01
  57   6     0.00   0.01  -0.10    -0.07  -0.09   0.09    -0.03  -0.01   0.00
  58   6     0.02   0.00  -0.07    -0.02  -0.05   0.04    -0.02  -0.01  -0.00
  59   6     0.02   0.00  -0.06     0.01  -0.04   0.02    -0.02  -0.01   0.01
  60   6     0.03   0.00  -0.07     0.04  -0.05  -0.01    -0.02  -0.00   0.00
  61   6     0.03  -0.01  -0.07     0.05  -0.08  -0.02    -0.02   0.01  -0.04
  62   6     0.04  -0.01  -0.08     0.13  -0.11  -0.09     0.01   0.08  -0.19
  63   6     0.04  -0.01  -0.08     0.14  -0.15  -0.10     0.00   0.13  -0.29
  64   1     0.01  -0.01  -0.02     0.04  -0.06  -0.03    -0.02   0.05  -0.12
  65   1     0.01  -0.01  -0.02     0.02  -0.07  -0.02    -0.04   0.03  -0.10
  66   1     0.01  -0.01  -0.02     0.02  -0.05  -0.01    -0.03   0.01  -0.05
  67   1     0.01  -0.00  -0.02     0.04  -0.01  -0.03    -0.01   0.00  -0.00
  68   1     0.01   0.00  -0.02     0.03   0.00  -0.02    -0.01  -0.01   0.02
  69   1     0.01   0.00  -0.02     0.02   0.01  -0.00    -0.01  -0.01   0.02
  70   1     0.01   0.00   0.00    -0.00   0.01   0.02    -0.01  -0.00  -0.01
  71   1     0.01  -0.00   0.02    -0.00   0.01   0.01    -0.01  -0.00  -0.02
  72   1    -0.02  -0.00   0.01     0.00  -0.01  -0.02     0.01   0.00   0.00
  73   1    -0.02  -0.00   0.03     0.01  -0.02  -0.03     0.02   0.00  -0.02
  74   1    -0.02  -0.00   0.05     0.01  -0.02  -0.04     0.02  -0.00  -0.05
  75   1    -0.01  -0.00   0.06     0.00  -0.01  -0.03     0.01  -0.01  -0.06
  76   1    -0.00  -0.00   0.04    -0.00  -0.00  -0.01    -0.00  -0.01  -0.04
  77   1    -0.01   0.00  -0.01    -0.01  -0.00   0.00     0.01  -0.00   0.02
  78   1    -0.01  -0.00  -0.02    -0.02  -0.00   0.00     0.01   0.01   0.05
  79   1    -0.02  -0.00  -0.03    -0.04  -0.01  -0.00     0.02   0.01   0.08
  80   1    -0.02   0.00  -0.03    -0.04   0.01  -0.01     0.03  -0.01   0.08
  81   1    -0.02   0.01  -0.02    -0.04   0.02  -0.01     0.03  -0.02   0.06
  82   1    -0.01   0.01  -0.01    -0.02   0.02  -0.01     0.02  -0.02   0.03
  83   1    -0.01   0.00  -0.00    -0.02   0.02  -0.00     0.01  -0.00   0.02
  84   1    -0.01   0.00  -0.02     0.02   0.01   0.02    -0.00   0.00   0.01
  85   1    -0.01   0.00  -0.01     0.02   0.02   0.02    -0.01  -0.00  -0.00
  86   1    -0.00   0.00   0.01     0.02   0.03   0.02    -0.00  -0.00   0.00
  87   1     0.04   0.01   0.06    -0.01   0.03  -0.01     0.01   0.00   0.02
  88   1     0.06   0.01   0.12    -0.02   0.05  -0.01     0.02   0.00   0.04
  89   1     0.03  -0.01   0.14    -0.00   0.07   0.00     0.01  -0.01   0.04
  90   1    -0.01  -0.02   0.10     0.02   0.07   0.02    -0.00  -0.02   0.02
  91   1    -0.02  -0.02   0.04     0.02   0.06   0.02    -0.01  -0.01   0.01
  92   1     0.00  -0.00   0.02    -0.01   0.03  -0.00     0.00  -0.00   0.01
  93   1     0.00   0.00  -0.02    -0.01   0.00   0.02    -0.01  -0.00   0.01
  94   1     0.00  -0.00  -0.03    -0.03   0.00   0.02    -0.00  -0.00   0.01
  95   1     0.00  -0.00  -0.04    -0.04  -0.01   0.04    -0.00  -0.00   0.01
  96   1    -0.00   0.00  -0.04    -0.04  -0.03   0.04    -0.00  -0.00   0.01
  97   1    -0.00   0.01  -0.04    -0.03  -0.04   0.04    -0.01  -0.00  -0.00
  98   1     0.00   0.00  -0.03    -0.01  -0.03   0.02    -0.01  -0.00  -0.00
  99   1     0.00   0.00  -0.02    -0.01  -0.02   0.01    -0.01  -0.00  -0.01
 100   1     0.01  -0.00  -0.02     0.01  -0.03  -0.00    -0.01   0.01  -0.02
 101   1     0.01   0.00  -0.02     0.04  -0.02  -0.03     0.02   0.02  -0.04
 102   1     0.01  -0.00  -0.03     0.05  -0.04  -0.03     0.01   0.05  -0.09
                      4                      5                      6
                        a                      a                      a 
 Frequencies --    22.3743                24.4246                32.9489
 Red. masses --    11.1129                11.1213                10.0617
 Frc consts  --     0.0000                 0.0000                 0.0000
 IR Inten    --     0.1857                 4.4827                 0.2532
 Raman Activ --     0.0000                 0.0000                 0.0000
 Depolar     --     0.0000                 0.0000                 0.0000
 Atom AN      X      Y      Z        X      Y      Z        X      Y      Z
   1   6     0.08  -0.03   0.00     0.09  -0.11   0.15    -0.01   0.01  -0.05
   2   6     0.06  -0.03   0.01     0.10  -0.06   0.10    -0.03   0.02  -0.05
   3   6     0.05  -0.01   0.02     0.09  -0.01   0.03    -0.03   0.00  -0.02
   4   6     0.06   0.01   0.02     0.07  -0.00   0.01    -0.01  -0.02   0.02
   5   6     0.06   0.02   0.03     0.06   0.03  -0.05    -0.01  -0.03   0.04
   6   6     0.07   0.04   0.04     0.07   0.04  -0.05    -0.01  -0.04   0.08
   7   6     0.06   0.05   0.05     0.07   0.06  -0.08    -0.01  -0.04   0.09
   8   6     0.04   0.05   0.06     0.05   0.07  -0.09    -0.01  -0.04   0.06
   9   7     0.04   0.06   0.09     0.05   0.09  -0.10    -0.01  -0.04   0.06
  10   6     0.02   0.05   0.09     0.03   0.07  -0.08    -0.01  -0.03   0.03
  11   6     0.01   0.06   0.11     0.03   0.07  -0.05    -0.01  -0.02   0.01
  12   6     0.00   0.05   0.12     0.01   0.04  -0.03    -0.00  -0.01   0.01
  13   6     0.01   0.05   0.14     0.03   0.03  -0.00    -0.01  -0.02  -0.02
  14   6     0.01   0.01   0.10     0.03  -0.01   0.00    -0.00  -0.02  -0.03
  15   6     0.00  -0.02   0.04    -0.01  -0.03  -0.01     0.00  -0.00  -0.01
  16   6    -0.01  -0.00   0.06    -0.04  -0.00  -0.02     0.01   0.01   0.02
  17   7    -0.01  -0.04   0.00    -0.07  -0.03  -0.03     0.01   0.02   0.04
  18   6     0.00  -0.09  -0.06    -0.06  -0.07  -0.04     0.02   0.02   0.01
  19   6     0.01  -0.15  -0.15    -0.08  -0.12  -0.06     0.02   0.02   0.01
  20   6     0.02  -0.19  -0.22    -0.07  -0.17  -0.07     0.02   0.02  -0.02
  21   6     0.02  -0.18  -0.20    -0.03  -0.17  -0.06     0.02   0.00  -0.05
  22   6     0.02  -0.12  -0.10    -0.01  -0.13  -0.04     0.01  -0.01  -0.05
  23   6     0.01  -0.07  -0.04    -0.02  -0.08  -0.03     0.01   0.00  -0.02
  24   6    -0.01   0.03   0.10    -0.03   0.03  -0.03     0.00   0.00   0.03
  25   6    -0.01   0.03   0.09    -0.05   0.04  -0.05     0.01   0.01   0.06
  26   6    -0.01   0.03   0.06    -0.04   0.04  -0.03     0.01   0.01   0.06
  27   6    -0.01   0.02   0.05    -0.03   0.03  -0.01     0.02   0.00   0.07
  28   6    -0.01   0.03   0.00     0.00   0.02   0.05     0.01   0.01   0.00
  29   6    -0.01   0.02  -0.03     0.00   0.06   0.13     0.02  -0.01  -0.09
  30   6    -0.01   0.03  -0.09     0.03   0.05   0.20     0.01   0.01  -0.19
  31   6    -0.01   0.05  -0.11     0.05   0.00   0.21    -0.01   0.04  -0.20
  32   6    -0.01   0.06  -0.07     0.05  -0.03   0.14    -0.02   0.06  -0.10
  33   6    -0.01   0.05  -0.02     0.03  -0.02   0.06    -0.02   0.05   0.00
  34   6    -0.01   0.01   0.06    -0.03   0.03  -0.02     0.03  -0.00   0.10
  35   6    -0.01   0.01   0.08    -0.05   0.03  -0.06     0.02   0.00   0.09
  36   6    -0.01   0.02   0.09    -0.06   0.04  -0.07     0.01   0.01   0.06
  37   7    -0.03   0.02   0.10    -0.09   0.05  -0.10    -0.01   0.02   0.00
  38   6    -0.04   0.00   0.08    -0.09   0.03  -0.10    -0.02   0.02  -0.03
  39   6    -0.06  -0.01   0.06    -0.11   0.02  -0.12    -0.05   0.04  -0.14
  40   6    -0.06  -0.02   0.05    -0.10   0.00  -0.10    -0.06   0.04  -0.17
  41   6    -0.04  -0.03   0.05    -0.07  -0.01  -0.06    -0.02   0.02  -0.06
  42   6    -0.05  -0.05   0.02    -0.06  -0.04  -0.02    -0.02   0.02  -0.05
  43   6    -0.04  -0.06   0.01     0.00  -0.01   0.04     0.04   0.22   0.25
  44   6    -0.05  -0.09  -0.02     0.02  -0.04   0.09     0.05   0.23   0.29
  45   6    -0.05  -0.10  -0.04    -0.03  -0.10   0.07     0.00   0.04   0.02
  46   6    -0.06  -0.09  -0.03    -0.08  -0.13   0.00    -0.06  -0.17  -0.30
  47   6    -0.05  -0.07   0.00    -0.10  -0.10  -0.04    -0.06  -0.16  -0.32
  48   6    -0.02  -0.02   0.06    -0.06  -0.00  -0.05     0.01   0.00   0.05
  49   6    -0.02  -0.00   0.07    -0.06   0.02  -0.07     0.01   0.01   0.04
  50   6     0.01   0.06   0.08     0.03   0.07  -0.03    -0.00  -0.02   0.01
  51   6     0.01   0.05   0.03     0.03   0.06  -0.04    -0.00  -0.02  -0.00
  52   6    -0.01   0.06  -0.06     0.03   0.05   0.03     0.00  -0.02   0.02
  53   6    -0.00   0.03  -0.12     0.05   0.09   0.11     0.03  -0.01   0.08
  54   6    -0.04   0.03  -0.24     0.07   0.08   0.20     0.05  -0.01   0.12
  55   6    -0.07   0.07  -0.31     0.06   0.04   0.20     0.04  -0.02   0.10
  56   6    -0.07   0.11  -0.24     0.03   0.01   0.11    -0.00  -0.03   0.03
  57   6    -0.04   0.10  -0.11     0.01   0.02   0.02    -0.02  -0.03  -0.01
  58   6     0.01   0.04   0.04     0.03   0.06  -0.07    -0.00  -0.02  -0.01
  59   6     0.02   0.04   0.07     0.03   0.07  -0.09    -0.00  -0.02   0.01
  60   6     0.03   0.04   0.06     0.04   0.06  -0.09    -0.01  -0.03   0.03
  61   6     0.04   0.03   0.04     0.05   0.04  -0.07    -0.01  -0.03   0.02
  62   6     0.08   0.01   0.01     0.06  -0.05   0.05     0.01  -0.03   0.02
  63   6     0.09  -0.01   0.00     0.07  -0.10   0.12     0.01  -0.02  -0.01
  64   1     0.02  -0.01  -0.00     0.03  -0.04   0.06    -0.00   0.00  -0.02
  65   1     0.01  -0.01   0.00     0.04  -0.02   0.04    -0.01   0.01  -0.02
  66   1     0.01  -0.00   0.01     0.03   0.01   0.00    -0.01   0.00  -0.00
  67   1     0.02   0.01   0.01     0.02   0.01  -0.01    -0.00  -0.01   0.03
  68   1     0.02   0.02   0.02     0.02   0.02  -0.02    -0.00  -0.01   0.03
  69   1     0.01   0.02   0.03     0.01   0.03  -0.03    -0.00  -0.01   0.02
  70   1     0.01   0.02   0.05     0.02   0.01   0.00    -0.00  -0.01  -0.01
  71   1     0.00   0.00   0.03     0.01  -0.01   0.00    -0.00  -0.01  -0.02
  72   1    -0.00  -0.01   0.00    -0.03  -0.00  -0.01     0.01   0.01   0.02
  73   1     0.00  -0.05  -0.05    -0.03  -0.03  -0.02     0.01   0.01   0.01
  74   1     0.01  -0.07  -0.09    -0.02  -0.06  -0.02     0.01   0.01  -0.01
  75   1     0.01  -0.06  -0.07    -0.01  -0.06  -0.02     0.00  -0.00  -0.02
  76   1     0.01  -0.03  -0.03     0.01  -0.04  -0.01     0.00  -0.01  -0.02
  77   1    -0.00   0.01   0.01    -0.01   0.01  -0.01     0.00   0.00   0.01
  78   1    -0.00   0.00  -0.01    -0.01   0.03   0.04     0.01  -0.01  -0.03
  79   1    -0.00   0.01  -0.03     0.01   0.02   0.08     0.01  -0.00  -0.08
  80   1    -0.00   0.02  -0.05     0.02  -0.00   0.08    -0.00   0.02  -0.08
  81   1    -0.00   0.02  -0.03     0.02  -0.02   0.04    -0.01   0.03  -0.03
  82   1    -0.00   0.02   0.00     0.01  -0.01   0.00    -0.01   0.02   0.02
  83   1    -0.00   0.00   0.02    -0.01   0.01  -0.00     0.01  -0.00   0.03
  84   1    -0.01   0.01   0.03    -0.03   0.01  -0.03    -0.01   0.01  -0.01
  85   1    -0.02   0.00   0.02    -0.04   0.01  -0.04    -0.02   0.01  -0.06
  86   1    -0.02  -0.01   0.01    -0.03  -0.00  -0.03    -0.03   0.02  -0.08
  87   1    -0.01  -0.01   0.01     0.01   0.01   0.02     0.03   0.11   0.13
  88   1    -0.01  -0.03  -0.01     0.02  -0.01   0.04     0.03   0.11   0.15
  89   1    -0.02  -0.04  -0.02    -0.00  -0.04   0.03     0.00   0.01   0.01
  90   1    -0.02  -0.03  -0.01    -0.03  -0.05  -0.00    -0.03  -0.09  -0.15
  91   1    -0.02  -0.02   0.00    -0.04  -0.03  -0.03    -0.03  -0.09  -0.16
  92   1    -0.00  -0.01   0.02    -0.01  -0.00  -0.01     0.01  -0.00   0.04
  93   1    -0.00   0.02   0.02     0.01   0.02  -0.00    -0.00  -0.01   0.00
  94   1     0.01  -0.00  -0.02     0.02   0.03   0.03     0.01   0.00   0.03
  95   1    -0.01   0.00  -0.08     0.03   0.03   0.08     0.02   0.00   0.05
  96   1    -0.03   0.02  -0.12     0.02   0.01   0.08     0.01  -0.01   0.04
  97   1    -0.03   0.04  -0.08     0.01  -0.01   0.03    -0.01  -0.01   0.00
  98   1    -0.01   0.04  -0.02    -0.00  -0.00  -0.01    -0.01  -0.01  -0.02
  99   1     0.00   0.01   0.00     0.01   0.02  -0.02    -0.00  -0.01  -0.01
 100   1     0.01   0.00   0.01     0.01   0.01  -0.02    -0.00  -0.01  -0.00
 101   1     0.03   0.01   0.00     0.01  -0.01   0.01     0.01  -0.01   0.01
 102   1     0.03  -0.00  -0.00     0.02  -0.04   0.04     0.01  -0.01  -0.00
                      7                      8                      9
                        a                      a                      a 
 Frequencies --    40.1342                41.9583                44.4079
 Red. masses --    10.7275                10.7928                10.7458
 Frc consts  --     0.0000                 0.0000                 0.0000
 IR Inten    --     1.5537                 0.5990                 1.2278
 Raman Activ --     0.0000                 0.0000                 0.0000
 Depolar     --     0.0000                 0.0000                 0.0000
 Atom AN      X      Y      Z        X      Y      Z        X      Y      Z
   1   6    -0.03   0.15   0.10     0.02  -0.03  -0.01    -0.03   0.24   0.01
   2   6     0.04   0.11   0.11     0.03  -0.07   0.02     0.00   0.29  -0.05
   3   6     0.06   0.06   0.06     0.02  -0.05   0.02     0.04   0.18  -0.03
   4   6     0.01   0.06   0.01     0.01   0.00  -0.01     0.04   0.02   0.04
   5   6     0.02   0.04  -0.03     0.01   0.01  -0.01     0.05  -0.03   0.03
   6   6     0.01   0.05  -0.09     0.01   0.02  -0.04     0.05  -0.05   0.07
   7   6     0.02   0.04  -0.10     0.01   0.02  -0.04     0.05  -0.06   0.05
   8   6     0.03   0.03  -0.07     0.00   0.02  -0.02     0.07  -0.05   0.01
   9   7     0.03   0.04  -0.06     0.00   0.02  -0.02     0.08  -0.04  -0.01
  10   6     0.02   0.02  -0.01     0.00   0.01   0.00     0.07  -0.03  -0.04
  11   6     0.01   0.02   0.03     0.01   0.01   0.00     0.05  -0.01  -0.05
  12   6     0.00   0.02   0.05     0.00   0.01  -0.00     0.06   0.00  -0.04
  13   6     0.00   0.06   0.15    -0.01   0.04   0.02     0.07  -0.04  -0.09
  14   6    -0.00   0.07   0.17    -0.01   0.06   0.02     0.07  -0.06  -0.09
  15   6     0.00   0.02   0.08     0.01   0.04  -0.01     0.05  -0.04  -0.03
  16   6     0.01  -0.03  -0.03     0.02   0.01  -0.04     0.03   0.01   0.02
  17   7     0.01  -0.09  -0.12     0.05  -0.00  -0.08     0.00   0.04   0.08
  18   6     0.01  -0.06  -0.06     0.04   0.03  -0.05     0.01  -0.00   0.06
  19   6     0.01  -0.10  -0.11     0.06   0.05  -0.06    -0.01   0.00   0.10
  20   6     0.00  -0.06  -0.02     0.04   0.10  -0.02     0.00  -0.05   0.05
  21   6    -0.01   0.01   0.10     0.02   0.13   0.03     0.03  -0.10  -0.02
  22   6    -0.00   0.05   0.15     0.00   0.11   0.03     0.05  -0.10  -0.06
  23   6     0.00   0.01   0.07     0.02   0.07  -0.01     0.04  -0.05  -0.02
  24   6     0.01  -0.03  -0.03     0.02  -0.00  -0.03     0.03   0.03   0.01
  25   6     0.02  -0.06  -0.06     0.02  -0.01  -0.03     0.02   0.06   0.02
  26   6     0.01  -0.06  -0.08    -0.00  -0.01  -0.04     0.01   0.05   0.04
  27   6     0.01  -0.05  -0.06    -0.01   0.01  -0.02     0.01   0.06   0.03
  28   6     0.02  -0.06  -0.02    -0.10  -0.00  -0.00    -0.02   0.06   0.01
  29   6     0.01  -0.04   0.06    -0.15  -0.09  -0.00    -0.02   0.03  -0.05
  30   6     0.03  -0.05   0.13    -0.29  -0.12   0.09    -0.07   0.03  -0.08
  31   6     0.05  -0.08   0.12    -0.38  -0.06   0.19    -0.11   0.06  -0.03
  32   6     0.06  -0.10   0.04    -0.32   0.03   0.16    -0.11   0.09   0.04
  33   6     0.05  -0.09  -0.03    -0.18   0.06   0.07    -0.07   0.09   0.06
  34   6     0.02  -0.06  -0.05     0.01   0.03   0.01     0.01   0.07   0.03
  35   6     0.02  -0.06  -0.04     0.04   0.02   0.02     0.01   0.07   0.01
  36   6     0.03  -0.06  -0.04     0.04   0.01  -0.00     0.01   0.07  -0.00
  37   7     0.05  -0.07  -0.02     0.05   0.02   0.01    -0.01   0.09  -0.03
  38   6     0.05  -0.05  -0.02     0.05   0.02   0.03    -0.01   0.07  -0.03
  39   6     0.06  -0.04  -0.03     0.04   0.02   0.02    -0.03   0.06  -0.03
  40   6     0.06  -0.02  -0.04     0.04   0.00   0.03    -0.02   0.04  -0.02
  41   6     0.05  -0.01  -0.03     0.06  -0.00   0.04    -0.00   0.04  -0.01
  42   6     0.04   0.02  -0.03     0.06  -0.05   0.02     0.01  -0.01   0.00
  43   6     0.03   0.11   0.09     0.10  -0.04   0.05     0.04  -0.08  -0.07
  44   6     0.03   0.16   0.11     0.10  -0.13  -0.02     0.05  -0.15  -0.09
  45   6     0.04   0.11  -0.00     0.05  -0.23  -0.12     0.02  -0.16  -0.03
  46   6     0.05   0.01  -0.13     0.01  -0.24  -0.15    -0.02  -0.08   0.06
  47   6     0.05  -0.03  -0.14     0.02  -0.14  -0.08    -0.03  -0.01   0.07
  48   6     0.03  -0.03  -0.02     0.06   0.01   0.05     0.01   0.05  -0.01
  49   6     0.03  -0.05  -0.02     0.06   0.02   0.04     0.01   0.07  -0.01
  50   6    -0.01   0.02   0.06     0.00   0.01   0.00     0.04  -0.01  -0.05
  51   6    -0.01   0.01   0.06     0.01   0.01   0.01     0.03  -0.03  -0.04
  52   6    -0.07  -0.01   0.04     0.02   0.02  -0.00    -0.03  -0.06   0.00
  53   6    -0.13   0.01   0.02     0.02   0.00  -0.03    -0.09   0.00   0.07
  54   6    -0.24  -0.01  -0.06     0.04   0.01  -0.03    -0.20  -0.03   0.08
  55   6    -0.29  -0.06  -0.12     0.06   0.03  -0.01    -0.25  -0.14   0.04
  56   6    -0.22  -0.09  -0.08     0.05   0.05   0.01    -0.19  -0.21  -0.01
  57   6    -0.11  -0.06   0.00     0.03   0.04   0.01    -0.08  -0.17  -0.03
  58   6     0.01  -0.00   0.03     0.00   0.01   0.02     0.05  -0.05  -0.05
  59   6     0.02   0.01   0.00     0.00   0.01   0.01     0.07  -0.04  -0.05
  60   6     0.03   0.02  -0.03     0.00   0.01   0.01     0.07  -0.04  -0.03
  61   6     0.03   0.03  -0.01     0.00   0.01   0.01     0.07  -0.02  -0.02
  62   6    -0.06   0.10   0.01     0.01   0.04  -0.05     0.00  -0.03   0.10
  63   6    -0.08   0.14   0.05     0.01   0.03  -0.04    -0.03   0.08   0.08
  64   1    -0.01   0.05   0.04     0.01  -0.01  -0.00    -0.02   0.10  -0.00
  65   1     0.02   0.03   0.04     0.01  -0.03   0.02     0.00   0.12  -0.03
  66   1     0.03   0.01   0.02     0.01  -0.02   0.01     0.02   0.06  -0.02
  67   1     0.00   0.02  -0.03     0.00   0.01  -0.02     0.01  -0.02   0.03
  68   1     0.00   0.01  -0.04     0.00   0.01  -0.01     0.01  -0.02   0.02
  69   1     0.01   0.01  -0.02     0.00   0.01  -0.01     0.02  -0.01   0.00
  70   1     0.00   0.03   0.06    -0.01   0.01   0.01     0.02  -0.01  -0.04
  71   1    -0.00   0.03   0.07    -0.00   0.02   0.01     0.02  -0.03  -0.04
  72   1     0.00  -0.04  -0.05     0.02  -0.01  -0.03    -0.00   0.02   0.04
  73   1     0.00  -0.04  -0.06     0.02   0.01  -0.03    -0.01   0.01   0.04
  74   1    -0.00  -0.02  -0.02     0.02   0.03  -0.01    -0.00  -0.01   0.02
  75   1    -0.00   0.01   0.05     0.00   0.05   0.02     0.01  -0.04  -0.02
  76   1    -0.00   0.03   0.07    -0.01   0.04   0.02     0.02  -0.04  -0.03
  77   1    -0.00  -0.02  -0.03    -0.00  -0.01  -0.01     0.01   0.01   0.02
  78   1    -0.00  -0.01   0.02    -0.03  -0.04  -0.02     0.00   0.00  -0.03
  79   1     0.00  -0.01   0.05    -0.10  -0.05   0.03    -0.02   0.00  -0.04
  80   1     0.02  -0.03   0.05    -0.14  -0.02   0.08    -0.04   0.02  -0.01
  81   1     0.02  -0.03   0.01    -0.11   0.02   0.07    -0.04   0.03   0.02
  82   1     0.02  -0.03  -0.02    -0.04   0.04   0.01    -0.02   0.03   0.03
  83   1     0.01  -0.02  -0.01     0.00   0.01   0.01     0.00   0.02   0.01
  84   1     0.02  -0.02  -0.00     0.01   0.00  -0.00    -0.00   0.02  -0.01
  85   1     0.02  -0.01  -0.01     0.01   0.01   0.00    -0.01   0.02  -0.01
  86   1     0.02  -0.00  -0.02     0.01   0.00   0.00    -0.01   0.01  -0.00
  87   1     0.01   0.04   0.05     0.04   0.01   0.04     0.02  -0.02  -0.03
  88   1     0.01   0.07   0.06     0.04  -0.04   0.00     0.02  -0.06  -0.04
  89   1     0.01   0.04   0.00     0.01  -0.09  -0.05     0.01  -0.06  -0.01
  90   1     0.01  -0.01  -0.06    -0.01  -0.09  -0.06    -0.01  -0.02   0.03
  91   1     0.02  -0.03  -0.07    -0.00  -0.04  -0.03    -0.02   0.01   0.04
  92   1     0.00  -0.01   0.00     0.02   0.00   0.02     0.01   0.01  -0.00
  93   1    -0.01   0.01   0.02     0.00   0.00  -0.00     0.01  -0.00  -0.01
  94   1    -0.03   0.02   0.02     0.00  -0.00  -0.01    -0.01   0.03   0.03
  95   1    -0.08   0.00  -0.02     0.01  -0.00  -0.02    -0.07   0.01   0.04
  96   1    -0.11  -0.02  -0.05     0.02   0.01  -0.00    -0.10  -0.05   0.01
  97   1    -0.07  -0.04  -0.03     0.02   0.02   0.01    -0.07  -0.08  -0.01
  98   1    -0.02  -0.02   0.01     0.01   0.01   0.01    -0.01  -0.06  -0.02
  99   1     0.00  -0.00   0.01     0.00   0.00   0.01     0.01  -0.02  -0.02
 100   1     0.01   0.01   0.01    -0.00  -0.00   0.01     0.02  -0.00  -0.02
 101   1    -0.03   0.03  -0.01     0.00   0.03  -0.02     0.00  -0.05   0.04
 102   1    -0.04   0.05   0.01     0.00   0.02  -0.02    -0.02   0.01   0.04
                     10                     11                     12
                        a                      a                      a 
 Frequencies --    45.5647                49.3139                53.9021
 Red. masses --    10.2014                10.2049                10.2240
 Frc consts  --     0.0000                 0.0000                 0.0000
 IR Inten    --     2.6254                 0.9016                 3.3922
 Raman Activ --     0.0000                 0.0000                 0.0000
 Depolar     --     0.0000                 0.0000                 0.0000
 Atom AN      X      Y      Z        X      Y      Z        X      Y      Z
   1   6     0.01   0.01  -0.07     0.02  -0.03  -0.10     0.02  -0.07   0.01
   2   6     0.02  -0.15   0.06    -0.07   0.15  -0.21     0.03  -0.16   0.08
   3   6     0.02  -0.15   0.10    -0.08   0.15  -0.15     0.02  -0.11   0.05
   4   6     0.01  -0.00   0.02     0.01  -0.02   0.02    -0.01   0.02  -0.04
   5   6     0.01  -0.00   0.05     0.01  -0.00   0.06    -0.02   0.04  -0.05
   6   6     0.01   0.02  -0.03     0.02  -0.02   0.16    -0.02   0.04  -0.04
   7   6     0.01   0.03  -0.05     0.01  -0.00   0.14    -0.02   0.03  -0.03
   8   6     0.00   0.02   0.00    -0.00   0.03   0.03    -0.02   0.03  -0.03
   9   7     0.00   0.03  -0.05    -0.01   0.05  -0.01    -0.03   0.03  -0.02
  10   6     0.00   0.02  -0.00    -0.01   0.06  -0.05    -0.02   0.03  -0.02
  11   6     0.02   0.03  -0.07    -0.01   0.05  -0.04    -0.02   0.02  -0.01
  12   6     0.02   0.01  -0.09    -0.02   0.04  -0.02    -0.01  -0.01  -0.05
  13   6     0.05  -0.04  -0.13    -0.01   0.06   0.05     0.00  -0.05  -0.10
  14   6     0.05  -0.08  -0.13    -0.02   0.05   0.08     0.01  -0.07  -0.12
  15   6     0.01  -0.06  -0.07    -0.03   0.02   0.02    -0.01  -0.05  -0.08
  16   6    -0.02  -0.01  -0.04    -0.04  -0.01  -0.06    -0.02  -0.02  -0.05
  17   7    -0.08   0.01   0.04    -0.06  -0.05  -0.12    -0.05  -0.00   0.00
  18   6    -0.07  -0.03   0.05    -0.06  -0.05  -0.05    -0.05  -0.01   0.02
  19   6    -0.11  -0.02   0.13    -0.08  -0.08  -0.07    -0.08   0.01   0.10
  20   6    -0.10  -0.08   0.13    -0.08  -0.07   0.01    -0.07  -0.01   0.12
  21   6    -0.04  -0.13   0.05    -0.06  -0.03   0.10    -0.04  -0.05   0.06
  22   6     0.00  -0.14  -0.02    -0.04   0.01   0.11    -0.01  -0.07  -0.02
  23   6    -0.02  -0.08  -0.02    -0.04  -0.00   0.03    -0.02  -0.05  -0.04
  24   6    -0.01   0.02  -0.06    -0.03   0.01  -0.07    -0.02  -0.01  -0.05
  25   6    -0.02   0.04  -0.05    -0.02  -0.01  -0.08    -0.01  -0.00  -0.03
  26   6    -0.02   0.05  -0.04    -0.03  -0.01  -0.11    -0.01  -0.00  -0.04
  27   6    -0.00   0.04  -0.01     0.00  -0.02  -0.03     0.02  -0.01   0.02
  28   6     0.02   0.04  -0.00     0.01  -0.02  -0.02     0.02  -0.01   0.02
  29   6     0.04   0.07  -0.01     0.09   0.02  -0.20     0.08   0.03  -0.13
  30   6     0.07   0.07  -0.00     0.10   0.02  -0.18     0.10   0.03  -0.14
  31   6     0.08   0.04   0.02     0.03  -0.04   0.04     0.05  -0.01   0.01
  32   6     0.06   0.01   0.03    -0.05  -0.09   0.22    -0.01  -0.05   0.16
  33   6     0.03   0.01   0.02    -0.05  -0.08   0.18    -0.02  -0.05   0.16
  34   6     0.01   0.03   0.01     0.03  -0.03   0.05     0.04  -0.01   0.09
  35   6     0.01   0.04   0.01     0.03  -0.03   0.03     0.04  -0.01   0.08
  36   6    -0.01   0.04  -0.02     0.01  -0.02  -0.02     0.02  -0.01   0.02
  37   7    -0.01   0.05  -0.02     0.02  -0.02  -0.02     0.03  -0.00   0.02
  38   6     0.01   0.03   0.02     0.04  -0.03   0.04     0.05  -0.01   0.07
  39   6     0.01   0.02   0.05     0.05  -0.02   0.05     0.05   0.00   0.07
  40   6     0.02   0.02   0.06     0.05  -0.02   0.07     0.06   0.00   0.10
  41   6     0.02   0.02   0.06     0.05  -0.02   0.08     0.06   0.00   0.12
  42   6     0.02   0.00   0.03     0.04  -0.00   0.04     0.05   0.01   0.07
  43   6     0.01   0.03   0.06    -0.01   0.01   0.03    -0.01   0.00   0.03
  44   6    -0.00   0.00   0.00    -0.02   0.02  -0.03    -0.03  -0.00  -0.06
  45   6    -0.00  -0.05  -0.10     0.01   0.03  -0.08     0.00   0.00  -0.12
  46   6     0.00  -0.07  -0.13     0.05   0.02  -0.07     0.06   0.02  -0.08
  47   6     0.01  -0.05  -0.06     0.07   0.00  -0.01     0.08   0.02   0.02
  48   6     0.03   0.02   0.06     0.04  -0.03   0.08     0.06  -0.01   0.14
  49   6     0.02   0.03   0.04     0.04  -0.03   0.06     0.05  -0.01   0.11
  50   6     0.02   0.03  -0.08    -0.01   0.06  -0.06    -0.01   0.02   0.03
  51   6     0.01   0.00   0.03    -0.01   0.05  -0.06    -0.01   0.04   0.00
  52   6    -0.01  -0.00   0.02    -0.01   0.05  -0.04    -0.01   0.03   0.01
  53   6    -0.17  -0.01  -0.19    -0.07   0.05  -0.10     0.13   0.06   0.23
  54   6    -0.21  -0.02  -0.21    -0.07   0.05  -0.06     0.11   0.06   0.21
  55   6    -0.07  -0.02  -0.01     0.01   0.04   0.06    -0.07   0.03  -0.04
  56   6     0.10  -0.01   0.22     0.07   0.03   0.12    -0.21   0.00  -0.26
  57   6     0.13  -0.00   0.22     0.05   0.04   0.07    -0.17   0.01  -0.22
  58   6     0.00  -0.01   0.14    -0.02   0.05  -0.06    -0.01   0.04  -0.05
  59   6    -0.00  -0.01   0.09    -0.01   0.05  -0.05    -0.02   0.04  -0.04
  60   6    -0.00  -0.01   0.10    -0.01   0.03  -0.02    -0.02   0.04  -0.05
  61   6    -0.00  -0.02   0.13    -0.00   0.02  -0.02    -0.02   0.04  -0.04
  62   6     0.00   0.15  -0.10     0.11  -0.19   0.13    -0.03   0.10  -0.10
  63   6     0.00   0.16  -0.15     0.12  -0.21   0.07    -0.02   0.06  -0.08
  64   1     0.00   0.00  -0.03     0.01  -0.01  -0.04     0.01  -0.03   0.01
  65   1     0.01  -0.08   0.04    -0.04   0.08  -0.10     0.02  -0.08   0.04
  66   1     0.01  -0.08   0.06    -0.05   0.08  -0.06     0.01  -0.05   0.03
  67   1     0.00   0.01  -0.02     0.01  -0.01   0.07    -0.01   0.01  -0.01
  68   1     0.00   0.01  -0.03     0.01  -0.00   0.06    -0.01   0.01  -0.00
  69   1     0.00   0.01  -0.03    -0.00   0.01  -0.00    -0.01   0.01  -0.00
  70   1     0.02  -0.01  -0.04     0.00   0.02   0.03     0.00  -0.01  -0.03
  71   1     0.02  -0.03  -0.05    -0.00   0.02   0.04     0.00  -0.03  -0.05
  72   1    -0.03   0.02   0.02    -0.02  -0.02  -0.05    -0.02   0.01   0.01
  73   1    -0.05   0.01   0.05    -0.03  -0.03  -0.04    -0.03   0.01   0.04
  74   1    -0.04  -0.02   0.05    -0.03  -0.03   0.00    -0.03   0.00   0.05
  75   1    -0.01  -0.05   0.02    -0.02  -0.01   0.05    -0.01  -0.02   0.02
  76   1     0.01  -0.05  -0.02    -0.01   0.01   0.05     0.00  -0.03  -0.02
  77   1    -0.01   0.01  -0.02    -0.02   0.00  -0.05    -0.01   0.00  -0.02
  78   1     0.01   0.03  -0.01     0.04   0.02  -0.10     0.04   0.01  -0.07
  79   1     0.02   0.03  -0.00     0.05   0.02  -0.09     0.04   0.02  -0.07
  80   1     0.03   0.01   0.01     0.01  -0.01   0.02     0.02  -0.00   0.00
  81   1     0.02  -0.00   0.01    -0.03  -0.04   0.11    -0.02  -0.02   0.08
  82   1     0.00  -0.00   0.01    -0.03  -0.04   0.09    -0.02  -0.02   0.08
  83   1     0.00   0.01   0.01     0.02  -0.01   0.03     0.02  -0.00   0.04
  84   1    -0.01   0.01  -0.01     0.00  -0.01  -0.01     0.00  -0.00  -0.01
  85   1     0.00   0.01   0.02     0.01  -0.01   0.01     0.01   0.00   0.01
  86   1     0.00   0.00   0.02     0.02  -0.01   0.02     0.02   0.00   0.03
  87   1     0.00   0.02   0.04    -0.01   0.00   0.02    -0.01  -0.00   0.02
  88   1    -0.00   0.01   0.01    -0.02   0.01  -0.01    -0.02  -0.00  -0.03
  89   1    -0.00  -0.02  -0.04    -0.00   0.01  -0.04    -0.00  -0.00  -0.06
  90   1    -0.00  -0.03  -0.06     0.02   0.01  -0.03     0.02   0.01  -0.04
  91   1     0.01  -0.02  -0.03     0.03  -0.00  -0.00     0.04   0.01   0.01
  92   1     0.01   0.00   0.02     0.01  -0.01   0.02     0.02  -0.00   0.05
  93   1     0.01   0.01  -0.05    -0.01   0.02  -0.02    -0.00  -0.00   0.02
  94   1    -0.08  -0.01  -0.10    -0.04   0.02  -0.05     0.07   0.03   0.12
  95   1    -0.10  -0.01  -0.11    -0.03   0.02  -0.03     0.07   0.02   0.11
  96   1    -0.03  -0.01  -0.00     0.01   0.01   0.03    -0.03   0.01  -0.02
  97   1     0.06  -0.00   0.11     0.04   0.01   0.06    -0.10  -0.01  -0.13
  98   1     0.07   0.00   0.11     0.03   0.01   0.03    -0.08  -0.00  -0.11
  99   1    -0.00  -0.01   0.07    -0.00   0.02  -0.02    -0.00   0.01  -0.03
 100   1    -0.00  -0.01   0.06    -0.00   0.01  -0.02    -0.01   0.01  -0.01
 101   1    -0.00   0.08  -0.05     0.05  -0.09   0.07    -0.01   0.06  -0.05
 102   1    -0.00   0.08  -0.07     0.06  -0.10   0.04    -0.01   0.04  -0.04
                     13                     14                     15
                        a                      a                      a 
 Frequencies --    57.7226                60.5225                64.5917
 Red. masses --    10.5361                10.7577                10.5594
 Frc consts  --     0.0000                 0.0000                 0.0000
 IR Inten    --     1.6343                 0.1225                 4.3501
 Raman Activ --     0.0000                 0.0000                 0.0000
 Depolar     --     0.0000                 0.0000                 0.0000
 Atom AN      X      Y      Z        X      Y      Z        X      Y      Z
   1   6    -0.01  -0.05   0.10    -0.05   0.15   0.07     0.03  -0.02   0.13
   2   6     0.01   0.12  -0.05     0.08   0.02   0.13     0.08   0.03   0.07
   3   6     0.00   0.15  -0.15     0.11  -0.07   0.08     0.08   0.06  -0.05
   4   6    -0.01   0.03  -0.11     0.01  -0.03  -0.04     0.02   0.06  -0.10
   5   6    -0.02   0.04  -0.17     0.03  -0.07  -0.09     0.02   0.06  -0.16
   6   6    -0.01   0.04  -0.16     0.02  -0.08  -0.08     0.02   0.06  -0.16
   7   6    -0.01   0.03  -0.13     0.03  -0.09  -0.06     0.02   0.05  -0.11
   8   6    -0.01   0.02  -0.10     0.04  -0.09  -0.07     0.02   0.03  -0.07
   9   7    -0.01  -0.00  -0.02     0.03  -0.09  -0.04     0.02   0.01   0.01
  10   6    -0.02  -0.00  -0.02     0.02  -0.07  -0.07     0.01   0.01   0.03
  11   6    -0.02  -0.01   0.00    -0.00  -0.05  -0.06     0.01  -0.01   0.07
  12   6    -0.01  -0.02  -0.01    -0.02   0.01   0.03     0.01  -0.02   0.05
  13   6    -0.01  -0.04  -0.06    -0.04   0.07   0.12     0.00  -0.04  -0.03
  14   6    -0.01  -0.05  -0.09    -0.04   0.10   0.18     0.01  -0.05  -0.08
  15   6    -0.01  -0.03  -0.05    -0.03   0.07   0.11     0.02  -0.01  -0.01
  16   6    -0.01  -0.01   0.00    -0.02   0.02   0.05     0.02   0.03   0.09
  17   7    -0.02   0.02   0.05     0.00  -0.02  -0.03     0.05   0.09   0.18
  18   6    -0.02   0.01   0.03     0.00  -0.01  -0.04     0.05   0.08   0.09
  19   6    -0.02   0.04   0.07     0.03  -0.06  -0.15     0.07   0.13   0.12
  20   6    -0.02   0.03   0.04     0.02  -0.04  -0.15     0.07   0.10  -0.01
  21   6    -0.01  -0.01  -0.03    -0.01   0.04  -0.03     0.06   0.02  -0.16
  22   6    -0.01  -0.04  -0.07    -0.03   0.09   0.08     0.03  -0.02  -0.17
  23   6    -0.01  -0.02  -0.03    -0.02   0.06   0.07     0.03   0.01  -0.04
  24   6    -0.01  -0.01   0.01    -0.02   0.02   0.04     0.02   0.00   0.09
  25   6    -0.01   0.00   0.03    -0.03   0.03   0.04     0.02  -0.02   0.06
  26   6    -0.00  -0.00   0.04    -0.03   0.03   0.05     0.03  -0.01   0.04
  27   6    -0.01   0.01   0.04    -0.02   0.03   0.08     0.03  -0.03  -0.01
  28   6    -0.00   0.01   0.03    -0.00   0.03   0.06     0.02  -0.03  -0.02
  29   6    -0.06  -0.02   0.20     0.04   0.06  -0.05     0.07  -0.03  -0.21
  30   6    -0.05  -0.01   0.18     0.08   0.08  -0.11     0.02  -0.04  -0.17
  31   6     0.03   0.03  -0.04     0.07   0.06  -0.06    -0.08  -0.07   0.07
  32   6     0.09   0.06  -0.21     0.02   0.02   0.06    -0.13  -0.07   0.25
  33   6     0.07   0.05  -0.17    -0.02   0.01   0.12    -0.07  -0.06   0.18
  34   6    -0.00  -0.00   0.05    -0.01   0.02   0.11     0.02  -0.05  -0.02
  35   6     0.01  -0.00   0.07    -0.01   0.03   0.08    -0.01  -0.05  -0.00
  36   6     0.00  -0.00   0.05    -0.03   0.03   0.03    -0.01  -0.04   0.04
  37   7     0.02  -0.00   0.07    -0.05   0.05   0.00    -0.03  -0.06   0.05
  38   6     0.04  -0.01   0.13    -0.03   0.03   0.05    -0.04  -0.07   0.02
  39   6     0.06  -0.02   0.19    -0.03   0.03   0.05    -0.05  -0.08   0.02
  40   6     0.07  -0.01   0.22    -0.02   0.02   0.09    -0.06  -0.09  -0.02
  41   6     0.06  -0.01   0.19    -0.01   0.02   0.11    -0.06  -0.09  -0.05
  42   6     0.04  -0.00   0.12    -0.02   0.01   0.08    -0.06  -0.05  -0.05
  43   6    -0.01   0.03   0.14    -0.05  -0.00   0.04    -0.09  -0.01  -0.00
  44   6    -0.04   0.02   0.02    -0.07  -0.02  -0.04    -0.09   0.09   0.08
  45   6    -0.02  -0.03  -0.14    -0.06  -0.02  -0.07    -0.06   0.14   0.10
  46   6     0.04  -0.06  -0.16    -0.02  -0.00  -0.03    -0.03   0.08   0.04
  47   6     0.07  -0.04  -0.03    -0.01   0.01   0.05    -0.03  -0.01  -0.04
  48   6     0.04  -0.01   0.16    -0.00   0.02   0.12    -0.05  -0.08  -0.05
  49   6     0.03  -0.01   0.13    -0.01   0.03   0.09    -0.03  -0.07  -0.02
  50   6    -0.01  -0.01   0.01    -0.02  -0.05  -0.12     0.02  -0.00   0.08
  51   6    -0.00   0.00  -0.03    -0.02  -0.06  -0.16     0.02   0.00   0.05
  52   6    -0.00   0.00  -0.02    -0.00  -0.06  -0.13     0.01   0.01   0.04
  53   6    -0.03   0.00  -0.05    -0.00  -0.06  -0.11    -0.06  -0.01  -0.07
  54   6    -0.03   0.00  -0.04     0.07  -0.05   0.01    -0.09  -0.01  -0.12
  55   6    -0.01  -0.01  -0.00     0.14  -0.06   0.13    -0.03  -0.01  -0.04
  56   6     0.02  -0.01   0.03     0.13  -0.07   0.09     0.05   0.01   0.08
  57   6     0.02  -0.01   0.02     0.05  -0.07  -0.04     0.07   0.01   0.11
  58   6    -0.01   0.02  -0.08    -0.00  -0.07  -0.18     0.02   0.02  -0.00
  59   6    -0.01   0.02  -0.09     0.02  -0.07  -0.13     0.02   0.02  -0.03
  60   6    -0.01   0.03  -0.14     0.04  -0.08  -0.12     0.02   0.04  -0.09
  61   6    -0.01   0.04  -0.18     0.04  -0.07  -0.12     0.02   0.06  -0.15
  62   6    -0.03  -0.13   0.03    -0.11   0.09  -0.09    -0.04   0.02  -0.05
  63   6    -0.03  -0.18   0.14    -0.14   0.19  -0.04    -0.03  -0.02   0.07
  64   1    -0.00  -0.02   0.05    -0.02   0.07   0.03     0.01  -0.02   0.06
  65   1     0.01   0.07  -0.02     0.04  -0.00   0.06     0.04   0.01   0.03
  66   1     0.00   0.08  -0.07     0.06  -0.05   0.03     0.04   0.03  -0.03
  67   1    -0.00   0.01  -0.05     0.00  -0.02  -0.03     0.00   0.02  -0.05
  68   1    -0.00   0.01  -0.03     0.01  -0.03  -0.01     0.00   0.01  -0.03
  69   1    -0.00  -0.00   0.01     0.01  -0.03   0.00     0.01   0.00   0.02
  70   1    -0.00  -0.01  -0.02    -0.01   0.02   0.04    -0.00  -0.02  -0.02
  71   1    -0.00  -0.02  -0.04    -0.01   0.04   0.07     0.00  -0.02  -0.04
  72   1    -0.01   0.01   0.02     0.01  -0.02  -0.02     0.02   0.04   0.07
  73   1    -0.01   0.02   0.04     0.01  -0.03  -0.07     0.03   0.05   0.06
  74   1    -0.01   0.01   0.02     0.01  -0.02  -0.07     0.03   0.04   0.00
  75   1    -0.00  -0.01  -0.02    -0.00   0.01  -0.01     0.02  -0.00  -0.07
  76   1    -0.00  -0.02  -0.04    -0.02   0.04   0.05     0.00  -0.02  -0.08
  77   1    -0.00  -0.00   0.02    -0.01   0.01   0.01     0.02   0.00   0.02
  78   1    -0.04  -0.01   0.10     0.02   0.02  -0.02     0.04  -0.01  -0.11
  79   1    -0.03  -0.01   0.09     0.03   0.03  -0.06     0.02  -0.01  -0.09
  80   1     0.01   0.01  -0.02     0.03   0.02  -0.03    -0.04  -0.02   0.04
  81   1     0.04   0.03  -0.11     0.00   0.00   0.03    -0.06  -0.02   0.12
  82   1     0.03   0.02  -0.08    -0.02  -0.00   0.06    -0.03  -0.02   0.08
  83   1    -0.00  -0.00   0.01     0.00   0.01   0.04     0.01  -0.02  -0.01
  84   1     0.00  -0.00   0.02    -0.02   0.01  -0.01    -0.01  -0.01   0.02
  85   1     0.02  -0.01   0.06    -0.01   0.01   0.01    -0.01  -0.02   0.01
  86   1     0.02  -0.01   0.07    -0.01   0.01   0.03    -0.02  -0.03  -0.00
  87   1    -0.01   0.02   0.07    -0.02  -0.00   0.02    -0.03  -0.01  -0.01
  88   1    -0.03   0.01   0.01    -0.03  -0.01  -0.02    -0.03   0.04   0.03
  89   1    -0.01  -0.01  -0.07    -0.02  -0.01  -0.04    -0.01   0.06   0.05
  90   1     0.02  -0.03  -0.08    -0.00   0.00  -0.02    -0.00   0.03   0.01
  91   1     0.03  -0.02  -0.01     0.01   0.01   0.02    -0.00  -0.02  -0.02
  92   1     0.01  -0.00   0.04     0.00   0.00   0.04    -0.01  -0.02  -0.02
  93   1    -0.00  -0.00   0.01    -0.01  -0.01  -0.03     0.01  -0.00   0.03
  94   1    -0.01   0.00  -0.02    -0.01  -0.02  -0.05    -0.03  -0.01  -0.04
  95   1    -0.02   0.00  -0.02     0.02  -0.01   0.01    -0.04  -0.01  -0.06
  96   1    -0.00  -0.00   0.00     0.06  -0.01   0.07    -0.02  -0.00  -0.02
  97   1     0.01  -0.00   0.02     0.05  -0.02   0.05     0.03   0.00   0.04
  98   1     0.01  -0.00   0.01     0.01  -0.03  -0.02     0.04   0.00   0.05
  99   1    -0.00   0.01  -0.03    -0.00  -0.02  -0.06     0.01   0.01  -0.01
 100   1    -0.00   0.02  -0.06     0.01  -0.02  -0.04     0.01   0.02  -0.04
 101   1    -0.02  -0.07   0.02    -0.05   0.03  -0.05    -0.02   0.00  -0.03
 102   1    -0.01  -0.09   0.07    -0.07   0.08  -0.02    -0.02  -0.02   0.03
                     16                     17                     18
                        a                      a                      a 
 Frequencies --    74.1082                77.2676                84.1539
 Red. masses --    10.8718                10.6161                11.0723
 Frc consts  --     0.0000                 0.0000                 0.0000
 IR Inten    --     1.1440                 1.4148                 0.2231
 Raman Activ --     0.0000                 0.0000                 0.0000
 Depolar     --     0.0000                 0.0000                 0.0000
 Atom AN      X      Y      Z        X      Y      Z        X      Y      Z
   1   6     0.04   0.22  -0.09    -0.04   0.07  -0.01    -0.03  -0.13  -0.02
   2   6     0.06   0.11  -0.01    -0.02   0.12  -0.05    -0.08  -0.14   0.01
   3   6     0.10  -0.04   0.10     0.00   0.04  -0.04    -0.11  -0.05   0.02
   4   6     0.11  -0.08   0.13     0.01  -0.06   0.00    -0.08   0.04   0.01
   5   6     0.12  -0.11   0.15     0.01  -0.07  -0.01    -0.08   0.05   0.05
   6   6     0.14  -0.08   0.13     0.02  -0.03  -0.14    -0.10   0.00   0.12
   7   6     0.13  -0.03   0.06     0.02  -0.01  -0.17    -0.10  -0.03   0.13
   8   6     0.09  -0.01   0.01     0.02  -0.04  -0.06    -0.06  -0.02   0.06
   9   7     0.08   0.05  -0.06     0.02  -0.03  -0.08    -0.05  -0.05   0.05
  10   6     0.04   0.03  -0.05     0.00  -0.06   0.04    -0.00  -0.02  -0.02
  11   6     0.01   0.05  -0.05    -0.00  -0.04   0.03     0.02  -0.01  -0.04
  12   6    -0.00   0.04  -0.04     0.01  -0.00   0.00     0.01   0.02   0.02
  13   6     0.00   0.03  -0.06     0.00   0.01  -0.00     0.01   0.04   0.07
  14   6    -0.00   0.01  -0.08     0.00   0.01   0.02     0.01   0.08   0.13
  15   6    -0.02   0.02  -0.06     0.00   0.01   0.03     0.03   0.10   0.17
  16   6    -0.03   0.04  -0.02     0.00   0.01   0.03     0.01   0.12   0.19
  17   7    -0.03   0.07   0.02     0.00   0.01   0.03    -0.01   0.15   0.26
  18   6    -0.03   0.06   0.00     0.00   0.01   0.02     0.00   0.08   0.16
  19   6    -0.03   0.08   0.04     0.01  -0.00  -0.00    -0.00   0.00   0.06
  20   6    -0.03   0.07   0.00     0.01  -0.01  -0.02     0.03  -0.13  -0.12
  21   6    -0.02   0.03  -0.07     0.01  -0.01  -0.02     0.05  -0.16  -0.17
  22   6    -0.02   0.01  -0.10     0.00  -0.00  -0.00     0.05  -0.07  -0.04
  23   6    -0.02   0.03  -0.05     0.00   0.01   0.02     0.02   0.06   0.13
  24   6    -0.03   0.04  -0.03     0.01   0.02   0.02     0.03   0.06   0.07
  25   6    -0.03   0.01  -0.06    -0.03   0.04  -0.02     0.02   0.01  -0.01
  26   6    -0.01   0.01  -0.08    -0.06   0.05  -0.08     0.03   0.02  -0.07
  27   6     0.01  -0.01  -0.10    -0.10   0.06  -0.16    -0.00   0.02  -0.16
  28   6     0.00  -0.02  -0.08    -0.06   0.06  -0.11     0.00   0.01  -0.13
  29   6    -0.04  -0.05   0.02     0.01   0.16  -0.13    -0.01   0.02  -0.06
  30   6    -0.09  -0.07   0.10     0.09   0.16  -0.03    -0.02   0.00   0.05
  31   6    -0.09  -0.05   0.08     0.10   0.04   0.11    -0.02  -0.03   0.10
  32   6    -0.04  -0.01  -0.05     0.04  -0.06   0.13    -0.00  -0.04   0.01
  33   6     0.01   0.00  -0.12    -0.04  -0.05   0.01     0.01  -0.02  -0.10
  34   6     0.00  -0.05  -0.07    -0.12   0.08  -0.22    -0.02   0.02  -0.20
  35   6    -0.03  -0.06  -0.04    -0.08   0.07  -0.15    -0.01   0.01  -0.13
  36   6    -0.05  -0.03  -0.06    -0.04   0.06  -0.05     0.01  -0.00  -0.05
  37   7    -0.08  -0.05  -0.03     0.00   0.04   0.06     0.04  -0.02   0.01
  38   6    -0.06  -0.09   0.03    -0.00   0.05   0.05     0.04  -0.02   0.01
  39   6    -0.05  -0.11   0.10     0.04   0.03   0.16     0.08  -0.03   0.11
  40   6    -0.03  -0.14   0.14     0.03   0.04   0.15     0.08  -0.02   0.12
  41   6    -0.03  -0.15   0.10    -0.01   0.07   0.03     0.05  -0.00   0.02
  42   6    -0.05  -0.09   0.06    -0.00   0.05   0.03     0.05   0.00   0.02
  43   6    -0.16  -0.03   0.09     0.04   0.06   0.08     0.05   0.03   0.04
  44   6    -0.19   0.11   0.06     0.04   0.00   0.05     0.04   0.02   0.02
  45   6    -0.10   0.17   0.00     0.00  -0.08  -0.04     0.05  -0.00  -0.03
  46   6     0.01   0.09  -0.05    -0.04  -0.09  -0.08     0.05  -0.02  -0.06
  47   6     0.03  -0.04  -0.02    -0.03  -0.03  -0.04     0.06  -0.02  -0.03
  48   6    -0.02  -0.13   0.06    -0.05   0.08  -0.09     0.01   0.01  -0.08
  49   6    -0.03  -0.10   0.02    -0.05   0.07  -0.09     0.01   0.00  -0.08
  50   6    -0.01   0.04  -0.05    -0.03  -0.06   0.07     0.03   0.00  -0.12
  51   6    -0.01   0.01  -0.05    -0.04  -0.09   0.15     0.04   0.02  -0.15
  52   6    -0.01   0.01  -0.05    -0.01  -0.07   0.09     0.02   0.01  -0.11
  53   6     0.04   0.02   0.01     0.09  -0.14   0.09    -0.01   0.07  -0.03
  54   6     0.08   0.03   0.06     0.16  -0.10  -0.00    -0.05   0.04   0.06
  55   6     0.06   0.03   0.03     0.11  -0.01  -0.10    -0.06  -0.04   0.07
  56   6     0.00   0.03  -0.04     0.01   0.06  -0.10    -0.03  -0.10  -0.00
  57   6    -0.03   0.02  -0.08    -0.04   0.02   0.00     0.02  -0.07  -0.09
  58   6     0.01  -0.01  -0.02    -0.03  -0.11   0.21     0.02   0.04  -0.15
  59   6     0.03  -0.01  -0.01    -0.01  -0.09   0.13     0.00   0.02  -0.07
  60   6     0.07  -0.04   0.04     0.01  -0.08   0.07    -0.04   0.02  -0.01
  61   6     0.08  -0.09   0.12     0.01  -0.10   0.09    -0.05   0.06  -0.01
  62   6     0.10  -0.01   0.08    -0.02  -0.11   0.06    -0.03   0.06  -0.03
  63   6     0.06   0.15  -0.04    -0.04  -0.05   0.05    -0.00  -0.02  -0.04
  64   1     0.00   0.10  -0.06    -0.02   0.04  -0.00    -0.00  -0.06  -0.01
  65   1     0.01   0.04  -0.01    -0.01   0.06  -0.03    -0.03  -0.06   0.01
  66   1     0.03  -0.03   0.04     0.00   0.02  -0.02    -0.04  -0.01   0.01
  67   1     0.05  -0.03   0.05     0.01  -0.00  -0.06    -0.04  -0.00   0.05
  68   1     0.04   0.00   0.01     0.01   0.00  -0.08    -0.03  -0.02   0.05
  69   1     0.03   0.02  -0.03     0.01  -0.00  -0.04    -0.02  -0.02   0.03
  70   1    -0.00   0.01  -0.02    -0.00  -0.00  -0.00     0.01   0.01   0.01
  71   1     0.00  -0.00  -0.03     0.00   0.00   0.01     0.00   0.03   0.04
  72   1    -0.01   0.02   0.01     0.00   0.00   0.01    -0.01   0.04   0.06
  73   1    -0.01   0.03   0.03     0.00  -0.00  -0.00    -0.01   0.01   0.03
  74   1    -0.01   0.03   0.01     0.00  -0.01  -0.01     0.01  -0.06  -0.06
  75   1    -0.01   0.00  -0.03     0.00  -0.01  -0.01     0.02  -0.08  -0.09
  76   1    -0.01  -0.01  -0.04     0.00  -0.00  -0.00     0.02  -0.03  -0.02
  77   1     0.00   0.01  -0.02    -0.01   0.02  -0.01     0.02   0.01  -0.00
  78   1    -0.01  -0.02   0.01    -0.00   0.07  -0.06    -0.00   0.01  -0.03
  79   1    -0.04  -0.03   0.06     0.04   0.07  -0.02    -0.01   0.00   0.03
  80   1    -0.04  -0.02   0.04     0.04   0.01   0.06    -0.01  -0.01   0.06
  81   1    -0.01   0.00  -0.02     0.01  -0.05   0.07    -0.00  -0.02   0.01
  82   1     0.01   0.01  -0.06    -0.03  -0.04   0.01     0.00  -0.01  -0.04
  83   1     0.01  -0.02  -0.02    -0.04   0.03  -0.08    -0.01   0.00  -0.08
  84   1    -0.03  -0.01  -0.01     0.01   0.01   0.04     0.02  -0.01   0.02
  85   1    -0.02  -0.03   0.04     0.02   0.00   0.08     0.03  -0.01   0.05
  86   1    -0.01  -0.05   0.05     0.02   0.01   0.07     0.03  -0.01   0.05
  87   1    -0.07  -0.02   0.04     0.02   0.04   0.04     0.02   0.01   0.02
  88   1    -0.08   0.05   0.03     0.02   0.01   0.02     0.01   0.01   0.01
  89   1    -0.04   0.08  -0.00     0.00  -0.04  -0.02     0.01  -0.00  -0.02
  90   1     0.02   0.04  -0.03    -0.02  -0.05  -0.04     0.01  -0.01  -0.03
  91   1     0.04  -0.03  -0.02    -0.02  -0.01  -0.02     0.02  -0.01  -0.01
  92   1    -0.00  -0.04   0.02    -0.03   0.03  -0.05    -0.01   0.01  -0.04
  93   1    -0.01   0.01  -0.02    -0.01  -0.02   0.02     0.01   0.00  -0.04
  94   1     0.01   0.01   0.01     0.03  -0.06   0.04     0.00   0.04  -0.01
  95   1     0.04   0.01   0.03     0.07  -0.04   0.00    -0.02   0.03   0.03
  96   1     0.03   0.01   0.02     0.04   0.01  -0.05    -0.03  -0.02   0.04
  97   1    -0.00   0.01  -0.02    -0.01   0.04  -0.05    -0.01  -0.05   0.00
  98   1    -0.02   0.01  -0.04    -0.03   0.02   0.00     0.01  -0.03  -0.04
  99   1    -0.00  -0.01  -0.00    -0.01  -0.04   0.08     0.01   0.02  -0.06
 100   1     0.02  -0.04   0.04     0.00  -0.03   0.05    -0.01   0.02  -0.02
 101   1     0.04  -0.01   0.03    -0.01  -0.06   0.02    -0.00   0.04  -0.01
 102   1     0.01   0.06  -0.03    -0.01  -0.03   0.03     0.01  -0.00  -0.02
                     19                     20                     21
                        a                      a                      a 
 Frequencies --    94.9795                98.9780               111.8844
 Red. masses --    10.9243                10.7047                11.0664
 Frc consts  --     0.0000                 0.0000                 0.0000
 IR Inten    --    10.9421                 1.8709                 1.5131
 Raman Activ --     0.0000                 0.0000                 0.0000
 Depolar     --     0.0000                 0.0000                 0.0000
 Atom AN      X      Y      Z        X      Y      Z        X      Y      Z
   1   6    -0.04   0.10  -0.01     0.04   0.13   0.01    -0.04   0.02   0.06
   2   6     0.01   0.09  -0.02     0.11   0.03   0.06     0.03   0.01   0.04
   3   6     0.04  -0.01  -0.01     0.13  -0.05   0.06     0.04  -0.01  -0.03
   4   6     0.02  -0.09   0.00     0.09  -0.06   0.01    -0.01  -0.03  -0.08
   5   6     0.02  -0.09  -0.03     0.08  -0.06  -0.00    -0.00  -0.04  -0.09
   6   6     0.05  -0.03  -0.13     0.10  -0.07   0.13     0.01  -0.04  -0.04
   7   6     0.04   0.02  -0.15     0.09  -0.03   0.17     0.00  -0.04   0.06
   8   6     0.00   0.01  -0.06     0.04   0.01   0.06    -0.01  -0.05   0.09
   9   7    -0.02   0.05  -0.06     0.01   0.04   0.11    -0.02  -0.04   0.16
  10   6    -0.06   0.02  -0.00    -0.04   0.05   0.04    -0.04  -0.03   0.10
  11   6    -0.07   0.03  -0.00    -0.07   0.03   0.12    -0.05   0.02   0.05
  12   6    -0.07   0.05  -0.00    -0.07  -0.01   0.11    -0.02   0.08   0.01
  13   6    -0.06   0.07   0.05    -0.08  -0.02   0.08    -0.00   0.05  -0.03
  14   6    -0.06   0.09   0.08    -0.07  -0.06  -0.04     0.01   0.02  -0.07
  15   6    -0.04   0.10   0.09    -0.06  -0.08  -0.08     0.04   0.01  -0.09
  16   6    -0.06   0.12   0.09    -0.04  -0.06  -0.02     0.02   0.04  -0.10
  17   7    -0.12   0.17   0.19    -0.03  -0.04   0.00    -0.04  -0.01  -0.14
  18   6    -0.10   0.09   0.13    -0.03  -0.01  -0.00    -0.04  -0.04  -0.09
  19   6    -0.14   0.03   0.10    -0.02   0.08   0.10    -0.11  -0.08  -0.02
  20   6    -0.10  -0.11  -0.05    -0.03   0.11   0.09    -0.10  -0.11   0.11
  21   6    -0.04  -0.18  -0.14    -0.04   0.04  -0.05    -0.03  -0.10   0.16
  22   6    -0.02  -0.09  -0.06    -0.06  -0.04  -0.14     0.04  -0.08   0.07
  23   6    -0.05   0.05   0.07    -0.05  -0.06  -0.09     0.02  -0.03  -0.06
  24   6    -0.04   0.06  -0.01    -0.05  -0.06   0.04     0.02   0.09  -0.01
  25   6     0.01  -0.03  -0.04    -0.02  -0.09   0.04     0.08   0.09   0.06
  26   6     0.04  -0.02  -0.06    -0.06  -0.09   0.01     0.09   0.09  -0.01
  27   6     0.08  -0.04   0.03    -0.10  -0.06  -0.04     0.10   0.08  -0.06
  28   6     0.06  -0.04   0.01    -0.08  -0.07  -0.02     0.08   0.09  -0.08
  29   6     0.03  -0.09   0.01    -0.05  -0.01  -0.00     0.05   0.05  -0.05
  30   6    -0.02  -0.09   0.01     0.04  -0.00  -0.01    -0.03   0.03   0.05
  31   6    -0.04  -0.05   0.00     0.09  -0.06  -0.04    -0.08   0.05   0.10
  32   6    -0.01  -0.00  -0.02     0.05  -0.13  -0.03    -0.03   0.10   0.03
  33   6     0.04   0.00  -0.01    -0.04  -0.13  -0.02     0.05   0.12  -0.07
  34   6     0.11  -0.06   0.12    -0.11  -0.03  -0.10     0.09   0.06  -0.05
  35   6     0.08  -0.06   0.10    -0.07  -0.03  -0.05     0.09   0.04   0.03
  36   6     0.05  -0.05   0.02    -0.01  -0.08   0.04     0.10   0.06   0.12
  37   7     0.06  -0.04  -0.05     0.08  -0.08   0.11     0.10   0.03   0.23
  38   6     0.06  -0.02  -0.05     0.06  -0.01   0.04     0.06  -0.00   0.15
  39   6     0.05   0.03  -0.19     0.11   0.03   0.05     0.01  -0.04   0.17
  40   6     0.05   0.05  -0.19     0.08   0.10   0.00    -0.02  -0.08   0.01
  41   6     0.07   0.03  -0.04     0.02   0.14  -0.06    -0.02  -0.08  -0.15
  42   6     0.08   0.03  -0.03     0.03   0.12  -0.03    -0.02  -0.10  -0.18
  43   6     0.10  -0.00  -0.07     0.14   0.09  -0.02     0.00  -0.06  -0.12
  44   6     0.10  -0.03  -0.08     0.16  -0.04  -0.02     0.03   0.04   0.05
  45   6     0.09  -0.02  -0.02     0.08  -0.13  -0.03     0.04   0.09   0.16
  46   6     0.08   0.03   0.03    -0.02  -0.08  -0.01     0.00   0.02   0.03
  47   6     0.07   0.05   0.02    -0.04   0.05  -0.01    -0.02  -0.08  -0.14
  48   6     0.09  -0.00   0.08    -0.05   0.10  -0.11     0.03  -0.05  -0.14
  49   6     0.09  -0.03   0.07    -0.03   0.03  -0.06     0.07   0.00   0.02
  50   6    -0.11   0.02   0.01    -0.07   0.03   0.11    -0.09   0.00  -0.01
  51   6    -0.12  -0.02   0.05    -0.06   0.04  -0.04    -0.09  -0.02  -0.07
  52   6    -0.10  -0.00   0.02    -0.06   0.05  -0.05    -0.09  -0.01  -0.09
  53   6    -0.04  -0.05  -0.01    -0.07   0.04  -0.06    -0.05  -0.02  -0.06
  54   6     0.06  -0.02  -0.00    -0.03   0.05  -0.02     0.03  -0.00   0.02
  55   6     0.09   0.07   0.02     0.03   0.06   0.05     0.07   0.02   0.08
  56   6     0.01   0.11   0.01     0.02   0.07   0.06     0.01   0.02   0.01
  57   6    -0.08   0.08   0.01    -0.03   0.06   0.00    -0.07   0.01  -0.08
  58   6    -0.10  -0.05   0.10    -0.05   0.06  -0.17    -0.07  -0.03  -0.06
  59   6    -0.07  -0.03   0.06    -0.03   0.05  -0.10    -0.04  -0.04   0.03
  60   6    -0.03  -0.04   0.02     0.01   0.02  -0.09    -0.02  -0.04   0.01
  61   6    -0.01  -0.09   0.04     0.03  -0.02  -0.13    -0.01  -0.04  -0.08
  62   6    -0.02  -0.09   0.03     0.03   0.00  -0.01    -0.07  -0.03  -0.05
  63   6    -0.05  -0.00   0.02    -0.00   0.11  -0.02    -0.09   0.00   0.01
  64   1    -0.02   0.05  -0.01     0.00   0.06  -0.00    -0.01   0.01   0.03
  65   1     0.01   0.05  -0.01     0.04   0.01   0.03     0.02   0.01   0.02
  66   1     0.02  -0.01  -0.00     0.06  -0.03   0.02     0.03  -0.00  -0.01
  67   1     0.03  -0.01  -0.06     0.04  -0.03   0.06     0.01  -0.01  -0.02
  68   1     0.02   0.02  -0.07     0.03  -0.01   0.08     0.00  -0.01   0.03
  69   1     0.00   0.03  -0.03     0.01   0.01   0.06    -0.01  -0.01   0.05
  70   1    -0.02   0.02   0.02    -0.03   0.00   0.04     0.00   0.02  -0.00
  71   1    -0.02   0.03   0.03    -0.02  -0.02  -0.02    -0.00   0.01  -0.03
  72   1    -0.04   0.05   0.05    -0.01  -0.00   0.02    -0.02   0.01  -0.03
  73   1    -0.05   0.02   0.05     0.00   0.04   0.06    -0.06  -0.02  -0.02
  74   1    -0.03  -0.05  -0.03    -0.01   0.05   0.05    -0.04  -0.04   0.05
  75   1    -0.00  -0.09  -0.08    -0.01   0.02  -0.02    -0.01  -0.03   0.08
  76   1     0.01  -0.04  -0.04    -0.02  -0.02  -0.07     0.03  -0.02   0.03
  77   1     0.01  -0.00  -0.03    -0.02  -0.03   0.01     0.02   0.04  -0.02
  78   1     0.02  -0.03   0.00    -0.02   0.01   0.00     0.02   0.01  -0.02
  79   1    -0.01  -0.04   0.01     0.02   0.02  -0.00    -0.02  -0.00   0.02
  80   1    -0.02  -0.02   0.00     0.04  -0.01  -0.02    -0.04   0.01   0.06
  81   1    -0.01   0.01  -0.01     0.02  -0.05  -0.01    -0.02   0.04   0.02
  82   1     0.02   0.01  -0.01    -0.02  -0.06  -0.00     0.02   0.05  -0.03
  83   1     0.04  -0.02   0.05    -0.04  -0.00  -0.05     0.02   0.01  -0.03
  84   1     0.01  -0.01  -0.04     0.04  -0.03   0.05     0.02   0.01   0.08
  85   1     0.01   0.01  -0.09     0.05  -0.00   0.03    -0.00  -0.01   0.08
  86   1     0.01   0.02  -0.08     0.03   0.04   0.00    -0.02  -0.03   0.00
  87   1     0.03  -0.00  -0.03     0.06   0.05  -0.01     0.00  -0.03  -0.05
  88   1     0.03  -0.02  -0.03     0.07  -0.02  -0.01     0.02   0.02   0.04
  89   1     0.03  -0.01  -0.01     0.03  -0.07  -0.01     0.02   0.06   0.09
  90   1     0.02   0.01   0.02    -0.02  -0.04   0.00     0.00   0.01   0.03
  91   1     0.02   0.02   0.01    -0.03   0.02   0.00    -0.01  -0.03  -0.06
  92   1     0.03  -0.00   0.05    -0.03   0.04  -0.05     0.01  -0.01  -0.07
  93   1    -0.03   0.01  -0.00    -0.03   0.01   0.06    -0.03   0.01  -0.01
  94   1    -0.02  -0.03  -0.01    -0.03   0.01  -0.03    -0.02  -0.01  -0.03
  95   1     0.03  -0.02  -0.00    -0.01   0.01  -0.01     0.02  -0.00   0.02
  96   1     0.05   0.03   0.01     0.02   0.02   0.03     0.04   0.01   0.05
  97   1     0.01   0.05   0.00     0.02   0.02   0.03     0.01   0.01   0.01
  98   1    -0.04   0.03   0.00    -0.01   0.02   0.00    -0.03   0.00  -0.03
  99   1    -0.03  -0.02   0.04    -0.01   0.02  -0.08    -0.02  -0.01  -0.03
 100   1    -0.01  -0.04   0.03    -0.00  -0.01  -0.07    -0.01  -0.01  -0.04
 101   1    -0.01  -0.05   0.01     0.00  -0.00  -0.01    -0.03  -0.01  -0.02
 102   1    -0.03  -0.00   0.01    -0.02   0.05  -0.01    -0.04   0.00   0.01
                     22                     23                     24
                        a                      a                      a 
 Frequencies --   128.3225               135.2651               138.7947
 Red. masses --    10.5517                10.4734                10.4472
 Frc consts  --     0.0000                 0.0000                 0.0000
 IR Inten    --     1.4563                 1.5620                 1.4037
 Raman Activ --     0.0000                 0.0000                 0.0000
 Depolar     --     0.0000                 0.0000                 0.0000
 Atom AN      X      Y      Z        X      Y      Z        X      Y      Z
   1   6    -0.00   0.03   0.01     0.02  -0.03   0.06    -0.02  -0.06   0.02
   2   6     0.04  -0.03   0.04     0.05  -0.00   0.03    -0.04  -0.04   0.00
   3   6     0.04  -0.05   0.02     0.04   0.04  -0.05    -0.06   0.02  -0.02
   4   6     0.01  -0.04  -0.02     0.00   0.04  -0.09    -0.05   0.05  -0.02
   5   6     0.01  -0.04  -0.03     0.01   0.02  -0.07    -0.04   0.03  -0.00
   6   6     0.01  -0.10   0.22    -0.00  -0.04   0.11    -0.06  -0.01   0.08
   7   6     0.01  -0.08   0.21     0.00  -0.07   0.19    -0.04  -0.05   0.07
   8   6    -0.01  -0.01  -0.03     0.01  -0.05   0.10     0.00  -0.04  -0.01
   9   7    -0.01  -0.00  -0.05     0.00  -0.06   0.13     0.02  -0.04  -0.04
  10   6    -0.02   0.02  -0.11     0.01  -0.03   0.04     0.04  -0.02  -0.04
  11   6    -0.04  -0.01  -0.02     0.01  -0.02   0.04     0.01  -0.00   0.02
  12   6     0.00  -0.02  -0.10     0.02  -0.00   0.01     0.00   0.08   0.10
  13   6    -0.01  -0.05  -0.17     0.02  -0.01  -0.04    -0.01   0.20   0.36
  14   6    -0.00   0.01  -0.07     0.01  -0.02  -0.04    -0.01   0.13   0.24
  15   6     0.00   0.07   0.05     0.01  -0.00  -0.00     0.03  -0.04  -0.09
  16   6     0.01   0.07   0.02     0.00   0.00   0.01     0.03  -0.04  -0.10
  17   7    -0.02   0.08   0.05     0.01  -0.00  -0.00     0.03  -0.07  -0.15
  18   6    -0.02   0.04   0.04     0.01  -0.01  -0.01     0.02  -0.04  -0.08
  19   6    -0.04  -0.07  -0.08     0.01  -0.01  -0.02    -0.03   0.09   0.18
  20   6    -0.03  -0.13  -0.09     0.01   0.01  -0.00    -0.03   0.10   0.24
  21   6    -0.01  -0.06   0.04     0.01   0.02   0.02     0.03  -0.07  -0.04
  22   6     0.01   0.04   0.14     0.01   0.01   0.01     0.06  -0.17  -0.25
  23   6    -0.00   0.07   0.09     0.01   0.00  -0.00     0.04  -0.10  -0.17
  24   6    -0.00   0.02  -0.04     0.01   0.02   0.02     0.03   0.01  -0.03
  25   6     0.02   0.03  -0.03    -0.01   0.02   0.00     0.03   0.03  -0.03
  26   6     0.07   0.01   0.06    -0.06   0.04  -0.17     0.05   0.03   0.02
  27   6     0.07   0.01   0.06    -0.07   0.04  -0.23     0.05   0.03   0.02
  28   6     0.06   0.01   0.08    -0.05   0.05  -0.28     0.04   0.03   0.03
  29   6     0.03  -0.04   0.05    -0.04   0.13  -0.16     0.03   0.00   0.02
  30   6    -0.02  -0.04  -0.01    -0.01   0.10   0.09    -0.01   0.00  -0.01
  31   6    -0.04   0.03  -0.05     0.02  -0.01   0.19    -0.03   0.04  -0.01
  32   6    -0.02   0.08  -0.01     0.04  -0.08  -0.02    -0.02   0.07   0.01
  33   6     0.03   0.07   0.06    -0.01  -0.04  -0.25     0.02   0.07   0.03
  34   6     0.03   0.01  -0.02    -0.01   0.01  -0.04     0.03   0.03  -0.03
  35   6    -0.01   0.02  -0.10     0.04  -0.01   0.13     0.00   0.04  -0.09
  36   6    -0.02   0.03  -0.10     0.02   0.00   0.08    -0.01   0.05  -0.11
  37   7    -0.03   0.02  -0.10    -0.01   0.02   0.01    -0.05   0.05  -0.15
  38   6    -0.02   0.01  -0.06    -0.01   0.01  -0.01    -0.04   0.03  -0.12
  39   6     0.02  -0.02   0.05    -0.09   0.06  -0.25    -0.03   0.01  -0.07
  40   6     0.03  -0.03   0.10    -0.08   0.05  -0.23     0.00  -0.03   0.03
  41   6     0.02  -0.03   0.01     0.00   0.00   0.08     0.03  -0.05   0.06
  42   6     0.02  -0.02   0.01     0.01   0.01   0.09     0.03  -0.04   0.08
  43   6     0.00  -0.01   0.02    -0.04  -0.01   0.05    -0.03  -0.03   0.07
  44   6    -0.00   0.02   0.02    -0.06  -0.02  -0.04    -0.05   0.01   0.00
  45   6     0.01   0.02  -0.01    -0.04  -0.01  -0.05    -0.01   0.02  -0.05
  46   6     0.03  -0.00  -0.03     0.01   0.03   0.02     0.05   0.02  -0.03
  47   6     0.04  -0.02  -0.02     0.02   0.03   0.09     0.07  -0.02   0.04
  48   6    -0.01  -0.01  -0.09     0.07  -0.02   0.27     0.02  -0.02  -0.01
  49   6    -0.02   0.01  -0.11     0.05  -0.02   0.17    -0.01   0.02  -0.09
  50   6    -0.05  -0.04   0.20     0.00  -0.03   0.07    -0.05  -0.03   0.06
  51   6    -0.05  -0.03   0.20     0.00  -0.03   0.08    -0.05  -0.05   0.06
  52   6    -0.01  -0.02   0.24     0.01  -0.03   0.08    -0.05  -0.05   0.05
  53   6     0.02  -0.11   0.14     0.01  -0.06   0.04    -0.01  -0.10   0.01
  54   6     0.03  -0.08  -0.08     0.01  -0.06  -0.04     0.04  -0.08  -0.02
  55   6    -0.00   0.03  -0.16     0.01  -0.02  -0.05     0.05  -0.02  -0.02
  56   6    -0.00   0.12   0.01     0.01   0.01   0.01     0.01   0.02   0.00
  57   6    -0.01   0.09   0.21     0.01  -0.00   0.08    -0.04  -0.00   0.04
  58   6    -0.03   0.01  -0.02     0.01  -0.02   0.02    -0.02  -0.06   0.01
  59   6    -0.02   0.03  -0.18     0.02  -0.02  -0.01     0.03  -0.03  -0.04
  60   6    -0.01   0.03  -0.19     0.01  -0.01  -0.02     0.02  -0.02  -0.04
  61   6    -0.01   0.02  -0.24     0.01   0.03  -0.13     0.00   0.03  -0.05
  62   6    -0.02   0.00  -0.03    -0.03   0.04  -0.08    -0.04   0.05  -0.02
  63   6    -0.04   0.04  -0.03    -0.02   0.00   0.00    -0.02  -0.01  -0.01
  64   1    -0.00   0.02   0.00     0.01  -0.02   0.04    -0.00  -0.03   0.01
  65   1     0.02  -0.01   0.02     0.03  -0.01   0.02    -0.01  -0.02   0.00
  66   1     0.02  -0.02   0.01     0.02   0.02  -0.02    -0.02   0.01  -0.01
  67   1     0.00  -0.04   0.12    -0.01  -0.02   0.05    -0.02  -0.01   0.04
  68   1     0.00  -0.03   0.11    -0.00  -0.03   0.09    -0.02  -0.03   0.03
  69   1    -0.01  -0.01   0.02    -0.00  -0.02   0.04     0.00  -0.02  -0.00
  70   1    -0.00  -0.03  -0.08     0.00  -0.01  -0.02    -0.00   0.10   0.18
  71   1    -0.00  -0.00  -0.03     0.01  -0.01  -0.02    -0.01   0.07   0.12
  72   1    -0.01   0.01  -0.00     0.00  -0.00  -0.01     0.00   0.00  -0.01
  73   1    -0.02  -0.03  -0.05     0.01  -0.00  -0.01    -0.02   0.06   0.10
  74   1    -0.01  -0.06  -0.06     0.00   0.00  -0.00    -0.02   0.06   0.14
  75   1     0.00  -0.03   0.01     0.00   0.01   0.01     0.01  -0.03  -0.02
  76   1     0.01   0.02   0.07    -0.00   0.01   0.01     0.03  -0.08  -0.12
  77   1     0.03   0.00   0.03    -0.02   0.02  -0.07     0.02   0.01   0.02
  78   1     0.02  -0.03   0.02    -0.02   0.06  -0.06     0.01  -0.01   0.01
  79   1    -0.01  -0.02  -0.01    -0.00   0.04   0.06    -0.01  -0.01  -0.01
  80   1    -0.02   0.01  -0.03     0.01  -0.01   0.12    -0.02   0.01  -0.01
  81   1    -0.01   0.04  -0.01     0.02  -0.05   0.01    -0.01   0.03   0.00
  82   1     0.01   0.03   0.02    -0.00  -0.03  -0.10     0.01   0.03   0.01
  83   1     0.01   0.00   0.00    -0.00  -0.00  -0.02     0.01   0.01  -0.00
  84   1    -0.01   0.01  -0.02    -0.01   0.01  -0.02    -0.02   0.02  -0.03
  85   1     0.01  -0.01   0.03    -0.04   0.03  -0.13    -0.02   0.00  -0.02
  86   1     0.01  -0.02   0.06    -0.04   0.03  -0.12     0.00  -0.02   0.03
  87   1    -0.00  -0.00   0.01    -0.02  -0.01   0.02    -0.02  -0.01   0.03
  88   1    -0.00   0.01   0.01    -0.03  -0.01  -0.03    -0.03   0.00  -0.00
  89   1     0.00   0.01  -0.01    -0.02  -0.01  -0.04    -0.01   0.01  -0.03
  90   1     0.01  -0.00  -0.02     0.01   0.02   0.01     0.02   0.01  -0.02
  91   1     0.02  -0.01  -0.01     0.01   0.01   0.03     0.03  -0.01   0.01
  92   1    -0.01  -0.00  -0.04     0.04  -0.02   0.13     0.01  -0.01   0.01
  93   1    -0.01  -0.02   0.10     0.00  -0.01   0.03    -0.03  -0.00   0.04
  94   1     0.01  -0.06   0.05     0.00  -0.03   0.01    -0.01  -0.04   0.00
  95   1     0.01  -0.04  -0.05     0.00  -0.02  -0.02     0.02  -0.03  -0.01
  96   1    -0.01   0.02  -0.10    -0.00  -0.00  -0.03     0.03  -0.00  -0.01
  97   1    -0.00   0.06  -0.01     0.00   0.01   0.00     0.00   0.02  -0.00
  98   1    -0.01   0.04   0.09     0.00   0.00   0.03    -0.02   0.01   0.01
  99   1    -0.01   0.00   0.00     0.00  -0.01  -0.00    -0.01  -0.03   0.01
 100   1    -0.01   0.01  -0.12     0.00   0.02  -0.07     0.01   0.02  -0.03
 101   1    -0.01   0.00  -0.01    -0.02   0.01  -0.03    -0.01   0.02  -0.01
 102   1    -0.02   0.02  -0.01    -0.02  -0.00   0.01    -0.00  -0.00  -0.00
                     25                     26                     27
                        a                      a                      a 
 Frequencies --   143.3560               155.4545               170.9580
 Red. masses --    11.2550                10.8409                10.6997
 Frc consts  --     0.0000                 0.0000                 0.0000
 IR Inten    --     0.1312                 5.2294                 1.9060
 Raman Activ --     0.0000                 0.0000                 0.0000
 Depolar     --     0.0000                 0.0000                 0.0000
 Atom AN      X      Y      Z        X      Y      Z        X      Y      Z
   1   6     0.05  -0.02   0.12    -0.11   0.09  -0.13    -0.10   0.10  -0.01
   2   6     0.11   0.06   0.03    -0.10  -0.03  -0.03     0.03   0.01   0.01
   3   6     0.11   0.09  -0.12    -0.06  -0.17   0.10     0.08  -0.14  -0.03
   4   6     0.04   0.06  -0.18    -0.02  -0.17   0.13     0.02  -0.18  -0.08
   5   6     0.04   0.02  -0.13    -0.03  -0.09   0.06     0.01  -0.12  -0.10
   6   6     0.05   0.02  -0.08     0.01  -0.00  -0.09     0.06  -0.07  -0.05
   7   6     0.04  -0.02   0.13    -0.01   0.07  -0.17     0.02   0.01   0.06
   8   6     0.02  -0.04   0.24    -0.05   0.06  -0.10    -0.07   0.02   0.10
   9   7     0.00  -0.03   0.27    -0.06   0.05   0.00    -0.09   0.02   0.12
  10   6    -0.02  -0.01   0.18    -0.06   0.04   0.03    -0.08   0.02   0.07
  11   6    -0.02   0.04   0.03    -0.06   0.00   0.14     0.01  -0.01  -0.02
  12   6    -0.01   0.02  -0.00    -0.01  -0.01   0.10    -0.00  -0.05  -0.03
  13   6     0.01  -0.02  -0.09     0.01  -0.09  -0.01     0.01  -0.01   0.05
  14   6     0.01  -0.02  -0.08     0.03  -0.10  -0.05     0.00   0.00   0.10
  15   6     0.00   0.02  -0.01     0.08  -0.06  -0.00     0.02  -0.02   0.04
  16   6     0.00   0.03  -0.00     0.09  -0.04   0.04     0.02  -0.04   0.00
  17   7    -0.01   0.03  -0.01     0.11  -0.05   0.01     0.03  -0.04   0.02
  18   6    -0.01   0.01  -0.02     0.11  -0.06  -0.02     0.03  -0.01   0.04
  19   6    -0.02  -0.04  -0.06     0.11  -0.08  -0.03     0.05   0.02   0.06
  20   6    -0.02  -0.05  -0.03     0.11  -0.06   0.05     0.05   0.02   0.01
  21   6    -0.01  -0.00   0.06     0.10  -0.02   0.12     0.04  -0.01  -0.05
  22   6     0.00   0.02   0.07     0.10  -0.04   0.08     0.02  -0.02  -0.03
  23   6     0.00   0.02   0.01     0.10  -0.06  -0.01     0.02  -0.01   0.04
  24   6    -0.01   0.02   0.01     0.06   0.01   0.11     0.03  -0.06  -0.05
  25   6     0.02  -0.01   0.01     0.07   0.03   0.11    -0.01  -0.02  -0.05
  26   6     0.07  -0.02   0.10     0.11   0.02   0.13    -0.09  -0.02  -0.04
  27   6     0.05  -0.03   0.04     0.07   0.03  -0.03    -0.13   0.02  -0.01
  28   6     0.05  -0.03   0.05     0.08   0.04  -0.08    -0.16   0.01   0.07
  29   6     0.03  -0.08   0.02     0.07   0.02  -0.09    -0.13   0.09   0.10
[...]
  68   1    -0.02   0.02   0.00    -0.07   0.06   0.02    -0.23   0.21   0.05
  69   1    -0.00   0.00  -0.00    -0.00  -0.00  -0.00     0.00  -0.00  -0.00
  70   1    -0.01   0.02  -0.01    -0.01   0.04  -0.02    -0.02   0.06  -0.03
  71   1     0.08   0.07  -0.03     0.09   0.08  -0.03     0.12   0.11  -0.05
  72   1     0.00   0.00  -0.00    -0.00  -0.00   0.00     0.00   0.00  -0.00
  73   1     0.00   0.01  -0.01     0.01   0.02  -0.01     0.00   0.01  -0.00
  74   1    -0.01   0.01  -0.01    -0.04   0.03  -0.02    -0.01   0.01  -0.00
  75   1    -0.01  -0.00   0.00    -0.03  -0.01   0.00    -0.01  -0.00   0.00
  76   1     0.00   0.00  -0.00    -0.01  -0.02   0.01     0.00   0.01  -0.01
  77   1    -0.00   0.00   0.00    -0.01   0.00   0.00    -0.01   0.00   0.00
  78   1     0.00   0.00   0.00    -0.15  -0.10  -0.08     0.04   0.03   0.02
  79   1     0.00  -0.00   0.00    -0.23   0.13  -0.06     0.06  -0.04   0.02
  80   1     0.00  -0.00  -0.00    -0.04   0.42   0.07     0.01  -0.12  -0.02
  81   1    -0.00  -0.00  -0.00     0.30   0.20   0.15    -0.09  -0.06  -0.05
  82   1    -0.01   0.01  -0.00     0.51  -0.28   0.15    -0.19   0.11  -0.05
  83   1     0.00   0.00  -0.00    -0.06  -0.05   0.02     0.01   0.01  -0.00
  84   1    -0.00  -0.00   0.00    -0.00  -0.00   0.00    -0.00  -0.00   0.00
  85   1     0.02   0.05   0.00     0.01   0.02   0.00    -0.01  -0.03  -0.00
  86   1    -0.04   0.06   0.02    -0.01   0.02   0.01     0.02  -0.03  -0.01
  87   1    -0.01   0.01  -0.00     0.00  -0.00   0.00    -0.02   0.02  -0.01
  88   1     0.00   0.01  -0.01    -0.00  -0.00   0.00     0.01   0.02  -0.01
  89   1     0.02   0.00  -0.01    -0.01  -0.00   0.00     0.03   0.00  -0.01
  90   1     0.01  -0.01   0.01    -0.01   0.00  -0.00     0.01  -0.01   0.00
  91   1    -0.01  -0.02   0.01     0.00   0.01  -0.01    -0.00  -0.01   0.01
  92   1    -0.00  -0.01  -0.00    -0.01  -0.02  -0.00     0.02   0.04   0.00
  93   1    -0.04  -0.05  -0.02    -0.00  -0.00  -0.00     0.00   0.00   0.00
  94   1    -0.20   0.04   0.14     0.00  -0.00  -0.00     0.01  -0.00  -0.01
  95   1    -0.15  -0.23   0.13     0.00   0.01  -0.00     0.01   0.02  -0.01
  96   1     0.16  -0.48  -0.07    -0.00   0.01   0.00    -0.01   0.04   0.01
  97   1     0.31  -0.07  -0.21    -0.01   0.00   0.01    -0.03   0.01   0.02
  98   1     0.28   0.43  -0.24    -0.01  -0.02   0.01    -0.03  -0.04   0.02
  99   1    -0.06   0.01  -0.00    -0.01   0.00  -0.00    -0.03   0.01  -0.00
 100   1     0.03  -0.03  -0.01     0.16  -0.14  -0.03     0.40  -0.36  -0.09
 101   1    -0.00   0.00   0.00    -0.03   0.01   0.03    -0.08   0.04   0.09
 102   1     0.00   0.00   0.00     0.01   0.02   0.03     0.03   0.06   0.07
                    295                    296                    297
                        a                      a                      a 
 Frequencies --  3092.8632              3103.9553              3108.3471
 Red. masses --     1.8702                 1.8213                 1.8206
 Frc consts  --     0.0000                 0.0000                 0.0000
 IR Inten    --   271.3360                13.0042                20.4198
 Raman Activ --     0.0000                 0.0000                 0.0000
 Depolar     --     0.0000                 0.0000                 0.0000
 Atom AN      X      Y      Z        X      Y      Z        X      Y      Z
   1   6     0.01   0.00   0.00    -0.00  -0.00  -0.00    -0.00  -0.00  -0.00
   2   6     0.01  -0.00  -0.01    -0.00   0.00   0.00    -0.00   0.00   0.00
   3   6    -0.00  -0.01  -0.01     0.00   0.00   0.00     0.00   0.00   0.00
   4   6    -0.00  -0.00  -0.00     0.00   0.00  -0.00    -0.00  -0.00   0.00
   5   6     0.00   0.00   0.00    -0.00  -0.00   0.00    -0.00  -0.00  -0.00
   6   6     0.01   0.03   0.01    -0.00  -0.00  -0.00    -0.00  -0.00  -0.00
   7   6    -0.02   0.02   0.00     0.00  -0.00  -0.00     0.00  -0.00  -0.00
   8   6    -0.00  -0.00  -0.00     0.00  -0.00  -0.00    -0.00   0.00   0.00
   9   7    -0.00   0.00  -0.00     0.00  -0.00   0.00    -0.00  -0.00  -0.00
  10   6     0.00   0.00   0.00    -0.00  -0.00  -0.00     0.00   0.00   0.00
  11   6    -0.00  -0.00  -0.00     0.00  -0.00   0.00    -0.00   0.00  -0.00
  12   6     0.00   0.00   0.00    -0.00   0.00  -0.00     0.00   0.00  -0.00
  13   6     0.03  -0.10   0.06    -0.00   0.00  -0.00    -0.00   0.00  -0.00
  14   6    -0.16  -0.14   0.06     0.00   0.00  -0.00     0.01   0.00  -0.00
  15   6    -0.01   0.00  -0.00     0.00  -0.00   0.00     0.00  -0.00   0.00
  16   6     0.00   0.00  -0.00    -0.00  -0.00   0.00     0.00  -0.00  -0.00
  17   7     0.00   0.00  -0.00    -0.00  -0.00   0.00    -0.00  -0.00   0.00
  18   6     0.00  -0.00   0.00    -0.00  -0.00   0.00    -0.00  -0.00   0.00
  19   6     0.00   0.02  -0.01    -0.00  -0.00   0.00    -0.00  -0.00   0.00
  20   6    -0.03   0.02  -0.02     0.00  -0.00   0.00     0.00  -0.00   0.00
  21   6    -0.03  -0.01   0.00     0.00   0.00  -0.00     0.00   0.00  -0.00
  22   6    -0.01  -0.05   0.03     0.00   0.00  -0.00     0.00   0.00  -0.00
  23   6     0.00  -0.00   0.00    -0.00   0.00  -0.00    -0.00   0.00  -0.00
  24   6     0.00  -0.00   0.00     0.00   0.00   0.00    -0.00  -0.00   0.00
  25   6    -0.00  -0.00   0.00    -0.00  -0.00   0.00     0.00   0.00  -0.00
  26   6    -0.00   0.00   0.00     0.01  -0.00  -0.01     0.00  -0.00  -0.00
  27   6    -0.00  -0.00   0.00    -0.00  -0.01  -0.00     0.00  -0.00  -0.00
  28   6     0.00  -0.00  -0.00    -0.00   0.00  -0.00    -0.00   0.00   0.00
  29   6    -0.01  -0.00  -0.00     0.00   0.00   0.00     0.00   0.00   0.00
  30   6    -0.01   0.00  -0.00     0.00  -0.00   0.00     0.00  -0.00   0.00
  31   6    -0.00   0.01   0.00     0.00  -0.00  -0.00     0.00  -0.00  -0.00
  32   6     0.01   0.00   0.00    -0.00  -0.00  -0.00    -0.00  -0.00  -0.00
  33   6     0.01  -0.00   0.00    -0.02   0.01  -0.01    -0.00   0.00  -0.00
  34   6    -0.01  -0.01   0.00    -0.21  -0.16   0.06    -0.02  -0.01   0.00
  35   6    -0.00   0.00   0.00    -0.01   0.00   0.00    -0.00   0.00   0.00
  36   6     0.00  -0.00  -0.00     0.00   0.00  -0.00    -0.00   0.00   0.00
  37   7    -0.00  -0.00   0.00    -0.00   0.00   0.00     0.00   0.00  -0.00
  38   6    -0.00  -0.00   0.00    -0.00  -0.00  -0.00    -0.00   0.00   0.00
  39   6    -0.01  -0.01  -0.00     0.00   0.00   0.00     0.00   0.00   0.00
  40   6     0.01  -0.01  -0.00    -0.00   0.00   0.00    -0.00   0.00   0.00
  41   6     0.00   0.00  -0.00    -0.00  -0.00   0.00    -0.00  -0.00   0.00
  42   6    -0.00  -0.00   0.00    -0.00  -0.00   0.00     0.00   0.00  -0.00
  43   6    -0.00   0.00  -0.00    -0.00   0.00  -0.00     0.00  -0.00   0.00
  44   6     0.00   0.00  -0.00     0.00   0.00  -0.00    -0.00  -0.00   0.00
  45   6     0.00   0.00  -0.00     0.00   0.00  -0.00    -0.00  -0.00   0.00
  46   6     0.00  -0.00   0.00    -0.00   0.00  -0.00    -0.00   0.00  -0.00
  47   6    -0.00  -0.00   0.00     0.00   0.00  -0.00     0.00   0.00  -0.00
  48   6     0.01   0.01   0.00    -0.01  -0.01  -0.00    -0.00  -0.00  -0.00
  49   6     0.00   0.00   0.00     0.00  -0.00  -0.00    -0.00  -0.00   0.00
  50   6    -0.03  -0.03  -0.01     0.00   0.00   0.00     0.01   0.01   0.00
  51   6    -0.00  -0.00  -0.00     0.00  -0.00   0.00    -0.01   0.01   0.00
  52   6    -0.00   0.00   0.00     0.00  -0.00  -0.00    -0.00  -0.00   0.00
  53   6    -0.01   0.00   0.01     0.00   0.00  -0.00     0.00  -0.00  -0.00
  54   6    -0.01  -0.01   0.00     0.00   0.00  -0.00     0.00   0.00  -0.00
  55   6     0.00  -0.01  -0.00     0.00  -0.00   0.00    -0.00   0.00   0.00
  56   6     0.01  -0.00  -0.01    -0.00   0.00   0.00    -0.00   0.00   0.00
  57   6     0.01   0.01  -0.00     0.00   0.00  -0.00    -0.01  -0.01   0.01
  58   6    -0.01   0.00  -0.00     0.02  -0.00   0.00    -0.26   0.06  -0.01
  59   6    -0.00  -0.00  -0.00     0.00   0.00   0.00    -0.01  -0.01  -0.00
  60   6     0.00  -0.00  -0.00    -0.00   0.00  -0.00    -0.00   0.00   0.00
  61   6     0.02  -0.02  -0.01    -0.00   0.00   0.00    -0.01   0.01   0.00
  62   6    -0.01   0.00   0.01     0.00  -0.00  -0.00     0.00  -0.00  -0.00
  63   6     0.00   0.00   0.01    -0.00  -0.00  -0.00    -0.00  -0.00  -0.00
  64   1    -0.03  -0.01  -0.00     0.01   0.00   0.00     0.00   0.00   0.00
  65   1    -0.02   0.01   0.02     0.00  -0.00  -0.00     0.00  -0.00  -0.00
  66   1     0.01   0.02   0.03    -0.00  -0.00  -0.00    -0.00  -0.00  -0.00
  67   1    -0.03  -0.11  -0.03     0.00   0.01   0.00     0.00   0.01   0.00
  68   1     0.06  -0.05  -0.01    -0.01   0.01   0.00    -0.01   0.01   0.00
  69   1     0.00  -0.00   0.00    -0.00   0.00  -0.00    -0.00   0.00   0.00
  70   1    -0.10   0.34  -0.19     0.00  -0.01   0.01     0.00  -0.02   0.01
  71   1     0.55   0.49  -0.22    -0.02  -0.01   0.01    -0.02  -0.02   0.01
  72   1    -0.00  -0.00   0.00     0.00   0.00   0.00     0.00   0.00  -0.00
  73   1    -0.02  -0.06   0.04     0.00   0.01  -0.00     0.00   0.00  -0.00
  74   1     0.11  -0.08   0.06    -0.01   0.01  -0.00    -0.00   0.00  -0.00
  75   1     0.11   0.03  -0.01    -0.01  -0.00   0.00    -0.01  -0.00   0.00
  76   1     0.05   0.17  -0.09    -0.00  -0.01   0.01    -0.00  -0.00   0.00
  77   1     0.01  -0.01  -0.01    -0.03   0.01   0.02    -0.01   0.00   0.00
  78   1     0.02   0.01   0.01    -0.00  -0.00  -0.00    -0.00  -0.00  -0.00
  79   1     0.02  -0.01   0.01    -0.01   0.00  -0.00    -0.00   0.00  -0.00
  80   1     0.00  -0.03  -0.00    -0.00   0.01   0.00    -0.00   0.00   0.00
  81   1    -0.02  -0.01  -0.01     0.01   0.01   0.01     0.00   0.00   0.00
  82   1    -0.02   0.01  -0.01     0.08  -0.04   0.02     0.01  -0.00   0.00
  83   1     0.04   0.03  -0.01     0.73   0.57  -0.20     0.05   0.04  -0.01
  84   1     0.00   0.00  -0.00    -0.00  -0.00  -0.00    -0.00  -0.00   0.00
  85   1     0.02   0.05   0.00    -0.00  -0.01  -0.00    -0.00  -0.01  -0.00
  86   1    -0.03   0.04   0.02     0.01  -0.01  -0.00     0.00  -0.01  -0.00
  87   1     0.01  -0.01   0.00     0.00  -0.00   0.00    -0.01   0.00  -0.00
  88   1    -0.00  -0.01   0.01    -0.00  -0.00   0.00     0.00   0.01  -0.00
  89   1    -0.01  -0.00   0.00    -0.00  -0.00   0.00     0.01   0.00  -0.00
  90   1    -0.01   0.01  -0.00     0.00  -0.00   0.00     0.00  -0.00   0.00
  91   1     0.00   0.01  -0.01    -0.00  -0.00   0.00    -0.00  -0.00   0.00
  92   1    -0.02  -0.05  -0.00     0.02   0.05   0.00     0.00   0.01   0.00
  93   1     0.09   0.11   0.03    -0.01  -0.01  -0.00    -0.04  -0.05  -0.01
  94   1     0.03  -0.01  -0.02    -0.00   0.00   0.00    -0.00   0.00   0.00
  95   1     0.02   0.02  -0.01    -0.00  -0.00   0.00    -0.00  -0.00   0.00
  96   1    -0.01   0.04   0.01    -0.00   0.00   0.00     0.00  -0.01  -0.00
  97   1    -0.03   0.01   0.02     0.00  -0.00  -0.00     0.01  -0.00  -0.01
  98   1    -0.02  -0.03   0.01    -0.00  -0.00   0.00     0.03   0.05  -0.03
  99   1     0.05  -0.01   0.00    -0.07   0.01  -0.00     0.93  -0.19   0.04
 100   1    -0.08   0.07   0.02     0.00  -0.00  -0.00     0.04  -0.04  -0.01
 101   1     0.02  -0.01  -0.02    -0.00   0.00   0.00    -0.00   0.00   0.00
 102   1    -0.01  -0.01  -0.02     0.00   0.00   0.00     0.00   0.00   0.00
                    298                    299                    300
                        a                      a                      a 
 Frequencies --  3467.7092              3472.4758              3474.5695
 Red. masses --     1.8551                 1.8549                 1.8547
 Frc consts  --     0.0000                 0.0000                 0.0000
 IR Inten    --    72.3214               164.2491                32.8237
 Raman Activ --     0.0000                 0.0000                 0.0000
 Depolar     --     0.0000                 0.0000                 0.0000
 Atom AN      X      Y      Z        X      Y      Z        X      Y      Z
   1   6    -0.00  -0.00  -0.00    -0.00  -0.00   0.00     0.00   0.00   0.00
   2   6    -0.00  -0.00   0.00    -0.00   0.00   0.00     0.00  -0.00  -0.00
   3   6     0.00   0.00   0.00     0.00   0.00   0.00    -0.00  -0.00  -0.00
   4   6    -0.00  -0.00  -0.00     0.00   0.00  -0.00    -0.00  -0.00  -0.00
   5   6     0.00  -0.00  -0.00    -0.00  -0.00  -0.00     0.00   0.00   0.00
   6   6    -0.00   0.00   0.00    -0.00  -0.00  -0.00     0.00   0.00   0.00
   7   6     0.00   0.00   0.00    -0.00  -0.00  -0.00    -0.00   0.00   0.00
   8   6    -0.00   0.00   0.00    -0.00   0.00   0.00     0.00  -0.00  -0.00
   9   7    -0.23   0.11   0.01    -0.01   0.01   0.00     0.02  -0.01  -0.00
  10   6    -0.01   0.00  -0.00    -0.00  -0.00  -0.00     0.00   0.00   0.00
  11   6    -0.00  -0.00  -0.00     0.00  -0.00  -0.00    -0.00  -0.00  -0.00
  12   6     0.00   0.00  -0.00    -0.00  -0.00   0.00     0.00  -0.00   0.00
  13   6    -0.00  -0.00  -0.00     0.00   0.00  -0.00    -0.00  -0.00   0.00
  14   6     0.00   0.00   0.00    -0.00   0.00  -0.00     0.00  -0.00   0.00
  15   6    -0.00  -0.00   0.00    -0.00  -0.00   0.00    -0.00   0.00  -0.00
  16   6     0.00  -0.00  -0.00     0.00   0.00  -0.00     0.00  -0.00   0.00
  17   7    -0.01  -0.01   0.01     0.13   0.18  -0.12    -0.02  -0.03   0.02
  18   6    -0.00  -0.00   0.00     0.00   0.00  -0.00     0.00  -0.00   0.00
  19   6     0.00  -0.00   0.00    -0.00   0.00  -0.00     0.00   0.00  -0.00
  20   6    -0.00  -0.00   0.00     0.00   0.00  -0.00    -0.00   0.00  -0.00
  21   6     0.00   0.00  -0.00     0.00  -0.00   0.00    -0.00  -0.00   0.00
  22   6     0.00   0.00  -0.00     0.00   0.00  -0.00    -0.00  -0.00   0.00
  23   6     0.00   0.00  -0.00    -0.00  -0.00   0.00     0.00   0.00  -0.00
  24   6    -0.00  -0.00   0.00     0.00   0.00   0.00    -0.00  -0.00   0.00
  25   6     0.00   0.00  -0.00    -0.00  -0.00   0.00     0.00  -0.00  -0.00
  26   6     0.00  -0.00   0.00    -0.00   0.00   0.00     0.00   0.00   0.00
  27   6     0.00  -0.00  -0.00     0.00  -0.00  -0.00     0.00  -0.00  -0.00
  28   6     0.00   0.00  -0.00    -0.00   0.00  -0.00    -0.00   0.00   0.00
  29   6     0.00   0.00   0.00    -0.00  -0.00  -0.00     0.00  -0.00  -0.00
  30   6     0.00  -0.00   0.00    -0.00  -0.00  -0.00    -0.00   0.00   0.00
  31   6    -0.00  -0.00  -0.00    -0.00  -0.00  -0.00    -0.00   0.00   0.00
  32   6    -0.00  -0.00  -0.00    -0.00  -0.00  -0.00     0.00   0.00   0.00
  33   6    -0.00  -0.00   0.00    -0.00   0.00  -0.00     0.00  -0.00   0.00
  34   6    -0.00   0.00   0.00    -0.00   0.00   0.00    -0.00   0.00   0.00
  35   6    -0.00  -0.00  -0.00    -0.00  -0.00  -0.00    -0.00  -0.00   0.00
  36   6    -0.00   0.00  -0.00     0.00   0.00  -0.00     0.00   0.00  -0.00
  37   7     0.01   0.02  -0.00     0.02   0.03  -0.00     0.15   0.20  -0.03
  38   6    -0.00   0.00   0.00     0.00   0.00   0.00     0.00   0.01   0.00
  39   6    -0.00   0.00   0.00    -0.00   0.00   0.00    -0.00   0.00   0.00
  40   6     0.00   0.00   0.00     0.00   0.00  -0.00     0.00   0.00  -0.00
  41   6    -0.00   0.00   0.00    -0.00   0.00   0.00    -0.00  -0.00   0.00
  42   6     0.00  -0.00  -0.00     0.00  -0.00  -0.00     0.00   0.00  -0.00
  43   6     0.00  -0.00   0.00     0.00  -0.00   0.00    -0.00   0.00  -0.00
  44   6     0.00   0.00   0.00    -0.00  -0.00   0.00     0.00   0.00  -0.00
  45   6    -0.00   0.00  -0.00    -0.00  -0.00   0.00     0.00   0.00  -0.00
  46   6    -0.00   0.00  -0.00    -0.00   0.00  -0.00     0.00   0.00  -0.00
  47   6    -0.00   0.00  -0.00     0.00   0.00  -0.00    -0.00  -0.00   0.00
  48   6     0.00  -0.00  -0.00     0.00  -0.00  -0.00     0.00   0.00   0.00
  49   6    -0.00  -0.00   0.00    -0.00  -0.00   0.00    -0.00  -0.00  -0.00
  50   6    -0.00  -0.00   0.00    -0.00   0.00  -0.00     0.00  -0.00   0.00
  51   6    -0.00  -0.00  -0.00     0.00   0.00   0.00    -0.00  -0.00  -0.00
  52   6    -0.00   0.00  -0.00     0.00  -0.00   0.00    -0.00   0.00  -0.00
  53   6    -0.00  -0.00  -0.00     0.00   0.00  -0.00    -0.00  -0.00   0.00
  54   6    -0.00   0.00   0.00     0.00   0.00  -0.00    -0.00  -0.00   0.00
  55   6     0.00  -0.00   0.00    -0.00   0.00   0.00     0.00  -0.00  -0.00
  56   6    -0.00   0.00   0.00    -0.00  -0.00   0.00     0.00  -0.00  -0.00
  57   6     0.00  -0.00   0.00    -0.00  -0.00   0.00     0.00  -0.00   0.00
  58   6     0.00   0.00   0.00    -0.00  -0.00  -0.00     0.00   0.00   0.00
  59   6     0.00  -0.00  -0.00     0.00   0.00   0.00    -0.00  -0.00  -0.00
  60   6     0.00  -0.00  -0.00    -0.00  -0.00  -0.00     0.00   0.00   0.00
  61   6    -0.00   0.00   0.00    -0.00   0.00   0.00     0.00  -0.00  -0.00
  62   6     0.00   0.00   0.00     0.00  -0.00  -0.00    -0.00   0.00   0.00
  63   6    -0.00  -0.00   0.00    -0.00  -0.00  -0.00     0.00   0.00   0.00
  64   1     0.00   0.00  -0.00     0.00   0.00   0.00    -0.00  -0.00  -0.00
  65   1     0.00  -0.00  -0.00     0.00  -0.00  -0.00    -0.00   0.00   0.00
  66   1     0.00  -0.00  -0.00    -0.00  -0.00  -0.00     0.00   0.00   0.00
  67   1     0.00   0.00   0.00     0.00   0.00   0.00    -0.00  -0.00  -0.00
  68   1     0.00  -0.00  -0.00     0.00  -0.00  -0.00     0.00  -0.00  -0.00
  69   1     0.86  -0.43  -0.05     0.05  -0.03  -0.00    -0.09   0.05   0.01
  70   1    -0.00  -0.00   0.00     0.00  -0.00   0.00    -0.00   0.00  -0.00
  71   1    -0.00  -0.00   0.00    -0.00  -0.00   0.00     0.00   0.00  -0.00
  72   1     0.04   0.05  -0.03    -0.48  -0.69   0.45     0.07   0.10  -0.06
  73   1     0.00   0.00  -0.00     0.00  -0.00   0.00    -0.00  -0.00   0.00
  74   1    -0.00   0.00  -0.00    -0.00   0.00  -0.00     0.00  -0.00   0.00
  75   1    -0.00  -0.00  -0.00    -0.00  -0.00   0.00     0.00   0.00  -0.00
  76   1    -0.00  -0.00   0.00     0.00  -0.00   0.00     0.00   0.00  -0.00
  77   1    -0.00   0.00  -0.00     0.00  -0.00   0.00     0.00  -0.00  -0.00
  78   1    -0.00  -0.00  -0.00     0.00   0.00   0.00    -0.00  -0.00  -0.00
  79   1    -0.00   0.00  -0.00    -0.00   0.00  -0.00     0.00  -0.00   0.00
  80   1    -0.00   0.00   0.00    -0.00   0.00   0.00    -0.00  -0.00  -0.00
  81   1     0.00   0.00   0.00     0.00   0.00   0.00    -0.00  -0.00  -0.00
  82   1    -0.00   0.00  -0.00     0.00  -0.00   0.00    -0.00   0.00  -0.00
  83   1     0.00   0.00  -0.00     0.00   0.00  -0.00    -0.00  -0.00   0.00
  84   1    -0.05  -0.07   0.01    -0.08  -0.11   0.02    -0.56  -0.76   0.12
  85   1    -0.00  -0.00  -0.00    -0.00  -0.00  -0.00    -0.00  -0.00  -0.00
  86   1     0.00  -0.00  -0.00     0.00  -0.00  -0.00    -0.00   0.00   0.00
  87   1    -0.00   0.00  -0.00    -0.00   0.00  -0.00     0.00  -0.00   0.00
  88   1     0.00  -0.00  -0.00     0.00   0.00  -0.00    -0.00  -0.00   0.00
  89   1    -0.00   0.00  -0.00     0.00   0.00  -0.00    -0.00  -0.00   0.00
  90   1     0.00  -0.00   0.00     0.00  -0.00   0.00    -0.00   0.00  -0.00
  91   1    -0.00  -0.00   0.00    -0.00  -0.00   0.00     0.00   0.00  -0.00
  92   1     0.00   0.00  -0.00     0.00   0.00   0.00    -0.00  -0.00  -0.00
  93   1     0.00  -0.00  -0.00    -0.00  -0.00  -0.00     0.00   0.00  -0.00
  94   1    -0.00  -0.00   0.00    -0.00   0.00   0.00     0.00   0.00  -0.00
  95   1    -0.00  -0.00   0.00    -0.00  -0.00   0.00     0.00   0.00  -0.00
  96   1    -0.00  -0.00  -0.00     0.00  -0.00  -0.00    -0.00   0.00   0.00
  97   1     0.00  -0.00  -0.00     0.00  -0.00  -0.00    -0.00   0.00   0.00
  98   1     0.00   0.00  -0.00     0.00   0.00  -0.00     0.00   0.00  -0.00
  99   1     0.00   0.00   0.00     0.00  -0.00  -0.00    -0.00   0.00   0.00
 100   1     0.00  -0.00  -0.00     0.00  -0.00  -0.00    -0.00   0.00   0.00
 101   1    -0.00   0.00   0.00    -0.00   0.00   0.00     0.00  -0.00  -0.00
 102   1     0.00   0.00   0.00     0.00   0.00   0.00    -0.00  -0.00  -0.00
