$hessian                                                                        
        0.5008352799  -0.0108939628   0.0225748311  -0.1034095279  -0.0709122221
        0.0087386755  -0.0174295639  -0.0229412475  -0.0000480585  -0.0003536795
       -0.0007995454  -0.0051572830  -0.0007187340  -0.0009286542   0.0000254530
       -0.0001453304  -0.0007683213   0.0003715232  -0.0004114601   0.0007364245
        0.0004799305   0.0000763067  -0.0000098975  -0.0000073524   0.0000980915
       -0.0000511124  -0.0000381186   0.0000023701  -0.0000228099   0.0000324035
        0.0001705928  -0.0000828982  -0.0000442465  -0.0000948215   0.0001437937
        0.0000488677   0.0000855919   0.0000510300   0.0000042754  -0.0000106249
       -0.0000439716  -0.0000323043   0.0000078380  -0.0000001104  -0.0000040823
        0.0000000765   0.0000027440  -0.0000090234  -0.0000031754   0.0000097564
        0.0000045074   0.0000050396   0.0000061722   0.0000112729  -0.0000077392
       -0.0000033266   0.0000020930   0.0000005104   0.0000211601  -0.0000045304
       -0.0000145831   0.0000067361   0.0000052764   0.0000076648  -0.0000083134
        0.0000001723  -0.0000066299   0.0000119882   0.0000026809   0.0000032751
       -0.0000040774  -0.0000064958  -0.0000056282   0.0000063175  -0.0000010964
        0.0000115726  -0.0000140579  -0.0000120116  -0.0000313809   0.0000066383
        0.0000086036  -0.0000200877  -0.0000048556   0.0000252035   0.0000062224
        0.0000053828   0.0000009336   0.0000022258  -0.0000149867  -0.0000088944
        0.0000289011  -0.0000121441  -0.0000037765  -0.0000652265  -0.0000719210
       -0.0000011364  -0.0000364916   0.0000093124   0.0000257027  -0.0000566099
        0.0001226743  -0.0000381675  -0.0000063983  -0.0000586440   0.0000139537
       -0.0000385580   0.0000246686   0.0000112097   0.0000099193  -0.0000389593
        0.0000143798   0.0000069894   0.0000619129  -0.0000407848   0.0000632317
       -0.0000172259  -0.0000117107   0.0000088652  -0.0000003981   0.0000216999
        0.0000046453   0.0000016393   0.0000036367   0.0000020665   0.0000033799
        0.0000016895   0.0001104321  -0.0000208854   0.0000038217  -0.0000688927
        0.0000836283   0.0000337416   0.0000038942   0.0000308057   0.0000031832
       -0.0000047264  -0.0000390373   0.0000150180  -0.0000444329   0.0000459483
        0.0000167464   0.0000148867  -0.0000175756   0.0000049209   0.0000573708
       -0.0000695133  -0.0000292518  -0.0000084024   0.0000988409  -0.0000564108
        0.0000097398   0.0000192409   0.0000025084   0.0025260408  -0.0010330540
       -0.0035868119  -0.0000088787   0.0003161307  -0.0000325156   0.0034057279
        0.0015524904  -0.0005017090  -0.1777404494  -0.0103306126  -0.1190486066
       -0.1305906646   0.1161054011   0.0135853170  -0.0760294792  -0.0021933615
        0.0803532555  -0.0000082549  -0.0000001111   0.0018869174  -0.0002805754
       -0.0000772892  -0.0001883714   0.0000258868  -0.0000835324  -0.0000452918
        0.0000221916  -0.0000346591   0.0001493529   0.0000074307  -0.0000381506
       -0.0000520194  -0.0000092345  -0.0000167942  -0.0000079930  -0.0000163638
       -0.0000038403  -0.0000108881  -0.0000015091  -0.0000059660   0.0000017639
       -0.0000017147  -0.0000101587  -0.0000032459  -0.0000026249  -0.0000028138
       -0.0000099753   0.0000013729   0.0000006244   0.0000033398   0.0000061414
       -0.0000085575  -0.0000048828  -0.0000033417   0.0000013148  -0.0000023725
        0.0000027165  -0.0000021958   0.0000052477   0.0000028567  -0.0000067063
        0.0000009594   0.0000031702  -0.0000022296  -0.0000049445   0.0000006423
        0.0000053776   0.0000033784   0.0000006795  -0.0000015771  -0.0000007330
       -0.0000024041  -0.0000040189  -0.0000011851  -0.0000042101  -0.0000034430
        0.0000007671  -0.0000005461   0.0000020509   0.0000093177  -0.0000026394
       -0.0000063746   0.0000056436  -0.0000095071   0.0000030946   0.0000054942
       -0.0000074650  -0.0000000428   0.0000045876  -0.0000036202   0.0000004030
        0.0000008956  -0.0000009822   0.0000018272   0.0000029252  -0.0000004209
       -0.0000026495   0.0000034604   0.0000008970  -0.0000003774   0.0000066506
        0.0000015098  -0.0000018957   0.0000026406  -0.0000009444  -0.0000003513
        0.0000011759   0.0000185699   0.0000300526   0.0000422257   0.0000108303
       -0.0000294995  -0.0000116477  -0.0000583318  -0.0000431313   0.0000028972
        0.0000052270  -0.0000144389  -0.0000048849   0.0000008644  -0.0000054932
       -0.0000022431   0.0000029762   0.0000010353  -0.0000045276   0.0000032044
       -0.0000001143  -0.0000019471   0.0000004207  -0.0000083228  -0.0000024796
       -0.0000004914  -0.0000040823  -0.0000027188   0.0000007057  -0.0000120936
       -0.0000136161   0.0000006662  -0.0000086618   0.0000047316   0.0000208194
        0.0000265882  -0.0000061800   0.0000249124   0.0000208257   0.0000312710
        0.0000367173   0.0000625339  -0.0000605744   0.0000105810   0.0022073298
        0.0005439699
       -0.0108939628   0.4705209637   0.0001616022  -0.0662427444  -0.1729192824
        0.0213235532  -0.0118590387  -0.0114600342  -0.0027609243  -0.0016109751
        0.0036890582   0.0003148690  -0.0001421897  -0.0003425495  -0.0000102539
       -0.0008060536  -0.0012981420   0.0002623662   0.0004513833  -0.0000251213
       -0.0004235666  -0.0000314920   0.0001144846   0.0000559229   0.0004071318
       -0.0002693386  -0.0001565342  -0.0004258216  -0.0004441729  -0.0000765256
        0.0007561375  -0.0001517875  -0.0000953242  -0.0004499923   0.0006022183
        0.0001464633   0.0003326854   0.0002091609   0.0001001671   0.0000170239
       -0.0000868421  -0.0000730504   0.0000517014   0.0000385186   0.0001304727
       -0.0000189608  -0.0000380676  -0.0000876219   0.0000007383  -0.0000133996
        0.0000479677  -0.0000128851  -0.0000252096  -0.0000504775   0.0000207082
        0.0000456400   0.0000744953   0.0000023263   0.0000324308  -0.0000616488
       -0.0000706561   0.0000937536   0.0000020202   0.0000257272  -0.0000331554
       -0.0000009172  -0.0000327160   0.0000406011   0.0000173889   0.0000233669
       -0.0000311628  -0.0000228603  -0.0000103074   0.0000227454  -0.0000158996
        0.0000469999  -0.0000580439  -0.0000170024  -0.0001198555   0.0002520541
        0.0000642711  -0.0000718919  -0.0000065285   0.0000668298  -0.0000076693
        0.0001113833   0.0000315945   0.0000076508  -0.0002098846  -0.0000706750
        0.0002647403   0.0000203753  -0.0000562423  -0.0001094990  -0.0002700897
       -0.0000132040  -0.0002183962   0.0000937420   0.0000721725  -0.0000728832
        0.0001497812  -0.0000707410  -0.0001077874  -0.0001324009   0.0000588495
       -0.0000836417   0.0000109622   0.0000358269   0.0000064899  -0.0000464216
        0.0000112891   0.0000247461   0.0000780982  -0.0000765055   0.0001772192
       -0.0000162821  -0.0000550202   0.0000286683  -0.0000038570   0.0000512403
        0.0000102630   0.0000000204   0.0000101133  -0.0000082313   0.0000030367
       -0.0000172429  -0.0001512888   0.0000476287   0.0000997870   0.0000384851
        0.0001073587  -0.0000628308   0.0000383998   0.0000933837  -0.0000095790
       -0.0000297183  -0.0000183177   0.0000155377  -0.0000181838   0.0000490343
       -0.0000195215   0.0000242500  -0.0000093121   0.0000054499   0.0000232100
       -0.0000386489   0.0000182112   0.0000129549   0.0000247611  -0.0000229935
        0.0000065303   0.0000139904   0.0000107042   0.0003896548   0.0009643367
        0.0045010904  -0.0003636612  -0.0008010959   0.0001179594  -0.0108283581
       -0.0233058279   0.0088233263  -0.0106476198  -0.0441020063  -0.0104230620
        0.1124309220  -0.1833709706  -0.0217461374  -0.0013229773  -0.0377366036
        0.0018456030   0.0014246849   0.0000135586  -0.0002168173  -0.0000678889
        0.0000570961  -0.0000605429   0.0000348290  -0.0000421388  -0.0000343160
       -0.0000119070  -0.0000179543   0.0000607146   0.0000304537  -0.0000612435
       -0.0000407718  -0.0000337525   0.0000068945  -0.0000084518   0.0000008260
       -0.0000201409  -0.0000090083  -0.0000013472  -0.0000113479   0.0000059899
       -0.0000048565  -0.0000184464  -0.0000126016  -0.0000021135  -0.0000023241
       -0.0000241223  -0.0000008777   0.0000146771  -0.0000079832   0.0000043005
       -0.0000143556   0.0000090444  -0.0000092028   0.0000113298  -0.0000063994
        0.0000040389  -0.0000045498   0.0000139724   0.0000080190  -0.0000134564
        0.0000042229   0.0000107535  -0.0000064103  -0.0000076301   0.0000019968
        0.0000119607  -0.0000007760   0.0000004099  -0.0000241684  -0.0000077906
       -0.0000165271  -0.0000198185  -0.0000042333  -0.0000281636  -0.0000120980
       -0.0000013788   0.0000088525   0.0000079697   0.0000131114   0.0000019450
        0.0000221893  -0.0000106482  -0.0000163468   0.0000237116   0.0000038740
       -0.0000244012   0.0000121004   0.0000020563  -0.0000060623  -0.0000027428
       -0.0000047652  -0.0000089722   0.0000101496   0.0000030241  -0.0000048924
       -0.0000114882   0.0000037397  -0.0000006050   0.0000137071   0.0000186104
        0.0000015561  -0.0000118594   0.0000081291  -0.0000091402  -0.0000006553
       -0.0000074411   0.0000139951  -0.0000077447   0.0000504469  -0.0000080767
       -0.0000471395  -0.0000094694  -0.0000651578  -0.0000471982   0.0000676400
       -0.0000007870  -0.0000167124  -0.0000028104   0.0000011867  -0.0000050583
       -0.0000035207  -0.0000026852  -0.0000071441  -0.0000019316   0.0000045091
        0.0000037881   0.0000065848  -0.0000121398  -0.0000209597   0.0000050201
       -0.0000122247  -0.0000069158  -0.0000026964   0.0000148994  -0.0000173221
       -0.0000224414  -0.0000019236  -0.0000102971   0.0000157839  -0.0000565541
       -0.0000142985   0.0001422473  -0.0000734252  -0.0000230282  -0.0001262559
        0.0000824387  -0.0001723202   0.0001380166  -0.0000203199   0.0003172391
       -0.0019182077
        0.0225748311   0.0001616022   0.5064733156   0.0053195379   0.0170390387
       -0.0652618119  -0.0083342161  -0.0131925128   0.0020885099  -0.0047850380
        0.0005426870   0.0005806328  -0.0004683269  -0.0007775516  -0.0000583909
        0.0000575509   0.0005300284  -0.0002977276   0.0004451619  -0.0005983057
       -0.0003262761   0.0003247679   0.0000435864   0.0000539348  -0.0002597284
        0.0002508714   0.0001170990   0.0002517374   0.0002036263   0.0000373386
       -0.0003035437   0.0000736497   0.0000373041   0.0002574204  -0.0002511720
       -0.0000978922  -0.0002396310  -0.0002173109  -0.0000617154  -0.0000045663
        0.0000406139   0.0000431490  -0.0000460993  -0.0000640917  -0.0002971206
        0.0000671694   0.0001724899   0.0001956809   0.0000015398   0.0000797322
       -0.0001335643   0.0000442256   0.0000536650   0.0001659334  -0.0000585514
       -0.0001376675  -0.0001839799   0.0000040776  -0.0001218466   0.0001815119
        0.0000428711  -0.0000979462  -0.0000357852  -0.0000184463   0.0000431834
       -0.0000208154   0.0000510528  -0.0000550997  -0.0000297146  -0.0000384067
        0.0000411244   0.0000306346   0.0000176388  -0.0000192429   0.0000124622
       -0.0000548904   0.0000675287   0.0000322721  -0.0001824304   0.0000135086
        0.0000857809   0.0002239188   0.0001226008  -0.0000612817  -0.0001546333
        0.0001496522   0.0000995240   0.0001555200  -0.0000302506  -0.0000577560
       -0.0002293117  -0.0000755004   0.0000645736   0.0002672862  -0.0000741389
       -0.0000922038  -0.0000632735  -0.0000389985  -0.0000445689   0.0001108891
       -0.0001752323   0.0000329628   0.0000636631   0.0001303713  -0.0000691060
        0.0001042609  -0.0000388537  -0.0000353934  -0.0000469623   0.0000665649
        0.0000022114  -0.0000136006  -0.0000888496   0.0000525424  -0.0001651082
        0.0000375761   0.0000451050  -0.0000155783  -0.0000035537  -0.0000262130
       -0.0000045990  -0.0000026535  -0.0000048752   0.0000052023  -0.0000059377
        0.0000053140  -0.0000689068  -0.0001859074  -0.0000141972  -0.0000041403
        0.0000204582  -0.0000340027  -0.0000226429  -0.0000259616   0.0000008514
        0.0000371282  -0.0000535396   0.0000201415   0.0000054305  -0.0000002856
        0.0000002584  -0.0000129992   0.0000034696  -0.0000103061   0.0000207416
       -0.0000402841   0.0000189915  -0.0000114288   0.0000052989   0.0000068658
        0.0000021917  -0.0000133813   0.0000047217  -0.0040730933   0.0037545709
        0.0004898471   0.0005634239   0.0007480610  -0.0003236767   0.0084254559
        0.0203591555  -0.0042127910  -0.1188144182  -0.0100238066  -0.1508678901
        0.0140861939  -0.0223529304  -0.0437095609   0.0819616292   0.0052139746
       -0.2443518937   0.0008611858  -0.0015420538   0.0000864145  -0.0001555274
       -0.0000778242  -0.0001637375   0.0000117110   0.0000241711  -0.0000286295
        0.0000659438  -0.0000023990   0.0001216149  -0.0000285813  -0.0000090906
       -0.0000086187   0.0000113604  -0.0000097071   0.0000122134  -0.0000032030
        0.0000151044   0.0000126165  -0.0000018759   0.0000015892  -0.0000017921
        0.0000019396   0.0000051447   0.0000028796  -0.0000002609  -0.0000006237
        0.0000078059   0.0000022571  -0.0000059699   0.0000093592   0.0000074710
        0.0000075963  -0.0000053934   0.0000026602  -0.0000079827   0.0000031165
       -0.0000034770   0.0000010438  -0.0000068871  -0.0000043007   0.0000054589
        0.0000011867  -0.0000062585   0.0000037723   0.0000054887  -0.0000021896
       -0.0000063783   0.0000054491  -0.0000016833   0.0000074631   0.0000009579
        0.0000040019   0.0000071092  -0.0000003282   0.0000025302   0.0000063675
       -0.0000063398   0.0000009189   0.0000004204  -0.0000040946   0.0000017478
       -0.0000122520   0.0000081241   0.0000061520  -0.0000086564   0.0000002064
        0.0000087507  -0.0000059675  -0.0000016746   0.0000021913   0.0000017526
        0.0000025625   0.0000018337  -0.0000018492  -0.0000015750  -0.0000002505
        0.0000067936  -0.0000023247  -0.0000011640  -0.0000029195  -0.0000075611
       -0.0000020999   0.0000074196  -0.0000026426   0.0000064376   0.0000006375
        0.0000057277   0.0000086743   0.0000263612   0.0000127794   0.0000012559
        0.0000115815   0.0000222840   0.0000095970   0.0000181890  -0.0000352513
       -0.0000098750   0.0000116261   0.0000149200  -0.0000042919   0.0000053225
        0.0000081311   0.0000033851   0.0000086912   0.0000042834  -0.0000076779
        0.0000037839  -0.0000060049   0.0000047695   0.0000096180  -0.0000048890
        0.0000144456   0.0000119030   0.0000022730  -0.0000165791   0.0000054125
        0.0000006504  -0.0000035729   0.0000003581  -0.0000037959  -0.0000168548
        0.0000386032  -0.0000604286   0.0000862007  -0.0000453255   0.0001182975
       -0.0000748209   0.0001305990  -0.0001322677   0.0022191769   0.0001492292
       -0.0002440655
       -0.1034095279  -0.0662427444   0.0053195379   0.4371938306   0.1334542950
        0.1874687153  -0.1965836303  -0.0206559724  -0.1286212901  -0.0353115236
       -0.0560580010   0.0048444946   0.0035444743  -0.0041790476  -0.0014825166
       -0.0090773777   0.0141216339  -0.0151593108   0.0019276040  -0.0028575052
        0.0008247528  -0.0034425367  -0.0024798786  -0.0012929228  -0.0009885755
        0.0014901836   0.0013557943   0.0012922439   0.0011231288   0.0000284383
       -0.0040597581   0.0025264131   0.0011331382   0.0020865024  -0.0044455809
       -0.0010908591   0.0000698745   0.0008277180   0.0000916246  -0.0000853517
        0.0004282785   0.0002965748  -0.0002352444   0.0003756443   0.0015569658
       -0.0002763835  -0.0008677566  -0.0009962251   0.0001109815  -0.0002484374
        0.0006363440  -0.0002210425  -0.0003376478  -0.0007589860   0.0003489408
        0.0006377153   0.0010373306  -0.0000540689   0.0005776725  -0.0009691812
       -0.0004955111   0.0012619925   0.0003759619   0.0001947593  -0.0005271097
        0.0004286248  -0.0006283570   0.0007706724   0.0003146140   0.0004357021
       -0.0005602650  -0.0002771344  -0.0002072574   0.0003393403  -0.0002392030
        0.0006933419  -0.0007046373  -0.0005007756   0.0022045805  -0.0015448877
       -0.0012137353  -0.0011889446  -0.0004033279   0.0000001290   0.0012761964
       -0.0014185762  -0.0008845077  -0.0009437605   0.0013925156   0.0007112457
        0.0002693424   0.0002560621  -0.0003039707  -0.0012599413   0.0021314424
        0.0008013789   0.0019323378  -0.0004282626  -0.0000879768   0.0000568448
       -0.0015829490   0.0008038973   0.0007514946   0.0016349678  -0.0008477193
        0.0006886562  -0.0005649879  -0.0001170574   0.0001607888   0.0011620318
       -0.0006266273  -0.0003127021  -0.0015220847   0.0010424352  -0.0011750967
        0.0005750670   0.0002302961   0.0000893246   0.0000221796  -0.0002698202
        0.0000157817   0.0000365905   0.0000894771   0.0000156930   0.0000231348
        0.0000354036  -0.0011989643   0.0030208889  -0.0001649938   0.0020783922
       -0.0024931644  -0.0012110623  -0.0001990730   0.0004952841  -0.0002237287
       -0.0002170462   0.0022291572  -0.0010398181   0.0007662729  -0.0013070733
       -0.0001342297   0.0000290802   0.0000580142   0.0000571495  -0.0017316540
        0.0017851565   0.0007365492   0.0000602895  -0.0027762737   0.0015369228
       -0.0000203877   0.0001831665   0.0000394412   0.0214947362   0.0182466241
        0.0095312955   0.0020922926  -0.0050937200  -0.0012143146  -0.0884158265
       -0.0020245088  -0.0390676390  -0.0156719858  -0.0205378452  -0.0002404319
        0.0099141919   0.0104697694  -0.0014288381  -0.0069273309  -0.0130378172
        0.0057492863  -0.0074570699   0.0001640361  -0.0062956707  -0.0010081838
       -0.0000650650  -0.0007270881   0.0009111153   0.0002593091   0.0001318382
        0.0001822581   0.0002631689   0.0000162664  -0.0003836626   0.0000588140
        0.0003086867  -0.0000909014   0.0000104981   0.0000047038  -0.0000353684
        0.0000419288   0.0000106519  -0.0000097905  -0.0000474740   0.0000120499
       -0.0000289325  -0.0000942526  -0.0000437753  -0.0000169244  -0.0000185802
       -0.0000821614  -0.0000067218   0.0000408604  -0.0000548596   0.0000147930
       -0.0000139915   0.0000112870  -0.0000415214   0.0000331125   0.0000061928
        0.0000138393  -0.0000107347   0.0000874062   0.0000338720  -0.0000694499
        0.0000159763   0.0000405102  -0.0000394906  -0.0000426699   0.0000126675
        0.0000239322  -0.0000212557   0.0000243550  -0.0000308893  -0.0000190676
       -0.0000199206  -0.0000766658   0.0000501865   0.0000113760  -0.0000433488
        0.0000914003  -0.0000654595  -0.0001275325  -0.0000999852  -0.0000267192
        0.0000225659  -0.0000690455  -0.0000387773   0.0000250705  -0.0000421595
       -0.0000239945   0.0000333030   0.0000084917   0.0000187800  -0.0000020828
        0.0000114549  -0.0000094394   0.0000272296  -0.0000061693   0.0000384733
       -0.0000256208  -0.0000131876  -0.0000254666   0.0000199192   0.0000703070
        0.0000055931  -0.0000047868  -0.0000136359  -0.0000006312  -0.0000167494
        0.0000126251  -0.0001775878  -0.0004931576  -0.0001668744  -0.0000462150
        0.0000960251   0.0000617233   0.0004399995  -0.0000004102  -0.0001885830
        0.0000307661  -0.0000504765  -0.0000424629   0.0000108114  -0.0000678188
       -0.0000367390  -0.0000354927  -0.0001640833  -0.0000149111   0.0001635976
       -0.0001475641   0.0001506174  -0.0000529320  -0.0000128469   0.0000187206
       -0.0000154737  -0.0000112229   0.0000696883  -0.0001008869   0.0000344639
        0.0000940809  -0.0000262470   0.0000247440   0.0000360539  -0.0007399999
       -0.0000255031   0.0004405010  -0.0002915302  -0.0001558906  -0.0003656534
        0.0003351606   0.0006736879  -0.0006963411  -0.0089678101   0.0132063407
       -0.0192915578
       -0.0709122221  -0.1729192824   0.0170390387   0.1334542950   0.5212744807
       -0.1524187270  -0.0660665668  -0.0838911183  -0.0378181002  -0.0209811252
       -0.0137027191  -0.0132828389  -0.0041722124  -0.0013510450   0.0025301080
        0.0132301564   0.0089848023   0.0036818321   0.0007623570  -0.0047058602
        0.0000169814  -0.0016022134   0.0001329339  -0.0013948485  -0.0010251918
        0.0005995596   0.0005833108   0.0007415593   0.0008973181   0.0002495923
       -0.0027264222   0.0012791555   0.0008008938   0.0012844289  -0.0025817343
       -0.0004407803  -0.0002384072   0.0000308275   0.0002196452  -0.0000757774
        0.0004041054   0.0001827836  -0.0001740988   0.0000327711   0.0003643376
       -0.0000771412  -0.0002475504  -0.0002373120   0.0000400278  -0.0001021560
        0.0001899867  -0.0000569314  -0.0000313319  -0.0002158953   0.0000914302
        0.0001489697   0.0002798978  -0.0000162371   0.0002210685  -0.0002620556
        0.0000123124   0.0002021013   0.0001150464   0.0000192804  -0.0000819950
        0.0001183724  -0.0001186502   0.0001539107   0.0000402507   0.0000604176
       -0.0001075778  -0.0000203513  -0.0000519259   0.0000704723  -0.0000833304
        0.0001277107  -0.0000935991  -0.0001167359   0.0010651969  -0.0009250846
       -0.0005694359  -0.0003427585  -0.0001692701  -0.0000981924   0.0005109162
       -0.0006952931  -0.0003881968  -0.0003843358   0.0008267296   0.0003945494
       -0.0002636984   0.0001042564  -0.0000233068  -0.0002500261   0.0012625833
        0.0002934390   0.0010713720  -0.0002884216  -0.0002818299   0.0001115676
       -0.0008774144   0.0004559874   0.0004928186   0.0007321274  -0.0004072721
        0.0003376420  -0.0001983044  -0.0000640061   0.0001033929   0.0004842236
       -0.0002623148  -0.0001766478  -0.0006725534   0.0005143942  -0.0006503727
        0.0001967203   0.0001724314   0.0000055151   0.0000182315  -0.0001965021
       -0.0000077913   0.0000131718   0.0000192336   0.0000428506  -0.0000008277
        0.0000293830  -0.0016778758   0.0038273496  -0.0002906923   0.0024759465
       -0.0020536948  -0.0013058348  -0.0001685657   0.0000071380   0.0001358984
       -0.0002578713   0.0015363402  -0.0007042693   0.0010245827  -0.0011551765
       -0.0006574030   0.0000059505   0.0000684743   0.0000357309  -0.0018791597
        0.0018381639   0.0009203880   0.0000056178  -0.0026111049   0.0013027734
       -0.0001360797   0.0001229913  -0.0000314357  -0.0222863059  -0.0532359214
        0.0190782117  -0.0045336145  -0.0005650096   0.0019763644   0.0523346180
       -0.1662856775   0.1379953595  -0.0052030294  -0.0038111519  -0.0019368488
       -0.0108398080  -0.0298553947   0.0054609987  -0.0044966798  -0.0064938780
        0.0070822723   0.0142508781   0.0029452477   0.0129766030  -0.0006232141
       -0.0000605256   0.0000947381  -0.0006992664  -0.0003239891  -0.0000394592
        0.0002703698  -0.0000335614   0.0004761856  -0.0003243271   0.0000686508
        0.0001046399  -0.0000010333   0.0000094839  -0.0000701099   0.0000134527
        0.0000984224   0.0000248139  -0.0000018303   0.0000006757  -0.0000154443
       -0.0000037001  -0.0000133706  -0.0000022198  -0.0000031852  -0.0000070096
       -0.0000065320  -0.0000041926  -0.0000036926  -0.0000131881   0.0000118420
        0.0000025972  -0.0000264951   0.0000025118  -0.0000148019   0.0000060639
        0.0000111354   0.0000044125   0.0000105055   0.0000055579  -0.0000007158
       -0.0000028468  -0.0000015686   0.0000037448   0.0000025824   0.0000126394
       -0.0000087239   0.0000067651   0.0000029368   0.0000243347   0.0000045091
        0.0000155244  -0.0000012527   0.0000198314   0.0000384638  -0.0000024513
        0.0000328757  -0.0000294073  -0.0000479648  -0.0000506476  -0.0000229113
       -0.0000203729  -0.0000113553  -0.0000075018  -0.0000220548  -0.0000318646
        0.0000205290   0.0000002677   0.0000002526   0.0000098542   0.0000035263
        0.0000144366   0.0000038071  -0.0000074849  -0.0000026572   0.0000332217
        0.0000044500  -0.0000068269  -0.0000167127  -0.0000119861   0.0000196780
       -0.0000021903   0.0000156046  -0.0000173968   0.0000064894  -0.0000063117
        0.0000294045  -0.0001624908  -0.0000316749  -0.0001546818  -0.0000100745
        0.0001367089   0.0000367783   0.0003019688  -0.0000039206   0.0000198010
        0.0000344725  -0.0000472574  -0.0000378507   0.0000145624  -0.0000514432
       -0.0000221384  -0.0000242125  -0.0001468185   0.0000026790   0.0001343288
       -0.0001235265   0.0001219607   0.0000042521   0.0000182202   0.0000241593
       -0.0000013989  -0.0000437311   0.0000843601   0.0000678284   0.0000150935
        0.0001007980  -0.0000032521   0.0000680057  -0.0000291558   0.0000146554
        0.0000851591   0.0000450242  -0.0000726650   0.0002059613  -0.0002030286
        0.0003347416  -0.0014173268   0.0008976263  -0.0011631085   0.0029805721
       -0.0031841500
        0.0087386755   0.0213235532  -0.0652618119   0.1874687153  -0.1524187270
        0.4316317453  -0.0930827120   0.0085909350  -0.1435537587  -0.0177800570
       -0.0464413017   0.0146004534  -0.0010450373   0.0031166357   0.0027691385
       -0.0144087923   0.0041871534  -0.0217455466   0.0015890377   0.0007038929
        0.0007438162  -0.0024607696  -0.0025628001  -0.0004381296  -0.0002861417
        0.0010609490   0.0009705866   0.0007531792   0.0004561653  -0.0001524260
       -0.0020864837   0.0016225937   0.0005335052   0.0011119826  -0.0025816608
       -0.0007580626   0.0002739085   0.0008174956  -0.0000792197  -0.0000326762
        0.0001312727   0.0001618035  -0.0001103140   0.0003629781   0.0013472735
       -0.0002287672  -0.0007127520  -0.0008591806   0.0000858874  -0.0001842127
        0.0005249217  -0.0001888019  -0.0003241336  -0.0006255864   0.0002930993
        0.0005467064   0.0008667463  -0.0000434226   0.0004378084  -0.0008061638
       -0.0005246879   0.0011533829   0.0003060207   0.0001868769  -0.0004828559
        0.0003549368  -0.0005647671   0.0006844024   0.0002990071   0.0004057551
       -0.0005012368  -0.0002751397  -0.0001746432   0.0002987710  -0.0001844643
        0.0006231303  -0.0006584847  -0.0004286889   0.0014699344  -0.0009224571
       -0.0008263489  -0.0009451179  -0.0002775317   0.0000746005   0.0009251233
       -0.0009537134  -0.0006200105  -0.0006777419   0.0008378375   0.0004417904
        0.0004501348   0.0001795851  -0.0002851230  -0.0010792629   0.0012950769
        0.0006058330   0.0011435850  -0.0002257260   0.0001157475  -0.0000285852
       -0.0008662291   0.0004401507   0.0003484370   0.0009944504  -0.0004715287
        0.0003825492  -0.0003964396  -0.0000551955   0.0000993964   0.0007182281
       -0.0003913266  -0.0001515994  -0.0009443974   0.0006035605  -0.0006172027
        0.0003900789   0.0000868304   0.0000908608   0.0000087796  -0.0001299383
        0.0000235331   0.0000284768   0.0000797900  -0.0000129530   0.0000260925
        0.0000107014   0.0000853073   0.0001582579  -0.0000012535   0.0002623008
       -0.0010650139  -0.0001562269  -0.0000302783   0.0006059797  -0.0003631097
       -0.0000341328   0.0012044437  -0.0006010767  -0.0000259217  -0.0005084810
        0.0004094080   0.0000335684   0.0000034185   0.0000355241  -0.0003390121
        0.0004414056   0.0000288321   0.0000474039  -0.0008953154   0.0006344856
        0.0000614556   0.0000955997   0.0000444026   0.0391314397   0.0566915580
       -0.0058797856  -0.0025387898   0.0010317738   0.0042000832  -0.0793143824
        0.0844189077  -0.1836788365  -0.0114455912  -0.0165681909   0.0014828923
       -0.0015112416  -0.0004868183   0.0009374738   0.0151605017   0.0250637829
       -0.0054685231  -0.0192665419  -0.0012280614  -0.0147156583   0.0003497303
        0.0004972835   0.0004248993  -0.0006959746   0.0000000414  -0.0011098945
        0.0001861202  -0.0001394029   0.0002870501  -0.0001724588   0.0000267588
        0.0002483873  -0.0000773425  -0.0000042257   0.0000500992  -0.0000453719
       -0.0000406407  -0.0000071647  -0.0000096961  -0.0000501717   0.0000241755
       -0.0000319303  -0.0000864476  -0.0000452536  -0.0000181165  -0.0000135209
       -0.0000805845  -0.0000054937   0.0000497370  -0.0000457435   0.0000089031
       -0.0000082333   0.0000304063  -0.0000421745   0.0000423601   0.0000005519
        0.0000083343  -0.0000131532   0.0000790433   0.0000314878  -0.0000711192
        0.0000180157   0.0000442002  -0.0000455073  -0.0000478884   0.0000019912
        0.0000290837  -0.0000303076   0.0000207278  -0.0000527487  -0.0000230312
       -0.0000312825  -0.0000782547   0.0000372323  -0.0000165577  -0.0000441852
        0.0000714188  -0.0000339993  -0.0000875526  -0.0000664458  -0.0000059056
        0.0000391803  -0.0000586660  -0.0000370171   0.0000479819  -0.0000180736
       -0.0000444312   0.0000349709   0.0000147665   0.0000112717  -0.0000059762
        0.0000045828  -0.0000107533   0.0000325269  -0.0000020200   0.0000141178
       -0.0000312746  -0.0000051266  -0.0000122000   0.0000282839   0.0000581345
        0.0000069082  -0.0000179821   0.0000036391  -0.0000052567  -0.0000131402
       -0.0000044651  -0.0000425831  -0.0004522941  -0.0000438466  -0.0000325673
       -0.0000097952   0.0000328762   0.0001293428  -0.0001427462  -0.0001521438
        0.0000114153  -0.0000224263  -0.0000193891  -0.0000009824  -0.0000335635
       -0.0000260841  -0.0000149718  -0.0000576685  -0.0000214708   0.0000701232
       -0.0000645143   0.0000623357  -0.0000524978  -0.0000235230  -0.0000017896
       -0.0000177314   0.0000112621   0.0000047820  -0.0001255193   0.0000051058
        0.0000290775  -0.0000220533  -0.0000112283   0.0000474500  -0.0012211951
        0.0019368339  -0.0012969560   0.0000674834  -0.0001702501   0.0000016530
        0.0003118966   0.0003256196   0.0002428423  -0.0086573409   0.0112026282
       -0.0151970148
       -0.0174295639  -0.0118590387  -0.0083342161  -0.1965836303  -0.0660665668