$hessian                                                                        
        0.1119901954   0.1603362658  -0.0071858522  -0.0964085109  -0.1206619347
       -0.0028500931  -0.0201025309  -0.0461552338   0.0028908914  -0.0061586335
       -0.0031978916   0.0049036963   0.0040129914  -0.0006296922  -0.0009724648
       -0.0065568677  -0.0024046587   0.0030431808   0.0061432700   0.0022449666
       -0.0027455891  -0.0037967272  -0.0016580018   0.0017327408   0.0091824017
        0.0086740815  -0.0002636769  -0.0007046912   0.0028155963   0.0003012453
        0.0013050376   0.0006170458   0.0004753699   0.0001427789  -0.0000206918
        0.0001895040  -0.0000964886  -0.0002630866  -0.0001002429   0.0002813399
        0.0000036143   0.0002654846  -0.0000942685   0.0000224041   0.0000257464
       -0.0000386964  -0.0000063056   0.0000394930  -0.0001136446   0.0000991243
       -0.0000590437   0.0001342864  -0.0000212248   0.0000498142   0.0000407566
        0.0000247324  -0.0000974056  -0.0001020569  -0.0000608405   0.0000816064
       -0.0000124222   0.0000544435  -0.0000321278  -0.0000622311   0.0001229657
       -0.0000094951   0.0001113662  -0.0000077182   0.0000542625   0.0000002787
        0.0000452934  -0.0000768147   0.0007751367  -0.0007702257  -0.0001338314
       -0.0016836271   0.0008275837   0.0005634204   0.0008142630  -0.0008286439
        0.0013920253  -0.0015472928  -0.0001699791  -0.0005356843   0.0001381576
       -0.0001728016   0.0003033246  -0.0003978303  -0.0001024293  -0.0004462174
        0.0002651928  -0.0001707983   0.0000008602   0.0000405658  -0.0001687257
        0.0000280419   0.0001618292   0.0001145842  -0.0000281283  -0.0000556272
       -0.0002065069   0.0000685597  -0.0001099701   0.0002762677  -0.0001243214
        0.0001360578   0.0000131869  -0.0000502788  -0.0000695696   0.0000450298
        0.0000001806   0.0001864344   0.0001869091  -0.0000144436  -0.0001775836
       -0.0002204729  -0.0000321356   0.0003602159   0.0009266185   0.0002711870
       -0.0001482605  -0.0000290060   0.0001013294   0.0000739777   0.0000019482
       -0.0001355026   0.0008348696  -0.0002587467  -0.0007578656   0.0014651734
        0.0003746066   0.0003066785   0.0000238481  -0.0000071506  -0.0002766588
        0.0000465261  -0.0000021761  -0.0000373044  -0.0000378607  -0.0000522664
       -0.0000218685  -0.0000557985  -0.0000154450  -0.0000105557  -0.0000309076
       -0.0000037252  -0.0000057200  -0.0000391564   0.0000181889   0.0000034955
       -0.0000031854   0.0000498101   0.0000106188   0.0000492584   0.0000098047
       -0.0000465498  -0.0000247057   0.0001426361   0.0001600266  -0.0000272732
        0.0001002043   0.0000461320  -0.0001076551   0.0001011618  -0.0004252096
       -0.0000004669   0.0000792561   0.0000376244  -0.0000048129   0.0000081971
        0.0000102198  -0.0000052720  -0.0000400838   0.0000286073   0.0000146935
        0.0000014727   0.0000183346   0.0000145710  -0.0000017129   0.0000198760
        0.0000002680  -0.0000030190   0.0000289370   0.0000288834  -0.0000268047
        0.0000225666
        0.1603362658   0.5274011535   0.0506987983  -0.1272368981  -0.4210195370
       -0.0321116275  -0.0266067333  -0.0365937954   0.0009282711  -0.0132484228
       -0.0102761754   0.0059279076   0.0145350575  -0.0052684806  -0.0047386001
       -0.0139743585  -0.0030753065   0.0054608824   0.0114663749   0.0094955559
       -0.0053090677  -0.0079305624   0.0034128959   0.0049082215   0.0008736529
       -0.0610883508  -0.0197810104   0.0002663819  -0.0007116112  -0.0015481249
       -0.0014292926   0.0047115332   0.0024598141   0.0005213848  -0.0000238386
        0.0004956698  -0.0001059567  -0.0002535156  -0.0003600412   0.0007455017
       -0.0000998392   0.0003826463  -0.0003162787  -0.0002972571   0.0000140404
        0.0001650086  -0.0004975064   0.0002769687  -0.0003511158   0.0011686457
       -0.0003751038  -0.0000476712  -0.0007016269   0.0002590669  -0.0000840402
        0.0006486523  -0.0004291742  -0.0002978853  -0.0010472021   0.0003941879
        0.0001670570   0.0006413298  -0.0001837606  -0.0001829097   0.0005700098
       -0.0001767099   0.0006312806   0.0001193688   0.0001383049  -0.0002286326
        0.0001802495   0.0002418650   0.0006701792  -0.0025363814  -0.0016498388
       -0.0033477791   0.0006427961  -0.0010935746   0.0041727384  -0.0074360260
       -0.0063530570  -0.0006438228  -0.0002531172   0.0006945708   0.0003759208
       -0.0012947557  -0.0000894164  -0.0009400531  -0.0003075464   0.0009791787
        0.0001399553   0.0001201485   0.0003660836  -0.0000635591  -0.0007604801
       -0.0000608320   0.0004632471   0.0009736184  -0.0001480788  -0.0001906854
       -0.0007046250   0.0000049382   0.0002988664   0.0005130988  -0.0001916172
        0.0002933225  -0.0003984646  -0.0000877737  -0.0001888422   0.0005258772
       -0.0000426654   0.0001271519   0.0006346990  -0.0000927484  -0.0003535887
        0.0000318495  -0.0001489078   0.0000350591   0.0014785220   0.0007802591
        0.0000209640   0.0000336049  -0.0001974747   0.0003455412   0.0001378275
       -0.0003675601  -0.0010208068   0.0008606141   0.0007679580   0.0010833409
       -0.0003455969   0.0007156806   0.0004300860  -0.0002243106  -0.0002046476
        0.0001138834  -0.0000645305  -0.0000892897  -0.0001225234  -0.0002157755
       -0.0000521117  -0.0001744990  -0.0000517216  -0.0000101465  -0.0001410973
        0.0000103729  -0.0000437776  -0.0001818701   0.0001240423   0.0000535229
        0.0000020633   0.0002102886   0.0000612509   0.0001922922   0.0001558586
       -0.0000917584  -0.0001336182   0.0002819205   0.0002569171  -0.0000257266
       -0.0000739194  -0.0002936636   0.0008637905   0.0000694084  -0.0010302327
       -0.0001438809   0.0005136425  -0.0001474323   0.0000758667  -0.0000508185
       -0.0000721127   0.0000937796  -0.0000782455   0.0001146293   0.0000017117
       -0.0000526998   0.0000390819   0.0000573068   0.0000229517   0.0000591374
        0.0000148387   0.0000264756   0.0000882214   0.0001332389   0.0000860458
        0.0000038632
       -0.0071858522   0.0506987983   0.0354805974  -0.0153964630  -0.0362996652
       -0.0372892563   0.0188148565   0.0166074288   0.0030669568  -0.0004909454
       -0.0044405654   0.0038291235   0.0037193433  -0.0009512199  -0.0024004641
       -0.0023672376  -0.0005618609   0.0008411388   0.0029167547   0.0026282053
       -0.0018427681  -0.0047001267   0.0033379995   0.0019848169   0.0069836434
       -0.0307605505  -0.0027362983  -0.0043818580  -0.0011998906   0.0008570973
        0.0001742802  -0.0004729688  -0.0011235422  -0.0005532178  -0.0000960232
       -0.0000859278   0.0004041062   0.0006376705  -0.0001864920   0.0001788003
       -0.0002563398   0.0001400819  -0.0000321779  -0.0001738629  -0.0000040908
        0.0002093853  -0.0004427115   0.0001291494  -0.0000635695   0.0007672958
       -0.0001544641  -0.0003928380  -0.0005260346   0.0000681830  -0.0004233852
        0.0004448110  -0.0001233471  -0.0000007283  -0.0007541872   0.0001700484
        0.0001394383   0.0004544767  -0.0000752037  -0.0000531344   0.0001948497
       -0.0000653219   0.0002512464   0.0002883139  -0.0000262661   0.0003024151
       -0.0004964356   0.0002532202  -0.0014094456   0.0012098791   0.0004553618
        0.0023478111  -0.0009660781  -0.0011222670  -0.0000661834   0.0011809105
        0.0008296606   0.0016531920  -0.0003710989   0.0007498719  -0.0006470479
        0.0012517501  -0.0001033515  -0.0000014820  -0.0004523043  -0.0008577125
       -0.0000191742  -0.0001926551  -0.0000903661  -0.0000818144  -0.0003034745
        0.0000990932   0.0000441313   0.0003430847  -0.0000781717   0.0002160047
       -0.0001267941   0.0001128939   0.0003552277   0.0000937456  -0.0000167094
       -0.0000021100  -0.0003517896   0.0000921655   0.0000356623   0.0002083893
       -0.0000091533  -0.0002060475   0.0000443301   0.0000252870   0.0000167986
        0.0003720996  -0.0000569909  -0.0004559524  -0.0007746523   0.0000498462
        0.0001313543  -0.0001991234  -0.0000898992   0.0001193567   0.0000303952
       -0.0000012770  -0.0001752014   0.0004186450  -0.0000344225   0.0005030105
       -0.0003257589  -0.0003667277   0.0000563361   0.0000677840  -0.0000344219
       -0.0000211108  -0.0000004372  -0.0000287439  -0.0000120509  -0.0000258706
       -0.0000090366  -0.0000136701  -0.0000080622  -0.0000033203  -0.0000146695
        0.0000037030  -0.0000223449  -0.0000275783   0.0000198038   0.0000185406
        0.0000066929   0.0000226425   0.0000142869   0.0000366479  -0.0000126742
        0.0000139347  -0.0000035332  -0.0000081360   0.0000583328  -0.0000732447
       -0.0000146911  -0.0000487966  -0.0004318011   0.0002240714  -0.0002566756
        0.0000768607   0.0000364720   0.0000351592  -0.0000344147   0.0000071667
        0.0000097116  -0.0000089272  -0.0000363389  -0.0000133660   0.0000168345
        0.0000053831   0.0000051562   0.0000147430   0.0000072543  -0.0000144554
        0.0000046791   0.0000192370   0.0000066483   0.0000173803  -0.0000243410
       -0.0000247116
       -0.0964085109  -0.1272368981  -0.0153964630   0.4239502248   0.1271138752
       -0.1282000584  -0.1647181051  -0.0394203869   0.0703663783  -0.0160108540
       -0.0264294025   0.0042771380   0.0063832809   0.0013321870  -0.0016789702
       -0.0016886608  -0.0022968291   0.0001065854   0.0081521536   0.0058618789
       -0.0020551764  -0.0429109890   0.0091747505   0.0240846408  -0.0821444802
        0.0242874557   0.0303928463  -0.0455088859   0.0185726304   0.0221861487
       -0.0014036848  -0.0125366126  -0.0098845913  -0.0031085655   0.0010297816
       -0.0003227552   0.0012608535   0.0021041519  -0.0002640711   0.0001973348
       -0.0007791665   0.0000871085   0.0001438601  -0.0002067132   0.0000280409
        0.0002735460  -0.0007498072   0.0001082776   0.0000330312   0.0012127330
       -0.0001826268  -0.0011318657  -0.0007882859  -0.0000292286  -0.0013554588
        0.0007171624  -0.0000823239   0.0001840981  -0.0013051525   0.0001618722
        0.0001970950   0.0007662543  -0.0000985824   0.0000664579   0.0001239677
       -0.0000090173   0.0002877946   0.0008601983  -0.0003125981   0.0010725340
       -0.0019054162   0.0009073196  -0.0020513817   0.0095199692   0.0053643357
        0.0071980127  -0.0044978642  -0.0037249282   0.0052887294   0.0177877894
        0.0051012672   0.0040453009  -0.0008669506   0.0005775958  -0.0013593982
        0.0015663589  -0.0016346330  -0.0000546870  -0.0005472676  -0.0004053137
       -0.0002461139   0.0001467140   0.0000302483  -0.0003860266  -0.0005674706
        0.0001574974  -0.0002648676   0.0010397436  -0.0002177915   0.0011085412
       -0.0004219003   0.0001206879   0.0014764695   0.0001718106   0.0003963874
       -0.0002559115  -0.0010691880   0.0002943505   0.0001891946   0.0005404890
       -0.0000948592  -0.0007390234  -0.0001586130  -0.0000302936   0.0001538500
        0.0014672512  -0.0002707322  -0.0018003259  -0.0034583046  -0.0001412075
        0.0004206939   0.0009424181   0.0002606890   0.0001827055   0.0000717171
       -0.0002924581   0.0013535245  -0.0009202604  -0.0006271581  -0.0006099331
        0.0005388411   0.0006643879  -0.0001310171   0.0003043107   0.0001143078
       -0.0000377974   0.0000337414   0.0000168679   0.0000141800   0.0000315533
        0.0000042718   0.0000254699   0.0000102937   0.0000172555   0.0000091082
        0.0000038142  -0.0000212913   0.0000126034  -0.0000125220   0.0000057347
       -0.0000014259  -0.0000553162   0.0000053127  -0.0000407287  -0.0002231664
        0.0001396125   0.0001742404  -0.0004172215   0.0001336186  -0.0000566268
       -0.0005745511   0.0001831141   0.0003479459   0.0001647848  -0.0002820581
        0.0000677211  -0.0000250658   0.0000203670   0.0000608330  -0.0000076578
       -0.0000136520   0.0000857055   0.0000275089   0.0000224763   0.0000482974
        0.0000082318  -0.0000341663   0.0000138911   0.0000376841  -0.0000157810
        0.0000099166   0.0000350512  -0.0000345008  -0.0000638738  -0.0001291124
        0.0000205448
       -0.1206619347  -0.4210195370  -0.0362996652   0.1271138752   0.6073596140
        0.0637624431  -0.0638003128  -0.0837413125   0.0313807328  -0.0071460115
        0.0050510495   0.0034193172  -0.0187774240  -0.0018212337   0.0084892399
        0.0176917818   0.0089272538  -0.0076118204  -0.0148419710  -0.0147201863
        0.0082973206   0.0260684035   0.0023139969  -0.0139582058   0.0405052090
       -0.0833766585  -0.0368600087   0.0166436800  -0.0001780472  -0.0028950546
       -0.0018464722   0.0041979146  -0.0002305217  -0.0010654208   0.0002367588
       -0.0004981097   0.0000635676   0.0003646986   0.0004104556  -0.0007042457
        0.0000718976  -0.0003756565   0.0003018072   0.0002899671  -0.0000778610
       -0.0000959260   0.0004455718  -0.0002745818   0.0004172660  -0.0010840596
        0.0003835015  -0.0000453670   0.0006128193  -0.0002892423   0.0000290471
       -0.0005596803   0.0003928019   0.0003489045   0.0010310765  -0.0003912798
       -0.0001245047  -0.0006276780   0.0001928607   0.0002249075  -0.0006137783
        0.0001528343  -0.0007085163  -0.0001499742  -0.0000841691   0.0000050708
       -0.0001509614  -0.0004030778  -0.0009939146  -0.0010995628  -0.0006954805
        0.0004117672  -0.0002198809  -0.0027479545   0.0004849910  -0.0192707490
       -0.0147910018   0.0041056620  -0.0002647840   0.0008233442  -0.0006804884
        0.0021733476   0.0003471519   0.0007929205   0.0001195883  -0.0011262750
       -0.0001865938   0.0000262472  -0.0005728269   0.0003794179   0.0011487440
        0.0000104994  -0.0003461547  -0.0016997511   0.0002782719  -0.0003648281
        0.0012196017  -0.0000185465  -0.0002219229  -0.0010479339   0.0002447855
       -0.0003268590   0.0008029969   0.0000123196   0.0002524571  -0.0007358206
        0.0001086940  -0.0002333384  -0.0007457612   0.0000960204   0.0005400308
       -0.0000168562   0.0001241344  -0.0005554387  -0.0021780595  -0.0007187643
       -0.0000434621   0.0005652460   0.0001904946  -0.0004747548   0.0000133035
        0.0001438778   0.0008267999  -0.0003230614  -0.0012179787  -0.0025448038
       -0.0005650030   0.0009330369  -0.0004695574   0.0001898681   0.0003309766
       -0.0001067828   0.0000486416   0.0000883724   0.0001232794   0.0002226350
        0.0000675098   0.0001682347   0.0000490553   0.0000138209   0.0001268853
       -0.0000094861   0.0000497404   0.0001809675  -0.0001191463  -0.0000451195
       -0.0000084108  -0.0001963256  -0.0000650080  -0.0002145193  -0.0001298746
        0.0000902790  -0.0000086164  -0.0005102892   0.0000988653   0.0005087554
       -0.0003934593  -0.0002509774  -0.0006905703   0.0004986467   0.0016633661
        0.0001839058  -0.0006237860   0.0001740681  -0.0000390500   0.0000477679
        0.0001323540  -0.0000132621   0.0000156155  -0.0001464988   0.0000475986
        0.0000665928  -0.0000312600  -0.0000424564   0.0000031364  -0.0000808180
       -0.0000023149   0.0000348986  -0.0001036524  -0.0001609870   0.0000441462
       -0.0000420740
       -0.0028500931  -0.0321116275  -0.0372892563  -0.1282000584   0.0637624431
        0.2215121584   0.0532204670   0.0188490666  -0.0757940646   0.0139856621
        0.0189147143  -0.0082372421  -0.0086855688   0.0035610159   0.0089251562
        0.0067053101   0.0005047813  -0.0032484568  -0.0063954094  -0.0063346310
        0.0093643748   0.0305948295  -0.0083918964  -0.0169325986   0.0236102108
       -0.0310917881  -0.0777728095   0.0227345783  -0.0006258902  -0.0041603281
       -0.0037703155   0.0030421978   0.0079622009   0.0020969095   0.0002443245
        0.0006649757  -0.0010302216  -0.0017073251   0.0003200021  -0.0004244859
        0.0007107760  -0.0003025941   0.0000135672   0.0003083899   0.0000192160
       -0.0003241820   0.0008592432  -0.0002188801   0.0001216563  -0.0014865445
        0.0002922282   0.0009566207   0.0008829471  -0.0001358845   0.0009947689
       -0.0007606796   0.0001480521  -0.0000191026   0.0014503172  -0.0002700967
       -0.0002139083  -0.0008900322   0.0001364983   0.0000360658  -0.0003009191
        0.0001386584  -0.0004710564  -0.0007720165   0.0001870398  -0.0009475899
        0.0013539977  -0.0008806513   0.0041858276  -0.0046429515  -0.0022800299
       -0.0092794822  -0.0004755587   0.0030264768   0.0083185189  -0.0274841242
       -0.0159291525  -0.0017863320   0.0014644638  -0.0014996747   0.0001971829
       -0.0029765884  -0.0003174532   0.0004864549   0.0010805002  -0.0007330887
       -0.0003108502   0.0004056627  -0.0000470610   0.0002198265   0.0007103543
       -0.0000148414  -0.0001616525  -0.0009665917   0.0002109943  -0.0004104512
        0.0006683572  -0.0001099175  -0.0008797004  -0.0005558285   0.0000653413
        0.0000400215   0.0011895563  -0.0002715643   0.0001152468  -0.0007862393
        0.0001785226   0.0001713478  -0.0001791668  -0.0000599773   0.0001904614
       -0.0008807574   0.0002271559   0.0012752305   0.0018396222   0.0000280141
       -0.0005386525  -0.0006278839  -0.0006707352  -0.0007356310  -0.0001119341
       -0.0009613307  -0.0013068045   0.0003957330  -0.0012629496  -0.0010804040
        0.0012494282  -0.0004358790  -0.0000819126  -0.0001623550   0.0000274179
       -0.0000080954  -0.0000270785   0.0000288784   0.0000091292   0.0000274375
        0.0000025611   0.0000101281   0.0000126869   0.0000082471   0.0000096776
        0.0000000913   0.0000503503   0.0000344214  -0.0000171428  -0.0000523723
       -0.0000098214  -0.0000058462  -0.0000319268  -0.0000394312   0.0001290013
       -0.0001212487  -0.0000955803   0.0006140472  -0.0006595301   0.0006369927
       -0.0003394630  -0.0006821742  -0.0008689527   0.0003777254  -0.0020739298
        0.0000048350  -0.0001231466   0.0000386575   0.0000263420  -0.0000033144
        0.0000099001  -0.0000009910   0.0000298489  -0.0000583239  -0.0000142972
        0.0000036231  -0.0000110819  -0.0000241892  -0.0000027412   0.0000084805
       -0.0000069325  -0.0000098138  -0.0000210765  -0.0000301349   0.0002095220
       -0.0000333770
       -0.0201025309  -0.0266067333   0.0188148565  -0.1647181051  -0.0638003128
        0.0532204670   0.4856937391   0.0365427147  -0.2060728596  -0.0622455792
       -0.0356399405   0.0155423789  -0.0316644983  -0.0406561906   0.0263397437
        0.0143311056   0.0045858684  -0.0104993852  -0.0725510796   0.0073195559
        0.0446101754  -0.1160239367   0.0821505748   0.0347317673  -0.0446673632
        0.0299766840   0.0352852038   0.0166264825  -0.0000864053  -0.0035581107
       -0.0024522205   0.0117361251   0.0087252058   0.0007316197  -0.0000206203
        0.0002268019  -0.0008884926  -0.0014510758   0.0002078096  -0.0003122796
        0.0005753725  -0.0001573053   0.0000350501   0.0001915417  -0.0000400862
       -0.0002256116   0.0006237620  -0.0001053336   0.0000257761  -0.0010455511
        0.0001932710   0.0008585725   0.0007319068  -0.0000157789   0.0010211452
       -0.0006413182   0.0001011371  -0.0001187741   0.0011179045  -0.0002142574
       -0.0002032083  -0.0006735039   0.0001113350   0.0000806478  -0.0002137907
       -0.0000766451  -0.0003848955  -0.0006044850   0.0002162238  -0.0010593514
        0.0014099839  -0.0004420387   0.0010606996  -0.0094161927  -0.0052684112
       -0.0059754336   0.0015912622   0.0026028039  -0.0031962881  -0.0166967522
       -0.0110367496   0.0006084496  -0.0000660608   0.0003611595   0.0005406184
       -0.0015103118   0.0003896845   0.0007974149   0.0009168436  -0.0003484560
       -0.0001227582   0.0001727334  -0.0000210317   0.0000729387   0.0005665582
       -0.0000397878  -0.0001688752  -0.0007671342   0.0001235145  -0.0005063599
        0.0007494360  -0.0001280212  -0.0013096657  -0.0010295451  -0.0000509516
        0.0000972536   0.0011779579  -0.0002253917   0.0000919623  -0.0006991009
        0.0001346220   0.0002671032  -0.0000651261   0.0000072720   0.0000262480
       -0.0010874253   0.0002208026   0.0009635868   0.0019940641  -0.0002346431
        0.0024578162   0.0174679631  -0.0017607913   0.0006028867   0.0002492551
       -0.0008122785   0.0021860813   0.0011707908  -0.0000141775   0.0002109941
       -0.0005977437   0.0000888369  -0.0000331154  -0.0002652377   0.0000447437
        0.0000134423  -0.0000348852  -0.0000101326   0.0000085510  -0.0000079787
        0.0000050422   0.0000034117  -0.0000019827  -0.0000157252   0.0000064594
       -0.0000029700   0.0000013345   0.0000050033   0.0000087812   0.0000196957
        0.0000012302   0.0000201699  -0.0000102365  -0.0000158219   0.0002038219
       -0.0000586974  -0.0001075598   0.0005522365  -0.0005596332   0.0001189822
        0.0002523612  -0.0005698855  -0.0003338258  -0.0005064429   0.0000744261
       -0.0000488467  -0.0000420663  -0.0000113310  -0.0000671524  -0.0000267271
        0.0000093861  -0.0000515221  -0.0000252954  -0.0000355652  -0.0000418782
        0.0000048263   0.0000363277  -0.0000011743   0.0000218002   0.0000005486
       -0.0000174608   0.0000220774  -0.0000008781   0.0000703928   0.0001839729
       -0.0000520007
       -0.0461552338  -0.0365937954   0.0166074288  -0.0394203869  -0.0837413125
        0.0188490666   0.0365427147   0.5387276262  -0.0325173963  -0.0083047295
       -0.2100201035   0.0302939295  -0.0490264055  -0.0387119683   0.0294938799
        0.0048942519   0.0046978281  -0.0040129695   0.0248788547   0.0112930878
       -0.0090538351   0.0446650844  -0.1387034963  -0.0330825019   0.0083312413
        0.0087866560  -0.0031811307   0.0054017169  -0.0006681688  -0.0035351604
        0.0004070787   0.0017736681   0.0010900795   0.0000328348  -0.0002805070
        0.0002007646  -0.0002234387  -0.0002934996  -0.0000622886   0.0000213001
        0.0000696140   0.0000192975   0.0000123579   0.0000214023   0.0000191733
        0.0000045846   0.0000520516   0.0000108652  -0.0000085050  -0.0000183393
        0.0000024664   0.0000928224   0.0000822951   0.0000271806   0.0001490509
       -0.0000740710   0.0000249854  -0.0000106375   0.0000601153  -0.0000193994
        0.0000055272  -0.0000295761   0.0000080193   0.0000328941   0.0000162120
       -0.0000377069  -0.0000105000  -0.0000587478   0.0000451917  -0.0001448423
        0.0002776909   0.0001908424   0.0009475234  -0.0016721496  -0.0008639387
       -0.0018641665   0.0006461892   0.0013445709   0.0009919808  -0.0044046600
       -0.0008141132  -0.0019895119  -0.0013299737  -0.0034562738   0.0002058142
       -0.0003224951  -0.0011426070   0.0005073669   0.0000927722   0.0006264837
       -0.0002665295   0.0000093830   0.0002606703   0.0000842074   0.0000137923
       -0.0000359237   0.0000064128   0.0001240957   0.0000934779  -0.0002159094
       -0.0001017306  -0.0000092006  -0.0003679603   0.0001820839  -0.0000859371
        0.0000312653   0.0000367327  -0.0000308800   0.0000120741  -0.0000044224
        0.0000391457  -0.0000441896   0.0000879459   0.0000324863   0.0002629308
       -0.0002038681   0.0004450595   0.0006639618   0.0011665788  -0.0003227022
        0.0005360766  -0.0252624139   0.0004175497   0.0003068986  -0.0000040269
       -0.0003070093   0.0180352827  -0.0255058045  -0.0067581126   0.0002525708
       -0.0004693505  -0.0001416309   0.0000661680  -0.0001723791  -0.0000242258
        0.0000279341  -0.0000246104  -0.0000136846  -0.0000245787  -0.0000442639
       -0.0000130064  -0.0000256342   0.0000021407  -0.0000000102  -0.0000154845
       -0.0000054215  -0.0000137434  -0.0000317578   0.0000385149   0.0000111085
        0.0000023058   0.0000421014   0.0000078993   0.0000355122   0.0001045614
       -0.0000269147  -0.0000510466   0.0002154522  -0.0000786572  -0.0000318961
        0.0002431131  -0.0002285432  -0.0000979478  -0.0002863308  -0.0001527847
       -0.0000483399   0.0000353269  -0.0000563787  -0.0000325141  -0.0000309009
       -0.0000697854  -0.0000318261  -0.0000038470   0.0000123173  -0.0000215865
        0.0000121133   0.0000020126  -0.0000006965   0.0000141673  -0.0000081766
        0.0000080085   0.0000236844   0.0000059153   0.0000096459   0.0000932377
       -0.0000252391
        0.0028908914   0.0009282711   0.0030669568   0.0703663783   0.0313807328
       -0.0757940646  -0.2060728596  -0.0325173963   0.2070021049   0.0093154533
        0.0416530004  -0.0556684968   0.0263988451   0.0241122040  -0.0007170426
       -0.0119625502   0.0007913319  -0.0029291336   0.0418074471  -0.0090317333
       -0.0069279886   0.0383304974  -0.0452977992  -0.0661264581   0.0264958055
       -0.0108596632  -0.0158681925  -0.0062978889  -0.0016986090   0.0027880953
        0.0010018993  -0.0062842981  -0.0038839962  -0.0004269432   0.0000752121
       -0.0004044649   0.0005371198   0.0008692532  -0.0001417406   0.0002650356
       -0.0003640761   0.0001054440  -0.0000380236  -0.0001791633   0.0000025937
        0.0001995365  -0.0004801015   0.0000917609  -0.0000328227   0.0008110150
       -0.0001561095  -0.0005571339  -0.0005303522   0.0000350662  -0.0006374067
        0.0004864740  -0.0000639324   0.0000573925  -0.0008227105   0.0001556016
        0.0001623949   0.0005091792  -0.0000778536  -0.0000674255   0.0001791363
        0.0000082555   0.0002877076   0.0003950899  -0.0001111705   0.0005332996
       -0.0007635447   0.0003115768   0.0002703444   0.0050142965   0.0028989909
        0.0020601566  -0.0003547759  -0.0007749047   0.0013410277   0.0073771960
        0.0051590862   0.0000204642  -0.0020040555  -0.0019908012  -0.0012533009
        0.0010568306  -0.0018761910  -0.0010703754  -0.0002336684  -0.0011808641
        0.0001857416  -0.0002102066  -0.0001292629  -0.0001679094  -0.0005025284
        0.0000357854   0.0000024411   0.0007288866  -0.0001611488   0.0007637085
       -0.0002128196  -0.0000506433   0.0002888168   0.0005459778   0.0000853639
       -0.0000028430  -0.0004212713   0.0000669974  -0.0001073253   0.0003534339
       -0.0000715883   0.0000632128   0.0000582464   0.0000641998   0.0000516122
        0.0001830175   0.0000940327   0.0004795296   0.0001787836   0.0003666964
        0.0019846796  -0.0037197128   0.0059980295  -0.0004002860  -0.0001560856
        0.0001441739   0.0028496803  -0.0012245345   0.0062295063  -0.0001245065
        0.0003080896  -0.0002194908   0.0000281660   0.0001028340  -0.0000118736
        0.0000007965   0.0000232065  -0.0000068521  -0.0000043421  -0.0000019028
       -0.0000058606   0.0000000043   0.0000002723  -0.0000000838  -0.0000017466
        0.0000018552  -0.0000131397  -0.0000071477   0.0000010760  -0.0000022188
        0.0000042659  -0.0000078621   0.0000116588   0.0000156030  -0.0000883496
        0.0000287822   0.0000512481  -0.0002205585   0.0002317401  -0.0000788339
       -0.0000264082   0.0002283835   0.0001810767   0.0001696806   0.0000435696
        0.0000042392   0.0000470663   0.0000377953   0.0000149433   0.0000172607
        0.0000171420  -0.0000008739   0.0000170819   0.0000495625   0.0000110750
       -0.0000057360  -0.0000000510  -0.0000029538  -0.0000217465   0.0000041020
        0.0000082815  -0.0000166427   0.0000085625  -0.0000153203  -0.0001176795
       -0.0000059975
       -0.0061586335  -0.0132484228  -0.0004909454  -0.0160108540  -0.0071460115
        0.0139856621  -0.0622455792  -0.0083047295   0.0093154533   0.5843300017
       -0.0309103485  -0.2108479551  -0.2881044207  -0.0949944661   0.1246772936
       -0.0869153011   0.0585745158   0.0389760822  -0.0074041457  -0.0355006085
       -0.0011650991   0.0179925421   0.0122247529  -0.0063685878   0.0057667678
       -0.0105878083  -0.0077374482  -0.0058482758  -0.0000771882   0.0024394329
       -0.0000713828  -0.0042321095  -0.0027661821   0.0000663423   0.0001060349
       -0.0000769435   0.0004165981   0.0006697798  -0.0001668871   0.0002868538
       -0.0003364390   0.0000975939  -0.0001345461  -0.0002525302   0.0000071763
        0.0003955237  -0.0006209132   0.0000854126   0.0000577088   0.0010201753
       -0.0001073628  -0.0006013894  -0.0008003676   0.0000302621  -0.0007132224
        0.0007597421  -0.0000882578   0.0001751924  -0.0010149703   0.0001440585
        0.0003504499   0.0006761151  -0.0000487473  -0.0001341465   0.0002122052
        0.0000651573   0.0002834230   0.0003843830  -0.0000924588   0.0004405798
       -0.0006474109   0.0001355327  -0.0008284526   0.0037927916   0.0017936777
        0.0026618289  -0.0005313462  -0.0014240273   0.0010142514   0.0049930992
        0.0066619510  -0.0012804432  -0.0006086262  -0.0002211222  -0.0006441539
        0.0014087056  -0.0007812311  -0.0004541626  -0.0007126326  -0.0000131756
       -0.0001023532  -0.0002477611   0.0000553019  -0.0002841338  -0.0006010249
        0.0000558156  -0.0002304560   0.0012111986  -0.0002309492   0.0007106590
       -0.0004587245   0.0000674611   0.0000558142   0.0012080974  -0.0002803503
       -0.0003630024  -0.0009304091   0.0002124567  -0.0004239768   0.0004205172
       -0.0000572145   0.0000017769  -0.0000044749   0.0002255258   0.0005179915
       -0.0000177369   0.0003897084   0.0011695689   0.0005307951  -0.0002560475
       -0.1359919675   0.1181430597   0.0268379585  -0.0019489909   0.0039376138
        0.0038128819   0.0004976179   0.0025588879   0.0031100805  -0.0000241934
        0.0003500001  -0.0001126754   0.0000487631   0.0000785691   0.0000021970
       -0.0000036922   0.0000511175   0.0000050531  -0.0000333403  -0.0000344116
        0.0000288269   0.0000314840   0.0000275660   0.0000216462   0.0000329922
       -0.0000130885   0.0000203217  -0.0000282627   0.0000396981  -0.0000526245
        0.0000021984  -0.0000744665   0.0000073114   0.0000269892  -0.0000655618
        0.0000033817   0.0001499800  -0.0002927696   0.0002868497   0.0000210096
       -0.0002303828   0.0001909841  -0.0001170376   0.0000377041  -0.0000075570
       -0.0000188004  -0.0000113713   0.0000050442  -0.0000065536  -0.0000258187