62
 energy: -101.952337220714 gnorm: 0.000062718553 xtb: 6.7.1 (edcfbbe)
O           -0.55148534847186        2.71682704439241        1.18088043265334
C           -0.95160349480503        1.52397714075534        1.07517086403700
C           -2.15636998536035        1.05510317913940        1.68310307908152
C           -2.46929161457946       -0.29755974477188        1.98028763606075
N           -3.58954545726038       -0.66280697603556        2.54452601281646
C           -4.47307383848476        0.27549768115021        2.86949011940038
N           -4.23866444700421        1.57945976183109        2.73191206164630
C           -3.12367311709697        1.96781156515688        2.18582254950995
C           -0.13513886741543        0.56726228705011        0.29716534761988
C            1.25111737673681        0.65003339796123        0.38672797299975
C            2.07877147808755       -0.23932548198485       -0.28722555513166
N            3.46177595885186       -0.14373459096267       -0.16221200382792
C            4.20342579272725        1.01882866130526       -0.26912705925144
C            3.78697182647690        2.30933420881077       -0.56871730316780
C            4.75445056297789        3.29530584875902       -0.65105270755712
C            6.10221322159130        3.00895594302087       -0.45344886074318
C            6.52554120447909        1.71850844843583       -0.18173401353208
C            5.57377982568353        0.71509773435519       -0.09334673623464
C            5.65188531322145       -0.70444960156712        0.14313291329398
C            6.70310625484693       -1.57047991823825        0.39914676546045
C            6.42045894020602       -2.90963938019295        0.61163659450676
C            5.11005948776308       -3.37821264983452        0.58916742706346
C            4.04520644893813       -2.53139427395838        0.33653297729711
C            4.32578417564388       -1.19361473160518        0.09115245313504
C            1.50794291044919       -1.23822003802453       -1.08741225887080
C            0.13743186912639       -1.30009890248392       -1.22629164679870
C           -0.69952320926368       -0.39963667179985       -0.57141767857525
N           -2.07028882352807       -0.44242463470817       -0.82576195898145
C           -2.86094305294864        0.63191765868922       -1.18962966792215
C           -2.49188335203890        1.93602977470587       -1.48766499526838
C           -3.49347724760902        2.82173405607472       -1.84380449340074
C           -4.82393035553562        2.42041106302821       -1.91793850531944
C           -5.19081393811269        1.11034244644218       -1.65890075692323
C           -4.20403760344507        0.20597501432642       -1.30082459065973
C           -4.21419576752678       -1.20189166821828       -0.99317567853879
C           -5.21761482715859       -2.15367163570580       -0.91719725700757
C           -4.87558703900650       -3.44918668599953       -0.56497777779518
C           -3.55772042155433       -3.79113026507968       -0.27786459833852
C           -2.54024337853600       -2.85634714982379       -0.34332796428874
C           -2.87529571359223       -1.56042962288482       -0.71419091053631
H           -1.75257835805941       -1.08839182861182        1.79067507856943
H           -5.41259466355975       -0.03199942192577        3.29786132598839
H           -2.93113895465004        3.03071454100196        2.11061513527304
H            1.67238311217103        1.39083379618494        1.04983453810301
H            2.74670271536785        2.54158158824376       -0.73698594811388
H            4.45457916267351        4.30773076211665       -0.87646604264320
H            6.82691567110198        3.80608667464731       -0.52399724331445
H            7.57279263397652        1.49628301104837       -0.04679790082709
H            7.71787258954388       -1.20573244650575        0.43734276179350
H            7.22585587293420       -3.60049288622119        0.81062716575617
H            4.91821108034739       -4.42363475655138        0.77868580507720
H            3.03157043259966       -2.90022771489422        0.34688039646841
H            2.14249605110880       -1.90848823359912       -1.64443918528544
H           -0.30153165486358       -2.01389621042834       -1.90702364332959
H           -1.46293591010854        2.25654091461360       -1.43962831144054
H           -3.23361657504488        3.84530539126639       -2.06823248691333
H           -5.57829601267967        3.14205129826435       -2.19267419385783
H           -6.22067731403747        0.79786099269314       -1.73624439941440
H           -6.24285914546678       -1.88706213771108       -1.12195423343560
H           -5.64368809823205       -4.20489686838573       -0.50138246630062
H           -3.32384084960822       -4.80549958335440        0.00755895144373
H           -1.52417173718137       -3.12644025827476       -0.10058553074448
