 Entering Gaussian System
 *********************************************
 Gaussian 98:
 frequency output generated by the xtb code
 *********************************************
                         Standard orientation:
 --------------------------------------------------------------------
  Center     Atomic     Atomic              Coordinates (Angstroms)
  Number     Number      Type              X           Y           Z
 --------------------------------------------------------------------
    1          8             0       -0.517301    2.536511    1.559985
    2          6             0       -0.932325    1.373681    1.295129
    3          6             0       -2.139411    0.840514    1.841434
    4          6             0       -2.469941   -0.535940    1.950702
    5          7             0       -3.589986   -0.960955    2.471628
    6          6             0       -4.455879   -0.065363    2.935262
    7          7             0       -4.203692    1.241876    2.976795
    8          6             0       -3.088834    1.687489    2.476324
    9          6             0       -0.129334    0.524075    0.388885
   10          6             0        1.257846    0.579298    0.484676
   11          6             0        2.076081   -0.209889   -0.314019
   12          7             0        3.460013   -0.142793   -0.184046
   13          6             0        4.209907    1.018083   -0.119333
   14          6             0        3.801235    2.342646   -0.204920
   15          6             0        4.775879    3.323018   -0.142706
   16          6             0        6.123872    3.000507   -0.014443
   17          6             0        6.539236    1.680605    0.043510
   18          6             0        5.579845    0.682165   -0.012071
   19          6             0        5.649250   -0.757233    0.003929
   20          6             0        6.696434   -1.658283    0.114649
   21          6             0        6.405360   -3.012315    0.128606
   22          6             0        5.090978   -3.463908    0.053391
   23          6             0        4.030297   -2.582073   -0.057001
   24          6             0        4.318623   -1.224399   -0.103898
   25          6             0        1.493560   -1.079301   -1.246159
   26          6             0        0.122017   -1.111326   -1.384035
   27          6             0       -0.705113   -0.306328   -0.604011
   28          7             0       -2.076801   -0.302374   -0.857189
   29          6             0       -2.857986    0.817690   -1.072988
   30          6             0       -2.478460    2.147874   -1.183961
   31          6             0       -3.472089    3.082064   -1.417350
   32          6             0       -4.804855    2.704859   -1.552353
   33          6             0       -5.181827    1.374103   -1.481493
   34          6             0       -4.203264    0.421236   -1.248502
   35          6             0       -4.224917   -1.015478   -1.136791
   36          6             0       -5.235214   -1.961315   -1.194737
   37          6             0       -4.904417   -3.294914   -1.017381
   38          6             0       -3.590464   -3.682661   -0.773638
   39          6             0       -2.565968   -2.755468   -0.709491
   40          6             0       -2.890044   -1.418860   -0.903396
   41          1             0       -1.767212   -1.302313    1.644562
   42          1             0       -5.394976   -0.417131    3.329084
   43          1             0       -2.881699    2.748052    2.546304
   44          1             0        1.687203    1.212431    1.246604
   45          1             0        2.761285    2.606559   -0.319570
   46          1             0        4.481310    4.360268   -0.198767
   47          1             0        6.854515    3.793995    0.031555
   48          1             0        7.586156    1.432522    0.125739
   49          1             0        7.714411   -1.309616    0.194469
   50          1             0        7.207242   -3.730307    0.212361
   51          1             0        4.892556   -4.524565    0.087998
   52          1             0        3.013919   -2.942055   -0.088021
   53          1             0        2.119656   -1.666576   -1.898155
   54          1             0       -0.325882   -1.718462   -2.156342
   55          1             0       -1.447602    2.450743   -1.087002
   56          1             0       -3.204051    4.124976   -1.495050
   57          1             0       -5.552812    3.463588   -1.726348
   58          1             0       -6.213305    1.083185   -1.606629
   59          1             0       -6.257385   -1.661714   -1.366575
   60          1             0       -5.678285   -4.046277   -1.059304
   61          1             0       -3.365221   -4.727984   -0.626254
   62          1             0       -1.552709   -3.063596   -0.502947
 --------------------------------------------------------------------
     1 basis functions        1 primitive gaussians
     1 alpha electrons        1 beta electrons
 
 Harmonic frequencies (cm**-1), IR intensities (km*mol⁻¹),
 Raman scattering activities (A**4/amu), Raman depolarization ratios,
 reduced masses (AMU), force constants (mDyne/A) and normal coordinates:
                      1                      2                      3
                        a                      a                      a 
 Frequencies --    18.5263                22.6562                26.8501
 Red. masses --    11.1527                11.7969                11.2487
 Frc consts  --     0.0000                 0.0000                 0.0000
 IR Inten    --     0.8805                 0.4554                 2.1703
 Raman Activ --     0.0000                 0.0000                 0.0000
 Depolar     --     0.0000                 0.0000                 0.0000
 Atom AN      X      Y      Z        X      Y      Z        X      Y      Z
   1   8     0.01   0.11  -0.11     0.13  -0.09   0.14     0.08  -0.04   0.21
   2   6     0.01   0.09  -0.07     0.04  -0.05   0.08     0.03   0.00   0.10
   3   6     0.02   0.10  -0.05    -0.04   0.05   0.02    -0.01   0.03   0.05
   4   6     0.02   0.10  -0.02    -0.15   0.08   0.03    -0.08   0.04  -0.01
   5   7     0.02   0.12  -0.02    -0.25   0.20  -0.06    -0.14   0.09  -0.09
   6   6     0.02   0.11  -0.04    -0.19   0.26  -0.14    -0.11   0.10  -0.10
   7   7     0.02   0.13  -0.06    -0.10   0.26  -0.16    -0.04   0.10  -0.02
   8   6     0.02   0.11  -0.07    -0.02   0.14  -0.07     0.01   0.05   0.05
   9   6     0.00   0.08  -0.07     0.01  -0.08   0.10     0.01   0.02   0.07
  10   6     0.00   0.07  -0.06     0.02  -0.09   0.10     0.01   0.03   0.05
  11   6     0.01   0.07  -0.07     0.01  -0.07   0.07     0.00   0.03   0.04
  12   7     0.00   0.03  -0.04     0.01  -0.04   0.04     0.01   0.02   0.03
  13   6     0.04  -0.00   0.06    -0.02  -0.02   0.06     0.03   0.00  -0.06
  14   6     0.10   0.02   0.11    -0.07  -0.03   0.13     0.05   0.00  -0.11
  15   6     0.13  -0.02   0.20    -0.10   0.00   0.14     0.08  -0.01  -0.22
  16   6     0.11  -0.08   0.24    -0.08   0.04   0.07     0.08  -0.03  -0.27
  17   6     0.06  -0.10   0.18    -0.04   0.05  -0.01     0.05  -0.04  -0.20
  18   6     0.03  -0.06   0.09    -0.01   0.02  -0.02     0.03  -0.02  -0.09
  19   6    -0.02  -0.06   0.01     0.04   0.02  -0.10    -0.00  -0.02  -0.00
  20   6    -0.06  -0.10  -0.01     0.08   0.06  -0.20    -0.02  -0.04   0.02
  21   6    -0.11  -0.09  -0.09     0.13   0.05  -0.26    -0.06  -0.04   0.12
  22   6    -0.12  -0.04  -0.15     0.14   0.00  -0.22    -0.07  -0.01   0.18
  23   6    -0.09   0.00  -0.14     0.11  -0.03  -0.12    -0.05   0.01   0.15
  24   6    -0.04  -0.01  -0.06     0.05  -0.02  -0.06    -0.02   0.00   0.07
  25   6     0.00   0.11  -0.10     0.00  -0.07   0.07    -0.00   0.04   0.04
  26   6     0.01   0.11  -0.09     0.00  -0.07   0.09     0.00   0.05   0.04
  27   6     0.00   0.08  -0.07     0.01  -0.07   0.09     0.00   0.04   0.05
  28   7    -0.01   0.03  -0.03     0.01  -0.06   0.08     0.00   0.03   0.06
  29   6    -0.07  -0.02  -0.00     0.03  -0.05   0.04    -0.04   0.00   0.09
  30   6    -0.15   0.00  -0.01     0.04  -0.05   0.06    -0.09   0.03   0.20
  31   6    -0.21  -0.05   0.02     0.06  -0.04   0.02    -0.13   0.00   0.23
  32   6    -0.20  -0.13   0.08     0.06  -0.03  -0.04    -0.11  -0.05   0.16
  33   6    -0.12  -0.15   0.09     0.05  -0.03  -0.05    -0.05  -0.07   0.05
  34   6    -0.06  -0.09   0.05     0.03  -0.04  -0.01    -0.01  -0.04   0.02
  35   6     0.02  -0.09   0.05     0.02  -0.04  -0.00     0.04  -0.05  -0.07
  36   6     0.07  -0.15   0.10     0.01  -0.03  -0.04     0.09  -0.09  -0.18
  37   6     0.15  -0.13   0.09    -0.01  -0.03  -0.01     0.13  -0.09  -0.26
  38   6     0.18  -0.06   0.04    -0.02  -0.04   0.04     0.14  -0.05  -0.22
  39   6     0.13  -0.00   0.00    -0.02  -0.05   0.07     0.10  -0.01  -0.11
  40   6     0.05  -0.02   0.01     0.00  -0.05   0.05     0.05  -0.01  -0.05
  41   1     0.01   0.03  -0.00    -0.05   0.01   0.03    -0.03   0.01   0.00
  42   1     0.00   0.03  -0.01    -0.07   0.10  -0.06    -0.04   0.04  -0.05
  43   1     0.00   0.03  -0.02     0.02   0.04  -0.02     0.02   0.01   0.03
  44   1     0.00   0.02  -0.01     0.01  -0.03   0.03     0.01   0.01   0.01
  45   1     0.03   0.02   0.02    -0.02  -0.02   0.05     0.02   0.00  -0.02
  46   1     0.05  -0.00   0.07    -0.04  -0.00   0.06     0.03  -0.00  -0.08
  47   1     0.04  -0.03   0.09    -0.03   0.02   0.02     0.03  -0.01  -0.10
  48   1     0.01  -0.04   0.06    -0.01   0.02  -0.02     0.02  -0.02  -0.07
  49   1    -0.01  -0.04   0.01     0.02   0.03  -0.07    -0.00  -0.02  -0.01
  50   1    -0.04  -0.04  -0.03     0.05   0.02  -0.10    -0.02  -0.01   0.04
  51   1    -0.05  -0.01  -0.06     0.05  -0.00  -0.08    -0.03  -0.00   0.07
  52   1    -0.03   0.01  -0.05     0.03  -0.02  -0.03    -0.02   0.01   0.06
  53   1     0.00   0.04  -0.03    -0.00  -0.02   0.01    -0.00   0.01   0.01
  54   1     0.00   0.03  -0.03    -0.00  -0.02   0.03    -0.00   0.02   0.01
  55   1    -0.05   0.02  -0.02     0.01  -0.02   0.03    -0.03   0.02   0.07
  56   1    -0.08  -0.01   0.00     0.02  -0.01   0.01    -0.05   0.01   0.09
  57   1    -0.07  -0.05   0.03     0.02  -0.01  -0.02    -0.04  -0.02   0.05
  58   1    -0.03  -0.06   0.04     0.02  -0.01  -0.03    -0.01  -0.03  -0.00
  59   1     0.01  -0.06   0.04     0.01  -0.01  -0.02     0.02  -0.03  -0.06
  60   1     0.06  -0.05   0.04    -0.00  -0.01  -0.01     0.05  -0.03  -0.10
  61   1     0.07  -0.01   0.01    -0.01  -0.01   0.02     0.05  -0.01  -0.08
  62   1     0.05   0.02  -0.01    -0.01  -0.02   0.03     0.03   0.01  -0.02
                      4                      5                      6
                        a                      a                      a 
 Frequencies --    32.4188                37.6259                56.2508
 Red. masses --    11.2843                11.6743                11.9939
 Frc consts  --     0.0000                 0.0000                 0.0000
 IR Inten    --     0.5594                 0.3360                 3.3802
 Raman Activ --     0.0000                 0.0000                 0.0000
 Depolar     --     0.0000                 0.0000                 0.0000
 Atom AN      X      Y      Z        X      Y      Z        X      Y      Z
   1   8    -0.04   0.06   0.06     0.14  -0.03  -0.11     0.22  -0.17   0.36
   2   6    -0.02   0.04   0.08     0.06  -0.02  -0.06     0.12  -0.09   0.15
   3   6     0.01   0.03   0.12     0.07   0.04   0.02     0.06  -0.06   0.07
   4   6     0.02   0.02   0.12    -0.03   0.07   0.00     0.01  -0.05   0.01
   5   7     0.07   0.01   0.21    -0.01   0.16   0.11    -0.06  -0.03  -0.11
   6   6     0.09  -0.00   0.27     0.11   0.20   0.23    -0.06  -0.01  -0.15
   7   7     0.08  -0.00   0.28     0.24   0.19   0.27    -0.00  -0.03  -0.06
   8   6     0.04   0.01   0.18     0.21   0.10   0.15     0.06  -0.05   0.05
   9   6    -0.02   0.04   0.07     0.00  -0.05  -0.08     0.04  -0.02   0.04
  10   6    -0.02   0.04   0.07     0.00  -0.08  -0.10     0.05   0.01  -0.09
  11   6    -0.02   0.04   0.07    -0.01  -0.09  -0.10     0.00   0.05  -0.18
  12   7    -0.03   0.03   0.06    -0.01  -0.07  -0.11     0.01   0.05  -0.25
  13   6     0.00   0.01   0.04    -0.06  -0.03  -0.05     0.01   0.03  -0.15
  14   6     0.03   0.02   0.08    -0.11  -0.05  -0.09     0.04   0.04  -0.21
  15   6     0.05  -0.00   0.06    -0.16  -0.01  -0.00     0.04   0.03  -0.08
  16   6     0.05  -0.03  -0.02    -0.16   0.05   0.13     0.02   0.02   0.12
  17   6     0.02  -0.04  -0.06    -0.11   0.06   0.17    -0.00   0.01   0.17
  18   6    -0.00  -0.02  -0.03    -0.06   0.02   0.07    -0.00   0.02   0.03
  19   6    -0.03  -0.02  -0.06    -0.00   0.02   0.08    -0.02   0.02   0.04
  20   6    -0.04  -0.04  -0.13     0.02   0.07   0.17    -0.05   0.00   0.19
  21   6    -0.06  -0.04  -0.14     0.08   0.06   0.14    -0.08   0.01   0.16
  22   6    -0.07  -0.01  -0.09     0.10   0.00   0.03    -0.07   0.02  -0.02
  23   6    -0.06   0.01  -0.02     0.07  -0.04  -0.06    -0.05   0.04  -0.16
  24   6    -0.04   0.01  -0.01     0.02  -0.03  -0.03    -0.02   0.04  -0.13
  25   6    -0.03   0.04   0.07    -0.03  -0.09  -0.09    -0.05   0.07  -0.16
  26   6    -0.03   0.03   0.08    -0.03  -0.07  -0.07    -0.06   0.05  -0.05
  27   6    -0.03   0.04   0.09    -0.02  -0.05  -0.07    -0.02   0.01   0.05
  28   7    -0.03   0.03   0.08    -0.02  -0.04  -0.06    -0.03   0.01   0.13
  29   6    -0.03   0.00  -0.03    -0.02  -0.03  -0.01    -0.02   0.00   0.05
  30   6    -0.05   0.01  -0.01    -0.02  -0.03   0.03    -0.01   0.00   0.08
  31   6    -0.04  -0.02  -0.17    -0.03  -0.02   0.08     0.00  -0.01  -0.04
  32   6    -0.01  -0.06  -0.35    -0.03  -0.01   0.08     0.02  -0.02  -0.18
  33   6     0.01  -0.07  -0.35    -0.03  -0.01   0.04     0.02  -0.02  -0.17
  34   6     0.01  -0.04  -0.19    -0.02  -0.02  -0.01    -0.00  -0.01  -0.05
  35   6     0.02  -0.03  -0.15    -0.03  -0.03  -0.07    -0.01  -0.00   0.00
  36   6     0.05  -0.06  -0.23    -0.03  -0.02  -0.10    -0.01  -0.01  -0.01
  37   6     0.07  -0.05  -0.15    -0.03  -0.03  -0.16    -0.02   0.00   0.08
  38   6     0.05  -0.01   0.01    -0.03  -0.04  -0.17    -0.03   0.01   0.17
  39   6     0.02   0.02   0.09    -0.03  -0.04  -0.13    -0.03   0.02   0.17
  40   6     0.01   0.01   0.01    -0.02  -0.04  -0.09    -0.02   0.01   0.10
  41   1     0.00   0.01   0.02    -0.04   0.00  -0.03     0.00  -0.02   0.02
  42   1     0.04  -0.01   0.10     0.04   0.08   0.09    -0.03   0.00  -0.07
  43   1     0.01   0.00   0.05     0.09   0.02   0.05     0.03  -0.02   0.04
  44   1    -0.01   0.01   0.02     0.01  -0.02  -0.03     0.03   0.00  -0.03
  45   1     0.01   0.01   0.04    -0.03  -0.03  -0.06     0.01   0.01  -0.10
  46   1     0.02   0.00   0.03    -0.06  -0.01  -0.01     0.02   0.01  -0.04
  47   1     0.02  -0.01  -0.01    -0.06   0.02   0.06     0.00   0.00   0.07
  48   1     0.01  -0.02  -0.03    -0.03   0.03   0.08    -0.00   0.00   0.09
  49   1    -0.01  -0.02  -0.05     0.00   0.03   0.07    -0.02  -0.00   0.09
  50   1    -0.02  -0.02  -0.06     0.03   0.03   0.06    -0.03  -0.00   0.08
  51   1    -0.03  -0.00  -0.03     0.04  -0.00   0.00    -0.03   0.01  -0.01
  52   1    -0.02   0.01   0.01     0.03  -0.02  -0.04    -0.01   0.02  -0.09
  53   1    -0.01   0.01   0.02    -0.01  -0.03  -0.03    -0.03   0.03  -0.07
  54   1    -0.01   0.01   0.03    -0.01  -0.02  -0.02    -0.03   0.02  -0.01
  55   1    -0.02   0.01   0.04    -0.01  -0.01   0.00    -0.01   0.00   0.06
  56   1    -0.02  -0.00  -0.05    -0.01  -0.00   0.03     0.00  -0.00  -0.01
  57   1    -0.00  -0.02  -0.14    -0.01  -0.00   0.04     0.01  -0.01  -0.08
  58   1     0.01  -0.03  -0.14    -0.01  -0.00   0.01     0.01  -0.01  -0.08
  59   1     0.02  -0.03  -0.10    -0.01  -0.00  -0.03     0.00  -0.00  -0.02
  60   1     0.03  -0.02  -0.06    -0.01  -0.01  -0.06    -0.00   0.00   0.02
  61   1     0.02   0.00   0.02    -0.01  -0.01  -0.06    -0.01   0.01   0.07
  62   1     0.00   0.01   0.06    -0.01  -0.02  -0.04    -0.01   0.01   0.06
                      7                      8                      9
                        a                      a                      a 
 Frequencies --    68.2621                71.9733                94.2344
 Red. masses --    11.4230                11.4258                11.3628
 Frc consts  --     0.0000                 0.0000                 0.0000
 IR Inten    --     0.1052                 3.4311                 1.3583
 Raman Activ --     0.0000                 0.0000                 0.0000
 Depolar     --     0.0000                 0.0000                 0.0000
 Atom AN      X      Y      Z        X      Y      Z        X      Y      Z
   1   8    -0.07  -0.15   0.04    -0.05   0.12  -0.15    -0.08  -0.14   0.10
   2   6    -0.07  -0.12  -0.01     0.01   0.07  -0.03    -0.05  -0.12   0.04
   3   6    -0.08  -0.08  -0.00     0.02   0.06  -0.00    -0.12  -0.08  -0.03
   4   6    -0.23  -0.05  -0.05     0.14   0.04   0.16    -0.09  -0.07   0.20
   5   7    -0.26   0.06   0.01     0.18   0.00   0.20    -0.02  -0.01   0.44
   6   6    -0.10   0.12   0.13     0.06  -0.01   0.01    -0.03   0.05   0.29
   7   7     0.06   0.09   0.21    -0.10   0.03  -0.21    -0.16   0.09  -0.14
   8   6     0.06  -0.02   0.12    -0.10   0.06  -0.20    -0.19   0.02  -0.28
   9   6    -0.04  -0.07  -0.03     0.01   0.02   0.01     0.01  -0.09   0.07
  10   6    -0.04   0.04  -0.03     0.01   0.10  -0.08     0.01  -0.11   0.09
  11   6     0.02   0.12  -0.04    -0.00   0.07  -0.05     0.01  -0.01  -0.01
  12   7     0.02   0.16  -0.01     0.00   0.09  -0.11     0.01  -0.03  -0.00
  13   6     0.07   0.11   0.00     0.03   0.06  -0.06    -0.00  -0.03   0.00
  14   6     0.13   0.13   0.06     0.08   0.08  -0.07    -0.02  -0.04  -0.08
  15   6     0.18   0.08   0.06     0.10   0.05   0.01    -0.03  -0.02  -0.14
  16   6     0.17   0.01  -0.01     0.08   0.01   0.10    -0.03  -0.01  -0.09
  17   6     0.11  -0.01  -0.05     0.04  -0.01   0.09    -0.02   0.00   0.02
  18   6     0.05   0.04  -0.03     0.01   0.02   0.00    -0.00  -0.01   0.05
  19   6    -0.01   0.04  -0.03    -0.02   0.02  -0.02     0.00  -0.01   0.07
  20   6    -0.06  -0.02  -0.03    -0.05  -0.00   0.02     0.00  -0.01   0.12
  21   6    -0.13   0.00   0.01    -0.08   0.00  -0.00     0.01  -0.02   0.04
  22   6    -0.16   0.07   0.04    -0.09   0.04  -0.04     0.02  -0.02  -0.09
  23   6    -0.11   0.12   0.03    -0.06   0.06  -0.07     0.02  -0.03  -0.11
  24   6    -0.03   0.11  -0.01    -0.03   0.06  -0.07     0.01  -0.02  -0.00
  25   6     0.08   0.10  -0.07    -0.02  -0.04   0.06     0.02   0.12  -0.14
  26   6     0.09  -0.01  -0.07    -0.03  -0.14   0.15     0.02   0.14  -0.16
  27   6     0.02  -0.09  -0.05    -0.02  -0.10   0.13     0.03   0.03  -0.04
  28   7     0.03  -0.14  -0.09    -0.03  -0.12   0.17     0.03   0.05  -0.01
  29   6     0.06  -0.10  -0.06     0.02  -0.09   0.12     0.03   0.04  -0.00
  30   6     0.13  -0.12  -0.11     0.08  -0.10   0.12     0.03   0.04  -0.04
  31   6     0.17  -0.08  -0.08     0.12  -0.06   0.12     0.03   0.03  -0.07
  32   6     0.14  -0.01   0.03     0.11  -0.01   0.10     0.03   0.03  -0.03
  33   6     0.07   0.01   0.08     0.06   0.01   0.05     0.02   0.03   0.03
  34   6     0.04  -0.04   0.03     0.02  -0.03   0.06     0.02   0.03   0.04
  35   6    -0.01  -0.04   0.03    -0.03  -0.04  -0.00     0.04   0.03   0.04
  36   6    -0.05   0.00   0.10    -0.05   0.00  -0.18     0.06   0.00   0.05
  37   6    -0.10  -0.01   0.06    -0.11  -0.03  -0.26     0.11   0.00  -0.01
  38   6    -0.09  -0.07  -0.05    -0.15  -0.08  -0.15     0.13   0.02  -0.08
  39   6    -0.05  -0.11  -0.11    -0.13  -0.11   0.03     0.10   0.05  -0.07
  40   6    -0.01  -0.10  -0.05    -0.06  -0.09   0.08     0.05   0.04  -0.01
  41   1    -0.10  -0.03  -0.04     0.06   0.02   0.08    -0.04  -0.03   0.06
  42   1    -0.03   0.06   0.06     0.02  -0.01   0.01     0.01   0.02   0.15
  43   1     0.05  -0.01   0.05    -0.07   0.03  -0.10    -0.08   0.02  -0.17
  44   1    -0.03   0.02  -0.01     0.01   0.05  -0.05     0.01  -0.05   0.04
  45   1     0.04   0.05   0.03     0.03   0.03  -0.04    -0.01  -0.02  -0.03
  46   1     0.07   0.03   0.03     0.04   0.02   0.00    -0.01  -0.01  -0.06
  47   1     0.06  -0.01  -0.00     0.03  -0.00   0.05    -0.01   0.00  -0.04
  48   1     0.03  -0.02  -0.02     0.01  -0.01   0.05    -0.00   0.01   0.02
  49   1    -0.01  -0.02  -0.01    -0.01  -0.01   0.02    -0.00  -0.00   0.06
  50   1    -0.05  -0.01   0.00    -0.03  -0.00   0.01     0.00  -0.00   0.02
  51   1    -0.06   0.02   0.02    -0.03   0.01  -0.01     0.01  -0.01  -0.05
  52   1    -0.04   0.05   0.02    -0.02   0.02  -0.02     0.01  -0.01  -0.06
  53   1     0.04   0.05  -0.02    -0.01  -0.02   0.02     0.01   0.06  -0.06
  54   1     0.04  -0.01  -0.02    -0.01  -0.06   0.07     0.01   0.07  -0.07
  55   1     0.05  -0.05  -0.06     0.03  -0.04   0.03     0.01   0.01  -0.02
  56   1     0.06  -0.03  -0.04     0.05  -0.02   0.04     0.01   0.01  -0.03
  57   1     0.05   0.01   0.02     0.04   0.01   0.03     0.01   0.01  -0.02
  58   1     0.01   0.02   0.04     0.02   0.01   0.00     0.01   0.01   0.02
  59   1    -0.02   0.01   0.05    -0.01   0.01  -0.08     0.01  -0.01   0.03
  60   1    -0.04   0.01   0.03    -0.04  -0.00  -0.12     0.04  -0.00  -0.00
  61   1    -0.04  -0.02  -0.03    -0.06  -0.03  -0.06     0.05   0.01  -0.04
  62   1    -0.01  -0.05  -0.06    -0.05  -0.05   0.04     0.04   0.02  -0.04
                     10                     11                     12
                        a                      a                      a 
 Frequencies --   104.0141               106.5314               122.4443
 Red. masses --    10.7358                10.6117                11.6052
 Frc consts  --     0.0000                 0.0000                 0.0000
 IR Inten    --     2.4230                 1.0521                 2.3930
 Raman Activ --     0.0000                 0.0000                 0.0000
 Depolar     --     0.0000                 0.0000                 0.0000
 Atom AN      X      Y      Z        X      Y      Z        X      Y      Z
   1   8     0.15  -0.13   0.09     0.15   0.02   0.13    -0.15   0.12  -0.29
   2   6     0.06  -0.06  -0.01     0.07   0.04   0.08    -0.03   0.02  -0.01
   3   6     0.02  -0.02  -0.05     0.07   0.05   0.07     0.03  -0.01   0.08
   4   6     0.05  -0.02   0.05     0.10   0.04   0.04     0.00  -0.01   0.04
   5   7     0.09  -0.00   0.15     0.08   0.01  -0.05    -0.06   0.00  -0.08
   6   6     0.07   0.02   0.08     0.03  -0.01  -0.09    -0.07   0.01  -0.10
   7   7    -0.00   0.04  -0.12     0.01  -0.01  -0.03     0.00  -0.01   0.04
   8   6    -0.02   0.02  -0.17     0.03   0.02   0.05     0.04  -0.02   0.13
   9   6     0.02  -0.05  -0.04     0.02   0.03   0.05     0.02  -0.04   0.07
  10   6     0.02  -0.07  -0.05     0.02  -0.00   0.02     0.01  -0.07   0.07
  11   6     0.00  -0.03  -0.09    -0.01  -0.01   0.00    -0.04  -0.01  -0.03
  12   7     0.01  -0.00  -0.12    -0.02  -0.02  -0.02    -0.06  -0.01  -0.08
  13   6    -0.00   0.00  -0.08    -0.03  -0.01  -0.02    -0.09  -0.01  -0.06
  14   6    -0.03   0.01   0.22    -0.05  -0.02   0.06    -0.16  -0.03  -0.01
  15   6    -0.05   0.02   0.37    -0.07  -0.00   0.09    -0.20   0.00   0.05
  16   6    -0.03   0.02   0.12    -0.06   0.01   0.03    -0.19   0.03   0.04
  17   6     0.00   0.01  -0.20    -0.04   0.01  -0.05    -0.13   0.04  -0.04
  18   6     0.01   0.01  -0.24    -0.02  -0.00  -0.06    -0.09  -0.00  -0.08
  19   6     0.02   0.01  -0.24    -0.01  -0.01  -0.06    -0.08  -0.01  -0.08
  20   6     0.01   0.01  -0.15    -0.01  -0.00  -0.05    -0.12  -0.06  -0.03
  21   6    -0.02   0.02   0.17    -0.02  -0.00   0.03    -0.18  -0.05   0.05
  22   6    -0.04   0.02   0.35    -0.02  -0.01   0.08    -0.19  -0.03   0.05
  23   6    -0.02   0.02   0.19    -0.02  -0.01   0.05    -0.15   0.01  -0.02
  24   6     0.01   0.01  -0.09    -0.01  -0.01  -0.02    -0.08  -0.01  -0.07
  25   6    -0.01  -0.00  -0.11    -0.04   0.01  -0.00    -0.01   0.06  -0.10
  26   6    -0.01   0.01  -0.10    -0.04   0.04   0.03    -0.00   0.04  -0.06
  27   6    -0.00  -0.01  -0.07    -0.02   0.03   0.06     0.05  -0.00   0.04
  28   7    -0.01   0.01  -0.05    -0.03   0.02   0.12     0.07   0.00   0.07
  29   6    -0.02   0.01  -0.03    -0.03   0.01   0.10     0.10   0.00   0.04
  30   6    -0.04   0.03   0.06     0.01  -0.03  -0.18     0.18  -0.02   0.02
  31   6    -0.05   0.02   0.09     0.04  -0.05  -0.39     0.22   0.02   0.05
  32   6    -0.04   0.01   0.02     0.01  -0.03  -0.22     0.20   0.05   0.07
  33   6    -0.02  -0.00  -0.06    -0.04   0.00   0.14     0.15   0.06   0.04
  34   6    -0.01   0.00  -0.07    -0.05   0.01   0.25     0.11   0.01   0.02
  35   6    -0.01   0.00  -0.07    -0.05   0.01   0.27     0.10  -0.00   0.01
  36   6    -0.01   0.01  -0.04    -0.03   0.00   0.20     0.16  -0.06  -0.05
  37   6    -0.02   0.01   0.04     0.02  -0.03  -0.15     0.21  -0.05  -0.03
  38   6    -0.02   0.02   0.08     0.06  -0.04  -0.36     0.20  -0.01   0.08
  39   6    -0.02   0.02   0.03     0.03  -0.02  -0.19     0.16   0.03   0.12
  40   6    -0.01   0.01  -0.04    -0.02   0.01   0.11     0.10   0.01   0.07
  41   1     0.01  -0.01   0.02     0.04   0.02   0.02     0.00  -0.00   0.03
  42   1     0.03   0.01   0.05     0.00  -0.01  -0.05    -0.04   0.01  -0.07
  43   1    -0.02   0.01  -0.09     0.00   0.01   0.03     0.03  -0.01   0.06
  44   1     0.01  -0.03  -0.00     0.01  -0.01   0.01     0.02  -0.04   0.03
  45   1    -0.01   0.01   0.11    -0.02  -0.01   0.03    -0.05  -0.02  -0.00
  46   1    -0.02   0.01   0.19    -0.02  -0.00   0.05    -0.07  -0.00   0.03
  47   1    -0.01   0.01   0.06    -0.02   0.00   0.02    -0.06   0.01   0.02
  48   1     0.00   0.00  -0.10    -0.01   0.01  -0.03    -0.03   0.03  -0.01
  49   1     0.01  -0.00  -0.08    -0.00  -0.00  -0.02    -0.03  -0.03  -0.01
  50   1    -0.01   0.00   0.09    -0.01  -0.00   0.02    -0.06  -0.02   0.03
  51   1    -0.02   0.01   0.18    -0.01  -0.00   0.04    -0.06  -0.01   0.03
  52   1    -0.01   0.01   0.09    -0.01  -0.00   0.02    -0.05   0.02  -0.01
  53   1    -0.00  -0.00  -0.03    -0.02   0.00  -0.00     0.00   0.04  -0.05
  54   1    -0.01   0.01  -0.03    -0.02   0.02   0.01    -0.01   0.03  -0.02
  55   1    -0.01   0.01   0.03     0.01  -0.02  -0.08     0.06  -0.02   0.00
  56   1    -0.02   0.01   0.05     0.02  -0.02  -0.20     0.07   0.00   0.01
  57   1    -0.01   0.00   0.01     0.01  -0.01  -0.11     0.06   0.02   0.03
  58   1    -0.00  -0.00  -0.03    -0.02   0.00   0.08     0.04   0.03   0.01
  59   1    -0.00   0.00  -0.02    -0.02   0.00   0.10     0.04  -0.03  -0.03
  60   1    -0.01   0.00   0.02     0.01  -0.01  -0.08     0.07  -0.02  -0.02
  61   1    -0.01   0.01   0.04     0.03  -0.02  -0.19     0.07  -0.00   0.03
  62   1    -0.01   0.01   0.01     0.01  -0.01  -0.09     0.05   0.03   0.05
                     13                     14                     15
                        a                      a                      a 
 Frequencies --   128.6779               132.9694               145.9949
 Red. masses --    12.0470                10.7738                10.1127
 Frc consts  --     0.0000                 0.0000                 0.0000
 IR Inten    --     7.4506                 0.6755                 1.3420
 Raman Activ --     0.0000                 0.0000                 0.0000
 Depolar     --     0.0000                 0.0000                 0.0000
 Atom AN      X      Y      Z        X      Y      Z        X      Y      Z
   1   8     0.28  -0.11   0.39    -0.23   0.00   0.02    -0.05   0.05  -0.20
   2   6     0.06   0.04   0.01    -0.08  -0.04  -0.01     0.01  -0.01  -0.00
   3   6    -0.02   0.08  -0.10    -0.09  -0.09  -0.03     0.05  -0.01   0.07
   4   6     0.06   0.07  -0.10    -0.15  -0.07  -0.02     0.04  -0.01   0.07
   5   7     0.15   0.01   0.02    -0.17  -0.02   0.04     0.01   0.01   0.02
   6   6     0.14  -0.02   0.07    -0.09   0.01   0.09    -0.02   0.02  -0.05
   7   7     0.02  -0.00  -0.03    -0.04   0.00   0.07    -0.01   0.02  -0.05
   8   6    -0.04   0.05  -0.12    -0.04  -0.06  -0.00     0.02   0.01   0.01
   9   6    -0.02   0.09  -0.07     0.02   0.03   0.01     0.01  -0.05   0.03
  10   6    -0.03   0.10  -0.07     0.03   0.07  -0.06     0.01  -0.04   0.04
  11   6    -0.04   0.01   0.03     0.01  -0.02  -0.01     0.01  -0.00   0.01
  12   7    -0.07   0.02   0.10     0.03  -0.02  -0.15     0.01   0.00   0.03
  13   6    -0.07   0.02   0.03     0.05  -0.02  -0.22     0.01   0.00  -0.03
  14   6    -0.10   0.00  -0.11     0.07  -0.02  -0.31    -0.00  -0.01  -0.12
  15   6    -0.12   0.02  -0.11     0.06  -0.02  -0.04    -0.02   0.00  -0.08
  16   6    -0.13   0.04   0.05     0.03  -0.02   0.31    -0.03   0.02   0.09
  17   6    -0.11   0.04   0.13     0.02  -0.03   0.22    -0.01   0.02   0.12
  18   6    -0.08   0.02   0.08     0.04  -0.02  -0.11     0.01   0.01   0.02
  19   6    -0.08   0.01   0.06     0.04  -0.01  -0.14     0.01   0.00   0.00
  20   6    -0.11  -0.04  -0.15     0.06   0.01  -0.22     0.01  -0.02  -0.13
  21   6    -0.15  -0.04  -0.23     0.08   0.01  -0.08    -0.02  -0.02  -0.12
  22   6    -0.18  -0.01  -0.02     0.07   0.00   0.16    -0.04   0.00   0.07
  23   6    -0.15   0.04   0.17     0.05  -0.01   0.16    -0.03   0.02   0.16
  24   6    -0.09   0.02   0.13     0.03  -0.02  -0.05     0.00   0.01   0.07
  25   6     0.01  -0.09   0.10    -0.03  -0.16   0.14     0.03   0.06  -0.05
  26   6     0.03  -0.08   0.05    -0.03  -0.12   0.13     0.03   0.06  -0.07
  27   6     0.02  -0.00  -0.04     0.00   0.01   0.04     0.01  -0.02   0.00
  28   7     0.05  -0.03  -0.13     0.02   0.08   0.01     0.01  -0.03   0.03
  29   6     0.05  -0.03  -0.10     0.00   0.07  -0.00    -0.00  -0.01   0.14
  30   6     0.08  -0.04  -0.06    -0.03   0.07  -0.07    -0.03   0.02   0.35
  31   6     0.09  -0.01   0.03    -0.05   0.05  -0.08    -0.02   0.01   0.21
  32   6     0.08   0.01   0.09    -0.05   0.03   0.00     0.04  -0.03  -0.23
  33   6     0.06   0.01   0.03    -0.03   0.02   0.07     0.06  -0.04  -0.30
  34   6     0.05  -0.02  -0.07     0.00   0.04   0.04     0.02  -0.01  -0.01
  35   6     0.05  -0.03  -0.07     0.02   0.04   0.04     0.00  -0.01   0.03
  36   6     0.05  -0.03   0.03     0.06   0.01  -0.00    -0.06   0.04   0.27
  37   6     0.05  -0.03   0.08     0.11   0.01  -0.05    -0.08   0.03   0.22
  38   6     0.06  -0.02   0.03     0.11   0.05  -0.01    -0.03  -0.03  -0.16
  39   6     0.07  -0.02  -0.06     0.07   0.08   0.04     0.02  -0.06  -0.30
  40   6     0.05  -0.03  -0.10     0.03   0.07   0.03     0.02  -0.03  -0.09
  41   1     0.02   0.03  -0.04    -0.06  -0.03  -0.01     0.01  -0.01   0.03
  42   1     0.06  -0.02   0.06    -0.02   0.01   0.04    -0.01   0.01  -0.03
  43   1    -0.03   0.02  -0.05     0.00  -0.02  -0.01     0.01   0.00   0.00
  44   1    -0.01   0.04  -0.03     0.02   0.05  -0.04     0.00  -0.01   0.01
  45   1    -0.03  -0.01  -0.06     0.03  -0.00  -0.15    -0.00  -0.01  -0.06
  46   1    -0.04   0.00  -0.07     0.02  -0.01  -0.02    -0.01  -0.00  -0.04
  47   1    -0.04   0.01   0.02     0.00  -0.01   0.18    -0.01   0.01   0.05
  48   1    -0.03   0.02   0.06     0.00  -0.01   0.13    -0.00   0.01   0.06
  49   1    -0.02  -0.03  -0.08     0.02   0.01  -0.11     0.01  -0.01  -0.07
  50   1    -0.05  -0.02  -0.12     0.03   0.00  -0.04    -0.00  -0.01  -0.07
  51   1    -0.06  -0.00  -0.01     0.02   0.00   0.10    -0.01   0.00   0.04
  52   1    -0.05   0.03   0.09     0.01  -0.01   0.09    -0.01   0.01   0.07
  53   1     0.01  -0.04   0.05    -0.02  -0.08   0.06     0.01   0.03  -0.02
  54   1     0.01  -0.04   0.02    -0.01  -0.05   0.05     0.01   0.03  -0.03
  55   1     0.03  -0.02  -0.03    -0.01   0.03  -0.03    -0.02   0.02   0.16
  56   1     0.03  -0.00   0.02    -0.02   0.01  -0.04    -0.01   0.01   0.10
  57   1     0.02   0.01   0.05    -0.02   0.00   0.00     0.02  -0.02  -0.13
  58   1     0.01   0.01   0.02    -0.01   0.00   0.04     0.03  -0.02  -0.17
  59   1     0.01  -0.01   0.02     0.01  -0.01  -0.00    -0.02   0.03   0.15
  60   1     0.01  -0.01   0.05     0.04  -0.00  -0.03    -0.04   0.02   0.12
  61   1     0.02  -0.00   0.02     0.04   0.01  -0.01    -0.01  -0.01  -0.09
  62   1     0.02  -0.00  -0.02     0.02   0.03   0.02     0.01  -0.03  -0.14
                     16                     17                     18
                        a                      a                      a 
 Frequencies --   154.1647               181.0728               187.0255
 Red. masses --    10.4611                11.3152                11.1182
 Frc consts  --     0.0000                 0.0000                 0.0000
 IR Inten    --    12.8910                 2.5442                 0.1742
 Raman Activ --     0.0000                 0.0000                 0.0000
 Depolar     --     0.0000                 0.0000                 0.0000
 Atom AN      X      Y      Z        X      Y      Z        X      Y      Z
   1   8     0.08  -0.04  -0.12     0.06  -0.11  -0.16    -0.09  -0.12  -0.04
   2   6     0.05  -0.06   0.02     0.08  -0.15   0.05     0.02  -0.11  -0.15
   3   6     0.09  -0.04   0.10     0.17  -0.16   0.19     0.02  -0.18  -0.21
   4   6     0.07  -0.04   0.13     0.10  -0.14   0.27    -0.09  -0.16  -0.17
   5   7     0.02  -0.00   0.03    -0.01  -0.03   0.16    -0.09  -0.03  -0.04
   6   6    -0.02   0.03  -0.10    -0.06   0.08  -0.14     0.07   0.07   0.05
   7   7     0.03   0.02  -0.07     0.04   0.07  -0.17     0.19   0.06  -0.04
   8   6     0.09  -0.01   0.05     0.17  -0.06   0.06     0.15  -0.08  -0.19
   9   6     0.01  -0.09   0.01     0.04  -0.15   0.03     0.06   0.02  -0.16
  10   6     0.01  -0.10   0.06     0.02  -0.10   0.04     0.04   0.09  -0.19
  11   6     0.03   0.01  -0.02     0.02  -0.07   0.04     0.02  -0.00  -0.09
  12   7     0.03  -0.00   0.12     0.01   0.07  -0.02    -0.00   0.01   0.05
  13   6     0.03  -0.00   0.04    -0.00   0.07   0.02    -0.02   0.02   0.12
  14   6     0.01  -0.02  -0.10     0.01   0.08   0.04    -0.04   0.02   0.14
  15   6    -0.00  -0.00  -0.12     0.02   0.07  -0.00    -0.04   0.03   0.03
  16   6    -0.01   0.02   0.05     0.02   0.06  -0.05    -0.02   0.03  -0.12
  17   6     0.01   0.03   0.15     0.00   0.06  -0.01    -0.02   0.04  -0.04
  18   6     0.03   0.01   0.09    -0.00   0.05   0.04    -0.02   0.02   0.11
  19   6     0.04   0.01   0.07    -0.01   0.04   0.04    -0.01   0.02   0.12
  20   6     0.05  -0.02  -0.20    -0.07  -0.02   0.05    -0.03  -0.02   0.01
  21   6     0.03  -0.01  -0.21    -0.15  -0.01  -0.03    -0.05  -0.01  -0.10
  22   6    -0.00   0.00   0.11    -0.16   0.03  -0.08    -0.06   0.00  -0.03
  23   6    -0.00   0.02   0.29    -0.11   0.09  -0.03    -0.05   0.03   0.09
  24   6     0.02   0.01   0.19    -0.01   0.07  -0.00    -0.01   0.02   0.10
  25   6     0.05   0.22  -0.21     0.02  -0.22   0.16     0.02  -0.09  -0.02
  26   6     0.04   0.21  -0.23     0.03  -0.22   0.14     0.01  -0.11  -0.02
  27   6     0.00   0.02  -0.06     0.02  -0.09   0.01     0.03  -0.04  -0.07
  28   7    -0.04  -0.02   0.03     0.04   0.06  -0.11     0.00   0.03   0.12
  29   6    -0.03  -0.03  -0.03     0.02   0.07  -0.11    -0.01   0.06   0.20
  30   6    -0.02  -0.04  -0.12    -0.08   0.10  -0.13    -0.04   0.07   0.20
  31   6    -0.03  -0.04  -0.09    -0.15   0.04  -0.08    -0.04   0.04   0.02
  32   6    -0.06  -0.01   0.07    -0.15  -0.00   0.03    -0.01   0.00  -0.17
  33   6    -0.06  -0.01   0.11    -0.06  -0.02   0.04     0.01   0.01  -0.03
  34   6    -0.04  -0.01   0.02     0.02   0.04  -0.06    -0.01   0.05   0.19
  35   6    -0.05  -0.01   0.00     0.03   0.05  -0.07    -0.01   0.05   0.19
  36   6    -0.05   0.00  -0.19     0.02   0.06   0.01     0.03   0.02  -0.00
  37   6    -0.08   0.00  -0.15     0.01   0.07   0.05     0.07   0.01  -0.15
  38   6    -0.13   0.01   0.10     0.03   0.07  -0.02     0.04   0.03   0.00
  39   6    -0.12  -0.01   0.20     0.04   0.06  -0.09     0.00   0.06   0.19
  40   6    -0.06  -0.01   0.10     0.04   0.06  -0.11    -0.02   0.05   0.19
  41   1     0.03  -0.02   0.06     0.02  -0.06   0.11    -0.05  -0.07  -0.05
  42   1    -0.02   0.02  -0.06    -0.05   0.05  -0.10     0.03   0.05   0.06
  43   1     0.04  -0.01   0.02     0.08  -0.02   0.01     0.08  -0.03  -0.08
  44   1    -0.00  -0.05   0.04     0.00  -0.02   0.00     0.01   0.04  -0.06
  45   1     0.00  -0.02  -0.05     0.00   0.02   0.02    -0.01   0.01   0.05
  46   1    -0.00  -0.00  -0.07     0.01   0.02  -0.00    -0.01   0.01   0.01
  47   1    -0.01   0.01   0.02     0.01   0.02  -0.03    -0.00   0.01  -0.08
  48   1     0.00   0.02   0.07     0.00   0.02  -0.01    -0.00   0.01  -0.04
  49   1     0.02  -0.01  -0.12    -0.01  -0.03   0.03    -0.00  -0.01  -0.00
  50   1     0.01  -0.01  -0.13    -0.05  -0.01  -0.01    -0.02  -0.01  -0.06
  51   1    -0.00   0.00   0.05    -0.06   0.01  -0.04    -0.02   0.00  -0.02
  52   1    -0.01   0.02   0.12    -0.04   0.05  -0.00    -0.02   0.02   0.04
  53   1     0.02   0.09  -0.08     0.01  -0.08   0.06     0.00  -0.05   0.02
  54   1     0.01   0.09  -0.09     0.02  -0.08   0.05     0.00  -0.05   0.01
  55   1    -0.00  -0.01  -0.06    -0.03   0.05  -0.04    -0.02   0.03   0.08
  56   1    -0.01  -0.01  -0.05    -0.06   0.02  -0.03    -0.01   0.01  -0.00
  57   1    -0.02  -0.00   0.04    -0.06  -0.01   0.03     0.00  -0.01  -0.11
  58   1    -0.02  -0.00   0.06    -0.02  -0.03   0.04     0.01  -0.01  -0.04
  59   1    -0.00   0.00  -0.11     0.00   0.02   0.02     0.01   0.00  -0.02
  60   1    -0.02  -0.00  -0.09     0.00   0.02   0.04     0.03  -0.00  -0.11
  61   1    -0.05   0.00   0.05     0.01   0.02   0.00     0.02   0.01  -0.02
  62   1    -0.04  -0.00   0.08     0.01   0.02  -0.03    -0.00   0.02   0.08
                     19                     20                     21
                        a                      a                      a 
 Frequencies --   200.2874               213.5904               256.9177
 Red. masses --    10.9101                11.6763                11.0511
 Frc consts  --     0.0000                 0.0000                 0.0000
 IR Inten    --     3.2809                10.2815                 1.1570
 Raman Activ --     0.0000                 0.0000                 0.0000
 Depolar     --     0.0000                 0.0000                 0.0000
 Atom AN      X      Y      Z        X      Y      Z        X      Y      Z
   1   8    -0.10   0.01   0.11     0.30  -0.13  -0.22    -0.13   0.04   0.05
   2   6    -0.02   0.00   0.01     0.00  -0.05  -0.03     0.03  -0.01   0.01
   3   6     0.07  -0.08   0.16    -0.05   0.11  -0.02     0.08  -0.12  -0.06
   4   6     0.08  -0.07   0.28    -0.01   0.09  -0.09     0.03  -0.11  -0.07
   5   7    -0.01  -0.00   0.18     0.05  -0.00  -0.09     0.01  -0.01  -0.02
   6   6    -0.11   0.06  -0.13     0.03  -0.07   0.04     0.10   0.06  -0.02
   7   7    -0.04   0.05  -0.09    -0.04  -0.06   0.06     0.16   0.07  -0.09
   8   6     0.09  -0.04   0.13    -0.10   0.05  -0.01     0.15  -0.03  -0.12
   9   6    -0.08   0.16  -0.19    -0.08  -0.24   0.07     0.00   0.00   0.03
  10   6    -0.08   0.23  -0.30    -0.09  -0.28   0.11     0.01  -0.03   0.12
  11   6    -0.08   0.05  -0.13    -0.08  -0.13  -0.00     0.05   0.01   0.13
  12   7    -0.09  -0.04   0.02    -0.08   0.04  -0.04     0.09   0.01   0.06
  13   6    -0.08  -0.02   0.06    -0.07   0.07   0.01     0.12  -0.01  -0.03
  14   6     0.01   0.01   0.09     0.09   0.12   0.02     0.03  -0.04  -0.05
  15   6     0.08  -0.05   0.04     0.21   0.02  -0.04    -0.06   0.04  -0.00
  16   6     0.07  -0.10  -0.05     0.19  -0.06  -0.02    -0.05   0.11   0.05
  17   6    -0.01  -0.12  -0.03     0.04  -0.09   0.07     0.05   0.12  -0.02
  18   6    -0.09  -0.03   0.06    -0.08   0.03   0.05     0.14   0.02  -0.05
  19   6    -0.08  -0.01   0.06    -0.08   0.06   0.04     0.13  -0.01  -0.02
  20   6     0.02   0.11  -0.01    -0.02   0.13  -0.02     0.05  -0.12   0.03
  21   6     0.14   0.09  -0.05     0.03   0.13  -0.05    -0.05  -0.10   0.04
  22   6     0.16   0.02   0.02     0.03   0.10   0.02    -0.06  -0.04  -0.04
  23   6     0.07  -0.08   0.08    -0.01   0.05   0.06     0.02   0.05  -0.04
  24   6    -0.07  -0.04   0.06    -0.06   0.05   0.02     0.11   0.02   0.01
  25   6    -0.09  -0.04  -0.05    -0.09  -0.11  -0.03    -0.04   0.08   0.12
  26   6    -0.09   0.01  -0.08    -0.10  -0.11  -0.02    -0.05   0.09   0.09
  27   6    -0.07   0.05  -0.11    -0.10  -0.11  -0.01    -0.13   0.04   0.06
  28   7    -0.08  -0.01  -0.04    -0.10   0.02  -0.02    -0.18   0.01   0.03
  29   6    -0.05  -0.02  -0.03    -0.08   0.03   0.03    -0.19  -0.04  -0.09
  30   6     0.06  -0.05  -0.00     0.00   0.01   0.05    -0.02  -0.10  -0.07
  31   6     0.14   0.03   0.04     0.08   0.07   0.02     0.12   0.06   0.05
  32   6     0.13   0.09   0.02     0.07   0.12  -0.04     0.09   0.18   0.06
  33   6     0.03   0.10  -0.04    -0.01   0.13  -0.02    -0.07   0.20  -0.09
  34   6    -0.06   0.00  -0.04    -0.10   0.05   0.03    -0.21   0.00  -0.12
  35   6    -0.06  -0.02  -0.04    -0.10   0.02   0.04    -0.22  -0.04  -0.04
  36   6     0.01  -0.10   0.03     0.01  -0.11   0.03    -0.09  -0.21   0.05
  37   6     0.09  -0.09   0.05     0.16  -0.09  -0.02     0.06  -0.19   0.05
  38   6     0.11  -0.04  -0.00     0.17  -0.01   0.02     0.10  -0.09  -0.03
  39   6     0.05   0.02  -0.04     0.06   0.10   0.05    -0.04   0.05  -0.03
  40   6    -0.05  -0.01  -0.05    -0.09   0.05   0.02    -0.19   0.02   0.00
  41   1     0.03  -0.03   0.12     0.01   0.04  -0.04    -0.01  -0.04  -0.03
  42   1    -0.07   0.03  -0.11     0.03  -0.04   0.03     0.03   0.04   0.01
  43   1     0.05  -0.02   0.05    -0.06   0.02   0.00     0.07  -0.01  -0.06
  44   1    -0.02   0.09  -0.10    -0.03  -0.09   0.03    -0.02  -0.01   0.05
  45   1     0.01   0.03   0.03     0.03   0.07   0.02     0.00  -0.04  -0.02
  46   1     0.04  -0.01   0.01     0.09   0.01  -0.02    -0.04   0.01   0.00
  47   1     0.03  -0.04  -0.04     0.07  -0.03  -0.02    -0.03   0.04   0.03
  48   1    -0.01  -0.06  -0.03     0.00  -0.07   0.03     0.02   0.07  -0.00
  49   1    -0.01   0.07  -0.02    -0.01   0.05  -0.02     0.02  -0.06   0.02
  50   1     0.06   0.04  -0.03     0.01   0.04  -0.04    -0.03  -0.04   0.02
  51   1     0.07  -0.00   0.00     0.02   0.03   0.01    -0.04  -0.01  -0.02
  52   1     0.03  -0.06   0.03     0.00  -0.00   0.02    -0.00   0.04  -0.02
  53   1    -0.03  -0.05   0.02    -0.03  -0.02  -0.02    -0.03   0.02   0.02
  54   1    -0.03  -0.01  -0.01    -0.03  -0.02  -0.02     0.00   0.02   0.02
  55   1     0.03  -0.04  -0.00     0.01  -0.02   0.02     0.01  -0.08  -0.02
  56   1     0.06   0.00   0.02     0.04   0.02   0.01     0.07   0.01   0.04
  57   1     0.05   0.04   0.01     0.03   0.04  -0.03     0.04   0.08   0.05
  58   1     0.00   0.06  -0.02    -0.01   0.06  -0.02    -0.03   0.11  -0.04
  59   1    -0.01  -0.06   0.02    -0.01  -0.07   0.01    -0.04  -0.11   0.02
  60   1     0.04  -0.04   0.03     0.06  -0.04  -0.02     0.03  -0.07   0.03
  61   1     0.05  -0.01   0.00     0.07   0.00   0.00     0.07  -0.02  -0.02
  62   1     0.02   0.03  -0.01     0.03   0.07   0.02     0.00   0.06  -0.01
                     22                     23                     24
                        a                      a                      a 
 Frequencies --   262.4528               272.3051               273.6821
 Red. masses --    11.2438                10.2724                10.3349
 Frc consts  --     0.0000                 0.0000                 0.0000
 IR Inten    --     0.3782                 1.4261                 0.0657
 Raman Activ --     0.0000                 0.0000                 0.0000
 Depolar     --     0.0000                 0.0000                 0.0000
 Atom AN      X      Y      Z        X      Y      Z        X      Y      Z
   1   8     0.21  -0.10  -0.09    -0.03   0.04  -0.02    -0.04   0.01   0.04
   2   6    -0.06  -0.00  -0.07     0.03  -0.00   0.05     0.00   0.00   0.01
   3   6    -0.11   0.15   0.07     0.03  -0.02   0.02     0.00  -0.02  -0.04
   4   6    -0.03   0.14   0.14    -0.01  -0.02  -0.05     0.01  -0.02  -0.02
   5   7    -0.02   0.01   0.08    -0.01  -0.00  -0.04     0.01  -0.00  -0.01
   6   6    -0.16  -0.09  -0.01     0.04   0.01   0.03     0.02   0.01  -0.01
   7   7    -0.22  -0.10   0.11     0.02   0.01  -0.02     0.04   0.01  -0.00
   8   6    -0.19   0.03   0.19     0.01   0.00  -0.05     0.04  -0.00  -0.02
   9   6    -0.06  -0.01  -0.14     0.02  -0.02   0.06     0.02  -0.01   0.04
  10   6    -0.03   0.07  -0.18     0.02  -0.01   0.01     0.01  -0.05   0.06
  11   6     0.08   0.02  -0.04    -0.02  -0.01  -0.03    -0.03  -0.02   0.00
  12   7     0.12   0.00   0.02    -0.01  -0.00  -0.04    -0.04  -0.00  -0.02
  13   6     0.15  -0.02  -0.08     0.00   0.00  -0.26    -0.05   0.01  -0.16
  14   6     0.03  -0.06  -0.06     0.02   0.01  -0.18     0.00   0.03  -0.12
  15   6    -0.10   0.04   0.09     0.00   0.00   0.24     0.03  -0.01   0.13
  16   6    -0.08   0.13   0.03     0.01  -0.02   0.09     0.03  -0.05   0.07
  17   6     0.06   0.15  -0.11     0.02  -0.03  -0.26    -0.01  -0.07  -0.14
  18   6     0.17   0.01  -0.06    -0.01  -0.00  -0.16    -0.06  -0.01  -0.11
  19   6     0.16  -0.02   0.07    -0.04   0.01   0.22    -0.08   0.01   0.11
  20   6     0.06  -0.16   0.12    -0.03   0.03   0.26    -0.04   0.07   0.14
  21   6    -0.04  -0.15  -0.03     0.02   0.02  -0.15     0.02   0.06  -0.08
  22   6    -0.06  -0.08  -0.10     0.03  -0.00  -0.21     0.03   0.02  -0.12
  23   6     0.03   0.04   0.05    -0.02  -0.00   0.22    -0.02  -0.02   0.12
  24   6     0.13   0.02   0.09    -0.04   0.00   0.27    -0.07  -0.00   0.15
  25   6     0.09  -0.08   0.03    -0.04   0.01  -0.03    -0.01   0.02  -0.04
  26   6     0.09  -0.07  -0.06    -0.05   0.04   0.00    -0.01   0.02  -0.01
  27   6     0.00  -0.03  -0.16    -0.02   0.00   0.06     0.03   0.01   0.03
  28   7    -0.01  -0.01  -0.14    -0.01   0.00   0.07     0.03   0.01   0.02
  29   6    -0.03   0.01  -0.02    -0.03   0.01   0.16     0.08  -0.02  -0.27
  30   6    -0.02   0.01   0.05    -0.01  -0.00   0.10     0.04   0.00  -0.23
  31   6    -0.00   0.04   0.06     0.03  -0.02  -0.15    -0.06   0.01   0.20
  32   6     0.01   0.04  -0.07     0.02  -0.01  -0.03    -0.04  -0.03   0.13
  33   6    -0.01   0.05  -0.05    -0.02   0.02   0.16     0.05  -0.08  -0.25
  34   6    -0.05   0.03   0.06    -0.01   0.00   0.08     0.08  -0.03  -0.20
  35   6    -0.07   0.02   0.11     0.02  -0.02  -0.15     0.02   0.02   0.17
  36   6    -0.02  -0.03   0.05     0.03  -0.02  -0.17    -0.02   0.07   0.26
  37   6     0.05  -0.04  -0.10    -0.02   0.01   0.11    -0.01   0.03  -0.11
  38   6     0.04  -0.00  -0.01    -0.02   0.01   0.12     0.00  -0.01  -0.22
  39   6    -0.01   0.04   0.11     0.02  -0.02  -0.16    -0.02  -0.00   0.20
  40   6    -0.06   0.02   0.05     0.03  -0.02  -0.16     0.00   0.02   0.26
  41   1     0.02   0.06   0.06    -0.01  -0.01  -0.03     0.01  -0.01   0.00
  42   1    -0.05  -0.05  -0.04     0.02   0.00   0.03     0.01   0.01  -0.00
  43   1    -0.09   0.01   0.10    -0.00   0.00  -0.04     0.02  -0.00  -0.00
  44   1    -0.03   0.04  -0.06     0.02  -0.00  -0.01     0.01  -0.02   0.02
  45   1    -0.00  -0.06  -0.03     0.01   0.01  -0.06     0.00   0.02  -0.04
  46   1    -0.06   0.01   0.06    -0.00   0.01   0.17     0.02   0.00   0.10
  47   1    -0.04   0.05   0.03     0.00  -0.01   0.08     0.01  -0.02   0.06
  48   1     0.03   0.08  -0.05     0.01  -0.02  -0.11    -0.00  -0.04  -0.06
  49   1     0.03  -0.08   0.05    -0.01   0.02   0.10    -0.02   0.03   0.06
  50   1    -0.02  -0.06  -0.03     0.01   0.01  -0.12     0.01   0.02  -0.06
  51   1    -0.04  -0.02  -0.07     0.02  -0.01  -0.16     0.03   0.00  -0.09
  52   1    -0.00   0.04   0.02    -0.00  -0.00   0.08    -0.00  -0.02   0.04
  53   1     0.03  -0.05   0.03    -0.02  -0.00  -0.01    -0.00   0.01  -0.01
  54   1     0.04  -0.04  -0.01    -0.02   0.02  -0.01    -0.01   0.01  -0.00
  55   1    -0.01   0.00   0.02    -0.00  -0.00   0.03     0.01   0.01  -0.08
  56   1     0.00   0.01   0.04     0.02  -0.01  -0.11    -0.04   0.02   0.16
  57   1     0.01   0.01  -0.05     0.01  -0.00  -0.04    -0.03  -0.01   0.11
  58   1    -0.00   0.02  -0.03    -0.01   0.01   0.07     0.02  -0.04  -0.10
  59   1    -0.01  -0.02   0.02     0.01  -0.01  -0.07    -0.01   0.03   0.11
  60   1     0.03  -0.02  -0.07    -0.01   0.01   0.09     0.00   0.01  -0.09
  61   1     0.02  -0.00  -0.01    -0.01   0.01   0.09     0.01  -0.02  -0.16
  62   1    -0.00   0.03   0.05     0.01  -0.01  -0.06    -0.01  -0.01   0.07
                     25                     26                     27
                        a                      a                      a 
 Frequencies --   282.0763               321.9431               344.9290
 Red. masses --    11.1338                12.3433                11.1173
 Frc consts  --     0.0000                 0.0000                 0.0000
 IR Inten    --     2.6114                 7.2610                 7.7511
 Raman Activ --     0.0000                 0.0000                 0.0000
 Depolar     --     0.0000                 0.0000                 0.0000
 Atom AN      X      Y      Z        X      Y      Z        X      Y      Z
   1   8    -0.05   0.10  -0.03    -0.38   0.12   0.36     0.04  -0.19   0.03
   2   6     0.05   0.02   0.10    -0.09   0.11  -0.08    -0.13  -0.03  -0.26
   3   6    -0.01   0.04   0.06    -0.11   0.07  -0.18    -0.24   0.06  -0.43
   4   6    -0.06   0.04  -0.04     0.11   0.06   0.06     0.05   0.03   0.07
   5   7    -0.06   0.01  -0.06     0.14   0.04   0.09     0.13  -0.01   0.18
   6   6    -0.03  -0.04   0.09     0.00   0.05  -0.15    -0.05   0.03  -0.21
   7   7    -0.07  -0.04   0.05     0.04   0.04   0.04     0.08  -0.02   0.11
   8   6    -0.10   0.01  -0.01     0.05   0.05   0.09     0.06   0.00   0.08
   9   6     0.09  -0.01   0.11    -0.02   0.06  -0.05    -0.02  -0.07  -0.03
  10   6     0.12  -0.03  -0.16    -0.00  -0.37   0.13    -0.03   0.04   0.05
  11   6     0.05  -0.00  -0.30    -0.00  -0.24  -0.04    -0.01   0.12  -0.00
  12   7     0.08  -0.02  -0.31     0.03  -0.02  -0.16    -0.01   0.02   0.07
  13   6     0.06  -0.02   0.07     0.00   0.02  -0.06     0.02  -0.01   0.02
  14   6     0.00  -0.03   0.20     0.04   0.04   0.05    -0.01  -0.03  -0.03
  15   6    -0.05   0.02   0.04     0.05   0.04   0.01    -0.02  -0.02   0.00
  16   6    -0.02   0.07  -0.20     0.06   0.05  -0.06    -0.02  -0.01   0.03
  17   6     0.02   0.08   0.06     0.02   0.04   0.05     0.01  -0.01  -0.03
  18   6     0.07   0.01   0.23     0.02   0.04   0.03     0.02  -0.02  -0.01
  19   6     0.09  -0.00   0.18     0.06   0.04   0.05    -0.01  -0.02   0.01
  20   6     0.05  -0.08  -0.01     0.02  -0.02   0.05     0.01  -0.01  -0.03
  21   6     0.01  -0.08  -0.17    -0.04  -0.01  -0.07     0.03  -0.01   0.03
  22   6    -0.02  -0.03   0.10    -0.06   0.02   0.00     0.03  -0.01   0.01
  23   6     0.02   0.03   0.14    -0.01   0.07   0.06     0.02  -0.02  -0.02
  24   6     0.09   0.01  -0.01     0.07   0.04  -0.02    -0.02  -0.01   0.04
  25   6    -0.10  -0.03  -0.19    -0.02  -0.18  -0.10     0.00   0.21  -0.10
  26   6    -0.14  -0.07   0.12    -0.03  -0.05  -0.06    -0.01  -0.14   0.09
  27   6    -0.03  -0.03   0.19     0.02   0.07  -0.11    -0.03  -0.21   0.13
  28   7    -0.04   0.02   0.20     0.03  -0.00  -0.18    -0.05  -0.02   0.29
  29   6     0.00   0.01  -0.05    -0.01  -0.01  -0.00     0.03   0.03   0.09
  30   6     0.01  -0.00  -0.13     0.01  -0.01   0.08    -0.02   0.04  -0.05
  31   6    -0.01   0.01  -0.03     0.02  -0.01   0.03    -0.04   0.02  -0.07
  32   6    -0.03   0.02   0.12     0.04  -0.03  -0.08    -0.06   0.04   0.08
  33   6    -0.00   0.00  -0.04     0.00  -0.01   0.04     0.01   0.01  -0.03
  34   6     0.02  -0.00  -0.15    -0.02  -0.01   0.09     0.04   0.04  -0.08
  35   6     0.01  -0.00  -0.10     0.01  -0.02   0.05     0.00   0.03  -0.11
  36   6     0.00  -0.00   0.03     0.00  -0.01  -0.01     0.02   0.02  -0.05
  37   6     0.00   0.01   0.10    -0.02  -0.02  -0.06     0.04   0.05   0.13
  38   6     0.03  -0.00  -0.07    -0.03  -0.01   0.04     0.07   0.02  -0.05
  39   6     0.02   0.00  -0.08    -0.01  -0.02   0.02     0.05   0.03  -0.09
  40   6    -0.00   0.01   0.01     0.03  -0.02  -0.05    -0.03   0.02   0.05
  41   1    -0.03   0.01  -0.03     0.07   0.03   0.08     0.08   0.02   0.13
  42   1     0.01  -0.02   0.05    -0.02   0.01  -0.10    -0.05   0.01  -0.13
  43   1    -0.06   0.01  -0.02     0.06  -0.00   0.10     0.09  -0.02   0.16
  44   1     0.07  -0.02  -0.06     0.03  -0.16   0.07    -0.03   0.02   0.02
  45   1    -0.00  -0.02   0.08     0.01   0.02   0.04    -0.00  -0.02  -0.02
  46   1    -0.03   0.00   0.01     0.01   0.01   0.01    -0.01  -0.01   0.00
  47   1    -0.01   0.03  -0.14     0.02   0.01  -0.03    -0.01  -0.00   0.02
  48   1     0.01   0.04   0.01     0.00   0.01   0.03     0.00   0.00  -0.02
  49   1     0.02  -0.04  -0.02     0.01  -0.02   0.03     0.00   0.00  -0.02
  50   1     0.00  -0.03  -0.11    -0.02  -0.01  -0.05     0.01  -0.00   0.01
  51   1    -0.02  -0.00   0.05    -0.03   0.01   0.00     0.01  -0.00  -0.00
  52   1    -0.00   0.03   0.06    -0.01   0.04   0.04     0.01  -0.01  -0.03
  53   1    -0.07  -0.02  -0.08    -0.02  -0.05  -0.04     0.02   0.11  -0.06
  54   1    -0.08  -0.03   0.06    -0.03  -0.01  -0.01     0.01  -0.06   0.03
  55   1     0.00  -0.00  -0.05     0.00  -0.01   0.03    -0.01   0.03  -0.03
  56   1    -0.00   0.00  -0.00     0.01  -0.00   0.01    -0.01   0.00  -0.04
  57   1    -0.02   0.01   0.09     0.02  -0.01  -0.06    -0.03   0.01   0.06
  58   1    -0.00   0.00  -0.01    -0.00   0.00   0.01     0.01  -0.01  -0.01
  59   1    -0.00  -0.00   0.02     0.00   0.00  -0.00     0.00  -0.01  -0.02
  60   1    -0.00   0.00   0.07    -0.00  -0.00  -0.04     0.01   0.02   0.09
  61   1     0.01  -0.00  -0.04    -0.01  -0.00   0.03     0.02   0.01  -0.03
  62   1     0.01   0.00  -0.03    -0.01  -0.01   0.01     0.02   0.02  -0.04
                     28                     29                     30
                        a                      a                      a 
 Frequencies --   365.8891               383.0282               396.4487
 Red. masses --    10.9996                10.7775                 9.5303
 Frc consts  --     0.0000                 0.0000                 0.0000
 IR Inten    --     4.0972                 4.2391                 0.8372
 Raman Activ --     0.0000                 0.0000                 0.0000
 Depolar     --     0.0000                 0.0000                 0.0000
 Atom AN      X      Y      Z        X      Y      Z        X      Y      Z
   1   8     0.08  -0.01  -0.04     0.18  -0.09  -0.12    -0.03   0.01   0.04
   2   6     0.02   0.02  -0.05    -0.02  -0.02  -0.08    -0.00   0.00   0.02
   3   6    -0.02   0.01  -0.07    -0.06  -0.02  -0.15     0.02   0.00   0.05
   4   6    -0.04  -0.00   0.03    -0.04  -0.03   0.00     0.01   0.01  -0.01
   5   7    -0.05  -0.00   0.03     0.00  -0.03   0.12     0.01   0.01  -0.01
   6   6    -0.08  -0.02   0.01    -0.06  -0.01  -0.04     0.02   0.00   0.01
   7   7    -0.02  -0.04   0.05     0.01  -0.02  -0.01    -0.01   0.01  -0.02
   8   6    -0.03  -0.04  -0.00     0.04  -0.05   0.03     0.00   0.01   0.01
   9   6     0.05   0.07  -0.07     0.05   0.03   0.01    -0.00  -0.02   0.02
  10   6     0.05  -0.05  -0.13     0.05   0.12   0.16    -0.00  -0.02   0.04
  11   6    -0.01  -0.31   0.07     0.01   0.11   0.15     0.01   0.05  -0.02
  12   7    -0.01  -0.07   0.19     0.03   0.03  -0.34     0.01   0.02  -0.07
  13   6    -0.05   0.02   0.05     0.02  -0.01  -0.19     0.01   0.00   0.03
  14   6     0.06   0.06  -0.00    -0.06  -0.01   0.20    -0.00  -0.02  -0.12
  15   6     0.08   0.07  -0.05    -0.04  -0.04  -0.03    -0.02  -0.01   0.10
  16   6     0.07   0.09   0.06    -0.03  -0.07  -0.17    -0.01  -0.03   0.00
  17   6     0.00   0.07  -0.01    -0.03  -0.05   0.21     0.01  -0.02  -0.10
  18   6    -0.01   0.07  -0.06    -0.01  -0.04  -0.04    -0.01  -0.01   0.14
  19   6     0.07   0.06  -0.08    -0.03  -0.03  -0.07    -0.03  -0.01   0.14
  20   6     0.01  -0.02  -0.02    -0.03   0.02   0.22     0.00   0.01  -0.11
  21   6    -0.08  -0.00   0.07     0.03   0.01  -0.17     0.01   0.01   0.00
  22   6    -0.07   0.00  -0.06     0.03   0.01  -0.03    -0.00   0.01   0.10
  23   6    -0.01   0.05  -0.04    -0.02  -0.01   0.21    -0.00  -0.01  -0.12
  24   6     0.08   0.03   0.04    -0.02  -0.02  -0.22    -0.02   0.00   0.03
  25   6    -0.10  -0.31   0.09    -0.01   0.03   0.26     0.05   0.02  -0.01
  26   6    -0.10   0.23  -0.24     0.04   0.17  -0.02     0.05  -0.07   0.05
  27   6    -0.00   0.16  -0.08     0.02   0.17  -0.07     0.02  -0.03  -0.00
  28   7    -0.06   0.05   0.34     0.00   0.04  -0.01     0.03  -0.01  -0.10
  29   6    -0.03   0.01   0.13    -0.05  -0.01   0.01    -0.02   0.01   0.08
  30   6     0.05  -0.04  -0.12     0.01  -0.04  -0.05     0.02  -0.03  -0.29
  31   6     0.03  -0.05  -0.01     0.03  -0.01   0.05    -0.04   0.03   0.20
  32   6     0.01  -0.04   0.15     0.03  -0.01   0.01    -0.02   0.02   0.02
  33   6     0.02  -0.06  -0.12    -0.00  -0.01  -0.05     0.02  -0.01  -0.25
  34   6     0.02  -0.03  -0.05    -0.04  -0.02   0.06    -0.06   0.04   0.30
  35   6     0.06  -0.02  -0.02     0.00  -0.02   0.08    -0.06   0.04   0.31
  36   6     0.03   0.03  -0.12     0.01  -0.02  -0.07     0.03  -0.04  -0.26
  37   6    -0.04   0.05   0.13    -0.04  -0.02   0.01     0.00  -0.00   0.04
  38   6    -0.02   0.02  -0.03    -0.04  -0.01   0.04    -0.02   0.02   0.20
  39   6     0.04  -0.04  -0.11    -0.01  -0.03  -0.07     0.04  -0.02  -0.29
  40   6     0.03   0.01   0.16     0.02  -0.00   0.05    -0.03   0.02   0.11
  41   1    -0.01  -0.01   0.03    -0.00  -0.01   0.03    -0.00   0.00  -0.02
  42   1    -0.02  -0.01   0.00    -0.03   0.01  -0.03     0.01  -0.00   0.00
  43   1    -0.01  -0.01   0.02     0.04  -0.02   0.06    -0.01   0.01  -0.01
  44   1     0.04   0.00  -0.07    -0.01   0.04   0.06    -0.00  -0.01   0.01
  45   1     0.02   0.04  -0.00    -0.03  -0.00   0.14     0.00  -0.01  -0.09
  46   1     0.02   0.02  -0.03    -0.00  -0.01   0.00    -0.00  -0.00   0.05
  47   1     0.02   0.02   0.04    -0.01  -0.02  -0.09    -0.00  -0.01  -0.01
  48   1    -0.00   0.00  -0.00    -0.01  -0.01   0.15     0.01  -0.01  -0.08
  49   1     0.01  -0.03  -0.00    -0.02   0.02   0.16     0.00   0.01  -0.09
  50   1    -0.03  -0.01   0.05     0.02   0.00  -0.09     0.00   0.00  -0.01
  51   1    -0.03   0.00  -0.03     0.01   0.00   0.01     0.00   0.00   0.05
  52   1    -0.01   0.04  -0.01    -0.01  -0.01   0.16     0.00  -0.01  -0.09
  53   1    -0.06  -0.14   0.05     0.01  -0.02   0.11     0.02   0.02  -0.01
  54   1    -0.05   0.13  -0.11     0.03   0.05  -0.02     0.02  -0.03   0.02
  55   1     0.02  -0.03  -0.08     0.01  -0.03  -0.04     0.02  -0.03  -0.20
  56   1     0.01  -0.01  -0.02     0.01  -0.00   0.03    -0.02   0.01   0.10
  57   1    -0.00  -0.01   0.09     0.01   0.00  -0.00    -0.00   0.00  -0.01
  58   1     0.01  -0.02  -0.08    -0.00   0.01  -0.04     0.02  -0.01  -0.19
  59   1     0.02   0.02  -0.08     0.01  -0.00  -0.06     0.03  -0.03  -0.21
  60   1    -0.02   0.02   0.08    -0.01  -0.00   0.00     0.00  -0.00  -0.01
  61   1    -0.01  -0.00  -0.03    -0.01  -0.00   0.02    -0.01   0.01   0.10
  62   1     0.02  -0.03  -0.09     0.00  -0.02  -0.06     0.03  -0.02  -0.21
                     31                     32                     33
                        a                      a                      a 
 Frequencies --   400.3269               410.1929               414.0284
 Red. masses --    10.2846                11.2934                10.8866
 Frc consts  --     0.0000                 0.0000                 0.0000
 IR Inten    --    11.0865                23.5287                 1.1744
 Raman Activ --     0.0000                 0.0000                 0.0000
 Depolar     --     0.0000                 0.0000                 0.0000
 Atom AN      X      Y      Z        X      Y      Z        X      Y      Z
   1   8    -0.12   0.03   0.09     0.17   0.13  -0.04     0.01  -0.07  -0.02
   2   6    -0.01  -0.00   0.04     0.04   0.15  -0.04    -0.07  -0.03   0.00
   3   6     0.06   0.01   0.16     0.09  -0.02  -0.00    -0.01  -0.03   0.04
   4   6     0.06   0.02   0.03    -0.25  -0.02  -0.31     0.03  -0.03  -0.03
   5   7    -0.01   0.02  -0.14     0.05  -0.03   0.35     0.04  -0.02  -0.02
   6   6     0.07   0.01   0.03    -0.10  -0.05   0.10     0.08   0.03  -0.03
   7   7     0.00   0.03   0.03    -0.18  -0.03  -0.38     0.04   0.04  -0.04
   8   6    -0.04   0.05  -0.05     0.15  -0.14   0.26     0.04   0.04  -0.01
   9   6    -0.07  -0.02  -0.05     0.01   0.17  -0.13    -0.14  -0.05   0.02
  10   6    -0.07  -0.04  -0.09    -0.00  -0.13   0.07    -0.15   0.04   0.02
  11   6    -0.01   0.02  -0.09    -0.01  -0.01  -0.06    -0.11   0.06   0.04
  12   7    -0.02  -0.01   0.22    -0.01  -0.01   0.09    -0.05   0.02  -0.06
  13   6     0.01  -0.01  -0.03     0.00  -0.00  -0.02     0.03   0.03  -0.17
  14   6    -0.02  -0.00   0.23     0.01  -0.00   0.03     0.09   0.10   0.07
  15   6     0.01  -0.01  -0.22     0.01  -0.00  -0.05     0.03   0.17   0.01
  16   6    -0.01   0.01   0.04     0.01   0.01   0.02     0.03   0.17  -0.08
  17   6    -0.01   0.01   0.18     0.01   0.01   0.03    -0.05   0.13   0.08
  18   6     0.04  -0.01  -0.32     0.01   0.01  -0.09     0.03   0.02  -0.07
  19   6     0.04  -0.01  -0.30     0.02   0.01  -0.01    -0.01  -0.04   0.11
  20   6    -0.00  -0.01   0.19     0.01   0.00  -0.02    -0.03  -0.14  -0.08
  21   6     0.01  -0.01   0.03    -0.01   0.01   0.04     0.07  -0.18   0.05
  22   6     0.03  -0.02  -0.21    -0.01   0.00  -0.04     0.08  -0.17   0.04
  23   6    -0.00   0.01   0.23    -0.00   0.01  -0.00     0.12  -0.11  -0.06
  24   6     0.01  -0.00  -0.02     0.01   0.01   0.09    -0.03  -0.04   0.13
  25   6     0.05   0.06  -0.19    -0.04   0.09  -0.13    -0.17   0.06   0.06
  26   6     0.02  -0.17   0.03    -0.06  -0.12   0.14    -0.16   0.03  -0.01
  27   6    -0.01  -0.16   0.03    -0.02   0.08  -0.01    -0.13  -0.01   0.01
  28   7    -0.01  -0.04   0.03    -0.00   0.02   0.01    -0.06   0.00  -0.06
  29   6     0.03   0.01   0.07    -0.01   0.01   0.01    -0.02  -0.03   0.11
  30   6     0.00   0.01  -0.12     0.01   0.00  -0.01     0.13  -0.13  -0.05
  31   6    -0.05   0.01   0.04     0.01   0.00   0.01     0.06  -0.20   0.07
  32   6    -0.05   0.02   0.03     0.02  -0.01   0.00     0.05  -0.20   0.05
  33   6     0.02  -0.00  -0.10     0.01  -0.01  -0.01    -0.04  -0.17  -0.07
  34   6     0.01   0.04   0.09     0.00  -0.01   0.02    -0.01  -0.03   0.11
  35   6    -0.03   0.04   0.07     0.03  -0.01   0.01     0.02   0.03  -0.04
  36   6     0.01   0.01  -0.08     0.02   0.00   0.00    -0.06   0.16   0.06
  37   6     0.04   0.03   0.03    -0.01  -0.00  -0.00     0.07   0.19  -0.09
  38   6     0.04   0.02   0.05    -0.01  -0.01   0.00     0.06   0.21   0.02
  39   6     0.03   0.02  -0.09     0.00  -0.02  -0.00     0.12   0.12   0.06
  40   6    -0.04   0.01   0.03     0.03  -0.01  -0.00     0.03   0.03  -0.16
  41   1     0.01   0.01  -0.01    -0.14  -0.03  -0.18     0.01  -0.00  -0.02
  42   1     0.03  -0.01   0.02    -0.02  -0.01   0.05     0.02   0.01  -0.00
  43   1    -0.05   0.03  -0.08     0.09  -0.06   0.18     0.02   0.01  -0.02
  44   1    -0.02  -0.03  -0.01     0.01  -0.09   0.06    -0.06   0.03   0.00
  45   1    -0.01   0.00   0.17    -0.00   0.00   0.04     0.02   0.03   0.08
  46   1     0.01  -0.00  -0.11     0.00  -0.00  -0.02    -0.01   0.05   0.03
  47   1    -0.01   0.00   0.05     0.00   0.00   0.03     0.02   0.04  -0.03
  48   1    -0.01   0.01   0.15    -0.00   0.00   0.03    -0.02   0.05   0.09
  49   1    -0.01   0.00   0.16     0.01  -0.00  -0.02    -0.00  -0.04  -0.09
  50   1     0.00  -0.00   0.04    -0.00   0.00   0.02     0.04  -0.03   0.00
  51   1     0.01  -0.01  -0.11    -0.00   0.00  -0.03     0.01  -0.05  -0.01
  52   1    -0.01   0.01   0.16    -0.00   0.01  -0.02     0.04  -0.05  -0.08
  53   1     0.02   0.03  -0.06    -0.02   0.03  -0.06    -0.05   0.02   0.02
  54   1     0.01  -0.07   0.03    -0.04  -0.09   0.09    -0.04   0.02  -0.02
  55   1     0.00   0.01  -0.08     0.00  -0.00  -0.01     0.05  -0.05  -0.07
  56   1    -0.01   0.01   0.02     0.00   0.00   0.00    -0.00  -0.05   0.01
  57   1    -0.02   0.00   0.01     0.00  -0.00  -0.00     0.03  -0.04   0.00
  58   1     0.02  -0.02  -0.08     0.00  -0.00  -0.01    -0.00  -0.06  -0.08
  59   1     0.00  -0.01  -0.06     0.01   0.01   0.00    -0.02   0.06   0.07
  60   1     0.01   0.01   0.01    -0.01   0.00  -0.00     0.04   0.04  -0.03
  61   1     0.01   0.01   0.02    -0.01  -0.00   0.00    -0.01   0.06   0.03
  62   1     0.02   0.01  -0.06    -0.00  -0.02   0.00     0.03   0.05   0.07
                     34                     35                     36
                        a                      a                      a 
 Frequencies --   420.9109               425.0055               431.0290
 Red. masses --     9.9171                10.5887                10.2899
 Frc consts  --     0.0000                 0.0000                 0.0000
 IR Inten    --     3.3115                26.6005                 3.8447
 Raman Activ --     0.0000                 0.0000                 0.0000
 Depolar     --     0.0000                 0.0000                 0.0000
 Atom AN      X      Y      Z        X      Y      Z        X      Y      Z
   1   8     0.01   0.00  -0.01    -0.18  -0.06   0.01    -0.11  -0.02   0.02
   2   6     0.00  -0.00   0.00    -0.03  -0.11   0.11     0.02  -0.06   0.06
   3   6    -0.00  -0.00  -0.01    -0.08   0.06   0.02    -0.04   0.05  -0.02
   4   6     0.01  -0.00   0.03    -0.03   0.07  -0.26    -0.02   0.06  -0.11
   5   7    -0.02   0.00  -0.02     0.21  -0.01   0.14     0.10   0.01   0.06
   6   6    -0.01   0.00  -0.00     0.13   0.03  -0.05     0.03   0.00  -0.02
   7   7     0.02  -0.01   0.03    -0.08   0.07  -0.21    -0.05   0.02  -0.07
   8   6    -0.01   0.00  -0.03     0.09   0.10   0.20     0.02   0.04   0.10
   9   6     0.01   0.00   0.01    -0.05  -0.23   0.21     0.07  -0.11   0.12
  10   6     0.01   0.02  -0.00    -0.04   0.14  -0.15     0.08   0.08  -0.08
  11   6    -0.02   0.00  -0.00    -0.02  -0.03   0.02     0.05  -0.04   0.01
  12   7    -0.02   0.00  -0.01    -0.02  -0.00   0.00     0.02  -0.01  -0.01
  13   6    -0.02   0.05  -0.27    -0.02   0.01   0.15    -0.03   0.03  -0.11
  14   6     0.03   0.13   0.14     0.04   0.04  -0.03    -0.02   0.06   0.06
  15   6     0.04   0.15  -0.01     0.02   0.07  -0.01     0.01   0.04   0.00
  16   6     0.03   0.10  -0.11     0.01   0.06   0.05     0.00   0.00  -0.05
  17   6    -0.09   0.07   0.15    -0.03   0.04  -0.06    -0.05  -0.01   0.07
  18   6    -0.04   0.02  -0.17    -0.02   0.01   0.08    -0.05   0.00  -0.07
  19   6    -0.06  -0.02   0.15     0.01  -0.02  -0.12    -0.05  -0.00   0.05
  20   6    -0.06  -0.07  -0.14    -0.03  -0.05   0.09    -0.04   0.00  -0.06
  21   6     0.02  -0.10   0.11     0.03  -0.07  -0.05    -0.01  -0.00   0.04
  22   6     0.05  -0.15   0.01     0.03  -0.07  -0.01     0.01  -0.04  -0.00
  23   6     0.06  -0.13  -0.11     0.04  -0.03   0.09    -0.00  -0.06  -0.05
  24   6    -0.06  -0.06   0.26     0.01  -0.02  -0.16    -0.03  -0.03   0.09
  25   6     0.01  -0.01   0.00    -0.01  -0.09   0.06     0.12  -0.10   0.03
  26   6     0.01  -0.00  -0.00     0.00   0.14  -0.15     0.13   0.09  -0.11
  27   6     0.03   0.00   0.00    -0.03  -0.18   0.14     0.09  -0.08   0.06
  28   7     0.03  -0.00  -0.01    -0.00  -0.05  -0.04     0.06  -0.02   0.03
  29   6     0.07   0.03  -0.23     0.07  -0.02  -0.17    -0.02   0.06   0.30
  30   6    -0.06   0.13   0.09     0.01   0.02   0.06    -0.09   0.08  -0.17
  31   6    -0.04   0.15  -0.02    -0.02  -0.01   0.02    -0.07   0.16  -0.05
  32   6    -0.01   0.10  -0.11    -0.01  -0.02  -0.08    -0.08   0.18   0.11
  33   6     0.05   0.08   0.13    -0.01  -0.01   0.09     0.08   0.11  -0.17
  34   6     0.06   0.01  -0.13     0.04   0.01  -0.07    -0.01   0.05   0.16
  35   6     0.01  -0.01   0.14    -0.05   0.04   0.11     0.02  -0.03  -0.17
  36   6     0.08  -0.09  -0.11    -0.01   0.01  -0.07     0.03  -0.09   0.17
  37   6    -0.05  -0.10   0.10     0.03   0.03   0.03    -0.02  -0.16  -0.11
  38   6    -0.05  -0.15   0.01     0.03   0.03   0.03    -0.06  -0.16   0.02
  39   6    -0.04  -0.12  -0.11     0.03   0.02  -0.06    -0.12  -0.07   0.13
  40   6    -0.01  -0.03   0.24    -0.06   0.02   0.13     0.04  -0.06  -0.27
  41   1     0.01  -0.00   0.02    -0.01   0.04  -0.13    -0.00   0.03  -0.05
  42   1    -0.00   0.00  -0.00     0.05  -0.01  -0.00     0.01  -0.01  -0.00
  43   1    -0.01   0.00  -0.01     0.07   0.01   0.13     0.02   0.01   0.07
  44   1     0.01   0.00  -0.00    -0.01   0.12  -0.11     0.03   0.06  -0.06
  45   1     0.00   0.06   0.15     0.02   0.02  -0.07    -0.01   0.03   0.06
  46   1     0.00   0.04   0.04     0.00   0.02  -0.03     0.01   0.02   0.02
  47   1     0.03   0.01  -0.02     0.01   0.01   0.01     0.01  -0.01  -0.02
  48   1    -0.03   0.02   0.16    -0.00   0.01  -0.07    -0.02  -0.01   0.07
  49   1    -0.01  -0.02  -0.15    -0.01  -0.01   0.10    -0.01   0.00  -0.06
  50   1     0.02  -0.01   0.03     0.01  -0.01  -0.01     0.00   0.01   0.01
  51   1     0.02  -0.04  -0.04     0.00  -0.02   0.02     0.01  -0.01  -0.02
  52   1     0.03  -0.06  -0.13     0.01  -0.01   0.09     0.00  -0.03  -0.05
  53   1     0.01   0.00   0.00     0.00  -0.03   0.02     0.04  -0.03   0.01
  54   1     0.00   0.00  -0.00     0.01   0.12  -0.11     0.04   0.06  -0.06
  55   1    -0.03   0.06   0.11    -0.01   0.03   0.08    -0.01   0.02  -0.15
  56   1    -0.01   0.05   0.03    -0.02   0.00   0.04     0.00   0.04  -0.06
  57   1    -0.02   0.01  -0.03    -0.00  -0.01  -0.02    -0.04   0.04   0.04
  58   1     0.00   0.03   0.13    -0.01  -0.01   0.09     0.04   0.01  -0.17
  59   1     0.04  -0.03  -0.13     0.00  -0.01  -0.08    -0.01  -0.02   0.17
  60   1    -0.03  -0.01   0.02     0.01   0.00  -0.01    -0.02  -0.03  -0.04
  61   1    -0.00  -0.05  -0.03     0.01   0.00  -0.01    -0.01  -0.04   0.05
  62   1    -0.00  -0.06  -0.12     0.02   0.01  -0.08    -0.05  -0.01   0.13
                     37                     38                     39
                        a                      a                      a 
 Frequencies --   435.3236               449.1502               451.9974
 Red. masses --    10.6649                11.1559                11.1455
 Frc consts  --     0.0000                 0.0000                 0.0000
 IR Inten    --     5.8464                11.3573                29.2658
 Raman Activ --     0.0000                 0.0000                 0.0000
 Depolar     --     0.0000                 0.0000                 0.0000
 Atom AN      X      Y      Z        X      Y      Z        X      Y      Z
   1   8    -0.10  -0.01   0.02    -0.12  -0.08   0.10    -0.03   0.11   0.04
   2   6     0.02  -0.05   0.04    -0.12  -0.03  -0.08     0.11   0.04   0.01
   3   6    -0.02   0.03   0.01     0.09   0.01   0.31     0.04   0.03  -0.05
   4   6    -0.00   0.05  -0.07     0.04   0.02  -0.10    -0.04   0.05   0.02
   5   7     0.06   0.01   0.03     0.06   0.02  -0.10    -0.03   0.04   0.03
   6   6     0.03   0.00  -0.01     0.12   0.01   0.06    -0.09  -0.03   0.03
   7   7    -0.03   0.01  -0.04    -0.09   0.08  -0.13    -0.04  -0.05   0.02
   8   6     0.00   0.04   0.06     0.00   0.08   0.09    -0.03  -0.05   0.01
   9   6     0.02  -0.08   0.06    -0.14   0.03  -0.24     0.18   0.03  -0.01
  10   6     0.04   0.06  -0.11    -0.17  -0.08   0.13     0.19  -0.04   0.02
  11   6     0.06  -0.03   0.01    -0.04   0.05   0.13     0.14  -0.02  -0.02
  12   7     0.06  -0.00   0.00     0.00   0.05  -0.13     0.05   0.00  -0.01
  13   6     0.07  -0.08  -0.23     0.04   0.00  -0.09    -0.09   0.10   0.00
  14   6    -0.12  -0.17   0.12     0.00  -0.02  -0.06    -0.01   0.18  -0.02
  15   6    -0.08  -0.25   0.01    -0.03  -0.01   0.09     0.03   0.15  -0.00
  16   6    -0.04  -0.19  -0.11    -0.01  -0.02  -0.08     0.00   0.03   0.01
  17   6     0.11  -0.12   0.15     0.02  -0.01   0.02    -0.13  -0.02  -0.02
  18   6     0.07  -0.03  -0.14     0.03  -0.02   0.09    -0.14   0.01  -0.00
  19   6     0.05   0.05   0.14    -0.01  -0.02   0.08    -0.13  -0.02  -0.02
  20   6     0.12   0.13  -0.12    -0.00  -0.02   0.02    -0.13  -0.00   0.00
  21   6    -0.08   0.19   0.09     0.03  -0.03  -0.08     0.01  -0.03  -0.02
  22   6    -0.10   0.24  -0.03     0.01   0.01   0.09     0.04  -0.15   0.02
  23   6    -0.12   0.16  -0.13     0.02   0.01  -0.04     0.01  -0.17   0.01
  24   6     0.04   0.08   0.23    -0.01   0.02  -0.11    -0.07  -0.11  -0.03
  25   6     0.07  -0.08   0.05     0.10   0.01   0.08     0.29  -0.05  -0.05
  26   6     0.07   0.06  -0.05     0.12  -0.13  -0.13     0.28  -0.05   0.02
  27   6     0.01  -0.08   0.04     0.03  -0.05  -0.27     0.18  -0.04  -0.02
  28   7    -0.01  -0.02   0.01    -0.04  -0.04   0.22     0.05  -0.03   0.06
  29   6    -0.02  -0.06  -0.05     0.02   0.02   0.17    -0.09  -0.12   0.02
  30   6     0.03  -0.11   0.05    -0.02   0.04   0.06    -0.02  -0.20   0.05
  31   6     0.03  -0.14   0.01    -0.01   0.01  -0.15     0.03  -0.18  -0.01
  32   6     0.01  -0.08  -0.01    -0.05   0.04   0.13    -0.01  -0.02   0.02
  33   6    -0.08  -0.04   0.03     0.03   0.01  -0.05    -0.14   0.02  -0.02
  34   6    -0.04  -0.01  -0.05     0.06   0.02  -0.13    -0.14  -0.01  -0.07
  35   6    -0.08   0.03   0.01     0.02   0.02  -0.10    -0.17   0.03  -0.06
  36   6    -0.08   0.05  -0.04     0.02   0.01  -0.05    -0.15   0.00  -0.05
  37   6     0.04   0.09   0.02     0.01   0.03   0.15     0.01   0.06   0.05
  38   6     0.06   0.14  -0.02     0.04  -0.03  -0.13     0.07   0.18  -0.06
  39   6     0.05   0.13  -0.01     0.01  -0.02   0.06     0.01   0.21  -0.01
  40   6    -0.08   0.06   0.04    -0.05  -0.00   0.20    -0.12   0.12   0.04
  41   1     0.00   0.02  -0.03    -0.01   0.02  -0.11    -0.02   0.00   0.02
  42   1     0.01  -0.01   0.00     0.05  -0.01   0.04    -0.02  -0.01   0.01
  43   1     0.01   0.01   0.04    -0.03   0.03  -0.04    -0.02  -0.01   0.03
  44   1     0.01   0.05  -0.05    -0.09  -0.04   0.08     0.07  -0.03   0.01
  45   1    -0.04  -0.06   0.12    -0.00  -0.02  -0.02     0.00   0.07  -0.01
  46   1    -0.01  -0.07   0.04    -0.01  -0.00   0.06     0.03   0.05  -0.00
  47   1    -0.04  -0.03  -0.04    -0.00  -0.00  -0.05     0.03  -0.02   0.01
  48   1     0.02  -0.03   0.14     0.01   0.01   0.01    -0.04  -0.02  -0.01
  49   1     0.04   0.03  -0.13    -0.00   0.00   0.01    -0.04   0.02   0.01
  50   1    -0.05   0.02   0.03     0.01  -0.01  -0.05     0.03   0.02  -0.01
  51   1    -0.01   0.06  -0.05    -0.01   0.01   0.06     0.03  -0.05   0.01
  52   1    -0.03   0.06  -0.12     0.01  -0.01  -0.01     0.01  -0.07   0.01
  53   1     0.01  -0.02   0.01     0.07   0.02   0.05     0.10  -0.00  -0.01
  54   1     0.03   0.05  -0.04     0.08  -0.08  -0.03     0.09  -0.03   0.01
  55   1     0.01  -0.03   0.04    -0.01   0.03   0.01    -0.00  -0.08   0.02
  56   1     0.01  -0.04   0.01     0.01  -0.00  -0.10     0.03  -0.06  -0.01
  57   1     0.02  -0.01  -0.00    -0.03   0.01   0.08     0.03   0.03   0.02
  58   1    -0.03  -0.01   0.03     0.01  -0.01  -0.02    -0.05   0.02  -0.00
  59   1    -0.02  -0.00  -0.03     0.01  -0.01  -0.04    -0.05  -0.03  -0.02
  60   1     0.03   0.01   0.01    -0.01   0.02   0.08     0.03  -0.02   0.04
  61   1     0.02   0.04  -0.02     0.02  -0.02  -0.10     0.04   0.05  -0.03
  62   1     0.02   0.06  -0.02     0.01   0.00   0.01     0.01   0.09  -0.01
                     40                     41                     42
                        a                      a                      a 
 Frequencies --   487.9767               513.8060               514.7616
 Red. masses --    11.2815                10.9185                11.0200
 Frc consts  --     0.0000                 0.0000                 0.0000
 IR Inten    --    28.1419                 0.2469                 1.2093
 Raman Activ --     0.0000                 0.0000                 0.0000
 Depolar     --     0.0000                 0.0000                 0.0000
 Atom AN      X      Y      Z        X      Y      Z        X      Y      Z
   1   8    -0.14  -0.23  -0.11    -0.00   0.02   0.01     0.01   0.03   0.02
   2   6    -0.01  -0.28   0.15     0.01   0.01  -0.01     0.00   0.04  -0.01
   3   6    -0.14   0.05   0.01     0.01   0.00  -0.01     0.02  -0.00  -0.00
   4   6     0.04   0.06  -0.08    -0.00   0.00   0.00    -0.01  -0.00   0.01
   5   7     0.13  -0.02  -0.01    -0.01   0.01   0.00    -0.01   0.00  -0.00
   6   6     0.12   0.03  -0.07    -0.01  -0.00   0.01    -0.01  -0.00   0.01
   7   7    -0.05   0.07   0.02     0.00  -0.01  -0.00     0.01  -0.01  -0.01
   8   6    -0.05   0.15   0.07     0.00  -0.01  -0.00     0.01  -0.02  -0.01
   9   6     0.10  -0.05   0.07     0.01   0.00  -0.01    -0.02  -0.01   0.01
  10   6     0.10  -0.03   0.04     0.01  -0.01   0.02    -0.02  -0.01  -0.01
  11   6     0.05   0.21  -0.25    -0.00   0.01  -0.01    -0.01  -0.03   0.02
  12   7     0.01   0.06   0.01     0.00  -0.10   0.00    -0.00  -0.08   0.02
  13   6     0.06   0.01   0.12     0.18  -0.16   0.01     0.11  -0.11  -0.02
  14   6     0.01  -0.02   0.04     0.19  -0.20   0.02     0.13  -0.14   0.00
  15   6    -0.02   0.00  -0.10     0.02  -0.04   0.01     0.02  -0.03   0.03
  16   6    -0.04   0.00   0.10     0.08   0.22  -0.01     0.07   0.16  -0.03
  17   6     0.03   0.01  -0.06     0.14   0.22   0.02     0.09   0.16   0.03
  18   6     0.05  -0.02  -0.04     0.18   0.05   0.01     0.12   0.04   0.01
  19   6    -0.07  -0.03  -0.04    -0.19   0.03  -0.02    -0.12   0.03  -0.01
  20   6    -0.04   0.02  -0.06    -0.16   0.20  -0.00    -0.11   0.14   0.01
  21   6     0.01   0.02   0.09    -0.10   0.21  -0.03    -0.07   0.15  -0.04
  22   6     0.03  -0.01  -0.08    -0.02  -0.04   0.01    -0.02  -0.03   0.02
  23   6    -0.03  -0.05   0.03    -0.17  -0.22  -0.00    -0.11  -0.15  -0.01
  24   6    -0.09  -0.02   0.12    -0.16  -0.17  -0.02    -0.10  -0.12  -0.04
  25   6    -0.03  -0.03   0.02    -0.01  -0.02   0.02     0.01  -0.01  -0.00
  26   6    -0.04  -0.06   0.12    -0.01   0.00  -0.03     0.01   0.01  -0.02
  27   6     0.05   0.35  -0.23     0.00  -0.01  -0.00    -0.01  -0.06   0.04
  28   7     0.01   0.15  -0.00     0.01   0.07  -0.02    -0.01  -0.14   0.03
  29   6    -0.16   0.01   0.02     0.11   0.12   0.03    -0.13  -0.17  -0.05
  30   6    -0.01  -0.06   0.02     0.12   0.15   0.01    -0.18  -0.20  -0.02
  31   6     0.08  -0.01  -0.02     0.02   0.03  -0.02    -0.04  -0.04   0.03
  32   6     0.07  -0.02   0.05     0.06  -0.15   0.05    -0.10   0.22  -0.08
  33   6    -0.07   0.00  -0.03     0.10  -0.15   0.01    -0.13   0.22  -0.01
  34   6    -0.12  -0.07  -0.03     0.13  -0.03   0.02    -0.16   0.06  -0.03
[...]
  18   6    -0.00  -0.00   0.00    -0.00  -0.00   0.00    -0.00   0.00  -0.00
  19   6    -0.00  -0.00  -0.00     0.00  -0.00   0.00     0.00  -0.00   0.00
  20   6    -0.03  -0.01  -0.00    -0.05  -0.02  -0.00    -0.01  -0.00  -0.00
  21   6     0.01  -0.01   0.00    -0.03   0.03  -0.00    -0.00   0.00  -0.00
  22   6    -0.01  -0.03   0.00     0.00   0.00   0.00    -0.00  -0.00   0.00
  23   6     0.01   0.00   0.00    -0.05  -0.02  -0.00    -0.00  -0.00  -0.00
  24   6     0.00   0.00   0.00    -0.00   0.00  -0.00    -0.00   0.00  -0.00
  25   6    -0.03   0.03   0.03    -0.01   0.00   0.00    -0.00   0.00   0.00
  26   6    -0.10  -0.13  -0.17     0.01   0.01   0.01    -0.01  -0.02  -0.02
  27   6    -0.01  -0.00  -0.00     0.00  -0.00  -0.00    -0.00  -0.00  -0.00
  28   7    -0.00  -0.00   0.00     0.00   0.00   0.00     0.00  -0.00   0.00
  29   6     0.00  -0.00  -0.00    -0.00  -0.00   0.00    -0.00   0.00  -0.00
  30   6     0.01   0.00   0.00     0.01   0.00   0.00    -0.04  -0.01  -0.00
  31   6    -0.00  -0.02   0.00     0.00   0.01  -0.00     0.00   0.01  -0.00
  32   6     0.01  -0.01   0.00     0.00  -0.00   0.00    -0.03   0.03  -0.01
  33   6    -0.01  -0.00  -0.00     0.01   0.00   0.00    -0.05  -0.01  -0.01
  34   6    -0.00  -0.00  -0.00     0.00   0.00  -0.00     0.00  -0.00   0.00
  35   6    -0.00   0.00  -0.00     0.00  -0.00   0.00    -0.00  -0.01   0.00
  36   6    -0.05   0.02  -0.01     0.01  -0.00   0.00     0.16  -0.05   0.03
  37   6     0.03   0.03   0.00    -0.00   0.00  -0.00     0.03   0.04   0.00
  38   6    -0.01   0.06  -0.01     0.00  -0.01   0.00     0.02  -0.11   0.01
  39   6     0.04  -0.01   0.01     0.01  -0.00   0.00     0.15  -0.05   0.03
  40   6     0.00   0.00   0.00     0.00   0.00   0.00     0.00   0.01  -0.00
  41   1     0.00  -0.00  -0.00    -0.00   0.00   0.00    -0.00   0.00  -0.00
  42   1    -0.00  -0.00   0.00    -0.01  -0.00   0.00     0.01   0.00  -0.00
  43   1    -0.00  -0.00  -0.00    -0.00  -0.00  -0.00     0.00   0.00   0.00
  44   1    -0.02  -0.03  -0.03    -0.22  -0.32  -0.38     0.02   0.03   0.04
  45   1    -0.02   0.00  -0.00    -0.45   0.12  -0.05     0.00  -0.00   0.00
  46   1     0.00  -0.01   0.00    -0.04   0.13  -0.01     0.00  -0.01   0.00
  47   1    -0.01  -0.01  -0.00    -0.14  -0.16  -0.01     0.00   0.00   0.00
  48   1    -0.00   0.00  -0.00    -0.48   0.11  -0.04     0.02  -0.00   0.00
  49   1     0.10   0.03   0.01     0.18   0.06   0.01     0.03   0.01   0.00
  50   1    -0.03   0.03  -0.00     0.11  -0.10   0.01     0.01  -0.01   0.00
  51   1     0.02   0.12  -0.00    -0.00  -0.00   0.00     0.00   0.01  -0.00
  52   1    -0.03  -0.01  -0.00     0.18   0.06   0.01     0.02   0.01   0.00
  53   1     0.13  -0.12  -0.13     0.01  -0.01  -0.01     0.02  -0.02  -0.02
  54   1     0.35   0.48   0.60    -0.02  -0.02  -0.03     0.04   0.06   0.08
  55   1    -0.04  -0.01  -0.00    -0.02  -0.01  -0.00     0.15   0.04   0.01
  56   1     0.02   0.07  -0.01    -0.01  -0.02   0.00    -0.01  -0.03   0.00
  57   1    -0.05   0.05  -0.01    -0.00   0.00  -0.00     0.11  -0.11   0.03
  58   1     0.04   0.01   0.01    -0.03  -0.01  -0.00     0.15   0.04   0.02
  59   1     0.19  -0.05   0.03    -0.03   0.01  -0.00    -0.56   0.16  -0.09
  60   1    -0.11  -0.11  -0.01     0.00   0.00   0.00    -0.12  -0.11  -0.01
  61   1     0.04  -0.20   0.03    -0.01   0.03  -0.00    -0.08   0.36  -0.05
  62   1    -0.14   0.04  -0.03    -0.02   0.01  -0.00    -0.53   0.16  -0.11
                    172                    173                    174
                        a                      a                      a 
 Frequencies --  3096.8542              3097.6946              3098.2560
 Red. masses --     1.8455                 1.8550                 1.8649
 Frc consts  --     0.0000                 0.0000                 0.0000
 IR Inten    --    15.7900               167.9068               158.6969
 Raman Activ --     0.0000                 0.0000                 0.0000
 Depolar     --     0.0000                 0.0000                 0.0000
 Atom AN      X      Y      Z        X      Y      Z        X      Y      Z
   1   8     0.00   0.00   0.00    -0.00  -0.00  -0.00     0.00  -0.00   0.00
   2   6    -0.00  -0.00  -0.00     0.00   0.00   0.00    -0.00   0.00   0.00
   3   6    -0.00  -0.00   0.00     0.00   0.00  -0.00     0.00   0.00  -0.00
   4   6    -0.00   0.00   0.00    -0.00  -0.00  -0.00     0.00   0.00   0.00
   5   7    -0.00  -0.00   0.00     0.00  -0.00  -0.00    -0.00  -0.00   0.00
   6   6    -0.00  -0.00   0.00     0.00   0.00  -0.00    -0.00  -0.00   0.00
   7   7    -0.00  -0.00   0.00     0.00   0.00  -0.00    -0.00   0.00   0.00
   8   6     0.00  -0.00  -0.00    -0.00   0.00   0.00     0.00   0.00   0.00
   9   6     0.00  -0.00  -0.00    -0.00   0.00   0.00     0.00  -0.00  -0.00
  10   6    -0.08  -0.11  -0.14     0.04   0.06   0.07    -0.01  -0.02  -0.02
  11   6    -0.01  -0.00  -0.00     0.00   0.00   0.00    -0.00  -0.00  -0.00
  12   7    -0.00  -0.00   0.00    -0.00   0.00  -0.00     0.00  -0.00   0.00
  13   6     0.00   0.00  -0.00    -0.00  -0.00   0.00     0.00   0.00  -0.00
  14   6     0.04  -0.01   0.00    -0.10   0.03  -0.01     0.00  -0.00   0.00
  15   6    -0.01   0.02  -0.00    -0.00   0.02  -0.00    -0.00   0.00  -0.00
  16   6     0.04   0.04   0.00    -0.03  -0.04  -0.00     0.00   0.01   0.00
  17   6     0.06  -0.01   0.00    -0.11   0.03  -0.01     0.01  -0.00   0.00
  18   6    -0.00  -0.00  -0.00    -0.00   0.00  -0.00    -0.00  -0.00   0.00
  19   6     0.00  -0.00   0.00     0.00  -0.00   0.00    -0.00   0.00  -0.00
  20   6    -0.11  -0.04  -0.01    -0.13  -0.04  -0.01     0.00   0.00   0.00
  21   6    -0.05   0.04  -0.00    -0.04   0.04  -0.00     0.00  -0.00   0.00
  22   6    -0.00  -0.02   0.00    -0.00  -0.04   0.00     0.00   0.00  -0.00
  23   6    -0.10  -0.04  -0.00    -0.12  -0.04  -0.00     0.00   0.00   0.00
  24   6    -0.00   0.00  -0.00    -0.00   0.00  -0.00     0.00  -0.00   0.00
  25   6     0.00  -0.00  -0.00    -0.01   0.00   0.00     0.00   0.00   0.00
  26   6     0.00   0.00   0.00     0.01   0.01   0.01    -0.00  -0.01  -0.01
  27   6     0.00   0.00   0.00     0.00  -0.00  -0.00    -0.00   0.00   0.00
  28   7    -0.00  -0.00  -0.00     0.00   0.00   0.00     0.00  -0.00   0.00
  29   6    -0.00   0.00  -0.00     0.00  -0.00   0.00     0.00  -0.00   0.00
  30   6    -0.01  -0.00  -0.00     0.01   0.00   0.00     0.14   0.04   0.01
  31   6    -0.00  -0.01   0.00     0.00   0.00  -0.00    -0.00   0.00  -0.00
  32   6    -0.00   0.00  -0.00     0.01  -0.01   0.00     0.08  -0.08   0.02
  33   6    -0.01  -0.00  -0.00     0.02   0.00   0.00     0.18   0.05   0.02
  34   6    -0.00  -0.00   0.00    -0.00   0.00  -0.00    -0.00   0.01  -0.00
  35   6    -0.00   0.00  -0.00     0.00   0.00   0.00     0.00  -0.00   0.00
  36   6    -0.01   0.00  -0.00    -0.00   0.00  -0.00     0.04  -0.01   0.01
  37   6    -0.00  -0.00  -0.00    -0.00  -0.00  -0.00    -0.01  -0.01  -0.00
  38   6    -0.00   0.01  -0.00     0.00  -0.01   0.00     0.01  -0.05   0.01
  39   6    -0.01   0.00  -0.00     0.00  -0.00   0.00     0.05  -0.01   0.01
  40   6    -0.00  -0.00  -0.00     0.00   0.00   0.00     0.00   0.00  -0.00
  41   1     0.00  -0.00  -0.00    -0.00   0.00   0.00     0.00  -0.00  -0.00
  42   1     0.01   0.00  -0.00    -0.01  -0.00   0.00     0.01   0.00  -0.00
  43   1     0.00   0.00   0.00    -0.00  -0.00  -0.00    -0.00  -0.00  -0.00
  44   1     0.27   0.40   0.48    -0.14  -0.20  -0.24     0.05   0.07   0.08
  45   1    -0.13   0.03  -0.01     0.34  -0.09   0.04    -0.01   0.00  -0.00
  46   1     0.02  -0.07   0.00     0.02  -0.07   0.00     0.00  -0.01   0.00
  47   1    -0.12  -0.14  -0.01     0.11   0.11   0.01    -0.02  -0.02  -0.00
  48   1    -0.21   0.05  -0.02     0.38  -0.09   0.03    -0.03   0.01  -0.00
  49   1     0.37   0.12   0.03     0.45   0.15   0.04    -0.02  -0.01  -0.00
  50   1     0.16  -0.14   0.02     0.15  -0.13   0.02    -0.01   0.00  -0.00
  51   1     0.01   0.06  -0.00     0.02   0.12  -0.00    -0.00  -0.00   0.00
  52   1     0.35   0.12   0.01     0.43   0.15   0.01    -0.01  -0.00  -0.00
  53   1    -0.01   0.01   0.01     0.02  -0.02  -0.02     0.00  -0.00  -0.00
  54   1    -0.01  -0.01  -0.01    -0.02  -0.03  -0.04     0.01   0.02   0.02
  55   1     0.04   0.01   0.00    -0.05  -0.02  -0.00    -0.48  -0.14  -0.05
  56   1     0.01   0.02  -0.00    -0.00  -0.01   0.00     0.00   0.00   0.00
  57   1     0.01  -0.01   0.00    -0.02   0.02  -0.00    -0.26   0.26  -0.06
  58   1     0.05   0.01   0.01    -0.05  -0.01  -0.01    -0.63  -0.18  -0.08
  59   1     0.04  -0.01   0.01     0.00  -0.00   0.00    -0.13   0.04  -0.02
  60   1     0.00   0.00   0.00     0.01   0.01   0.00     0.03   0.03   0.00
  61   1     0.01  -0.04   0.01    -0.00   0.02  -0.00    -0.03   0.16  -0.02
  62   1     0.04  -0.01   0.01    -0.01   0.00  -0.00    -0.17   0.05  -0.03
                    175                    176                    177
                        a                      a                      a 
 Frequencies --  3101.0139              3101.8658              3101.9910
 Red. masses --     1.9054                 1.7936                 1.9082
 Frc consts  --     0.0000                 0.0000                 0.0000
 IR Inten    --   153.5764                25.9248                80.8274
 Raman Activ --     0.0000                 0.0000                 0.0000
 Depolar     --     0.0000                 0.0000                 0.0000
 Atom AN      X      Y      Z        X      Y      Z        X      Y      Z
   1   8    -0.00   0.00  -0.00     0.00   0.00   0.00     0.00   0.00   0.00
   2   6    -0.00  -0.00   0.00     0.00  -0.00  -0.00    -0.00  -0.00  -0.00
   3   6     0.00   0.00  -0.00    -0.00  -0.00   0.00     0.00   0.00  -0.00
   4   6    -0.00  -0.00   0.00     0.01   0.00  -0.00     0.00  -0.00  -0.00
   5   7     0.00   0.00  -0.00    -0.01  -0.01   0.00    -0.00  -0.00   0.00
   6   6     0.01   0.00  -0.01    -0.22  -0.08   0.09    -0.02  -0.01   0.01
   7   7     0.00   0.00  -0.00    -0.01  -0.00   0.00    -0.00  -0.00   0.00
   8   6    -0.00   0.00   0.00     0.01   0.00  -0.00     0.00   0.00  -0.00
   9   6    -0.00   0.00   0.00    -0.00   0.00   0.00    -0.00   0.00   0.00
  10   6     0.01   0.02   0.02     0.00   0.00   0.00     0.00   0.00   0.01
  11   6     0.00   0.00   0.00     0.00   0.00   0.00     0.00  -0.00   0.00
  12   7    -0.00   0.00   0.00    -0.00  -0.00   0.00    -0.00   0.00  -0.00
  13   6    -0.00  -0.00  -0.00     0.00   0.00   0.00    -0.00  -0.00  -0.00
  14   6    -0.15   0.04  -0.02     0.01  -0.00   0.00    -0.04   0.01  -0.00
  15   6    -0.04   0.13  -0.01     0.00  -0.01   0.00    -0.01   0.03  -0.00
  16   6     0.08   0.08   0.01    -0.00  -0.01  -0.00     0.02   0.02   0.00
  17   6     0.10  -0.02   0.01    -0.01   0.00  -0.00     0.04  -0.01   0.00
  18   6     0.00  -0.00   0.00    -0.00   0.00  -0.00     0.00  -0.00   0.00
  19   6    -0.00  -0.00  -0.00    -0.00  -0.00   0.00     0.00   0.00   0.00
  20   6    -0.03  -0.01  -0.00    -0.03  -0.01  -0.00     0.08   0.03   0.01
  21   6    -0.04   0.03  -0.00    -0.02   0.02  -0.00     0.06  -0.06   0.01
  22   6     0.01   0.07  -0.00     0.01   0.03  -0.00    -0.02  -0.09   0.00
  23   6     0.07   0.02   0.00     0.03   0.01   0.00    -0.10  -0.03  -0.00
  24   6     0.00  -0.00   0.00     0.00  -0.00   0.00    -0.00   0.00  -0.00
  25   6     0.00  -0.00  -0.00    -0.00   0.00   0.00    -0.00   0.00   0.00
  26   6    -0.00  -0.00  -0.00     0.00   0.00   0.00     0.00   0.01   0.01
  27   6    -0.00  -0.00  -0.00    -0.00  -0.00  -0.00     0.00   0.00  -0.00
  28   7     0.00   0.00   0.00     0.00   0.00   0.00     0.00  -0.00   0.00
  29   6    -0.00   0.00  -0.00    -0.00   0.00  -0.00     0.00  -0.00   0.00
  30   6    -0.01  -0.00  -0.00    -0.01  -0.00  -0.00     0.03   0.01   0.00
  31   6    -0.00  -0.01   0.00    -0.00  -0.01   0.00     0.00   0.02  -0.00
  32   6     0.00  -0.00   0.00     0.00  -0.00   0.00    -0.00   0.00  -0.00
  33   6     0.00   0.00   0.00     0.01   0.00   0.00     0.01   0.00   0.00
  34   6     0.00   0.00  -0.00    -0.00   0.00  -0.00    -0.00   0.00  -0.00
  35   6    -0.00  -0.00   0.00    -0.00  -0.00   0.00     0.00  -0.00   0.00
  36   6     0.01  -0.00   0.00     0.02  -0.00   0.00     0.11  -0.03   0.02
  37   6     0.01   0.01   0.00     0.01   0.01   0.00     0.08   0.08   0.00
  38   6    -0.00   0.01  -0.00    -0.00   0.02  -0.00    -0.02   0.10  -0.01
  39   6    -0.00   0.00  -0.00    -0.01   0.00  -0.00    -0.07   0.02  -0.01
  40   6    -0.00  -0.00  -0.00    -0.00  -0.00  -0.00    -0.00  -0.00  -0.00
  41   1    -0.00   0.00   0.00    -0.00   0.00   0.00    -0.00   0.00   0.00
  42   1    -0.05  -0.02   0.02     0.81   0.30  -0.34     0.06   0.02  -0.03
  43   1    -0.00  -0.00  -0.00    -0.00  -0.00   0.00    -0.00  -0.00   0.00
  44   1    -0.04  -0.07  -0.08    -0.01  -0.01  -0.01    -0.01  -0.02  -0.02
  45   1     0.51  -0.13   0.06    -0.02   0.01  -0.00     0.12  -0.03   0.01
  46   1     0.12  -0.43   0.02    -0.01   0.02  -0.00     0.03  -0.10   0.01
  47   1    -0.26  -0.28  -0.02     0.02   0.02   0.00    -0.07  -0.08  -0.00
  48   1    -0.34   0.08  -0.03     0.03  -0.01   0.00    -0.13   0.03  -0.01
  49   1     0.09   0.03   0.01     0.09   0.03   0.01    -0.26  -0.09  -0.02
  50   1     0.12  -0.11   0.01     0.07  -0.07   0.01    -0.21   0.18  -0.02
  51   1    -0.04  -0.22   0.01    -0.02  -0.11   0.00     0.06   0.31  -0.01
  52   1    -0.23  -0.08  -0.01    -0.12  -0.04  -0.00     0.33   0.12   0.01
  53   1    -0.00   0.00   0.00     0.00  -0.00  -0.00     0.01  -0.01  -0.01
  54   1     0.00   0.00   0.01    -0.00  -0.00  -0.00    -0.02  -0.02  -0.03
  55   1     0.03   0.01   0.00     0.02   0.01   0.00    -0.09  -0.03  -0.01
  56   1     0.00   0.02  -0.00     0.00   0.02  -0.00    -0.02  -0.06   0.00
  57   1    -0.01   0.01  -0.00    -0.01   0.01  -0.00     0.02  -0.02   0.00
  58   1    -0.02  -0.00  -0.00    -0.02  -0.01  -0.00    -0.03  -0.01  -0.00
  59   1    -0.03   0.01  -0.01    -0.05   0.02  -0.01    -0.36   0.10  -0.06
  60   1    -0.02  -0.02  -0.00    -0.05  -0.05  -0.00    -0.28  -0.27  -0.01
  61   1     0.00  -0.02   0.00     0.01  -0.06   0.01     0.07  -0.34   0.05
  62   1     0.01  -0.00   0.00     0.04  -0.01   0.01     0.22  -0.07   0.04
                    178                    179                    180
                        a                      a                      a 
 Frequencies --  3102.3132              3103.7122              3112.4111
 Red. masses --     1.9017                 1.9018                 1.8564
 Frc consts  --     0.0000                 0.0000                 0.0000
 IR Inten    --    81.6767                60.8516                 2.7991
 Raman Activ --     0.0000                 0.0000                 0.0000
 Depolar     --     0.0000                 0.0000                 0.0000
 Atom AN      X      Y      Z        X      Y      Z        X      Y      Z
   1   8    -0.00  -0.00  -0.00     0.00  -0.00   0.00    -0.00  -0.00  -0.00
   2   6    -0.00   0.00   0.00    -0.00   0.00   0.00     0.00   0.00  -0.00
   3   6     0.00   0.00  -0.00     0.00   0.00  -0.00    -0.00  -0.00   0.00
   4   6    -0.00  -0.00   0.00     0.00  -0.00  -0.00     0.00   0.00  -0.00
   5   7     0.00   0.00  -0.00    -0.00  -0.00   0.00    -0.00  -0.00   0.00
   6   6     0.05   0.02  -0.02    -0.03  -0.01   0.01     0.01   0.00  -0.00
   7   7     0.00   0.00  -0.00    -0.00  -0.00   0.00    -0.00  -0.00   0.00
   8   6    -0.00  -0.00   0.00     0.00   0.00  -0.00     0.00  -0.00  -0.00
   9   6     0.00  -0.00  -0.00     0.00  -0.00   0.00    -0.00  -0.00  -0.00
  10   6    -0.01  -0.01  -0.01    -0.00  -0.00  -0.00    -0.00  -0.01  -0.01
  11   6    -0.00  -0.00  -0.00    -0.00   0.00  -0.00    -0.01   0.00   0.00
  12   7     0.00   0.00   0.00    -0.00   0.00  -0.00     0.00   0.00  -0.00
  13   6     0.00   0.00   0.00    -0.00  -0.00  -0.00     0.00   0.00   0.00
  14   6     0.04  -0.01   0.00    -0.03   0.01  -0.00     0.00  -0.00   0.00
  15   6     0.01  -0.03   0.00    -0.01   0.02  -0.00     0.00  -0.00   0.00
  16   6    -0.02  -0.03  -0.00     0.02   0.02   0.00    -0.00  -0.00  -0.00
  17   6    -0.04   0.01  -0.00     0.03  -0.01   0.00    -0.00   0.00  -0.00
  18   6    -0.00   0.00  -0.00     0.00  -0.00   0.00    -0.00  -0.00  -0.00
  19   6    -0.00  -0.00  -0.00     0.00   0.00   0.00    -0.00  -0.00   0.00
  20   6    -0.07  -0.02  -0.01     0.03   0.01   0.00    -0.00  -0.00  -0.00
  21   6    -0.06   0.05  -0.01     0.02  -0.02   0.00    -0.00   0.00  -0.00
  22   6     0.02   0.08  -0.00    -0.01  -0.03   0.00     0.00   0.00  -0.00
  23   6     0.09   0.03   0.00    -0.03  -0.01  -0.00     0.02   0.01   0.00
  24   6     0.00  -0.00   0.00    -0.00   0.00  -0.00     0.00  -0.00   0.00
  25   6     0.01  -0.01  -0.01    -0.00   0.00   0.00    -0.16   0.15   0.16
  26   6    -0.00  -0.00  -0.00    -0.00  -0.00  -0.00     0.03   0.04   0.05
  27   6     0.00   0.00   0.00    -0.00  -0.00  -0.00     0.00  -0.00  -0.00
  28   7    -0.00   0.00  -0.00     0.00   0.00   0.00    -0.00   0.00  -0.00
  29   6     0.00  -0.00   0.00     0.00  -0.00   0.00     0.00  -0.00   0.00
  30   6     0.11   0.03   0.01     0.16   0.05   0.01    -0.00  -0.00  -0.00
  31   6     0.02   0.07  -0.01     0.03   0.12  -0.01    -0.00  -0.00   0.00
  32   6    -0.04   0.03  -0.01    -0.07   0.07  -0.02     0.00  -0.00   0.00
  33   6    -0.03  -0.01  -0.00    -0.09  -0.02  -0.01     0.00   0.00   0.00
  34   6    -0.00  -0.00  -0.00    -0.00  -0.00   0.00    -0.00   0.00  -0.00
  35   6     0.00  -0.00   0.00    -0.00   0.00  -0.00    -0.00  -0.00   0.00
  36   6     0.08  -0.02   0.01    -0.06   0.02  -0.01     0.00  -0.00   0.00
  37   6     0.06   0.06   0.00    -0.05  -0.04  -0.00     0.00   0.00   0.00
  38   6    -0.02   0.08  -0.01     0.01  -0.05   0.01    -0.00   0.00  -0.00
  39   6    -0.05   0.02  -0.01     0.04  -0.01   0.01    -0.00   0.00  -0.00
  40   6    -0.00  -0.00  -0.00     0.00   0.00   0.00     0.00   0.00   0.00
  41   1     0.00  -0.00  -0.00    -0.00   0.00   0.00     0.00   0.00  -0.00
  42   1    -0.17  -0.06   0.07     0.13   0.05  -0.05    -0.02  -0.01   0.01
  43   1     0.00   0.00  -0.00    -0.00  -0.01  -0.00     0.00   0.00   0.00
  44   1     0.02   0.03   0.03     0.00   0.00   0.00     0.01   0.02   0.03
  45   1    -0.13   0.03  -0.01     0.09  -0.02   0.01    -0.01   0.00  -0.00
  46   1    -0.03   0.11  -0.01     0.02  -0.08   0.00    -0.00   0.00  -0.00
  47   1     0.08   0.08   0.00    -0.05  -0.06  -0.00     0.00   0.00   0.00
  48   1     0.14  -0.03   0.01    -0.09   0.02  -0.01     0.00  -0.00   0.00
  49   1     0.24   0.08   0.02    -0.10  -0.04  -0.01     0.00   0.00   0.00
  50   1     0.19  -0.17   0.02    -0.08   0.07  -0.01     0.00  -0.00   0.00
  51   1    -0.05  -0.28   0.01     0.02   0.12  -0.00    -0.00  -0.01   0.00
  52   1    -0.29  -0.10  -0.01     0.11   0.04   0.00    -0.06  -0.02  -0.00
  53   1    -0.02   0.02   0.02     0.02  -0.01  -0.02     0.54  -0.51  -0.56
  54   1     0.00   0.00   0.01     0.00   0.01   0.01    -0.10  -0.13  -0.17
  55   1    -0.36  -0.11  -0.04    -0.53  -0.16  -0.05     0.00   0.00   0.00
  56   1    -0.06  -0.24   0.02    -0.10  -0.39   0.03     0.00   0.00  -0.00
  57   1     0.12  -0.12   0.03     0.22  -0.22   0.05    -0.00   0.00  -0.00
  58   1     0.10   0.03   0.01     0.29   0.08   0.04    -0.00  -0.00  -0.00
  59   1    -0.26   0.08  -0.04     0.22  -0.06   0.04    -0.00   0.00  -0.00
  60   1    -0.21  -0.20  -0.01     0.15   0.14   0.01    -0.00  -0.00  -0.00
  61   1     0.06  -0.27   0.04    -0.04   0.18  -0.02     0.00  -0.00   0.00
  62   1     0.17  -0.05   0.03    -0.13   0.04  -0.03     0.00  -0.00   0.00
