 Entering Gaussian System
 *********************************************
 Gaussian 98:
 frequency output generated by the xtb code
 *********************************************
                         Standard orientation:
 --------------------------------------------------------------------
  Center     Atomic     Atomic              Coordinates (Angstroms)
  Number     Number      Type              X           Y           Z
 --------------------------------------------------------------------
    1          8             0       -3.443764    2.804392   -1.579733
    2         16             0       -2.902869    3.534180   -0.460383
    3          8             0       -3.080398    4.961811   -0.432116
    4          6             0       -3.537408    2.811981    1.056346
    5          6             0       -3.915672    1.483571    1.054924
    6          6             0       -4.342230    0.894604    2.234573
    7          6             0       -4.381065    1.651267    3.396479
    8          6             0       -4.003222    2.985650    3.385822
    9          6             0       -3.570774    3.573030    2.207709
   10          6             0       -1.144523    3.158647   -0.338272
   11          6             0       -0.192727    4.160037   -0.255167
   12          6             0        1.146513    3.798487   -0.134763
   13          6             0        1.516370    2.471739   -0.078619
   14          6             0        0.542606    1.461020   -0.147589
   15          6             0        0.862940    0.070445   -0.073000
   16          7             0       -0.167901   -0.838606   -0.090294
   17          6             0        0.115942   -2.123037   -0.049683
   18          6             0       -1.015708   -3.054968   -0.092368
   19          6             0       -0.825018   -4.413350   -0.338952
   20          6             0       -1.912330   -5.264690   -0.424403
   21          6             0       -3.198845   -4.767234   -0.271743
   22          6             0       -3.377085   -3.420741   -0.013856
   23         16             0       -5.043532   -2.766121    0.228516
   24          8             0       -5.109815   -2.227308    1.564903
   25          8             0       -5.983952   -3.797453   -0.117187
   26          6             0       -5.203534   -1.388963   -0.918391
   27          6             0       -4.417373   -1.302769   -2.050931
   28          6             0       -4.554069   -0.202695   -2.883642
   29          6             0       -5.477319    0.786410   -2.584611
   30          6             0       -6.275935    0.676803   -1.457517
   31          6             0       -6.137086   -0.415325   -0.616217
   32          6             0       -2.306676   -2.560334    0.087290
   33          7             0        1.344142   -2.592558    0.006273
   34          6             0        2.364066   -1.668364    0.047587
   35          6             0        3.724696   -2.111022    0.118510
   36          6             0        4.073666   -3.469551    0.098964
   37          6             0        5.398949   -3.850070    0.141055
   38          6             0        6.407075   -2.894576    0.202633
   39          6             0        6.055697   -1.554643    0.233130
   40         16             0        7.359366   -0.307902    0.352515
   41          8             0        8.427685   -0.690574   -0.531444
   42          8             0        7.671571   -0.119733    1.744589
   43          6             0        6.568018    1.183199   -0.272555
   44          6             0        6.456592    1.357329   -1.638024
   45          6             0        5.776043    2.463067   -2.121384
   46          6             0        5.213485    3.369771   -1.235835
   47          6             0        5.339720    3.187243    0.132931
   48          6             0        6.022339    2.084556    0.621081
   49          6             0        4.747327   -1.151359    0.198072
   50          7             0        2.099353   -0.374692    0.007912
   51          6             0       -0.803098    1.832306   -0.289119
   52          1             0       -3.897032    0.937998    0.124871
   53          1             0       -4.641841   -0.143518    2.244371
   54          1             0       -4.714085    1.196324    4.317190
   55          1             0       -4.044210    3.568183    4.293847
   56          1             0       -3.275839    4.609547    2.160540
   57          1             0       -0.507634    5.190037   -0.294158
   58          1             0        1.901448    4.568388   -0.080132
   59          1             0        2.553779    2.189058    0.019138
   60          1             0        0.180872   -4.781614   -0.468677
   61          1             0       -1.760687   -6.315751   -0.616691
   62          1             0       -4.070411   -5.398516   -0.347237
   63          1             0       -3.703427   -2.081325   -2.276040
   64          1             0       -3.933383   -0.113858   -3.761579
   65          1             0       -5.564058    1.649021   -3.224814
   66          1             0       -6.995337    1.446557   -1.225500
   67          1             0       -6.727732   -0.520383    0.280206
   68          1             0       -2.461298   -1.514701    0.304725
   69          1             0        3.285791   -4.204804    0.047282
   70          1             0        5.658688   -4.897765    0.123021
   71          1             0        7.449606   -3.166475    0.222896
   72          1             0        6.909536    0.633522   -2.297074
   73          1             0        5.681047    2.616165   -3.185494
   74          1             0        4.676343    4.225810   -1.616274
   75          1             0        4.906927    3.899925    0.818860
   76          1             0        6.145394    1.908226    1.678305
   77          1             0        4.475660   -0.108037    0.226538
   78          1             0       -1.556941    1.066157   -0.370155
 --------------------------------------------------------------------
     1 basis functions        1 primitive gaussians
     1 alpha electrons        1 beta electrons
 
 Harmonic frequencies (cm**-1), IR intensities (km*mol⁻¹),
 Raman scattering activities (A**4/amu), Raman depolarization ratios,
 reduced masses (AMU), force constants (mDyne/A) and normal coordinates:
                      1                      2                      3
                        a                      a                      a 
 Frequencies --     8.2238                 9.5709                13.4024
 Red. masses --    13.0502                13.2354                12.1855
 Frc consts  --     0.0000                 0.0000                 0.0000
 IR Inten    --     0.5441                 2.0805                 4.1290
 Raman Activ --     0.0000                 0.0000                 0.0000
 Depolar     --     0.0000                 0.0000                 0.0000
 Atom AN      X      Y      Z        X      Y      Z        X      Y      Z
   1   8     0.02  -0.04  -0.11     0.01  -0.03  -0.03     0.13   0.00  -0.08
   2  16     0.02  -0.03  -0.18     0.01  -0.01  -0.06     0.06   0.00  -0.04
   3   8     0.01  -0.02  -0.15     0.01  -0.01  -0.07     0.05   0.00  -0.05
   4   6     0.01   0.00  -0.10    -0.00   0.02  -0.02    -0.08   0.01  -0.07
   5   6     0.04  -0.00  -0.07    -0.00   0.02   0.00    -0.04  -0.00  -0.08
   6   6     0.04   0.02  -0.06    -0.01   0.05   0.01    -0.14   0.01  -0.11
   7   6     0.01   0.04  -0.08    -0.03   0.07  -0.01    -0.28   0.04  -0.13
   8   6    -0.02   0.05  -0.11    -0.02   0.07  -0.03    -0.32   0.05  -0.12
   9   6    -0.02   0.03  -0.12    -0.01   0.05  -0.04    -0.22   0.03  -0.09
  10   6     0.01  -0.01  -0.10     0.01  -0.01  -0.02     0.03  -0.00   0.08
  11   6     0.01  -0.01  -0.08     0.01  -0.01  -0.01     0.03  -0.00   0.14
  12   6     0.01  -0.01  -0.07     0.00  -0.01   0.00     0.02  -0.00   0.19
  13   6     0.01  -0.01  -0.07     0.00  -0.01   0.01     0.02  -0.00   0.19
  14   6     0.01  -0.01  -0.08     0.00  -0.01  -0.00     0.03  -0.00   0.14
  15   6     0.01  -0.01  -0.08     0.00  -0.01   0.00     0.03  -0.00   0.13
  16   7     0.01  -0.01  -0.10    -0.00  -0.01   0.02     0.03  -0.00   0.11
  17   6     0.01  -0.01  -0.09    -0.00  -0.01   0.03     0.03  -0.00   0.08
  18   6     0.01  -0.01  -0.09    -0.01  -0.01   0.06     0.03  -0.00   0.04
  19   6     0.00   0.00  -0.16    -0.01  -0.02   0.11     0.03   0.01  -0.02
  20   6    -0.01   0.01  -0.16    -0.01  -0.02   0.13     0.03   0.01  -0.07
  21   6     0.00   0.01  -0.08    -0.01  -0.01   0.11     0.03   0.01  -0.08
  22   6     0.01  -0.01  -0.01    -0.01  -0.00   0.06     0.03  -0.00  -0.02
  23  16     0.04  -0.03   0.16    -0.01   0.03   0.03     0.04  -0.02  -0.03
  24   8     0.12  -0.06   0.13    -0.03   0.06  -0.00     0.01  -0.06  -0.01
  25   8     0.01  -0.02   0.15    -0.01   0.02   0.04     0.03  -0.01  -0.06
  26   6    -0.06   0.01   0.14     0.02  -0.02  -0.03     0.02   0.02   0.02
  27   6    -0.07   0.10   0.14     0.02  -0.09  -0.04     0.09   0.13   0.08
  28   6    -0.15   0.13   0.18     0.05  -0.11  -0.08     0.07   0.16   0.13
  29   6    -0.21   0.06   0.23     0.09  -0.07  -0.11    -0.02   0.09   0.11
  30   6    -0.19  -0.03   0.23     0.09  -0.00  -0.10    -0.09  -0.03   0.05
  31   6    -0.12  -0.06   0.19     0.06   0.03  -0.06    -0.07  -0.06   0.01
  32   6     0.02  -0.01  -0.02    -0.01   0.00   0.03     0.03  -0.01   0.04
  33   7     0.01  -0.01  -0.10    -0.00  -0.01   0.03     0.03  -0.00   0.09
  34   6     0.01  -0.01  -0.08    -0.00  -0.01  -0.00     0.03  -0.01   0.10
  35   6     0.01  -0.01  -0.06    -0.00  -0.02  -0.02     0.03  -0.01   0.07
  36   6     0.01  -0.01  -0.06    -0.01  -0.02   0.00     0.02  -0.01   0.07
  37   6     0.01  -0.01  -0.03    -0.01  -0.02  -0.01     0.02  -0.01   0.02
  38   6     0.01  -0.01   0.00    -0.00  -0.02  -0.06     0.03  -0.01  -0.02
  39   6     0.01  -0.01   0.00     0.00  -0.02  -0.08     0.03  -0.01  -0.01
  40  16     0.02  -0.02   0.09     0.03  -0.05  -0.23     0.06  -0.02  -0.15
  41   8     0.02   0.02   0.05    -0.09   0.03  -0.33    -0.00  -0.03  -0.16
  42   8     0.00  -0.08   0.07     0.20  -0.16  -0.19     0.12   0.02  -0.13
  43   6     0.02   0.01   0.10    -0.03   0.02   0.05     0.01  -0.02  -0.08
  44   6     0.06   0.08   0.11    -0.12   0.15   0.08    -0.10  -0.07  -0.08
  45   6     0.07   0.10   0.15    -0.15   0.20   0.23    -0.13  -0.08  -0.06
  46   6     0.04   0.05   0.17    -0.09   0.12   0.35    -0.06  -0.05  -0.05
  47   6    -0.00  -0.02   0.17     0.00  -0.01   0.32     0.05  -0.00  -0.06
  48   6    -0.01  -0.04   0.13     0.03  -0.06   0.17     0.08   0.01  -0.07
  49   6     0.01  -0.01  -0.03     0.00  -0.02  -0.07     0.03  -0.01   0.03
  50   7     0.01  -0.01  -0.08     0.00  -0.01  -0.01     0.03  -0.00   0.14
  51   6     0.02  -0.01  -0.10     0.00  -0.01  -0.01     0.03  -0.00   0.09
  52   1     0.02  -0.01  -0.02     0.00   0.00   0.00     0.02  -0.01  -0.02
  53   1     0.02   0.00  -0.01    -0.00   0.01   0.01    -0.03   0.00  -0.03
  54   1     0.00   0.02  -0.02    -0.01   0.03  -0.00    -0.11   0.01  -0.05
  55   1    -0.01   0.02  -0.04    -0.01   0.03  -0.01    -0.12   0.02  -0.04
  56   1    -0.01   0.01  -0.04    -0.00   0.01  -0.02    -0.07   0.01  -0.03
  57   1     0.00  -0.00  -0.02     0.00  -0.00  -0.00     0.01  -0.00   0.04
  58   1     0.00  -0.00  -0.02     0.00  -0.00   0.00     0.00  -0.00   0.07
  59   1     0.00  -0.00  -0.02     0.00  -0.00   0.00     0.01  -0.00   0.07
  60   1    -0.00   0.00  -0.06    -0.00  -0.01   0.04     0.01   0.00  -0.01
  61   1    -0.00   0.01  -0.06    -0.00  -0.01   0.05     0.01   0.01  -0.03
  62   1    -0.00   0.00  -0.02    -0.00  -0.00   0.04     0.01   0.00  -0.03
  63   1    -0.01   0.04   0.03    -0.00  -0.03  -0.00     0.05   0.06   0.03
  64   1    -0.05   0.06   0.05     0.01  -0.05  -0.03     0.04   0.07   0.05
  65   1    -0.08   0.02   0.08     0.03  -0.03  -0.04    -0.01   0.03   0.04
  66   1    -0.07  -0.03   0.08     0.03   0.01  -0.03    -0.05  -0.03   0.01
  67   1    -0.03  -0.04   0.05     0.02   0.02  -0.01    -0.04  -0.04  -0.01
  68   1     0.01  -0.01   0.01    -0.00   0.00  -0.00     0.01  -0.01   0.02
  69   1     0.00  -0.00  -0.02    -0.00  -0.00   0.01     0.01  -0.00   0.03
  70   1     0.00  -0.00  -0.01    -0.00  -0.01   0.00     0.01  -0.00   0.01
  71   1     0.00  -0.00   0.01    -0.00  -0.01  -0.02     0.01  -0.00  -0.02
  72   1     0.03   0.03   0.03    -0.05   0.06  -0.01    -0.04  -0.03  -0.03
  73   1     0.03   0.05   0.04    -0.07   0.09   0.07    -0.06  -0.03  -0.02
  74   1     0.01   0.02   0.06    -0.03   0.04   0.14    -0.02  -0.02  -0.01
  75   1    -0.01  -0.02   0.06     0.01  -0.02   0.12     0.03   0.01  -0.01
  76   1    -0.01  -0.03   0.04     0.03  -0.05   0.04     0.04   0.01  -0.02
  77   1     0.00  -0.00  -0.01     0.00  -0.00  -0.03     0.01  -0.00   0.01
  78   1     0.01  -0.00  -0.03     0.00  -0.00  -0.01     0.01  -0.00   0.01
                      4                      5                      6
                        a                      a                      a 
 Frequencies --    17.0855                21.7408                23.4132
 Red. masses --    11.8699                12.7746                12.1847
 Frc consts  --     0.0000                 0.0000                 0.0000
 IR Inten    --     0.5973                 1.8477                15.2757
 Raman Activ --     0.0000                 0.0000                 0.0000
 Depolar     --     0.0000                 0.0000                 0.0000
 Atom AN      X      Y      Z        X      Y      Z        X      Y      Z
   1   8     0.01  -0.10   0.03    -0.07   0.04  -0.00    -0.06  -0.15   0.05
   2  16    -0.04  -0.05   0.01    -0.11   0.03   0.03    -0.11  -0.10   0.01
   3   8    -0.03  -0.04  -0.08    -0.10   0.02   0.06    -0.13  -0.07  -0.06
   4   6    -0.08   0.04   0.02    -0.06  -0.03  -0.00    -0.03  -0.01   0.05
   5   6    -0.02   0.03   0.09    -0.07  -0.03  -0.04     0.04  -0.03   0.11
   6   6    -0.08   0.09   0.10    -0.07  -0.06  -0.06     0.06   0.01   0.14
   7   6    -0.21   0.18   0.04    -0.07  -0.10  -0.04     0.02   0.07   0.10
   8   6    -0.27   0.19  -0.03    -0.06  -0.10   0.00    -0.04   0.09   0.03
   9   6    -0.20   0.13  -0.04    -0.06  -0.07   0.02    -0.07   0.05   0.01
  10   6    -0.02  -0.02   0.06    -0.06   0.04   0.01    -0.05  -0.00   0.01
  11   6    -0.04  -0.01   0.11    -0.07   0.05  -0.04    -0.08   0.02   0.07
  12   6    -0.04   0.00   0.13    -0.06   0.07  -0.06    -0.08   0.05   0.09
  13   6    -0.02   0.00   0.10    -0.05   0.08  -0.04    -0.04   0.06   0.05
  14   6    -0.01  -0.00   0.05    -0.04   0.06  -0.00    -0.01   0.04  -0.01
  15   6     0.00  -0.00   0.01    -0.02   0.07   0.01     0.01   0.04  -0.04
  16   7     0.01  -0.01   0.00    -0.02   0.07   0.04     0.02   0.04  -0.10
  17   6     0.01  -0.01  -0.04    -0.02   0.06   0.05     0.02   0.03  -0.08
  18   6     0.01  -0.01  -0.02    -0.01   0.05   0.06     0.02   0.03  -0.12
  19   6     0.00  -0.01  -0.01     0.02   0.05   0.11     0.01   0.05  -0.20
  20   6    -0.00  -0.01   0.02     0.04   0.02   0.11     0.01   0.05  -0.22
  21   6     0.00  -0.01   0.05     0.03   0.00   0.07     0.02   0.04  -0.16
  22   6     0.01  -0.00   0.04    -0.00   0.01   0.03     0.02   0.02  -0.09
  23  16     0.04   0.04   0.10    -0.04  -0.06  -0.04     0.05   0.03   0.01
  24   8     0.07   0.08   0.05    -0.10  -0.06  -0.02     0.13   0.04   0.01
  25   8     0.00   0.02   0.13     0.02  -0.07  -0.07     0.02   0.02   0.09
  26   6     0.03  -0.02   0.01    -0.03  -0.03  -0.01    -0.02   0.00  -0.01
  27   6    -0.03  -0.12  -0.04    -0.00   0.01   0.01    -0.15  -0.10  -0.10
  28   6    -0.01  -0.16  -0.09    -0.01   0.02   0.02    -0.18  -0.13  -0.13
  29   6     0.07  -0.09  -0.08    -0.06  -0.02   0.01    -0.07  -0.05  -0.06
  30   6     0.13   0.02  -0.03    -0.09  -0.06  -0.02     0.06   0.05   0.04
  31   6     0.11   0.05   0.02    -0.08  -0.06  -0.03     0.08   0.08   0.07
  32   6     0.02  -0.00   0.00    -0.02   0.03   0.03     0.02   0.02  -0.08
  33   7     0.02  -0.01  -0.10    -0.02   0.08   0.05     0.01   0.04  -0.03
  34   6     0.01  -0.00  -0.08    -0.02   0.08   0.02     0.01   0.04   0.01
  35   6     0.01  -0.00  -0.12    -0.02   0.06   0.01     0.00   0.03   0.08
  36   6     0.02  -0.00  -0.25    -0.07   0.04   0.07    -0.03   0.02   0.20
  37   6     0.02  -0.01  -0.29    -0.08   0.00   0.08    -0.04  -0.00   0.28
  38   6     0.02  -0.01  -0.21    -0.05  -0.03   0.04    -0.02  -0.02   0.22
  39   6     0.01  -0.01  -0.08    -0.00  -0.02  -0.03     0.01  -0.01   0.09
  40  16     0.01  -0.03   0.09     0.11  -0.14  -0.09     0.08  -0.06  -0.05
  41   8     0.09   0.00   0.16     0.03  -0.17  -0.09    -0.02  -0.11  -0.11
  42   8    -0.13  -0.06   0.10     0.12  -0.14  -0.07     0.18  -0.01  -0.07
  43   6     0.05  -0.01   0.02     0.15  -0.03  -0.03     0.06  -0.03  -0.02
  44   6     0.15   0.01   0.02     0.32   0.09  -0.03    -0.05  -0.09  -0.02
  45   6     0.18   0.02  -0.01     0.40   0.15  -0.01    -0.05  -0.08  -0.01
  46   6     0.12   0.00  -0.04     0.32   0.09  -0.00     0.05  -0.03  -0.00
  47   6     0.02  -0.02  -0.03     0.15  -0.04  -0.00     0.16   0.02  -0.01
  48   6    -0.01  -0.03  -0.00     0.07  -0.09  -0.02     0.16   0.02  -0.02
  49   6     0.01  -0.01  -0.04     0.01   0.03  -0.05     0.02   0.02   0.02
  50   7     0.01  -0.00  -0.02    -0.02   0.08  -0.00     0.01   0.05   0.00
  51   6    -0.01  -0.02   0.04    -0.04   0.05   0.02    -0.02   0.00  -0.04
  52   1     0.02  -0.01   0.04    -0.02  -0.00  -0.02     0.02  -0.02   0.04
  53   1    -0.01   0.02   0.04    -0.02  -0.02  -0.03     0.03   0.00   0.05
  54   1    -0.07   0.07   0.01    -0.02  -0.04  -0.01     0.01   0.03   0.04
  55   1    -0.11   0.07  -0.02    -0.02  -0.04   0.01    -0.02   0.04   0.00
  56   1    -0.07   0.04  -0.03    -0.02  -0.02   0.02    -0.03   0.02  -0.01
  57   1    -0.01  -0.00   0.04    -0.02   0.01  -0.01    -0.03   0.00   0.03
  58   1    -0.01   0.00   0.05    -0.02   0.02  -0.03    -0.03   0.02   0.04
  59   1    -0.01   0.00   0.03    -0.01   0.03  -0.02    -0.01   0.02   0.02
  60   1    -0.00  -0.00  -0.01     0.01   0.02   0.04     0.00   0.02  -0.07
  61   1    -0.00  -0.00   0.01     0.02   0.01   0.04     0.00   0.02  -0.08
  62   1    -0.00  -0.00   0.02     0.01  -0.00   0.02     0.00   0.01  -0.05
  63   1    -0.03  -0.05  -0.01     0.01   0.01   0.01    -0.07  -0.05  -0.04
  64   1    -0.02  -0.07  -0.04     0.00   0.02   0.01    -0.08  -0.06  -0.06
  65   1     0.02  -0.03  -0.03    -0.02  -0.00   0.00    -0.03  -0.02  -0.03
  66   1     0.05   0.02  -0.01    -0.04  -0.02  -0.01     0.04   0.03   0.03
  67   1     0.04   0.04   0.02    -0.03  -0.03  -0.01     0.05   0.05   0.04
  68   1     0.01  -0.00  -0.00    -0.01   0.01  -0.00     0.01   0.00  -0.01
  69   1     0.00   0.00  -0.09    -0.03   0.02   0.03    -0.01   0.01   0.07
  70   1     0.00  -0.00  -0.11    -0.03  -0.00   0.04    -0.02  -0.00   0.11
  71   1     0.00  -0.00  -0.07    -0.02  -0.02   0.01    -0.01  -0.01   0.08
  72   1     0.06   0.01   0.01     0.11   0.04  -0.01    -0.04  -0.04  -0.01
  73   1     0.08   0.01  -0.00     0.16   0.07  -0.00    -0.04  -0.04  -0.00
  74   1     0.04   0.00  -0.02     0.11   0.04   0.00     0.01  -0.01   0.00
  75   1    -0.01  -0.01  -0.01     0.03  -0.02   0.00     0.07   0.02  -0.00
  76   1    -0.03  -0.01   0.00    -0.01  -0.05  -0.00     0.07   0.02  -0.01
  77   1     0.00  -0.00   0.02     0.01   0.01  -0.03     0.01   0.01  -0.02
  78   1     0.00  -0.01  -0.00    -0.01   0.01   0.02     0.00  -0.00  -0.03
                      7                      8                      9
                        a                      a                      a 
 Frequencies --    27.6081                32.5915                33.9724
 Red. masses --    11.2201                14.2402                12.5339
 Frc consts  --     0.0000                 0.0000                 0.0000
 IR Inten    --    30.5720                 0.6495                 0.1849
 Raman Activ --     0.0000                 0.0000                 0.0000
 Depolar     --     0.0000                 0.0000                 0.0000
 Atom AN      X      Y      Z        X      Y      Z        X      Y      Z
   1   8     0.01   0.01  -0.06     0.03   0.32   0.00    -0.13  -0.11   0.10
   2  16    -0.04   0.03  -0.07     0.10   0.24   0.11    -0.13  -0.13   0.09
   3   8    -0.06   0.02  -0.04     0.14   0.18   0.23    -0.10  -0.09   0.05
   4   6    -0.00  -0.01  -0.05     0.00   0.05  -0.00    -0.06  -0.05   0.08
   5   6    -0.03  -0.00  -0.08     0.08   0.03  -0.08    -0.03  -0.05   0.12
   6   6     0.02  -0.04  -0.08     0.01  -0.03  -0.13    -0.08  -0.01   0.13
   7   6     0.10  -0.08  -0.05    -0.15  -0.07  -0.11    -0.15   0.04   0.09
   8   6     0.12  -0.08  -0.02    -0.23  -0.05  -0.04    -0.17   0.04   0.05
   9   6     0.07  -0.05  -0.02    -0.15   0.01   0.02    -0.12   0.00   0.05
  10   6    -0.02   0.06  -0.01     0.05   0.07   0.01    -0.07  -0.06  -0.04
  11   6    -0.03   0.07  -0.02     0.07   0.04   0.04    -0.07  -0.04  -0.17
  12   6    -0.03   0.08   0.02     0.07   0.01  -0.02    -0.06  -0.01  -0.28
  13   6    -0.01   0.09   0.05     0.04  -0.00  -0.10    -0.03  -0.00  -0.27
  14   6    -0.00   0.08   0.05     0.01   0.02  -0.12    -0.02  -0.02  -0.14
  15   6     0.00   0.08   0.07    -0.01   0.01  -0.16     0.01  -0.02  -0.11
  16   7     0.00   0.09   0.08    -0.02   0.02  -0.17     0.02  -0.03  -0.06
  17   6    -0.01   0.07   0.04    -0.02   0.02  -0.12     0.03  -0.02  -0.03
  18   6     0.00   0.07   0.03    -0.00   0.00  -0.06     0.03  -0.02   0.02
  19   6     0.03   0.06   0.06     0.02  -0.01   0.04     0.01  -0.03   0.07
  20   6     0.05   0.04   0.07     0.04  -0.04   0.13    -0.00  -0.02   0.09
  21   6     0.04   0.02   0.05     0.04  -0.07   0.12     0.00   0.00   0.06
  22   6     0.01   0.02   0.02     0.01  -0.05   0.02     0.02   0.02   0.01
  23  16    -0.01  -0.05   0.01    -0.01  -0.14   0.04     0.05   0.09  -0.06
  24   8    -0.03  -0.02   0.00    -0.03  -0.12   0.04     0.00   0.02  -0.03
  25   8     0.03  -0.07   0.02     0.02  -0.12   0.00     0.02   0.10  -0.10
  26   6    -0.05  -0.05  -0.01    -0.01  -0.07   0.04     0.08   0.09  -0.00
  27   6    -0.07  -0.05  -0.02    -0.09  -0.14  -0.02     0.17   0.17   0.06
  28   6    -0.10  -0.07  -0.04    -0.05  -0.13  -0.00     0.17   0.20   0.09
  29   6    -0.12  -0.08  -0.04     0.07  -0.04   0.08     0.09   0.14   0.06
  30   6    -0.10  -0.08  -0.03     0.15   0.03   0.13     0.02   0.05  -0.01
  31   6    -0.07  -0.06  -0.01     0.10   0.01   0.12     0.01   0.03  -0.04
  32   6    -0.01   0.05   0.01    -0.01  -0.01  -0.07     0.03   0.00  -0.01
  33   7    -0.01   0.09   0.01    -0.02   0.02  -0.11     0.04  -0.01  -0.04
  34   6    -0.00   0.07   0.02    -0.01   0.01  -0.11     0.03   0.00  -0.08
  35   6    -0.01   0.05  -0.03    -0.02   0.01  -0.05     0.03   0.00  -0.05
  36   6    -0.04   0.04  -0.18    -0.03   0.00   0.03     0.02   0.00  -0.03
  37   6    -0.05   0.01  -0.26    -0.03  -0.00   0.11     0.02  -0.00   0.00
  38   6    -0.02  -0.02  -0.19    -0.03  -0.01   0.11     0.02  -0.01   0.03
  39   6     0.01  -0.02  -0.02    -0.02  -0.00   0.03     0.03  -0.01   0.01
  40  16     0.04  -0.08   0.08    -0.03  -0.01   0.03     0.05  -0.02   0.06
  41   8     0.06  -0.06   0.09    -0.02  -0.02   0.02     0.04  -0.02   0.05
  42   8    -0.01  -0.08   0.07    -0.01  -0.00   0.02     0.03  -0.03   0.04
  43   6     0.05  -0.04   0.05    -0.01  -0.01   0.01     0.03  -0.01   0.04
  44   6    -0.19  -0.18   0.05    -0.08  -0.06   0.01    -0.11  -0.10   0.04
  45   6    -0.19  -0.18   0.05    -0.08  -0.06   0.01    -0.11  -0.10   0.04
  46   6     0.05  -0.03   0.06    -0.02  -0.02   0.00     0.02  -0.02   0.04
  47   6     0.30   0.11   0.05     0.05   0.03   0.00     0.16   0.06   0.04
  48   6     0.30   0.11   0.05     0.05   0.03   0.01     0.17   0.07   0.04
  49   6     0.01   0.02   0.06    -0.02   0.00  -0.05     0.03  -0.00  -0.03
  50   7     0.00   0.09   0.06    -0.01   0.01  -0.15     0.02  -0.00  -0.13
  51   6    -0.00   0.06   0.02     0.02   0.06  -0.07    -0.04  -0.05  -0.03
  52   1    -0.02   0.01  -0.03     0.05   0.02  -0.03     0.00  -0.03   0.04
  53   1     0.00  -0.01  -0.03     0.02  -0.01  -0.05    -0.02  -0.00   0.04
  54   1     0.04  -0.03  -0.01    -0.06  -0.03  -0.05    -0.05   0.02   0.03
  55   1     0.05  -0.03   0.00    -0.10  -0.02  -0.01    -0.06   0.02   0.01
  56   1     0.03  -0.02   0.00    -0.06   0.01   0.02    -0.04   0.00   0.01
  57   1    -0.01   0.02  -0.01     0.03   0.02   0.03    -0.03  -0.01  -0.05
  58   1    -0.01   0.03   0.01     0.03  -0.00  -0.00    -0.02   0.00  -0.11
  59   1    -0.00   0.03   0.02     0.01  -0.01  -0.04    -0.00   0.01  -0.10
  60   1     0.01   0.02   0.02     0.01   0.00   0.01     0.00  -0.02   0.03
  61   1     0.02   0.01   0.03     0.02  -0.02   0.06    -0.00  -0.01   0.04
  62   1     0.02  -0.00   0.02     0.01  -0.03   0.06    -0.00   0.00   0.02
  63   1    -0.02  -0.01  -0.00    -0.05  -0.06  -0.02     0.06   0.06   0.02
  64   1    -0.03  -0.02  -0.01    -0.03  -0.05  -0.01     0.07   0.08   0.04
  65   1    -0.04  -0.03  -0.02     0.03  -0.01   0.03     0.03   0.04   0.02
  66   1    -0.03  -0.02  -0.01     0.07   0.03   0.06    -0.01   0.00  -0.01
  67   1    -0.02  -0.02  -0.00     0.05   0.02   0.05    -0.02  -0.01  -0.03
  68   1    -0.01   0.01  -0.00    -0.01  -0.00  -0.04     0.01   0.00  -0.01
  69   1    -0.02   0.02  -0.07    -0.01   0.00   0.01     0.01   0.00  -0.02
  70   1    -0.02   0.00  -0.11    -0.01  -0.00   0.05     0.00  -0.00   0.01
  71   1    -0.01  -0.01  -0.07    -0.01  -0.00   0.05     0.01  -0.00   0.02
  72   1    -0.11  -0.09   0.01    -0.04  -0.03   0.00    -0.06  -0.05   0.01
  73   1    -0.11  -0.09   0.02    -0.04  -0.03   0.00    -0.07  -0.05   0.01
  74   1     0.01  -0.01   0.02    -0.01  -0.01   0.00     0.00  -0.01   0.01
  75   1     0.14   0.07   0.02     0.03   0.02   0.00     0.08   0.04   0.01
  76   1     0.14   0.06   0.01     0.03   0.02   0.00     0.08   0.04   0.01
  77   1     0.01   0.01   0.06    -0.00   0.00  -0.03     0.01   0.00  -0.01
  78   1     0.00   0.01   0.01     0.00   0.02  -0.03    -0.01  -0.02   0.02
                     10                     11                     12
                        a                      a                      a 
 Frequencies --    37.4260                43.4933                45.6479
 Red. masses --    12.5423                11.0254                11.9843
 Frc consts  --     0.0000                 0.0000                 0.0000
 IR Inten    --     4.2143                 5.5279                 0.3248
 Raman Activ --     0.0000                 0.0000                 0.0000
 Depolar     --     0.0000                 0.0000                 0.0000
 Atom AN      X      Y      Z        X      Y      Z        X      Y      Z
   1   8     0.06  -0.18  -0.04    -0.01   0.03   0.03    -0.04   0.01   0.01
   2  16    -0.00  -0.17  -0.08     0.00   0.02   0.05    -0.08   0.04   0.01
   3   8    -0.10  -0.13  -0.10    -0.02   0.01   0.06    -0.08   0.02  -0.00
   4   6     0.03  -0.11  -0.04     0.00  -0.01   0.02    -0.03   0.02   0.01
   5   6     0.16  -0.15  -0.00     0.05  -0.03   0.02    -0.07   0.03   0.00
   6   6     0.18  -0.15   0.01     0.02  -0.04   0.00    -0.05   0.03   0.00
   7   6     0.07  -0.11  -0.02    -0.07  -0.02  -0.01     0.01   0.01   0.02
   8   6    -0.06  -0.07  -0.06    -0.12  -0.01  -0.00     0.05  -0.00   0.03
   9   6    -0.08  -0.07  -0.07    -0.09  -0.00   0.01     0.03   0.00   0.02
  10   6     0.01  -0.02  -0.02     0.01   0.03  -0.03    -0.04   0.05   0.02
  11   6    -0.02   0.00   0.07     0.02   0.04  -0.28    -0.07   0.07   0.11
  12   6    -0.01   0.03   0.11     0.03   0.05  -0.36    -0.06   0.09   0.13
  13   6     0.02   0.03   0.08     0.04   0.06  -0.20    -0.03   0.10   0.05
  14   6     0.05   0.01  -0.00     0.03   0.05   0.03    -0.00   0.08  -0.05
  15   6     0.05   0.02  -0.02     0.03   0.06   0.13     0.03   0.08  -0.10
  16   7     0.04   0.03  -0.04     0.02   0.07   0.21     0.04   0.08  -0.14
  17   6     0.02   0.02   0.00     0.01   0.07   0.14     0.04   0.07  -0.10
  18   6     0.00   0.04   0.04     0.01   0.07   0.06     0.05   0.06  -0.05
  19   6     0.00   0.00   0.23     0.04   0.10  -0.07     0.07   0.05   0.03
  20   6     0.00   0.00   0.29     0.05   0.09  -0.19     0.08   0.02   0.12
  21   6    -0.00   0.03   0.17     0.04   0.06  -0.16     0.08   0.01   0.11
  22   6    -0.01   0.07  -0.03     0.02   0.03  -0.02     0.06   0.02   0.03
  23  16    -0.05   0.07  -0.13     0.00  -0.04  -0.01     0.10   0.02   0.02
  24   8    -0.10  -0.07  -0.05    -0.03  -0.07   0.01     0.07   0.06   0.00
  25   8     0.01   0.05  -0.22     0.04  -0.05  -0.05     0.08  -0.01   0.06
  26   6    -0.03   0.11   0.01    -0.01  -0.01   0.02     0.03  -0.02  -0.02
  27   6    -0.16   0.07  -0.08    -0.09  -0.09  -0.05     0.10   0.05   0.03
  28   6    -0.18   0.09  -0.05    -0.08  -0.09  -0.05     0.06   0.04   0.02
  29   6    -0.07   0.15   0.07     0.02  -0.01   0.01    -0.05  -0.04  -0.04
  30   6     0.06   0.20   0.17     0.11   0.06   0.08    -0.11  -0.11  -0.10
  31   6     0.08   0.18   0.14     0.09   0.06   0.08    -0.07  -0.09  -0.08
  32   6    -0.00   0.08  -0.10     0.00   0.03   0.08     0.05   0.05  -0.05
  33   7     0.01   0.01   0.02     0.01   0.06   0.13     0.04   0.09  -0.10
  34   6     0.02  -0.00   0.01     0.02   0.05   0.11     0.03   0.09  -0.09
  35   6     0.02  -0.01   0.00     0.01   0.02   0.07     0.02   0.06  -0.05
  36   6     0.03  -0.01  -0.02    -0.01   0.02  -0.03    -0.02   0.05  -0.04
  37   6     0.03  -0.00  -0.03    -0.01   0.00  -0.11    -0.03   0.00   0.01
  38   6     0.03   0.00  -0.03     0.00  -0.02  -0.10    -0.00  -0.03   0.05
  39   6     0.02   0.00  -0.01     0.02  -0.01   0.00     0.04  -0.01   0.02
  40  16     0.01   0.02   0.00     0.06  -0.04   0.00     0.12  -0.08   0.03
  41   8     0.02   0.03   0.01     0.03  -0.03  -0.02     0.06  -0.08   0.00
  42   8    -0.00   0.02   0.00     0.06  -0.04  -0.00     0.11  -0.07   0.02
  43   6    -0.01   0.00  -0.00     0.00  -0.04   0.02     0.04  -0.07   0.02
  44   6     0.02   0.02  -0.00     0.04  -0.01   0.02     0.06  -0.06   0.02
  45   6    -0.00   0.00  -0.01    -0.04  -0.06   0.02    -0.09  -0.16   0.02
  46   6    -0.06  -0.03  -0.01    -0.17  -0.14   0.03    -0.28  -0.27   0.02
  47   6    -0.08  -0.04  -0.01    -0.20  -0.17   0.03    -0.29  -0.27   0.02
  48   6    -0.06  -0.02  -0.01    -0.11  -0.11   0.02    -0.14  -0.18   0.02
  49   6     0.02  -0.01   0.01     0.03   0.00   0.09     0.05   0.02  -0.02
  50   7     0.04   0.00   0.00     0.03   0.05   0.12     0.03   0.09  -0.09
  51   6     0.05  -0.01  -0.06     0.02   0.04   0.12    -0.01   0.05  -0.06
  52   1     0.07  -0.05   0.01     0.03  -0.01   0.01    -0.03   0.01  -0.00
  53   1     0.08  -0.05   0.01     0.02  -0.01  -0.00    -0.02   0.01  -0.00
  54   1     0.02  -0.03  -0.00    -0.03  -0.01  -0.01     0.01   0.00   0.01
  55   1    -0.04  -0.01  -0.02    -0.06   0.00  -0.00     0.03  -0.00   0.01
  56   1    -0.06  -0.01  -0.03    -0.04   0.00   0.00     0.02  -0.00   0.01
  57   1    -0.01  -0.00   0.03     0.01   0.01  -0.11    -0.03   0.02   0.05
  58   1    -0.01   0.01   0.05     0.01   0.02  -0.16    -0.03   0.03   0.06
  59   1     0.01   0.02   0.03     0.01   0.02  -0.08    -0.01   0.03   0.02
  60   1     0.00  -0.01   0.10     0.01   0.04  -0.03     0.02   0.02   0.01
  61   1    -0.00  -0.01   0.13     0.02   0.03  -0.09     0.03   0.00   0.05
  62   1    -0.00   0.01   0.06     0.02   0.01  -0.07     0.03  -0.00   0.05
  63   1    -0.07   0.00  -0.05    -0.05  -0.04  -0.03     0.05   0.03   0.02
  64   1    -0.08   0.02  -0.04    -0.04  -0.04  -0.03     0.03   0.03   0.02
  65   1    -0.03   0.05   0.03     0.01  -0.00   0.00    -0.02  -0.01  -0.01
  66   1     0.04   0.07   0.08     0.05   0.04   0.04    -0.06  -0.05  -0.04
  67   1     0.05   0.06   0.06     0.04   0.03   0.04    -0.04  -0.04  -0.04
  68   1     0.00   0.03  -0.07    -0.01   0.00   0.05     0.01   0.02  -0.03
  69   1     0.01  -0.00  -0.01    -0.01   0.01  -0.01    -0.01   0.02  -0.02
  70   1     0.01   0.00  -0.01    -0.01  -0.00  -0.06    -0.02  -0.00   0.01
  71   1     0.01   0.00  -0.01     0.00  -0.01  -0.05    -0.00  -0.02   0.02
  72   1     0.02   0.01  -0.00     0.04   0.01   0.00     0.06   0.00   0.01
  73   1     0.01   0.00  -0.00    -0.01  -0.01   0.01    -0.02  -0.04   0.01
  74   1    -0.02  -0.01  -0.00    -0.07  -0.05   0.01    -0.12  -0.10   0.00
  75   1    -0.04  -0.02  -0.00    -0.09  -0.07   0.01    -0.13  -0.10   0.00
  76   1    -0.02  -0.01  -0.00    -0.04  -0.04   0.01    -0.04  -0.05   0.01
  77   1     0.00  -0.00   0.01     0.01   0.00   0.05     0.02   0.01  -0.01
  78   1     0.02  -0.01  -0.04     0.00   0.01   0.09     0.00   0.01  -0.04
                     13                     14                     15
                        a                      a                      a 
 Frequencies --    47.3399                54.7709                70.4995
 Red. masses --    12.1835                14.4801                14.5190
 Frc consts  --     0.0000                 0.0000                 0.0000
 IR Inten    --     1.6047                 1.8304                21.6843
 Raman Activ --     0.0000                 0.0000                 0.0000
 Depolar     --     0.0000                 0.0000                 0.0000
 Atom AN      X      Y      Z        X      Y      Z        X      Y      Z
   1   8     0.07   0.00   0.10    -0.08   0.01   0.02     0.23  -0.28   0.06
   2  16     0.12  -0.01   0.13    -0.04   0.09  -0.05     0.13  -0.14   0.02
   3   8     0.13   0.00   0.08     0.02   0.07  -0.12    -0.09  -0.12  -0.13
   4   6     0.01   0.03   0.07    -0.00   0.15   0.02     0.07  -0.04   0.03
   5   6    -0.12   0.07   0.04    -0.06   0.16   0.09    -0.05  -0.00   0.05
   6   6    -0.21   0.09   0.03    -0.02   0.22   0.13    -0.14   0.06   0.05
   7   6    -0.17   0.09   0.03     0.08   0.26   0.11    -0.10   0.08   0.04
   8   6    -0.04   0.05   0.06     0.14   0.25   0.04     0.04   0.04   0.02
   9   6     0.06   0.02   0.08     0.09   0.19  -0.00     0.12  -0.02   0.02
  10   6     0.07  -0.03   0.06    -0.04   0.01  -0.03     0.10   0.07   0.07
  11   6     0.09  -0.04  -0.04    -0.03   0.00  -0.02     0.09   0.08   0.04
  12   6     0.09  -0.05  -0.11    -0.03  -0.01   0.01     0.10   0.08   0.00
  13   6     0.08  -0.05  -0.09    -0.05  -0.01   0.04     0.11   0.08  -0.02
  14   6     0.06  -0.04   0.01    -0.06  -0.01   0.02     0.11   0.07   0.01
  15   6     0.06  -0.04   0.01    -0.05  -0.00   0.04     0.07   0.07  -0.03
  16   7     0.06  -0.04   0.02    -0.04  -0.02   0.01     0.03   0.12   0.04
  17   6     0.05  -0.04  -0.00    -0.01  -0.02   0.01    -0.02   0.11  -0.02
  18   6     0.03  -0.02  -0.00     0.02  -0.05  -0.01    -0.04   0.12   0.02
  19   6     0.01  -0.04   0.12     0.07  -0.06   0.08    -0.01   0.14  -0.07
  20   6    -0.00  -0.03   0.14     0.10  -0.10   0.08     0.02   0.11  -0.06
  21   6     0.00   0.01   0.05     0.08  -0.13  -0.01     0.01   0.07   0.01
  22   6     0.02   0.04  -0.07     0.03  -0.12  -0.10    -0.02   0.05   0.09
  23  16     0.02   0.05  -0.10     0.01  -0.25  -0.21    -0.14  -0.12   0.01
  24   8     0.05   0.06  -0.08    -0.04  -0.26  -0.12    -0.31  -0.14   0.02
  25   8     0.03  -0.00  -0.01     0.04  -0.17  -0.25     0.04  -0.16  -0.15
  26   6    -0.11   0.00  -0.08     0.02  -0.07  -0.03    -0.05  -0.06   0.02
  27   6    -0.19   0.02  -0.13    -0.02   0.00  -0.05     0.00  -0.06   0.06
  28   6    -0.32  -0.01  -0.15    -0.01   0.08   0.05     0.07  -0.05   0.07
  29   6    -0.36  -0.06  -0.11     0.02   0.08   0.16     0.08  -0.03   0.04
  30   6    -0.27  -0.07  -0.05     0.06   0.00   0.18     0.02  -0.03  -0.00
  31   6    -0.14  -0.04  -0.03     0.06  -0.07   0.08    -0.04  -0.04  -0.01
  32   6     0.03   0.02  -0.11    -0.01  -0.08  -0.10    -0.04   0.08   0.10
  33   7     0.05  -0.05  -0.01    -0.01   0.01   0.03    -0.03   0.05  -0.12
  34   6     0.05  -0.05  -0.01    -0.02   0.02   0.05     0.01   0.01  -0.14
  35   6     0.06  -0.04  -0.00    -0.02   0.03   0.04    -0.01  -0.03  -0.13
  36   6     0.08  -0.03   0.01    -0.03   0.02  -0.01    -0.02  -0.03   0.01
  37   6     0.09  -0.01   0.03    -0.04   0.01  -0.04    -0.02  -0.04   0.12
  38   6     0.07   0.01   0.03    -0.03   0.00  -0.04    -0.02  -0.04   0.11
  39   6     0.05   0.00   0.01    -0.02   0.00   0.01    -0.01  -0.03  -0.05
  40  16     0.04   0.05   0.00     0.01  -0.03  -0.01    -0.08  -0.00  -0.00
  41   8     0.04   0.06  -0.00    -0.01  -0.04  -0.02     0.00   0.05   0.04
  42   8     0.03   0.05  -0.00     0.02  -0.02  -0.01    -0.13  -0.02   0.02
  43   6     0.00   0.02   0.00     0.01  -0.01  -0.00    -0.05  -0.00  -0.01
  44   6     0.00   0.02   0.00     0.01  -0.01   0.00    -0.05   0.00  -0.01
  45   6    -0.00   0.02   0.00     0.01  -0.01   0.00    -0.03   0.02  -0.00
  46   6    -0.00   0.01   0.00    -0.00  -0.02   0.00     0.00   0.04  -0.00
  47   6    -0.01   0.01   0.00     0.00  -0.02   0.00     0.00   0.03  -0.00
  48   6    -0.00   0.02   0.00     0.01  -0.02   0.00    -0.02   0.01  -0.01
  49   6     0.04  -0.02  -0.01    -0.02   0.02   0.05    -0.00  -0.03  -0.17
  50   7     0.06  -0.05  -0.01    -0.05   0.02   0.06     0.07   0.01  -0.13
  51   6     0.06  -0.03   0.09    -0.06   0.01  -0.00     0.11   0.07   0.07
  52   1    -0.04   0.02   0.01    -0.04   0.04   0.03    -0.02  -0.01   0.02
  53   1    -0.08   0.03   0.00    -0.01   0.07   0.05    -0.07   0.02   0.02
  54   1    -0.07   0.03   0.01     0.03   0.09   0.04    -0.05   0.04   0.01
  55   1    -0.00   0.01   0.02     0.06   0.08   0.01     0.02   0.02   0.00
  56   1     0.05  -0.00   0.03     0.04   0.05  -0.02     0.06  -0.01   0.00
  57   1     0.03  -0.01  -0.02    -0.00   0.00  -0.01     0.03   0.02   0.01
  58   1     0.03  -0.02  -0.06    -0.01  -0.01   0.01     0.03   0.02  -0.01
  59   1     0.02  -0.02  -0.05    -0.02  -0.01   0.02     0.03   0.03  -0.02
  60   1     0.00  -0.02   0.06     0.03  -0.01   0.04    -0.00   0.05  -0.04
  61   1    -0.00  -0.01   0.07     0.04  -0.03   0.04     0.01   0.04  -0.04
  62   1    -0.00   0.01   0.02     0.03  -0.05  -0.00     0.01   0.02   0.00
  63   1    -0.05   0.02  -0.05    -0.01  -0.00  -0.04    -0.00  -0.02   0.02
  64   1    -0.11   0.00  -0.06    -0.01   0.04   0.01     0.03  -0.02   0.03
  65   1    -0.13  -0.02  -0.04     0.01   0.04   0.07     0.04  -0.01   0.01
  66   1    -0.09  -0.03  -0.00     0.03   0.00   0.08     0.01  -0.01  -0.01
  67   1    -0.02  -0.02   0.00     0.03  -0.04   0.03    -0.03  -0.01  -0.01
  68   1     0.01   0.01  -0.06    -0.01  -0.02  -0.05    -0.02   0.02   0.04
  69   1     0.03  -0.01   0.00    -0.01   0.01  -0.00    -0.01  -0.01   0.01
  70   1     0.03  -0.00   0.01    -0.01   0.00  -0.02    -0.01  -0.01   0.07
  71   1     0.02   0.01   0.01    -0.01  -0.00  -0.02    -0.01  -0.01   0.06
  72   1     0.00   0.01   0.00     0.00  -0.00  -0.00    -0.02  -0.00  -0.00
  73   1    -0.00   0.00   0.00     0.00  -0.00   0.00    -0.01   0.01  -0.00
  74   1    -0.00   0.00  -0.00    -0.00  -0.01   0.00     0.01   0.01   0.00
  75   1    -0.00   0.00   0.00    -0.00  -0.01   0.00     0.01   0.01   0.00
  76   1    -0.00   0.01   0.00     0.00  -0.01   0.00    -0.01   0.00  -0.00
  77   1     0.01  -0.01  -0.01    -0.00   0.01   0.02    -0.00  -0.01  -0.08
  78   1     0.01  -0.01   0.05    -0.02   0.00  -0.00     0.03   0.02   0.02
                     16                     17                     18
                        a                      a                      a 
 Frequencies --    85.7626                87.3390                88.2642
 Red. masses --    13.1440                12.3997                11.6798
 Frc consts  --     0.0000                 0.0000                 0.0000
 IR Inten    --     3.1059                 1.2184                10.8017
 Raman Activ --     0.0000                 0.0000                 0.0000
 Depolar     --     0.0000                 0.0000                 0.0000
 Atom AN      X      Y      Z        X      Y      Z        X      Y      Z
   1   8    -0.11   0.02   0.01    -0.09   0.11  -0.07    -0.10   0.12   0.02
   2  16    -0.01  -0.03  -0.02    -0.09   0.06  -0.06     0.01   0.06   0.03
   3   8     0.04  -0.02   0.03     0.05   0.06  -0.03     0.08   0.05   0.10
   4   6     0.03  -0.02   0.01    -0.09   0.05  -0.05     0.04   0.02   0.03
   5   6    -0.15   0.03  -0.04    -0.10   0.05  -0.08     0.24  -0.03   0.11
   6   6    -0.24   0.05  -0.06    -0.03   0.01  -0.07     0.29  -0.01   0.14
   7   6    -0.14   0.02  -0.04     0.07  -0.03  -0.04     0.12   0.07   0.08
   8   6     0.08  -0.04   0.02     0.08  -0.03  -0.02    -0.12   0.14  -0.01
   9   6     0.16  -0.06   0.04    -0.00   0.01  -0.02    -0.16   0.11  -0.03
  10   6    -0.01  -0.06  -0.08    -0.08  -0.06   0.03     0.01  -0.02  -0.06
  11   6    -0.03  -0.05   0.08    -0.07  -0.06  -0.02    -0.01  -0.02   0.09
  12   6    -0.03  -0.05   0.10    -0.08  -0.05   0.03    -0.01  -0.01   0.09
  13   6    -0.02  -0.05  -0.01    -0.08  -0.05   0.09     0.01  -0.01  -0.03
  14   6    -0.01  -0.06  -0.15    -0.08  -0.05   0.12     0.02  -0.01  -0.15
  15   6     0.00  -0.05  -0.14    -0.04  -0.05   0.11     0.02  -0.01  -0.11
  16   7     0.01  -0.06  -0.18    -0.01  -0.07   0.30     0.01  -0.01  -0.03
  17   6     0.02  -0.04  -0.00     0.03  -0.07   0.11     0.01   0.00   0.13
  18   6    -0.02  -0.01   0.04     0.02  -0.06   0.12     0.00   0.01   0.15
  19   6    -0.08  -0.00  -0.07    -0.01  -0.05   0.04    -0.00   0.03   0.02
  20   6    -0.11   0.04  -0.09    -0.04  -0.01  -0.05    -0.01   0.05  -0.09
  21   6    -0.08   0.08  -0.01    -0.03   0.02  -0.06    -0.00   0.05  -0.08
  22   6    -0.04   0.06   0.10     0.00   0.01   0.04    -0.00   0.02   0.07
  23  16    -0.14   0.01   0.06     0.00   0.04   0.00    -0.05  -0.03  -0.03
  24   8    -0.30  -0.08   0.07    -0.06  -0.03   0.02    -0.20  -0.08  -0.01
  25   8     0.00  -0.02  -0.14     0.01   0.06  -0.10     0.04  -0.04  -0.18
  26   6    -0.04   0.04   0.07     0.03   0.06   0.04     0.00  -0.00  -0.00
  27   6    -0.07  -0.05   0.04    -0.04   0.01  -0.02     0.04   0.03   0.03
  28   6    -0.02  -0.07   0.01    -0.07  -0.02  -0.04    -0.04  -0.02  -0.02
  29   6     0.05  -0.00   0.01    -0.03   0.01  -0.01    -0.16  -0.11  -0.11
  30   6     0.07   0.08   0.03     0.05   0.07   0.05    -0.18  -0.13  -0.13
  31   6     0.02   0.10   0.06     0.07   0.09   0.07    -0.10  -0.08  -0.07
  32   6    -0.00   0.02   0.13     0.03  -0.04   0.13     0.00   0.00   0.19
  33   7     0.03  -0.03   0.12     0.05  -0.03  -0.12     0.01  -0.01   0.21
  34   6     0.03  -0.01   0.07     0.04  -0.01  -0.19     0.02  -0.01   0.05
  35   6     0.05   0.03   0.09     0.05   0.03  -0.24     0.02  -0.01   0.01
  36   6     0.09   0.05  -0.04     0.06   0.02  -0.01     0.02  -0.02   0.06
  37   6     0.10   0.07  -0.12     0.06   0.03   0.17     0.02  -0.02   0.00
  38   6     0.08   0.09  -0.07     0.05   0.04   0.14     0.03  -0.02  -0.07
  39   6     0.05   0.08   0.08     0.05   0.04  -0.14     0.03  -0.01  -0.10
  40  16     0.18   0.07   0.04     0.12   0.02  -0.01     0.01  -0.00  -0.02
  41   8     0.04  -0.03  -0.04     0.18   0.04   0.10     0.10   0.05   0.07
  42   8     0.25   0.07  -0.00    -0.06  -0.08   0.04    -0.12  -0.05   0.02
  43   6     0.11   0.04   0.02     0.12   0.03   0.00     0.02   0.00  -0.01
  44   6     0.09   0.00   0.02     0.05   0.00   0.00    -0.00   0.01  -0.01
  45   6     0.02  -0.05   0.01    -0.05  -0.06   0.01    -0.02   0.00   0.00
  46   6    -0.03  -0.07  -0.01    -0.09  -0.09   0.02    -0.02  -0.01   0.02
  47   6     0.00  -0.03  -0.00     0.00  -0.04   0.02     0.01  -0.01   0.01
  48   6     0.07   0.02   0.01     0.10   0.01   0.01     0.03  -0.00  -0.00
  49   6     0.04   0.05   0.16     0.05   0.04  -0.35     0.03  -0.01  -0.07
  50   7     0.01  -0.03  -0.03    -0.01  -0.01  -0.13     0.02  -0.02  -0.10
  51   6    -0.01  -0.06  -0.21    -0.08  -0.06   0.12     0.02  -0.02  -0.20
  52   1    -0.06   0.02  -0.02    -0.04   0.03  -0.03     0.09  -0.03   0.04
  53   1    -0.11   0.03  -0.03    -0.01   0.00  -0.02     0.12  -0.01   0.06
  54   1    -0.07   0.01  -0.02     0.04  -0.02  -0.01     0.05   0.02   0.03
  55   1     0.05  -0.02   0.01     0.04  -0.02   0.00    -0.08   0.06  -0.02
  56   1     0.09  -0.03   0.02     0.00   0.00  -0.00    -0.10   0.05  -0.03
  57   1    -0.01  -0.02   0.05    -0.02  -0.02  -0.03    -0.01  -0.00   0.06
  58   1    -0.01  -0.01   0.06    -0.02  -0.01   0.00    -0.01  -0.00   0.06
  59   1    -0.01  -0.02   0.01    -0.02  -0.01   0.03     0.00  -0.00  -0.00
  60   1    -0.03  -0.01  -0.04    -0.01  -0.02   0.01    -0.00   0.01  -0.00
  61   1    -0.04   0.01  -0.05    -0.02  -0.00  -0.03    -0.00   0.02  -0.06
  62   1    -0.03   0.03  -0.01    -0.01   0.02  -0.04    -0.00   0.02  -0.06
  63   1    -0.04  -0.03   0.02    -0.02  -0.01  -0.01     0.04   0.02   0.03
  64   1    -0.01  -0.04  -0.00    -0.04  -0.02  -0.03    -0.00  -0.00  -0.00
  65   1     0.02  -0.00  -0.00    -0.02  -0.00  -0.01    -0.07  -0.05  -0.05
  66   1     0.04   0.04   0.01     0.03   0.03   0.02    -0.08  -0.06  -0.06
  67   1     0.01   0.05   0.02     0.04   0.04   0.03    -0.03  -0.03  -0.02
  68   1     0.01   0.00   0.06     0.02  -0.01   0.06     0.00  -0.00   0.09
  69   1     0.03   0.01  -0.03     0.02   0.00   0.02     0.00  -0.00   0.04
  70   1     0.04   0.02  -0.07     0.02   0.01   0.11     0.01  -0.00   0.01
  71   1     0.03   0.04  -0.05     0.01   0.01   0.10     0.01  -0.00  -0.03
  72   1     0.04   0.00   0.01     0.02   0.00  -0.00    -0.00   0.00  -0.01
  73   1    -0.00  -0.02   0.00    -0.04  -0.03   0.00    -0.01   0.00   0.00
  74   1    -0.03  -0.03  -0.00    -0.05  -0.04   0.01    -0.01  -0.00   0.01
  75   1    -0.01  -0.01  -0.00    -0.01  -0.02   0.01     0.00  -0.00   0.01
  76   1     0.03   0.02   0.00     0.04   0.01   0.00     0.01  -0.00  -0.00
  77   1     0.00   0.01   0.08     0.01   0.01  -0.16     0.01  -0.00  -0.03
  78   1    -0.00  -0.02  -0.09    -0.02  -0.02   0.05     0.01  -0.01  -0.09
                     19                     20                     21
                        a                      a                      a 
 Frequencies --    96.3733               108.2426               117.2658
 Red. masses --    13.1530                13.6928                12.4745
 Frc consts  --     0.0000                 0.0000                 0.0000
 IR Inten    --     3.0872                 2.5757                 1.5250
 Raman Activ --     0.0000                 0.0000                 0.0000
 Depolar     --     0.0000                 0.0000                 0.0000
 Atom AN      X      Y      Z        X      Y      Z        X      Y      Z
   1   8     0.10   0.00  -0.01     0.10  -0.05   0.00    -0.04   0.02  -0.01
   2  16     0.04   0.03   0.01     0.05  -0.03   0.02    -0.01  -0.01  -0.01
   3   8     0.02   0.02  -0.02    -0.03  -0.03   0.01     0.00  -0.01   0.03
   4   6    -0.02   0.02  -0.01     0.02  -0.03   0.00     0.01  -0.02  -0.01
   5   6     0.13  -0.02   0.04     0.06  -0.04   0.03    -0.02  -0.01  -0.00
   6   6     0.22  -0.03   0.07     0.06  -0.02   0.05    -0.04   0.01  -0.00
   7   6     0.14   0.01   0.04     0.02   0.01   0.02    -0.03   0.01  -0.01
   8   6    -0.06   0.06  -0.02    -0.03   0.02  -0.01     0.02  -0.00  -0.01
   9   6    -0.14   0.07  -0.04    -0.03  -0.00  -0.02     0.04  -0.02  -0.01
  10   6     0.02   0.01   0.08     0.03   0.02   0.03    -0.01  -0.01  -0.04
  11   6     0.05  -0.01  -0.05     0.05   0.00   0.04    -0.03   0.00   0.11
  12   6     0.04  -0.04  -0.07     0.05  -0.03   0.00    -0.03   0.02   0.10
  13   6     0.01  -0.04   0.01     0.02  -0.04  -0.04     0.00   0.02  -0.04
  14   6    -0.02  -0.02   0.12    -0.01  -0.02  -0.04     0.02   0.01  -0.12
  15   6    -0.04  -0.03   0.09    -0.04  -0.02  -0.03     0.03   0.01  -0.08
  16   7    -0.04  -0.03   0.10    -0.04  -0.02  -0.01     0.01   0.03   0.22
  17   6    -0.03  -0.03  -0.09    -0.05  -0.01   0.05     0.00   0.02   0.22
  18   6    -0.04  -0.02  -0.06    -0.07   0.00   0.03     0.02   0.01   0.25
  19   6    -0.07  -0.03  -0.06    -0.06  -0.01   0.08     0.06   0.03   0.19
  20   6    -0.09  -0.02   0.02    -0.06  -0.00   0.01     0.07   0.04  -0.05
  21   6    -0.07  -0.01   0.08    -0.07   0.00  -0.09     0.05   0.02  -0.19
  22   6    -0.05   0.00   0.06    -0.09   0.01  -0.12     0.02  -0.01  -0.05
  23  16    -0.12  -0.03   0.01    -0.18  -0.08  -0.08     0.05  -0.02  -0.07
  24   8    -0.19  -0.04   0.01     0.07   0.20  -0.15     0.15   0.10  -0.09
  25   8    -0.05  -0.03  -0.08    -0.12  -0.19   0.33     0.01  -0.05   0.12
  26   6    -0.04  -0.01   0.01    -0.25  -0.15  -0.16    -0.03  -0.05  -0.08
  27   6     0.02   0.00   0.04    -0.14  -0.09  -0.08    -0.05  -0.01  -0.09
  28   6     0.03  -0.01   0.02     0.07   0.05   0.07    -0.03   0.04  -0.02
  29   6    -0.03  -0.05  -0.04     0.18   0.13   0.14     0.02   0.07   0.06
  30   6    -0.08  -0.06  -0.08     0.03   0.04   0.02     0.03   0.03   0.06
  31   6    -0.09  -0.04  -0.05    -0.18  -0.10  -0.12     0.00  -0.03  -0.01
  32   6    -0.04  -0.01  -0.01    -0.08   0.01  -0.08     0.00  -0.01   0.17
  33   7    -0.01  -0.02  -0.28    -0.03   0.00   0.11     0.00   0.01   0.08
  34   6    -0.01  -0.02  -0.14    -0.02   0.00   0.02     0.01  -0.01  -0.13
  35   6     0.00   0.03  -0.08     0.01   0.05  -0.01    -0.00  -0.04  -0.14
  36   6     0.05   0.04  -0.20     0.04   0.06   0.06    -0.01  -0.04  -0.22
  37   6     0.05   0.07  -0.06     0.05   0.09   0.02    -0.01  -0.04  -0.07
  38   6     0.01   0.09   0.16     0.03   0.11  -0.05    -0.02  -0.05   0.16
  39   6    -0.02   0.09   0.22     0.01   0.11  -0.10    -0.02  -0.05   0.17
  40  16     0.09   0.06   0.09     0.15   0.05  -0.02    -0.09  -0.01   0.09
  41   8    -0.15  -0.10  -0.14     0.15  -0.02   0.07    -0.22   0.01  -0.14
  42   8     0.38   0.13  -0.02     0.00  -0.05   0.02     0.20   0.05  -0.01
  43   6     0.05   0.03   0.06     0.17   0.07  -0.01    -0.14  -0.04   0.08
  44   6     0.06  -0.02   0.05     0.11   0.04  -0.00    -0.06  -0.07   0.07
  45   6     0.04  -0.05  -0.00    -0.03  -0.04   0.01     0.06  -0.03  -0.01
  46   6     0.00  -0.04  -0.04    -0.10  -0.09   0.02     0.09   0.04  -0.06
  47   6    -0.01   0.01  -0.03     0.00  -0.04   0.02    -0.02   0.06  -0.05
  48   6     0.01   0.04   0.02     0.13   0.03   0.01    -0.13   0.02   0.03
  49   6    -0.03   0.05   0.11    -0.00   0.08  -0.10    -0.01  -0.05   0.02
  50   7    -0.03  -0.02   0.00    -0.03  -0.01  -0.04     0.04  -0.00  -0.26
  51   6    -0.02   0.00   0.17     0.00   0.01  -0.01     0.02  -0.01  -0.15
  52   1     0.05  -0.02   0.02     0.02  -0.02   0.01    -0.00  -0.01   0.00
  53   1     0.09  -0.02   0.03     0.02  -0.01   0.02    -0.02   0.00  -0.00
  54   1     0.06  -0.00   0.02     0.01   0.01   0.01    -0.02   0.01  -0.00
  55   1    -0.04   0.03  -0.01    -0.02   0.01  -0.01     0.01   0.00  -0.00
  56   1    -0.08   0.03  -0.03    -0.02   0.00  -0.01     0.02  -0.01  -0.00
  57   1     0.02  -0.00  -0.04     0.02   0.00   0.02    -0.02  -0.00   0.07
  58   1     0.02  -0.02  -0.05     0.02  -0.01   0.00    -0.01   0.01   0.06
  59   1     0.00  -0.02  -0.01     0.00  -0.02  -0.02     0.00   0.01  -0.01
  60   1    -0.02  -0.01  -0.03    -0.02  -0.01   0.05     0.02   0.01   0.08
  61   1    -0.03  -0.01   0.01    -0.01  -0.00   0.01     0.03   0.02  -0.04
  62   1    -0.02  -0.00   0.04    -0.02  -0.00  -0.03     0.02   0.01  -0.11
  63   1     0.02   0.01   0.03    -0.06  -0.04  -0.03    -0.02  -0.01  -0.04
  64   1     0.02  -0.00   0.02     0.05   0.03   0.04    -0.01   0.02  -0.01
  65   1    -0.01  -0.02  -0.02     0.11   0.08   0.08     0.02   0.03   0.03
  66   1    -0.04  -0.02  -0.04     0.03   0.03   0.02     0.02   0.01   0.04
  67   1    -0.04  -0.01  -0.02    -0.08  -0.04  -0.05     0.01  -0.02  -0.00
  68   1    -0.00  -0.00  -0.01    -0.03   0.00  -0.03    -0.01  -0.01   0.07
  69   1     0.02   0.01  -0.12     0.01   0.01   0.04    -0.00  -0.01  -0.12
  70   1     0.02   0.02  -0.04     0.02   0.03   0.02    -0.00  -0.01  -0.03
  71   1     0.01   0.04   0.07     0.01   0.04  -0.02    -0.01  -0.02   0.08
  72   1     0.03  -0.01   0.03     0.04   0.02  -0.00    -0.02  -0.03   0.04
  73   1     0.02  -0.03  -0.00    -0.03  -0.02   0.00     0.04  -0.02  -0.00
  74   1    -0.00  -0.02  -0.02    -0.07  -0.05   0.01     0.06   0.02  -0.03
  75   1    -0.01   0.01  -0.02    -0.01  -0.02   0.01    -0.00   0.03  -0.03
  76   1    -0.00   0.03   0.01     0.05   0.01   0.00    -0.06   0.02   0.01
  77   1    -0.02   0.01   0.05    -0.01   0.02  -0.04    -0.00  -0.01   0.01
  78   1    -0.01   0.00   0.07    -0.00   0.01  -0.01     0.01  -0.00  -0.07
                     22                     23                     24
                        a                      a                      a 
 Frequencies --   119.4831               130.7430               136.8978
 Red. masses --    13.0198                11.7941                13.0154
 Frc consts  --     0.0000                 0.0000                 0.0000
 IR Inten    --     0.7980                 1.6881                 2.1019
 Raman Activ --     0.0000                 0.0000                 0.0000
 Depolar     --     0.0000                 0.0000                 0.0000
 Atom AN      X      Y      Z        X      Y      Z        X      Y      Z
   1   8    -0.29   0.22  -0.08     0.17  -0.06  -0.01     0.01   0.00  -0.01
   2  16    -0.09  -0.02  -0.05    -0.09   0.08   0.03     0.00  -0.00  -0.00
   3   8     0.15   0.01   0.17     0.04   0.07  -0.24    -0.00  -0.00   0.01
   4   6    -0.02  -0.04  -0.03    -0.29   0.18  -0.03    -0.00  -0.00  -0.00
   5   6    -0.02  -0.05   0.02    -0.19   0.15  -0.08    -0.00  -0.00  -0.00
   6   6     0.00   0.01   0.06     0.06   0.00  -0.07    -0.00  -0.00   0.00
   7   6     0.02   0.05   0.03     0.23  -0.11   0.01    -0.00   0.00  -0.00
   8   6     0.02   0.05  -0.03     0.05  -0.06   0.05     0.00   0.00  -0.00
   9   6    -0.01   0.00  -0.06    -0.22   0.09   0.03     0.00  -0.00  -0.00
  10   6    -0.07  -0.13  -0.13    -0.08  -0.04   0.29     0.00  -0.00   0.00
  11   6    -0.13  -0.07  -0.14    -0.09  -0.03   0.20    -0.00  -0.00   0.03
  12   6    -0.12   0.04   0.01    -0.06  -0.00  -0.05    -0.00  -0.00   0.01
  13   6    -0.03   0.07   0.14    -0.01   0.00  -0.22     0.00  -0.00  -0.02
  14   6     0.06   0.00   0.09    -0.00  -0.02  -0.05    -0.00  -0.00  -0.03
  15   6     0.12   0.01   0.11     0.05  -0.01  -0.13     0.00  -0.00  -0.01
  16   7     0.12   0.03   0.04     0.07  -0.03  -0.16     0.00  -0.00   0.07
  17   6     0.07   0.02  -0.08     0.05  -0.02  -0.01     0.00  -0.00   0.03
  18   6     0.03   0.08  -0.10     0.03   0.01   0.02     0.00  -0.00   0.05
  19   6    -0.00   0.07  -0.07     0.00   0.01  -0.01     0.01  -0.00   0.03
  20   6    -0.02   0.08   0.03    -0.02   0.04  -0.02     0.01   0.00  -0.01
  21   6     0.00   0.11   0.09    -0.00   0.07  -0.01     0.01   0.00  -0.03
  22   6     0.02   0.13   0.02     0.02   0.06   0.03     0.00  -0.00   0.01
  23  16    -0.08  -0.02  -0.00    -0.01   0.01   0.00     0.01  -0.00  -0.01
  24   8    -0.16   0.10  -0.05    -0.08   0.04  -0.02     0.01   0.02  -0.02
  25   8     0.11  -0.20   0.09     0.08  -0.09   0.02     0.01  -0.01   0.01
  26   6    -0.15  -0.07  -0.07    -0.06  -0.02  -0.02     0.00  -0.01  -0.02
  27   6    -0.09  -0.06  -0.02    -0.05  -0.03  -0.01    -0.00   0.00  -0.02
  28   6     0.05   0.02   0.05     0.00  -0.00   0.01    -0.01   0.01  -0.01
  29   6     0.12   0.07   0.08     0.05   0.03   0.03    -0.00   0.01   0.01
  30   6     0.02   0.03   0.01     0.03   0.03   0.02     0.00   0.00   0.01
  31   6    -0.11  -0.04  -0.06    -0.03   0.01  -0.01     0.01  -0.01  -0.00
  32   6     0.04   0.12  -0.07     0.04   0.04   0.03     0.00  -0.01   0.05
  33   7     0.07  -0.02  -0.15     0.05  -0.03   0.12     0.01  -0.00  -0.05
  34   6     0.08  -0.04  -0.00     0.05  -0.02   0.03     0.00   0.00  -0.05
  35   6     0.07  -0.09   0.01     0.04  -0.05   0.07    -0.00  -0.00  -0.01
  36   6     0.07  -0.09   0.00     0.04  -0.05   0.05    -0.00  -0.00  -0.11
  37   6     0.07  -0.10   0.03     0.04  -0.06  -0.02    -0.01  -0.01  -0.03
  38   6     0.08  -0.11   0.04     0.05  -0.07  -0.05    -0.01  -0.01   0.10
  39   6     0.08  -0.11   0.02     0.06  -0.07   0.02    -0.01  -0.01   0.15
  40  16    -0.02  -0.01  -0.01    -0.00  -0.01  -0.00     0.00  -0.02  -0.03
  41   8     0.02   0.10  -0.01     0.02   0.07  -0.01     0.09  -0.38   0.24
  42   8    -0.03   0.05  -0.01    -0.01   0.03  -0.01    -0.14   0.49  -0.06
  43   6    -0.10  -0.05  -0.02    -0.07  -0.04  -0.00     0.05  -0.08  -0.27
  44   6    -0.07  -0.02  -0.01    -0.05  -0.02  -0.00    -0.06   0.11  -0.24
  45   6     0.01   0.03  -0.01     0.01   0.01  -0.00    -0.10   0.20   0.00
  46   6     0.06   0.06  -0.00     0.05   0.04   0.00    -0.04   0.07   0.17
  47   6     0.01   0.02  -0.00     0.00   0.01   0.00     0.06  -0.13   0.14
  48   6    -0.07  -0.04  -0.01    -0.05  -0.03  -0.00     0.11  -0.20  -0.11
  49   6     0.08  -0.11   0.02     0.05  -0.07   0.09    -0.01  -0.01   0.12
  50   7     0.12  -0.03   0.13     0.06  -0.03  -0.09     0.01   0.00  -0.06
  51   6     0.03  -0.11  -0.02    -0.04  -0.04   0.21    -0.00  -0.00  -0.02
  52   1    -0.01  -0.03   0.01    -0.07   0.07  -0.04    -0.00  -0.00   0.00
  53   1    -0.00   0.00   0.03     0.04  -0.01  -0.03    -0.00   0.00   0.00
  54   1     0.01   0.03   0.01     0.14  -0.07   0.01     0.00   0.00   0.00
  55   1     0.01   0.03  -0.02     0.04  -0.04   0.03     0.00   0.00  -0.00
  56   1    -0.00   0.00  -0.03    -0.09   0.04   0.02     0.00  -0.00  -0.00
  57   1    -0.06  -0.03  -0.07    -0.03  -0.01   0.08    -0.00  -0.00   0.02
  58   1    -0.05   0.03   0.01    -0.02   0.00  -0.05    -0.00  -0.00   0.01
  59   1    -0.00   0.04   0.08     0.01   0.01  -0.14     0.00  -0.00  -0.01
  60   1    -0.00   0.02  -0.03    -0.00  -0.00  -0.01     0.00   0.00   0.01
  61   1    -0.01   0.02   0.02    -0.01   0.01  -0.01     0.00   0.00  -0.01
  62   1    -0.00   0.03   0.05    -0.01   0.03  -0.01     0.00   0.00  -0.02
  63   1    -0.04  -0.03  -0.01    -0.02  -0.01  -0.01    -0.00   0.00  -0.01
  64   1     0.03   0.01   0.03     0.00  -0.00   0.01    -0.00   0.00  -0.00
  65   1     0.07   0.04   0.05     0.03   0.02   0.02    -0.00   0.00   0.01
  66   1     0.02   0.02   0.01     0.02   0.02   0.01     0.00   0.00   0.01
  67   1    -0.05  -0.01  -0.03    -0.01   0.00  -0.00     0.00  -0.00   0.00
  68   1     0.02   0.04  -0.03     0.02   0.01   0.01    -0.00  -0.00   0.02
  69   1     0.02  -0.03  -0.00     0.01  -0.01   0.02    -0.00   0.00  -0.07
  70   1     0.02  -0.03   0.01     0.01  -0.02  -0.02    -0.00  -0.00  -0.03
  71   1     0.02  -0.03   0.01     0.02  -0.02  -0.03    -0.00  -0.00   0.04
  72   1    -0.03  -0.01  -0.01    -0.02  -0.01  -0.00    -0.04   0.06  -0.12
  73   1     0.01   0.02  -0.00     0.01   0.01  -0.00    -0.05   0.11   0.01
  74   1     0.04   0.03   0.00     0.03   0.02   0.00    -0.02   0.04   0.10
  75   1     0.01   0.01   0.00     0.01   0.00   0.00     0.03  -0.07   0.08
  76   1    -0.03  -0.02  -0.00    -0.02  -0.01  -0.00     0.06  -0.11  -0.04
  77   1     0.02  -0.03   0.00     0.02  -0.02   0.04    -0.00  -0.00   0.05
  78   1     0.03  -0.05  -0.00    -0.01  -0.02   0.09    -0.00  -0.00  -0.01
                     25                     26                     27
                        a                      a                      a 
 Frequencies --   143.7408               150.7218               178.7861
 Red. masses --    12.9711                12.3980                12.5390
 Frc consts  --     0.0000                 0.0000                 0.0000
 IR Inten    --    14.3233                 5.9066                 2.6922
 Raman Activ --     0.0000                 0.0000                 0.0000
 Depolar     --     0.0000                 0.0000                 0.0000
 Atom AN      X      Y      Z        X      Y      Z        X      Y      Z
   1   8    -0.29  -0.26   0.35     0.04  -0.03   0.01    -0.10   0.02  -0.01
   2  16     0.01   0.07   0.02     0.01   0.01   0.01     0.03  -0.11  -0.01
   3   8     0.11   0.07  -0.39    -0.06  -0.00  -0.01     0.33  -0.04  -0.02
   4   6     0.12   0.23   0.16     0.04  -0.01   0.01    -0.10   0.02  -0.01
   5   6     0.17   0.21  -0.05     0.04  -0.02  -0.00    -0.09   0.02  -0.01
   6   6     0.10   0.01  -0.19     0.01  -0.01  -0.01    -0.03  -0.00   0.00
   7   6    -0.07  -0.15  -0.09    -0.02  -0.02  -0.01     0.05  -0.02   0.02
   8   6    -0.13  -0.13   0.13    -0.01  -0.02  -0.00     0.02  -0.01   0.01
   9   6    -0.02   0.07   0.26     0.01  -0.02   0.01    -0.06   0.01  -0.01
  10   6     0.01  -0.01  -0.14     0.01   0.03  -0.01    -0.02  -0.15   0.03
  11   6     0.01  -0.01  -0.10     0.04   0.01  -0.02    -0.12  -0.06   0.07
  12   6    -0.00  -0.00   0.02     0.03  -0.03  -0.01    -0.08   0.09   0.01
  13   6    -0.01   0.00   0.10    -0.01  -0.04   0.01     0.07   0.12  -0.07
  14   6     0.01  -0.00   0.01    -0.04  -0.01   0.01     0.16   0.03  -0.04
  15   6     0.01  -0.00   0.05    -0.05  -0.01   0.00     0.13   0.03   0.01
  16   7     0.01   0.00   0.06    -0.04  -0.04  -0.04     0.03   0.14   0.09
  17   6     0.00   0.00   0.00     0.01  -0.03  -0.03    -0.09   0.11   0.02
  18   6    -0.00   0.01  -0.01     0.03  -0.05   0.02    -0.11   0.14  -0.04
  19   6    -0.01   0.01   0.00     0.01  -0.01  -0.19     0.00   0.16  -0.07
  20   6    -0.01   0.01   0.01    -0.00  -0.02  -0.05     0.10   0.04   0.00
  21   6    -0.01   0.01  -0.00     0.02  -0.04   0.20     0.05  -0.10   0.08
  22   6    -0.01   0.01  -0.01     0.06  -0.05   0.30    -0.07  -0.11   0.03
  23  16    -0.03  -0.01  -0.01     0.09   0.04  -0.03    -0.06  -0.05  -0.02
  24   8    -0.01   0.02  -0.02    -0.26   0.41  -0.19     0.04   0.03  -0.03
  25   8     0.00  -0.04   0.04     0.16  -0.08   0.05    -0.24   0.15   0.01
  26   6    -0.04  -0.02  -0.02     0.14  -0.10  -0.19     0.14  -0.03  -0.03
  27   6    -0.01  -0.01   0.01     0.05   0.04  -0.25     0.09   0.02  -0.06
  28   6     0.02   0.01   0.02    -0.10   0.14  -0.11    -0.01   0.03  -0.03
  29   6     0.01   0.00   0.01    -0.09   0.09   0.10    -0.05  -0.03   0.02
  30   6    -0.02  -0.01  -0.02     0.03  -0.05   0.17     0.02  -0.07   0.07
  31   6    -0.04  -0.02  -0.02     0.15  -0.16   0.00     0.12  -0.07   0.04
  32   6    -0.01   0.01  -0.02     0.06  -0.06   0.25    -0.15   0.01  -0.03
  33   7     0.01  -0.01  -0.05     0.01  -0.01  -0.05    -0.13   0.00   0.01
  34   6     0.01  -0.01  -0.01    -0.02   0.02   0.01    -0.04  -0.10   0.01
  35   6     0.01  -0.01  -0.02    -0.02   0.03   0.02    -0.04  -0.11   0.01
  36   6     0.02  -0.01  -0.02    -0.04   0.03   0.03     0.06  -0.08   0.03
  37   6     0.02  -0.01   0.01    -0.04   0.02   0.00     0.10   0.02  -0.00
  38   6     0.01  -0.01   0.03    -0.04   0.01  -0.03     0.02   0.11  -0.03
  39   6     0.01  -0.01   0.01    -0.03   0.02  -0.01    -0.08   0.08  -0.01
  40  16     0.01   0.00   0.00    -0.03  -0.01  -0.01    -0.05   0.02   0.01
  41   8     0.01   0.00   0.00    -0.02  -0.02  -0.01    -0.10  -0.16   0.00
  42   8     0.00   0.01  -0.00    -0.02  -0.04   0.00    -0.02  -0.05   0.01
  43   6    -0.00  -0.00  -0.00     0.01   0.01   0.01     0.12   0.10   0.01
  44   6    -0.00  -0.00  -0.00     0.01   0.00   0.01     0.11   0.08   0.01
  45   6    -0.00   0.00  -0.00     0.00  -0.01  -0.00    -0.01   0.00  -0.00
  46   6     0.00   0.00   0.00    -0.01  -0.00  -0.01    -0.10  -0.05  -0.01
  47   6     0.00  -0.00   0.00    -0.00   0.01  -0.00    -0.01   0.03  -0.01
  48   6    -0.00  -0.00  -0.00     0.00   0.01   0.00     0.10   0.10   0.00
  49   6     0.01  -0.01  -0.02    -0.02   0.03   0.01    -0.11  -0.02   0.00
  50   7     0.01  -0.01   0.04    -0.05   0.01   0.04     0.09  -0.08  -0.03
  51   6     0.02  -0.01  -0.12    -0.03   0.02   0.00     0.11  -0.11  -0.01
  52   1     0.07   0.11  -0.04     0.02  -0.00   0.00    -0.03   0.01  -0.01
  53   1     0.04  -0.00  -0.10    -0.00  -0.00  -0.01    -0.00  -0.00   0.00
  54   1    -0.04  -0.08  -0.06    -0.02  -0.00  -0.01     0.04  -0.01   0.01
  55   1    -0.08  -0.08   0.06    -0.01  -0.01  -0.00     0.02  -0.01   0.01
  56   1    -0.02   0.03   0.14     0.00  -0.00   0.01    -0.02   0.00  -0.00
  57   1     0.00  -0.00  -0.04     0.02   0.00  -0.01    -0.07  -0.03   0.04
  58   1    -0.00   0.00   0.02     0.01  -0.02  -0.00    -0.05   0.05   0.00
  59   1    -0.00   0.00   0.07    -0.01  -0.02   0.01     0.03   0.07  -0.03
  60   1    -0.00   0.00   0.00    -0.00   0.00  -0.13     0.01   0.08  -0.03
  61   1    -0.00   0.00   0.00    -0.01  -0.00  -0.05     0.06   0.02   0.00
  62   1    -0.00   0.00   0.00     0.00  -0.01   0.08     0.03  -0.06   0.05
  63   1    -0.00  -0.00   0.00     0.02   0.03  -0.11     0.04   0.02  -0.03
  64   1     0.01   0.00   0.01    -0.06   0.08  -0.05    -0.02   0.02  -0.02
  65   1     0.01   0.00   0.00    -0.05   0.05   0.06    -0.04  -0.01   0.01
  66   1    -0.01  -0.00  -0.01     0.01  -0.03   0.10    -0.00  -0.03   0.04
  67   1    -0.02  -0.01  -0.01     0.08  -0.08   0.02     0.05  -0.04   0.02
  68   1    -0.00   0.01  -0.01     0.02  -0.02   0.10    -0.08  -0.00  -0.01
  69   1     0.01  -0.00  -0.01    -0.01   0.01   0.02     0.04  -0.04   0.02
  70   1     0.01  -0.00   0.00    -0.01   0.00   0.00     0.05   0.01  -0.00
  71   1     0.00  -0.00   0.02    -0.01   0.00  -0.02     0.01   0.06  -0.02
  72   1    -0.00   0.00  -0.00     0.00  -0.00   0.00     0.04   0.03   0.01
  73   1    -0.00   0.00  -0.00    -0.00  -0.00  -0.00    -0.01  -0.01  -0.00
  74   1     0.00   0.00   0.00    -0.00  -0.00  -0.00    -0.07  -0.04  -0.01
  75   1     0.00   0.00   0.00    -0.00   0.00  -0.00    -0.01   0.00  -0.00
  76   1    -0.00  -0.00  -0.00     0.00   0.00   0.00     0.04   0.04   0.00
  77   1     0.00  -0.00  -0.01    -0.01   0.01   0.01    -0.06  -0.01  -0.00
  78   1     0.01  -0.00  -0.05    -0.01   0.01  -0.00     0.06  -0.06   0.00
                     28                     29                     30
                        a                      a                      a 
 Frequencies --   187.1154               187.6878               207.7246
 Red. masses --    12.3316                14.8244                11.2121
 Frc consts  --     0.0000                 0.0000                 0.0000
 IR Inten    --     0.6949                20.3516                 0.8809
 Raman Activ --     0.0000                 0.0000                 0.0000
 Depolar     --     0.0000                 0.0000                 0.0000
 Atom AN      X      Y      Z        X      Y      Z        X      Y      Z
   1   8    -0.04   0.01   0.00    -0.00   0.01  -0.00     0.03  -0.01  -0.00
   2  16     0.01  -0.03  -0.00    -0.04   0.04  -0.00    -0.00   0.01   0.01
   3   8     0.08  -0.01  -0.00    -0.13   0.02   0.01    -0.03   0.00   0.00
   4   6    -0.01  -0.01  -0.00     0.01   0.00   0.00    -0.01   0.00  -0.00
   5   6    -0.01  -0.01   0.00     0.01   0.00  -0.00    -0.01   0.01  -0.00
   6   6     0.00  -0.01   0.01     0.00   0.00  -0.01    -0.00   0.00  -0.00
   7   6     0.01  -0.01   0.01    -0.01   0.00  -0.01     0.01  -0.00   0.00
   8   6    -0.01  -0.00   0.00     0.00   0.00  -0.00     0.00  -0.00   0.00
   9   6    -0.01  -0.00  -0.00     0.01   0.00   0.00    -0.01   0.00   0.00
  10   6     0.00  -0.03   0.01     0.00   0.06  -0.01    -0.00   0.00  -0.00
  11   6     0.01  -0.01  -0.24     0.00   0.06  -0.06     0.00  -0.01   0.15
  12   6    -0.01   0.01  -0.02    -0.00   0.05  -0.00     0.01  -0.03  -0.02
  13   6    -0.00   0.03   0.24    -0.01   0.05   0.06     0.00  -0.04  -0.16
  14   6     0.02   0.01   0.19     0.01   0.03   0.04    -0.02  -0.02  -0.10
  15   6     0.02   0.00  -0.09     0.01   0.02  -0.02    -0.03  -0.01   0.12
  16   7     0.03  -0.00  -0.55    -0.03   0.03  -0.12    -0.02  -0.01   0.19
  17   6     0.00   0.01  -0.02    -0.06   0.04   0.00     0.01  -0.01   0.12
  18   6     0.00   0.02   0.07    -0.09   0.02  -0.00     0.01   0.00  -0.20
  19   6     0.02   0.02   0.08    -0.05   0.02  -0.05    -0.01   0.01  -0.28
  20   6     0.02   0.03  -0.01     0.00  -0.05  -0.01    -0.01  -0.00  -0.02
  21   6     0.02   0.05  -0.08    -0.04  -0.16   0.04     0.01  -0.02   0.26
  22   6     0.02   0.03   0.00    -0.12  -0.17   0.03     0.02   0.03  -0.01
  23  16     0.04   0.00  -0.00    -0.17  -0.05  -0.02     0.04   0.02   0.02
  24   8     0.01   0.01  -0.00    -0.02   0.03  -0.03    -0.03  -0.01   0.02
  25   8     0.06  -0.03  -0.00    -0.40   0.20   0.02     0.10  -0.05  -0.01
  26   6     0.01  -0.00  -0.00     0.09  -0.04  -0.03    -0.01   0.02   0.01
  27   6     0.01   0.00  -0.00     0.06   0.00  -0.05    -0.01   0.01   0.01
  28   6    -0.00  -0.00  -0.00    -0.02   0.02  -0.02     0.01   0.01   0.01
  29   6    -0.00  -0.00   0.00    -0.04  -0.02   0.03     0.01   0.01  -0.01
  30   6     0.00  -0.00   0.01     0.01  -0.05   0.06    -0.01   0.01  -0.03
  31   6     0.01  -0.00   0.01     0.07  -0.07   0.02    -0.01   0.02  -0.01
  32   6     0.01   0.02   0.08    -0.15  -0.11   0.02     0.02   0.05  -0.26
  33   7    -0.03  -0.02   0.39    -0.04   0.07   0.13    -0.01  -0.00   0.42
  34   6    -0.02  -0.03   0.04     0.04   0.02   0.02    -0.01   0.01   0.19
  35   6    -0.02  -0.02  -0.15     0.07  -0.01  -0.04     0.00   0.01  -0.14
  36   6     0.01  -0.01  -0.20     0.06  -0.02  -0.07    -0.00   0.01  -0.26
  37   6     0.01   0.01  -0.04     0.05  -0.06  -0.01    -0.01  -0.00  -0.05
  38   6    -0.03   0.04   0.17     0.11  -0.13   0.07    -0.02  -0.01   0.24
  39   6    -0.06   0.03   0.02     0.17  -0.11   0.02    -0.00  -0.00  -0.00
  40  16    -0.06  -0.01   0.03     0.20   0.05   0.00    -0.00  -0.00   0.01
  41   8    -0.11  -0.14   0.00     0.25   0.30   0.02    -0.01  -0.01   0.00
  42   8     0.00   0.01   0.01     0.14   0.17  -0.01     0.02   0.02   0.00
  43   6     0.03   0.03   0.00    -0.10  -0.11  -0.02    -0.01  -0.00  -0.00
  44   6     0.03   0.03   0.00    -0.10  -0.09  -0.01    -0.01  -0.00  -0.00
  45   6    -0.01   0.01  -0.00     0.01  -0.02   0.01    -0.01   0.00  -0.00
  46   6    -0.04  -0.01  -0.00     0.11   0.03   0.02     0.00   0.00   0.00
  47   6    -0.00   0.02  -0.00     0.02  -0.05   0.02     0.00   0.00   0.00
  48   6     0.03   0.04  -0.00    -0.09  -0.12   0.00    -0.00  -0.00  -0.00
  49   6    -0.05   0.01  -0.19     0.16  -0.09  -0.05     0.01   0.01  -0.24
  50   7    -0.00  -0.03   0.03     0.03   0.01   0.00    -0.03   0.00   0.14
  51   6     0.01  -0.01   0.23     0.01   0.06   0.04    -0.01  -0.01  -0.16
  52   1    -0.00  -0.00   0.00     0.00   0.00  -0.00    -0.00   0.00  -0.00
  53   1     0.00  -0.00   0.00    -0.00   0.00  -0.00    -0.00   0.00  -0.00
  54   1     0.01  -0.00   0.00    -0.01   0.00  -0.00     0.00  -0.00   0.00
  55   1    -0.00   0.00  -0.00    -0.00   0.00  -0.00     0.00  -0.00   0.00
  56   1    -0.00  -0.00  -0.00     0.00   0.00   0.00    -0.00   0.00   0.00
  57   1     0.00  -0.01  -0.15     0.01   0.02  -0.04     0.00  -0.00   0.10
  58   1    -0.00   0.01  -0.02     0.00   0.01  -0.00     0.01  -0.01  -0.00
  59   1    -0.00   0.01   0.11    -0.00   0.02   0.03     0.00  -0.02  -0.07
  60   1     0.01   0.01   0.04    -0.01   0.02  -0.03    -0.01   0.00  -0.12
  61   1     0.01   0.01  -0.01     0.02  -0.01  -0.01    -0.01  -0.01   0.01
  62   1     0.00   0.02  -0.05     0.00  -0.07   0.02     0.00  -0.02   0.17
  63   1     0.00   0.00  -0.00     0.02   0.01  -0.03    -0.00   0.00   0.00
  64   1    -0.00   0.00  -0.00    -0.02   0.02  -0.01     0.01  -0.00   0.00
  65   1    -0.00  -0.00   0.00    -0.03  -0.00   0.01     0.00   0.00  -0.01
  66   1     0.00  -0.00   0.00    -0.00  -0.02   0.03    -0.00   0.00  -0.01
  67   1     0.00  -0.00   0.00     0.03  -0.03   0.01    -0.01   0.01  -0.00
  68   1     0.00   0.00   0.03    -0.07  -0.04   0.01     0.02   0.02  -0.11
  69   1     0.01  -0.01  -0.09     0.02  -0.00  -0.03    -0.00   0.01  -0.11
  70   1     0.01   0.01  -0.01    -0.00  -0.02  -0.00    -0.01  -0.00  -0.01
  71   1    -0.01   0.02   0.12     0.03  -0.06   0.04    -0.01  -0.01   0.16
  72   1     0.01   0.01   0.00    -0.04  -0.03  -0.01    -0.00  -0.00  -0.00
  73   1    -0.01  -0.00  -0.00     0.01   0.01   0.00    -0.00   0.00  -0.00
  74   1    -0.02  -0.01  -0.00     0.07   0.03   0.01     0.00   0.00   0.00
  75   1    -0.00   0.00  -0.00     0.02  -0.01   0.01     0.00   0.00   0.00
  76   1     0.01   0.01  -0.00    -0.03  -0.05  -0.00    -0.00  -0.00  -0.00
  77   1    -0.02   0.00  -0.09     0.06  -0.02  -0.02     0.00   0.00  -0.11
  78   1     0.01  -0.01   0.10    -0.00   0.02   0.02    -0.00   0.00  -0.07
                     31                     32                     33
                        a                      a                      a 
 Frequencies --   213.0442               226.7625               230.7737
 Red. masses --    14.4146                11.8680                10.5723
 Frc consts  --     0.0000                 0.0000                 0.0000
 IR Inten    --    14.0350                 2.3949                 1.6936
 Raman Activ --     0.0000                 0.0000                 0.0000
 Depolar     --     0.0000                 0.0000                 0.0000
 Atom AN      X      Y      Z        X      Y      Z        X      Y      Z
   1   8     0.01  -0.06   0.01     0.07  -0.01  -0.01    -0.10   0.02   0.01
   2  16     0.18  -0.18   0.00     0.01  -0.00   0.02    -0.04   0.02  -0.03
   3   8     0.55  -0.08  -0.05    -0.02  -0.00   0.02    -0.01   0.02  -0.03
   4   6    -0.00  -0.05  -0.00    -0.11   0.02   0.00     0.23  -0.02  -0.01
   5   6    -0.00  -0.05   0.02    -0.14   0.03   0.01     0.32  -0.05  -0.03
   6   6    -0.00  -0.03   0.03    -0.05   0.00   0.03     0.11   0.01  -0.09
   7   6    -0.00  -0.01   0.02     0.08  -0.05   0.06    -0.19   0.11  -0.16
   8   6    -0.00  -0.01  -0.01    -0.00  -0.02   0.04     0.03   0.05  -0.09
   9   6     0.00  -0.03  -0.01    -0.13   0.02   0.01     0.31  -0.02  -0.02
  10   6    -0.00  -0.18   0.04     0.04   0.02  -0.07    -0.11  -0.05   0.19
  11   6    -0.04  -0.14   0.04     0.04   0.01   0.07    -0.19   0.01   0.27
  12   6    -0.03  -0.08  -0.01     0.05  -0.01  -0.06    -0.15   0.07  -0.02
  13   6    -0.02  -0.07  -0.04     0.05  -0.01  -0.10    -0.07   0.08  -0.26
  14   6    -0.04  -0.05   0.00     0.03   0.00  -0.09    -0.03   0.01   0.05
  15   6    -0.06  -0.00  -0.01    -0.00   0.01   0.12     0.01   0.01   0.03
  16   7    -0.07   0.02  -0.05     0.01   0.00  -0.14     0.03  -0.02  -0.09
  17   6    -0.03   0.04  -0.02    -0.00   0.01  -0.10     0.01  -0.01  -0.04
  18   6     0.01   0.01   0.01    -0.00  -0.00   0.09     0.00  -0.02   0.01
  19   6     0.02   0.01   0.01    -0.01  -0.02   0.18    -0.02  -0.03   0.07
  20   6     0.03   0.01  -0.00    -0.01   0.00   0.02    -0.04  -0.01   0.01
  21   6     0.02  -0.01  -0.01    -0.02   0.04  -0.17    -0.04   0.02  -0.07
  22   6    -0.00  -0.01   0.01    -0.01   0.00   0.00    -0.01   0.01  -0.01
  23  16    -0.02   0.00   0.00    -0.01  -0.00  -0.00    -0.02  -0.00  -0.00
  24   8    -0.01   0.00   0.00    -0.01   0.02  -0.01    -0.03   0.02  -0.01
  25   8    -0.03   0.01   0.00    -0.04   0.03  -0.00    -0.02  -0.00   0.01
  26   6    -0.02   0.01   0.00     0.03  -0.02  -0.01     0.02  -0.02  -0.00
  27   6    -0.02   0.00   0.00     0.02  -0.01  -0.01     0.03  -0.00   0.00
  28   6    -0.00   0.00   0.00    -0.00  -0.01  -0.00     0.01  -0.01   0.01
  29   6     0.01   0.01  -0.00    -0.01  -0.02   0.02    -0.02  -0.03   0.01
  30   6    -0.00   0.02  -0.01     0.01  -0.02   0.03    -0.00  -0.03   0.01
  31   6    -0.02   0.02  -0.01     0.03  -0.03   0.02     0.02  -0.02   0.01
  32   6    -0.00  -0.01   0.03    -0.01  -0.01   0.14     0.00  -0.01   0.01
  33   7     0.03   0.18  -0.02     0.02   0.01  -0.27     0.02  -0.02  -0.03
  34   6    -0.01   0.20  -0.01    -0.00   0.01   0.10     0.00  -0.00   0.03
  35   6    -0.02   0.23  -0.01     0.00  -0.02  -0.03     0.01  -0.03   0.00
  36   6    -0.20   0.20  -0.02    -0.04  -0.02  -0.18    -0.02  -0.04  -0.07
  37   6    -0.25   0.06  -0.00    -0.06  -0.06   0.00    -0.02  -0.06  -0.00
  38   6    -0.16  -0.03   0.01    -0.03  -0.10   0.20    -0.01  -0.08   0.08
  39   6     0.01   0.01  -0.01     0.03  -0.08   0.02     0.02  -0.07   0.03
  40  16     0.06   0.01  -0.00     0.01  -0.00  -0.03    -0.00  -0.01  -0.01
  41   8     0.10   0.13   0.01     0.05   0.09  -0.01     0.01   0.04  -0.01
  42   8     0.03   0.04  -0.00    -0.05  -0.08  -0.00    -0.02  -0.04   0.00
  43   6    -0.07  -0.06  -0.01     0.06   0.06  -0.01     0.04   0.05  -0.01
  44   6    -0.07  -0.06  -0.01     0.08   0.10  -0.02     0.06   0.08  -0.01
  45   6     0.00  -0.01   0.00    -0.01   0.04  -0.02    -0.01   0.03  -0.01
  46   6     0.07   0.02   0.01    -0.11  -0.01  -0.02    -0.09  -0.01  -0.02
  47   6    -0.01  -0.03   0.01     0.00   0.04  -0.02    -0.00   0.04  -0.02
  48   6    -0.07  -0.08   0.00     0.08   0.09  -0.02     0.07   0.08  -0.02
  49   6     0.04   0.15  -0.02     0.04  -0.05  -0.04     0.03  -0.06   0.02
  50   7    -0.01   0.18   0.02    -0.01   0.01   0.54     0.01  -0.00   0.13
  51   6    -0.04  -0.16   0.04     0.05   0.02  -0.27    -0.07  -0.04   0.25
  52   1    -0.00  -0.02   0.01    -0.05   0.01   0.00     0.12  -0.01  -0.01
  53   1    -0.00  -0.01   0.01    -0.01  -0.00   0.01     0.03   0.01  -0.02
  54   1     0.00   0.00   0.01     0.07  -0.03   0.03    -0.15   0.06  -0.07
  55   1    -0.00   0.00  -0.00     0.01  -0.01   0.01    -0.02   0.02  -0.03
  56   1     0.01  -0.01  -0.01    -0.05   0.01   0.00     0.12  -0.02  -0.00
  57   1    -0.03  -0.05   0.02     0.01   0.01   0.07    -0.08  -0.00   0.11
  58   1    -0.01  -0.02  -0.01     0.02  -0.00  -0.02    -0.05   0.03  -0.04
  59   1    -0.01  -0.03  -0.02     0.01  -0.01  -0.02    -0.01   0.04  -0.18
  60   1     0.01   0.01  -0.00     0.00  -0.01   0.08    -0.01  -0.02   0.04
  61   1     0.01   0.00  -0.00    -0.00   0.00   0.00    -0.01  -0.00   0.00
  62   1     0.01  -0.01  -0.01    -0.01   0.02  -0.11    -0.01   0.01  -0.04
  63   1    -0.01  -0.00   0.00     0.01  -0.00  -0.00     0.01   0.00   0.00
  64   1     0.00  -0.00   0.00    -0.01   0.00  -0.00     0.00   0.00   0.00
  65   1     0.01   0.00  -0.00    -0.01  -0.00   0.01    -0.01  -0.01  -0.00
  66   1     0.00   0.01  -0.00     0.00  -0.01   0.01    -0.00  -0.01   0.00
  67   1    -0.01   0.01  -0.00     0.01  -0.01   0.01     0.01  -0.01   0.00
  68   1    -0.00  -0.00   0.01    -0.00  -0.01   0.06     0.00  -0.00   0.01
  69   1    -0.09   0.09  -0.01    -0.02   0.00  -0.10    -0.01  -0.01  -0.04
  70   1    -0.10   0.01   0.00    -0.03  -0.02  -0.00    -0.01  -0.02  -0.00
[...]
 Frc consts  --     0.0000                 0.0000                 0.0000
 IR Inten    --     9.1668                10.2976                18.0789
 Raman Activ --     0.0000                 0.0000                 0.0000
 Depolar     --     0.0000                 0.0000                 0.0000
 Atom AN      X      Y      Z        X      Y      Z        X      Y      Z
   1   8     0.00  -0.00  -0.00    -0.00  -0.00  -0.00    -0.00  -0.00  -0.00
   2  16     0.00  -0.00  -0.00    -0.00   0.00   0.00     0.00   0.00   0.00
   3   8    -0.00   0.00   0.00     0.00  -0.00  -0.00    -0.00   0.00  -0.00
   4   6     0.00   0.00  -0.00    -0.00  -0.00   0.00     0.00   0.00  -0.00
   5   6     0.00  -0.00  -0.01    -0.00   0.06   0.10    -0.00   0.00   0.00
   6   6    -0.00  -0.00   0.00     0.01   0.04  -0.00    -0.00  -0.00  -0.00
   7   6     0.00   0.00  -0.00     0.01   0.01  -0.02    -0.00  -0.00   0.00
   8   6     0.00  -0.00  -0.00     0.00  -0.01  -0.01    -0.00   0.00   0.00
   9   6    -0.00  -0.00   0.00    -0.01  -0.03   0.00     0.00   0.00  -0.00
  10   6     0.00  -0.00   0.00    -0.00   0.00  -0.00     0.00  -0.00   0.00
  11   6     0.00  -0.00   0.00     0.00  -0.00   0.00     0.00  -0.00   0.00
  12   6    -0.00  -0.00  -0.00    -0.00  -0.00  -0.00     0.00   0.00   0.00
  13   6     0.01  -0.00   0.00     0.00   0.00   0.00     0.00  -0.00   0.00
  14   6     0.00   0.00   0.00     0.00  -0.00   0.00     0.00   0.00   0.00
  15   6    -0.00   0.00  -0.00    -0.00   0.00   0.00     0.00   0.00  -0.00
  16   7    -0.00  -0.00   0.00     0.00   0.00  -0.00    -0.00  -0.00   0.00
  17   6    -0.00   0.00  -0.00     0.00  -0.00   0.00    -0.00   0.00  -0.00
  18   6    -0.00  -0.00  -0.00     0.00   0.00   0.00    -0.00  -0.00  -0.00
  19   6    -0.00   0.00   0.00     0.00  -0.00  -0.00    -0.00  -0.00   0.00
  20   6     0.00   0.00   0.00    -0.00   0.00   0.00    -0.00   0.00   0.00
  21   6    -0.00  -0.00  -0.00     0.01   0.01   0.00     0.00   0.00   0.00
  22   6    -0.00  -0.00   0.00    -0.00   0.00  -0.00     0.00  -0.00  -0.00
  23  16     0.00  -0.00  -0.00    -0.00   0.00   0.00    -0.00   0.00   0.00
  24   8    -0.00   0.00   0.00     0.00  -0.00  -0.00     0.00  -0.00  -0.00
  25   8    -0.00  -0.00   0.00     0.00   0.00  -0.00     0.00  -0.00   0.00
  26   6    -0.00   0.00  -0.00     0.00  -0.00   0.00     0.00  -0.00   0.00
  27   6     0.00  -0.00  -0.00    -0.00   0.01   0.00     0.00  -0.00  -0.00
  28   6     0.00   0.00  -0.00    -0.02  -0.00   0.03    -0.00  -0.00   0.00
  29   6    -0.00   0.00  -0.00     0.00  -0.03   0.02     0.00  -0.00   0.00
  30   6     0.00  -0.00  -0.00    -0.07   0.08   0.02    -0.00   0.00   0.00
  31   6     0.00   0.00  -0.01    -0.11  -0.02   0.17    -0.00  -0.00   0.01
  32   6     0.00  -0.00  -0.00    -0.00   0.02   0.00     0.00  -0.00  -0.00
  33   7     0.00  -0.00   0.00    -0.00  -0.00  -0.00     0.00  -0.00   0.00
  34   6     0.00   0.00  -0.00    -0.00  -0.00  -0.00     0.00   0.00  -0.00
  35   6    -0.00   0.00  -0.00    -0.00   0.00  -0.00    -0.00   0.00   0.00
  36   6     0.00   0.00   0.00    -0.00  -0.00  -0.00     0.00   0.00   0.00
  37   6    -0.00   0.00   0.00     0.00  -0.00  -0.00    -0.00   0.00   0.00
  38   6     0.00  -0.00   0.00    -0.00  -0.00  -0.00     0.00  -0.00   0.00
  39   6     0.00   0.00   0.00     0.00   0.00   0.00     0.00   0.00   0.00
  40  16     0.00  -0.00  -0.00     0.00  -0.00  -0.00     0.00  -0.00  -0.00
  41   8    -0.00  -0.00   0.00    -0.00  -0.00   0.00    -0.00  -0.00   0.00
  42   8    -0.00   0.00   0.00    -0.00   0.00   0.00     0.00   0.00   0.00
  43   6    -0.00   0.01  -0.00    -0.00   0.00  -0.00     0.00  -0.01   0.00
  44   6     0.01  -0.01  -0.01    -0.00   0.00   0.00     0.10  -0.17  -0.15
  45   6    -0.00   0.00   0.00     0.00  -0.00   0.00    -0.01   0.02  -0.12
  46   6     0.02  -0.02   0.01     0.00  -0.00   0.00    -0.02   0.04  -0.01
  47   6     0.04  -0.06  -0.06     0.00  -0.00  -0.00    -0.01   0.01   0.01
  48   6    -0.03   0.04  -0.26    -0.00   0.00  -0.01     0.00  -0.00   0.01
  49   6    -0.00   0.01   0.00    -0.00   0.00   0.00    -0.00   0.02   0.00
  50   7     0.00  -0.00   0.00     0.00   0.00  -0.00    -0.00  -0.00   0.00
  51   6     0.02   0.02   0.00    -0.04  -0.04  -0.00     0.01   0.01   0.00
  52   1    -0.00   0.01   0.02     0.00  -0.21  -0.35     0.00  -0.00  -0.00
  53   1     0.00   0.01  -0.00    -0.03  -0.11   0.00     0.00   0.01  -0.00
  54   1    -0.00  -0.00   0.00    -0.02  -0.03   0.07     0.00   0.00  -0.00
  55   1    -0.00   0.00   0.01    -0.00   0.03   0.05     0.00  -0.00  -0.00
  56   1     0.00   0.02  -0.00     0.03   0.11  -0.00    -0.00  -0.01   0.00
  57   1    -0.00   0.01  -0.00    -0.00   0.00  -0.00    -0.00   0.01  -0.00
  58   1     0.00   0.00   0.00     0.00   0.00   0.00    -0.00  -0.00  -0.00
  59   1    -0.02   0.01  -0.00    -0.01   0.00  -0.00    -0.01   0.00  -0.00
  60   1     0.01  -0.00  -0.00    -0.01   0.00   0.00     0.00  -0.00  -0.00
  61   1     0.00  -0.00  -0.00     0.00  -0.01  -0.00     0.00  -0.00  -0.00
  62   1     0.01   0.01   0.00    -0.03  -0.02  -0.00    -0.01  -0.01  -0.00
  63   1    -0.00   0.00   0.00     0.02  -0.02  -0.00    -0.00   0.00   0.00
  64   1    -0.00  -0.00   0.00     0.07   0.01  -0.10     0.00   0.00  -0.00
  65   1     0.00  -0.00   0.00    -0.01   0.10  -0.07    -0.00   0.01  -0.00
  66   1    -0.01   0.01   0.00     0.23  -0.25  -0.07     0.01  -0.01  -0.00
  67   1    -0.01  -0.00   0.02     0.39   0.07  -0.59     0.01   0.00  -0.02
  68   1    -0.00   0.01   0.00     0.01  -0.06  -0.01    -0.00   0.00   0.00
  69   1    -0.00  -0.00  -0.00     0.01   0.01   0.00    -0.00  -0.00  -0.00
  70   1     0.00  -0.00  -0.00    -0.00   0.00   0.00     0.00  -0.00  -0.00
  71   1    -0.00   0.00  -0.00     0.00  -0.00   0.00    -0.00   0.00  -0.00
  72   1    -0.03   0.04   0.04     0.00  -0.00  -0.00    -0.36   0.57   0.53
  73   1    -0.00   0.00  -0.01    -0.00   0.00  -0.01     0.03  -0.05   0.39
  74   1    -0.05   0.08  -0.04    -0.00   0.01  -0.00     0.07  -0.12   0.05
  75   1    -0.11   0.18   0.18    -0.01   0.01   0.01     0.02  -0.03  -0.03
  76   1     0.10  -0.14   0.89     0.01  -0.01   0.05    -0.00   0.00  -0.03
  77   1     0.01  -0.05  -0.00     0.00  -0.01  -0.00     0.01  -0.06  -0.00
  78   1    -0.05  -0.05  -0.01     0.15   0.15   0.02    -0.05  -0.05  -0.01
                    223                    224                    225
                        a                      a                      a 
 Frequencies --  3107.9545              3108.6907              3109.8624
 Red. masses --     1.8296                 1.8939                 1.8519
 Frc consts  --     0.0000                 0.0000                 0.0000
 IR Inten    --    27.7387                 0.5795                 2.6418
 Raman Activ --     0.0000                 0.0000                 0.0000
 Depolar     --     0.0000                 0.0000                 0.0000
 Atom AN      X      Y      Z        X      Y      Z        X      Y      Z
   1   8     0.00  -0.00  -0.00    -0.00  -0.00   0.00     0.00   0.00   0.00
   2  16     0.00   0.00   0.00     0.00   0.00   0.00    -0.00  -0.00  -0.00
   3   8    -0.00  -0.00   0.00     0.00  -0.00  -0.00    -0.00   0.00   0.00
   4   6     0.00   0.00  -0.00    -0.00  -0.00   0.00     0.00   0.00  -0.01
   5   6     0.00  -0.03  -0.05    -0.00   0.01   0.02     0.00  -0.11  -0.19
   6   6    -0.01  -0.03   0.00     0.00   0.01  -0.00    -0.02  -0.07   0.00
   7   6    -0.00  -0.00   0.01     0.00   0.00  -0.00    -0.01  -0.01   0.02
   8   6     0.00   0.00   0.00    -0.00   0.00   0.00     0.00   0.00   0.00
   9   6    -0.00  -0.00   0.00     0.00   0.00  -0.00    -0.00   0.00   0.00
  10   6     0.01  -0.00   0.00    -0.00   0.00  -0.00    -0.00   0.00  -0.00
  11   6    -0.00   0.00  -0.00     0.00  -0.00   0.00     0.00   0.00   0.00
  12   6     0.00   0.00   0.00    -0.00  -0.00  -0.00    -0.00  -0.00  -0.00
  13   6    -0.00  -0.00  -0.00     0.00  -0.00   0.00     0.00   0.00  -0.00
  14   6    -0.00   0.01  -0.00     0.00  -0.00   0.00     0.00  -0.00   0.00
  15   6     0.00  -0.00   0.00     0.00   0.00   0.00    -0.00   0.00   0.00
  16   7    -0.00  -0.00  -0.00    -0.00  -0.00   0.00     0.00   0.00  -0.00
  17   6     0.00   0.00   0.00     0.00   0.00  -0.00    -0.00  -0.00   0.00
  18   6    -0.00  -0.00  -0.00     0.00   0.00   0.00    -0.00  -0.00  -0.00
  19   6    -0.00   0.00   0.00     0.11  -0.04  -0.01     0.01  -0.00  -0.00
  20   6     0.00  -0.01  -0.00     0.02  -0.13  -0.02     0.00  -0.01  -0.00
  21   6    -0.03  -0.02  -0.00    -0.18  -0.13  -0.01    -0.01  -0.00  -0.00
  22   6     0.00  -0.00   0.00    -0.01   0.00   0.00     0.00  -0.00   0.00
  23  16    -0.00   0.00   0.00    -0.00  -0.00  -0.00    -0.00   0.00  -0.00
  24   8     0.00  -0.00  -0.00     0.00   0.00   0.00     0.00  -0.00   0.00
  25   8     0.00   0.00   0.00    -0.00   0.00   0.00     0.00   0.00   0.00
  26   6     0.00  -0.00   0.00    -0.00   0.00  -0.00     0.00  -0.00   0.00
  27   6    -0.00   0.00  -0.00    -0.00   0.00   0.00    -0.01   0.01   0.00
  28   6    -0.01  -0.00   0.01     0.00   0.00  -0.00    -0.01  -0.00   0.02
  29   6     0.00  -0.01   0.01    -0.00   0.00  -0.00     0.00  -0.02   0.01
  30   6    -0.03   0.03   0.01     0.00  -0.00  -0.00    -0.03   0.03   0.01
  31   6    -0.05  -0.01   0.07     0.00   0.00  -0.00    -0.05  -0.01   0.07
  32   6     0.00  -0.02  -0.00     0.00  -0.00  -0.00     0.00  -0.02  -0.00
  33   7     0.00   0.00  -0.00    -0.00   0.00   0.00    -0.00  -0.00   0.00
  34   6     0.00   0.00   0.00     0.00   0.00  -0.00    -0.00  -0.00  -0.00
  35   6     0.00  -0.00   0.00    -0.00   0.00  -0.00    -0.00   0.00  -0.00
  36   6     0.01   0.01   0.00    -0.01  -0.01  -0.00    -0.00  -0.00  -0.00
  37   6    -0.00   0.00   0.00     0.00  -0.00  -0.00     0.00  -0.00  -0.00
  38   6     0.00  -0.00   0.00    -0.00   0.00  -0.00    -0.00   0.00  -0.00
  39   6    -0.00  -0.00  -0.00    -0.00   0.00   0.00     0.00   0.00   0.00
  40  16     0.00   0.00   0.00     0.00  -0.00  -0.00    -0.00  -0.00  -0.00
  41   8    -0.00   0.00  -0.00    -0.00  -0.00   0.00     0.00  -0.00  -0.00
  42   8    -0.00  -0.00  -0.00     0.00   0.00   0.00     0.00   0.00   0.00
  43   6    -0.00   0.00  -0.00     0.00  -0.00   0.00     0.00  -0.00   0.00
  44   6    -0.01   0.01   0.01     0.00  -0.00  -0.00     0.00  -0.00  -0.00
  45   6     0.00  -0.00   0.01    -0.00   0.00  -0.00    -0.00   0.00  -0.00
  46   6    -0.00   0.00  -0.00    -0.00   0.00  -0.00     0.00  -0.00   0.00
  47   6    -0.00   0.00   0.00    -0.00   0.00   0.00     0.00  -0.00  -0.00
  48   6     0.00  -0.00   0.02    -0.00   0.00  -0.00    -0.00   0.00  -0.00
  49   6     0.00  -0.02  -0.00    -0.00   0.00   0.00    -0.00   0.00   0.00
  50   7    -0.00  -0.00   0.00     0.00  -0.00   0.00     0.00   0.00  -0.00
  51   6     0.17   0.17   0.02    -0.02  -0.02  -0.00    -0.07  -0.07  -0.01
  52   1     0.00   0.09   0.16     0.00  -0.04  -0.06    -0.01   0.40   0.68
  53   1     0.03   0.09  -0.00    -0.01  -0.02   0.00     0.06   0.20  -0.00
  54   1     0.01   0.01  -0.02    -0.00  -0.00   0.00     0.02   0.03  -0.06
  55   1     0.00  -0.00  -0.00     0.00  -0.00  -0.00     0.00  -0.00  -0.00
  56   1     0.00   0.01  -0.00    -0.00  -0.00   0.00    -0.00  -0.00  -0.00
  57   1     0.00  -0.01   0.00    -0.00   0.01  -0.00     0.00  -0.01   0.00
  58   1    -0.01  -0.01  -0.00     0.00   0.00   0.00     0.00   0.00   0.00
  59   1     0.01  -0.00   0.00    -0.01   0.00  -0.00     0.00  -0.00   0.00
  60   1     0.01  -0.00  -0.00    -0.39   0.14   0.05    -0.03   0.01   0.00
  61   1    -0.01   0.04   0.01    -0.06   0.41   0.07    -0.00   0.02   0.00
  62   1     0.09   0.07   0.01     0.60   0.44   0.05     0.02   0.01   0.00
  63   1     0.01  -0.01  -0.00     0.00  -0.00  -0.00     0.02  -0.02  -0.01
  64   1     0.03   0.00  -0.04    -0.00  -0.00   0.00     0.04   0.01  -0.06
  65   1    -0.00   0.05  -0.03     0.00  -0.00   0.00    -0.01   0.06  -0.05
  66   1     0.10  -0.11  -0.03    -0.01   0.01   0.00     0.10  -0.11  -0.03
  67   1     0.17   0.03  -0.25    -0.01  -0.00   0.02     0.16   0.03  -0.25
  68   1    -0.01   0.08   0.02    -0.00   0.01   0.00    -0.01   0.06   0.01
  69   1    -0.03  -0.03  -0.00     0.02   0.02   0.00     0.01   0.01   0.00
  70   1     0.00  -0.01  -0.00    -0.00   0.01   0.00    -0.00   0.00   0.00
  71   1    -0.01   0.00  -0.00     0.01  -0.00   0.00     0.00  -0.00   0.00
  72   1     0.03  -0.05  -0.04    -0.01   0.01   0.01    -0.01   0.01   0.01
  73   1    -0.00   0.00  -0.03     0.00  -0.00   0.01     0.00  -0.00   0.01
  74   1     0.00  -0.00   0.00     0.00  -0.00   0.00    -0.00   0.00  -0.00
  75   1     0.01  -0.01  -0.01     0.00  -0.00  -0.00    -0.00   0.00   0.00
  76   1    -0.01   0.01  -0.05     0.00  -0.00   0.00     0.00  -0.00   0.01
  77   1    -0.01   0.05   0.00     0.00  -0.01  -0.00     0.00  -0.02  -0.00
  78   1    -0.60  -0.60  -0.06     0.06   0.06   0.01     0.24   0.25   0.03
                    226                    227                    228
                        a                      a                      a 
 Frequencies --  3114.6752              3116.6449              3119.3413
 Red. masses --     1.8541                 1.8576                 1.8945
 Frc consts  --     0.0000                 0.0000                 0.0000
 IR Inten    --     0.0219                 2.7888                10.4135
 Raman Activ --     0.0000                 0.0000                 0.0000
 Depolar     --     0.0000                 0.0000                 0.0000
 Atom AN      X      Y      Z        X      Y      Z        X      Y      Z
   1   8    -0.00   0.00   0.00    -0.00  -0.00  -0.00    -0.00  -0.00  -0.00
   2  16     0.00  -0.00  -0.00     0.00   0.00   0.00     0.00   0.00   0.00
   3   8     0.00   0.00   0.00    -0.00  -0.00  -0.00    -0.00  -0.00  -0.00
   4   6    -0.00  -0.00   0.00    -0.00   0.00  -0.00    -0.00  -0.00   0.00
   5   6     0.00  -0.00  -0.00     0.00  -0.00  -0.00    -0.00   0.00   0.01
   6   6    -0.00  -0.00   0.00    -0.00  -0.00  -0.00     0.00   0.00  -0.00
   7   6     0.00   0.00  -0.00    -0.00  -0.00   0.00    -0.00  -0.00   0.00
   8   6     0.00  -0.00  -0.00    -0.00   0.00   0.00     0.00   0.00   0.00
   9   6    -0.00  -0.01   0.00     0.00   0.00   0.00    -0.00  -0.00  -0.00
  10   6     0.01  -0.00   0.00    -0.00   0.00  -0.00    -0.00  -0.00  -0.00
  11   6     0.08  -0.26   0.01    -0.00   0.01  -0.00     0.00  -0.00   0.00
  12   6    -0.04  -0.04  -0.00     0.00   0.00   0.00    -0.00  -0.00  -0.00
  13   6    -0.01   0.01  -0.00     0.00  -0.00   0.00     0.00  -0.00   0.00
  14   6     0.00  -0.00   0.00     0.00  -0.00   0.00    -0.00   0.00   0.00
  15   6    -0.00   0.00  -0.00    -0.00   0.00  -0.00     0.00   0.00   0.00
  16   7     0.00  -0.00   0.00     0.00  -0.00   0.00    -0.00  -0.00  -0.00
  17   6    -0.00   0.00  -0.00    -0.00   0.00  -0.00     0.00   0.00   0.00
  18   6    -0.00  -0.00  -0.00     0.00   0.00   0.00    -0.00  -0.00  -0.00
  19   6    -0.00   0.00   0.00     0.00  -0.00  -0.00    -0.00   0.00   0.00
  20   6    -0.00   0.00   0.00     0.00  -0.00  -0.00    -0.00   0.00   0.00
  21   6     0.00   0.00   0.00    -0.00  -0.00  -0.00     0.00   0.00   0.00
  22   6     0.00  -0.00  -0.00     0.00   0.00   0.00     0.00  -0.00   0.00
  23  16     0.00   0.00   0.00    -0.00  -0.00  -0.00    -0.00   0.00  -0.00
  24   8    -0.00  -0.00  -0.00    -0.00  -0.00   0.00     0.00  -0.00   0.00
  25   8    -0.00  -0.00  -0.00     0.00  -0.00   0.00    -0.00  -0.00   0.00
  26   6    -0.00  -0.00   0.00    -0.00   0.00  -0.00    -0.00   0.00  -0.00
  27   6     0.00  -0.00  -0.00     0.00  -0.00  -0.00    -0.01   0.01   0.00
  28   6     0.00   0.00  -0.00    -0.00  -0.00   0.00    -0.04  -0.01   0.06
  29   6    -0.00   0.00  -0.00     0.00  -0.00   0.00     0.02  -0.21   0.15
  30   6     0.00  -0.00  -0.00     0.00  -0.00  -0.00     0.05  -0.06  -0.02
  31   6     0.00   0.00  -0.00     0.00   0.00  -0.00     0.01   0.00  -0.02
  32   6     0.00   0.00   0.00    -0.00   0.00   0.00    -0.00   0.00   0.00
  33   7     0.00  -0.00   0.00     0.00   0.00   0.00    -0.00  -0.00  -0.00
  34   6    -0.00   0.00  -0.00    -0.00   0.00  -0.00     0.00   0.00   0.00
  35   6     0.00  -0.00   0.00     0.00   0.00   0.00    -0.00  -0.00   0.00
  36   6    -0.00   0.00   0.00    -0.02  -0.01  -0.00     0.00   0.00   0.00
  37   6     0.00  -0.00  -0.00     0.01  -0.06  -0.00    -0.00   0.00   0.00
  38   6     0.01  -0.00   0.00     0.26  -0.07   0.01    -0.00   0.00  -0.00
  39   6     0.00   0.00   0.00     0.01   0.00   0.00    -0.00  -0.00  -0.00
  40  16     0.00   0.00   0.00     0.00  -0.00  -0.00    -0.00  -0.00   0.00
  41   8     0.00   0.00   0.00    -0.00   0.00   0.00     0.00   0.00  -0.00
  42   8    -0.00  -0.00  -0.00    -0.00   0.00  -0.00     0.00   0.00   0.00
  43   6     0.00  -0.00   0.00    -0.00  -0.00  -0.00     0.00  -0.00  -0.00
  44   6    -0.00   0.00   0.00    -0.00   0.00   0.00    -0.00   0.00   0.00
  45   6     0.00  -0.00   0.00     0.00  -0.00   0.00     0.00  -0.00   0.00
  46   6     0.00  -0.00   0.00    -0.00   0.00  -0.00     0.00  -0.00   0.00
  47   6    -0.00   0.00   0.00    -0.00   0.00   0.00     0.00  -0.00  -0.00
  48   6     0.00  -0.00   0.00     0.00  -0.00   0.00     0.00  -0.00   0.00
  49   6    -0.00   0.00  -0.00    -0.00   0.00  -0.00     0.00   0.00  -0.00
  50   7     0.00  -0.00   0.00     0.00  -0.00   0.00    -0.00  -0.00  -0.00
  51   6     0.00   0.00  -0.00    -0.00  -0.00  -0.00     0.00   0.00   0.00
  52   1    -0.00   0.01   0.01    -0.00   0.00   0.00     0.00  -0.01  -0.02
  53   1     0.00   0.00  -0.00     0.00   0.00  -0.00    -0.00  -0.00  -0.00
  54   1    -0.00  -0.00   0.00     0.00   0.00  -0.00     0.00   0.00  -0.00
  55   1    -0.00   0.01   0.01     0.00  -0.00  -0.00     0.00  -0.00  -0.00
  56   1     0.01   0.04  -0.00    -0.00  -0.00   0.00     0.00   0.00  -0.00
  57   1    -0.27   0.90  -0.03     0.01  -0.04   0.00    -0.00   0.01  -0.00
  58   1     0.11   0.11   0.01    -0.00  -0.00  -0.00     0.00   0.00   0.00
  59   1     0.04  -0.01   0.00    -0.00   0.00  -0.00    -0.00   0.00  -0.00
  60   1     0.01  -0.00  -0.00    -0.00   0.00   0.00     0.00  -0.00  -0.00
  61   1     0.00  -0.01  -0.00    -0.00   0.00   0.00     0.00  -0.00  -0.00
  62   1    -0.00  -0.00  -0.00     0.00   0.00   0.00    -0.00  -0.00  -0.00
  63   1    -0.00   0.00   0.00    -0.00   0.00   0.00     0.02  -0.03  -0.01
  64   1    -0.00  -0.00   0.00     0.00   0.00  -0.00     0.14   0.02  -0.19
  65   1     0.00  -0.00   0.00    -0.00   0.00  -0.00    -0.07   0.71  -0.53
  66   1    -0.00   0.00   0.00    -0.00   0.00   0.00    -0.16   0.18   0.05
  67   1    -0.00  -0.00   0.00    -0.00  -0.00   0.00    -0.05  -0.01   0.07
  68   1     0.00  -0.00   0.00     0.00  -0.00  -0.00     0.00  -0.00  -0.00
  69   1    -0.00  -0.00  -0.00     0.05   0.05   0.00    -0.00  -0.00  -0.00
  70   1    -0.00   0.01   0.00    -0.04   0.17   0.00     0.00  -0.00  -0.00
  71   1    -0.04   0.01  -0.00    -0.91   0.24  -0.02     0.00  -0.00   0.00
  72   1     0.00  -0.00  -0.00     0.00  -0.00  -0.00     0.00  -0.00  -0.00
  73   1    -0.00   0.00  -0.00    -0.00   0.00  -0.00    -0.00   0.00  -0.00
  74   1    -0.00   0.00  -0.00     0.00  -0.00   0.00    -0.00   0.00  -0.00
  75   1     0.00  -0.00  -0.00     0.00  -0.00  -0.00    -0.00   0.00   0.00
  76   1    -0.00   0.00  -0.01    -0.00   0.00  -0.00    -0.00   0.00  -0.00
  77   1     0.00  -0.00  -0.00     0.00  -0.00  -0.00     0.00  -0.00  -0.00
  78   1    -0.00  -0.01  -0.00     0.00   0.00   0.00    -0.00  -0.00  -0.00
