      -----------------------------------------------------------      
     |                   =====================                   |     
     |                           x T B                           |     
     |                   =====================                   |     
     |                         S. Grimme                         |     
     |          Mulliken Center for Theoretical Chemistry        |     
     |                    University of Bonn                     |     
      -----------------------------------------------------------      

   * xtb version 6.7.1 (edcfbbe) compiled by 'albert@albert-system' on 2024-07-22

   xtb is free software: you can redistribute it and/or modify it under
   the terms of the GNU Lesser General Public License as published by
   the Free Software Foundation, either version 3 of the License, or
   (at your option) any later version.
   
   xtb is distributed in the hope that it will be useful,
   but WITHOUT ANY WARRANTY; without even the implied warranty of
   MERCHANTABILITY or FITNESS FOR A PARTICULAR PURPOSE.  See the
   GNU Lesser General Public License for more details.
   
   Cite this work as:
   * C. Bannwarth, E. Caldeweyher, S. Ehlert, A. Hansen, P. Pracht,
     J. Seibert, S. Spicher, S. Grimme, WIREs Comput. Mol. Sci., 2020, 11,
     e01493. DOI: 10.1002/wcms.1493
   
   for GFN2-xTB:
   * C. Bannwarth, S. Ehlert and S. Grimme., J. Chem. Theory Comput., 2019,
     15, 1652-1671. DOI: 10.1021/acs.jctc.8b01176
   for GFN1-xTB:
   * S. Grimme, C. Bannwarth, P. Shushkov, J. Chem. Theory Comput., 2017,
     13, 1989-2009. DOI: 10.1021/acs.jctc.7b00118
   for GFN0-xTB:
   * P. Pracht, E. Caldeweyher, S. Ehlert, S. Grimme, ChemRxiv, 2019, preprint.
     DOI: 10.26434/chemrxiv.8326202.v1
   for GFN-FF:
   * S. Spicher and S. Grimme, Angew. Chem. Int. Ed., 2020, 59, 15665-15673.
     DOI: 10.1002/anie.202004239
   
   for ALPB and GBSA implicit solvation:
   * S. Ehlert, M. Stahn, S. Spicher, S. Grimme, J. Chem. Theory Comput.,
     2021, 17, 4250-4261. DOI: 10.1021/acs.jctc.1c00471
   
   for ddCOSMO and CPCM-X implicit solvation:
   * M. Stahn, S. Ehlert, S. Grimme, J. Phys. Chem. A,
     2023, XX, XXXX-XXXX. DOI: 10.1021/acs.jpca.3c04382
   
   for DFT-D4:
   * E. Caldeweyher, C. Bannwarth and S. Grimme, J. Chem. Phys., 2017,
     147, 034112. DOI: 10.1063/1.4993215
   * E. Caldeweyher, S. Ehlert, A. Hansen, H. Neugebauer, S. Spicher,
     C. Bannwarth and S. Grimme, J. Chem. Phys., 2019, 150, 154122.
     DOI: 10.1063/1.5090222
   * E. Caldeweyher, J.-M. Mewes, S. Ehlert and S. Grimme, Phys. Chem. Chem. Phys.
     2020, 22, 8499-8512. DOI: 10.1039/D0CP00502A
   
   for sTDA-xTB:
   * S. Grimme and C. Bannwarth, J. Chem. Phys., 2016, 145, 054103.
     DOI: 10.1063/1.4959605
   
   in the mass-spec context:
   * V. Asgeirsson, C. Bauer and S. Grimme, Chem. Sci., 2017, 8, 4879.
     DOI: 10.1039/c7sc00601b
   * J. Koopman and S. Grimme, ACS Omega 2019, 4, 12, 15120-15133.
     DOI: 10.1021/acsomega.9b02011
   
   for metadynamics refer to:
   * S. Grimme, J. Chem. Theory Comput., 2019, 155, 2847-2862
     DOI: 10.1021/acs.jctc.9b00143
   
   for SPH calculations refer to:
   * S. Spicher and S. Grimme, J. Chem. Theory Comput., 2021, 17, 1701-1714
     DOI: 10.1021/acs.jctc.0c01306
   
   for ONIOM refer to:
   * C. Plett, A. Katbashev, S. Ehlert, S. Grimme, M. Bursch,
     Phys. Chem. Chem. Phys., 2023, 25, 17860-17868. DOI: 10.1039/D3CP02178E
   
   for DIPRO refer to:
   * J. Kohn, N. Gildemeister, S. Grimme, D. Fazzi, A. Hansen,
     J. Chem. Phys., 2023, just accepted.
   
   for PTB refer to:
   * S. Grimme, M. Mueller, A. Hansen, J. Chem. Phys., 2023, 158, 124111.
     DOI: 10.1063/5.0137838
   
   with help from (in alphabetical order)
   P. Atkinson, C. Bannwarth, F. Bohle, G. Brandenburg, E. Caldeweyher
   M. Checinski, S. Dohm, S. Ehlert, S. Ehrlich, I. Gerasimov, C. Hölzer
   A. Katbashev, J. Kohn, J. Koopman, C. Lavigne, S. Lehtola, F. März, M. Müller,
   F. Musil, H. Neugebauer, J. Pisarek, C. Plett, P. Pracht, F. Pultar,
   J. Seibert, P. Shushkov, S. Spicher, M. Stahn, M. Steiner, T. Strunk,
   J. Stückrath, T. Rose, and J. Unsleber
   
 * started run on 2025/08/29 at 14:10:27.403     
   ID    Z sym.   atoms
    1    6 C      1-6, 8-28, 30-39
    2    7 N      7, 29
    3    8 O      40, 41
    4    1 H      42-69

           -------------------------------------------------
          |                Calculation Setup                |
           -------------------------------------------------

          program call               : xtb data2507/toluene/IDAC-MCO/IDAC-MCO_toluene_S0_finalOpt.xtbopt.xyz --gfn 2 --uhf 2 --gbsa toluene --ohess vtight --parallel 40 --molden --ceasefiles --namespace data2507/toluene/IDAC-MCO/IDAC-MCO_toluene_T1_preOpt
          calculation namespace      : data2507/toluene/IDAC-MCO/IDAC-MCO_toluene_T1_preOpt
          coordinate file            : data2507/toluene/IDAC-MCO/IDAC-MCO_toluene_S0_finalOpt.xtbopt.xyz
          omp threads                :                    40


           -------------------------------------------------
          |                 G F N 2 - x T B                 |
           -------------------------------------------------

        Reference                      10.1021/acs.jctc.8b01176
      * Hamiltonian:
        H0-scaling (s, p, d)           1.850000    2.230000    2.230000
        zeta-weighting                 0.500000
      * Dispersion:
        s8                             2.700000
        a1                             0.520000
        a2                             5.000000
        s9                             5.000000
      * Repulsion:
        kExp                           1.500000    1.000000
        rExp                           1.000000
      * Coulomb:
        alpha                          2.000000
        third order                    shell-resolved
        anisotropic                    true
        a3                             3.000000
        a5                             4.000000
        cn-shift                       1.200000
        cn-exp                         4.000000
        max-rad                        5.000000

      * Solvation model:               GBSA
        Solvent                        toluene
        Parameter file                 internal GFN2-xTB/GBSA
        Dielectric constant                7.0000E+00
        Reference state                gsolv [1 M gas/solution]
        Free energy shift                  4.5239E-03 Eh       2.8388E+00 kcal/mol
        Temperature                        2.9815E+02 K
        Density                            8.6700E-01 kg/L
        Solvent mass                       9.2140E+01 g/mol
        Interaction kernel             Still
        Born radius scaling (c1)           1.5686E+00
        Born radii integrator          GBOBC
        Born offset                        0.0000E+00 a0       0.0000E+00 AA
        H-bond correction              false
        Ion screening                  false
        Surface tension                    1.0000E-05 Eh       1.5569E+01 dyn/cm
        Grid points                               230 per atom

          ...................................................
          :                      SETUP                      :
          :.................................................:
          :  # basis functions                 192          :
          :  # atomic orbitals                 192          :
          :  # shells                          110          :
          :  # electrons                       198          :
          :  max. iterations                   250          :
          :  Hamiltonian                  GFN2-xTB          :
          :  restarted?                      false          :
          :  GBSA solvation                   true          :
          :  PC potential                    false          :
          :  electronic temp.          300.0000000     K    :
          :  accuracy                    1.0000000          :
          :  -> integral cutoff          0.2500000E+02      :
          :  -> integral neglect         0.1000000E-07      :
          :  -> SCF convergence          0.1000000E-05 Eh   :
          :  -> wf. convergence          0.1000000E-03 e    :
          :  Broyden damping             0.4000000          :
          :  net charge                          0          :
          :  unpaired electrons                  2          :
          ...................................................

 iter      E             dE          RMSdq      gap      omega  full diag
   1   -109.2310812 -0.109231E+03  0.425E+00    0.54       0.0  T
   2   -109.2973424 -0.662612E-01  0.259E+00    0.17       1.0  T
   3   -109.1828047  0.114538E+00  0.192E+00    0.59       1.0  T
   4   -109.3764830 -0.193678E+00  0.679E-01    0.26       1.0  T
   5   -109.3553788  0.211042E-01  0.621E-01    0.28       1.0  T
   6   -109.3848207 -0.294420E-01  0.393E-01    0.30       1.0  T
   7   -109.3967318 -0.119110E-01  0.128E-01    0.20       1.0  T
   8   -109.3968025 -0.707180E-04  0.882E-02    0.19       1.0  T
   9   -109.3972895 -0.486980E-03  0.360E-02    0.18       1.0  T
  10   -109.3973630 -0.735122E-04  0.200E-02    0.18       1.0  T
  11   -109.3973902 -0.271749E-04  0.659E-03    0.18       1.8  T
  12   -109.3973924 -0.221710E-05  0.337E-03    0.18       3.6  T
  13   -109.3973926 -0.235450E-06  0.240E-03    0.18       5.0  T
  14   -109.3973930 -0.356244E-06  0.106E-03    0.18      11.4  T
  15   -109.3973931 -0.776023E-07  0.510E-04    0.18      23.6  T
  16   -109.3973931 -0.124193E-07  0.292E-04    0.18      41.2  T

   *** convergence criteria satisfied after 16 iterations ***

         #    Occupation            Energy/Eh            Energy/eV
      -------------------------------------------------------------
         1        2.0000           -0.7300650             -19.8661
       ...           ...                  ...                  ...
        94        2.0000           -0.4033807             -10.9765
        95        2.0000           -0.3889558             -10.5840
        96        2.0000           -0.3863539             -10.5132
        97        2.0000           -0.3758592             -10.2277
        98        1.9998           -0.3729891             -10.1495
        99        1.0003           -0.3572617              -9.7216
       100        0.9699           -0.2551937              -6.9442 (HOMO)
       101        0.0287           -0.2485469              -6.7633 (LUMO)
       102        0.0012           -0.2455152              -6.6808
       103        0.0002           -0.2435516              -6.6274
       104        0.0001           -0.2425724              -6.6007
       105        0.0000           -0.2383667              -6.4863
       ...           ...                  ...                  ...
       192                          0.7412880              20.1715
      -------------------------------------------------------------
                  HL-Gap            0.0066468 Eh            0.1809 eV
             Fermi-level           -0.3084984 Eh           -8.3947 eV
 
 transition dipole moment (au) for excitation:          99         100
     X       Y       Z   
   1.4123  -0.9866  -0.1138  total (au/Debye):    1.727   4.389
 dE (eV)             :    2.777
 oscillator strength :  0.28687E+00

 SCC (total)                   0 d,  0 h,  0 min,  0.217 sec
 SCC setup                      ...        0 min,  0.008 sec (  3.678%)
 Dispersion                     ...        0 min,  0.002 sec (  1.132%)
 classical contributions        ...        0 min,  0.000 sec (  0.096%)
 integral evaluation            ...        0 min,  0.006 sec (  2.914%)
 iterations                     ...        0 min,  0.167 sec ( 76.882%)
 molecular gradient             ...        0 min,  0.012 sec (  5.659%)
 printout                       ...        0 min,  0.021 sec (  9.601%)

         :::::::::::::::::::::::::::::::::::::::::::::::::::::
         ::                     SUMMARY                     ::
         :::::::::::::::::::::::::::::::::::::::::::::::::::::
         :: total energy            -107.543151900636 Eh    ::
         :: total w/o Gsasa/hb      -107.504552501079 Eh    ::
         :: gradient norm              0.087482423731 Eh/a0 ::
         :: HOMO-LUMO gap              0.180869557894 eV    ::
         ::.................................................::
         :: SCC energy              -109.397105413506 Eh    ::
         :: -> isotropic ES            0.086046935747 Eh    ::
         :: -> anisotropic ES          0.004654725695 Eh    ::
         :: -> anisotropic XC          0.048515309211 Eh    ::
         :: -> dispersion             -0.094535650814 Eh    ::
         :: -> Gsolv                  -0.059453348009 Eh    ::
         ::    -> Gelec               -0.020853948453 Eh    ::
         ::    -> Gsasa               -0.043123279428 Eh    ::
         ::    -> Ghb                  0.000000000000 Eh    ::
         ::    -> Gshift               0.004523879872 Eh    ::
         :: repulsion energy           1.853953512870 Eh    ::
         :: add. restraining           0.000000000000 Eh    ::
         :: total charge               0.000000000000 e     ::
         :::::::::::::::::::::::::::::::::::::::::::::::::::::

      ----------------------------------------------------------- 
     |                   =====================                   |
     |                        A N C O P T                        |
     |                   =====================                   |
     |               Approximate Normal Coordinate               |
     |                Rational Function Optimizer                |
      ----------------------------------------------------------- 

Optimization log is written to '/dev/null'
      ----------------------------------------------------------- 
     |                   =====================                   |
     |                        A N C O P T                        |
     |                   =====================                   |
     |               Approximate Normal Coordinate               |
     |                Rational Function Optimizer                |
      ----------------------------------------------------------- 

          ...................................................
          :                      SETUP                      :
          :.................................................:
          :   optimization level         verytight          :
          :   max. optcycles                  1380          :
          :   ANC micro-cycles                  20          :
          :   degrees of freedom               201          :
          :.................................................:
          :   RF solver                   davidson          :
          :   write xtbopt.log                true          :
          :   linear?                        false          :
          :   energy convergence         0.1000000E-06 Eh   :
          :   grad. convergence          0.2000000E-03 Eh/α :
          :   maxmium RF displ.          1.0000000          :
          :   Hlow (freq-cutoff)         0.1000000E-01      :
          :   Hmax (freq-cutoff)         5.0000000          :
          :   S6 in model hess.         20.0000000          :
          ...................................................

generating ANC from exact Hessian ...
Using Lindh-Hessian (1995)
 Shifting diagonal of input Hessian by   9.860471635629102E-003
 Lowest  eigenvalues of input Hessian
    0.000000    0.000000    0.000000    0.000000    0.000000    0.000000
    0.010000    0.010093    0.010263    0.010554    0.010712    0.010891
    0.011332    0.011535    0.012617    0.012758    0.013102    0.013556
 Highest eigenvalues
    2.105504    2.155170    2.169798    2.198884    2.230475    2.348333
 

........................................................................
.............................. CYCLE    1 ..............................
........................................................................

 iter      E             dE          RMSdq      gap      omega  full diag
   1   -109.3973931 -0.109397E+03  0.719E-05    0.18       0.0  T
   2   -109.3973931  0.379156E-08  0.202E-04    0.18      59.6  T
   3   -109.3973931 -0.391586E-08  0.456E-05    0.18     264.1  T
     SCC iter.                  ...        0 min,  0.022 sec
     gradient                   ...        0 min,  0.010 sec
 * total energy  :  -107.5431519 Eh     change       -0.6531337E-08 Eh
   gradient norm :     0.0874621 Eh/α   predicted     0.0000000E+00 (-100.00%)
   displ. norm   :     0.1176303 α      lambda       -0.5029012E-02
   maximum displ.:     0.0383989 α      in ANC's #41, #38, #65, ...

........................................................................
.............................. CYCLE    2 ..............................
........................................................................

 iter      E             dE          RMSdq      gap      omega  full diag
   1   -109.3818864 -0.109382E+03  0.188E-01    0.25       0.0  T
   2   -109.3449331  0.369533E-01  0.609E-01    0.27       1.0  T
   3   -109.3849019 -0.399688E-01  0.603E-02    0.22       1.0  T
   4   -109.3851361 -0.234200E-03  0.259E-02    0.21       1.0  T
   5   -109.3851425 -0.640633E-05  0.144E-02    0.20       1.0  T
   6   -109.3851465 -0.396765E-05  0.971E-03    0.20       1.2  T
   7   -109.3851545 -0.799829E-05  0.243E-03    0.21       5.0  T
   8   -109.3851549 -0.411052E-06  0.873E-04    0.21      13.8  T
   9   -109.3851549 -0.121127E-07  0.454E-04    0.21      26.5  T
     SCC iter.                  ...        0 min,  0.056 sec
     gradient                   ...        0 min,  0.009 sec
 * total energy  :  -107.5467233 Eh     change       -0.3571408E-02 Eh
   gradient norm :     0.0432455 Eh/α   predicted    -0.2549375E-02 ( -28.62%)
   displ. norm   :     0.1087438 α      lambda       -0.2036311E-02
   maximum displ.:     0.0384516 α      in ANC's #15, #41, #16, ...

........................................................................
.............................. CYCLE    3 ..............................
........................................................................

 iter      E             dE          RMSdq      gap      omega  full diag
   1   -109.3803321 -0.109380E+03  0.154E-01    0.27       0.0  T
   2   -109.3531929  0.271392E-01  0.519E-01    0.25       1.0  T
   3   -109.3823618 -0.291689E-01  0.520E-02    0.24       1.0  T
   4   -109.3825448 -0.183064E-03  0.231E-02    0.23       1.0  T
   5   -109.3825659 -0.210523E-04  0.112E-02    0.23       1.1  T
   6   -109.3825680 -0.207319E-05  0.769E-03    0.23       1.6  T
   7   -109.3825731 -0.519107E-05  0.163E-03    0.23       7.4  T
   8   -109.3825733 -0.150371E-06  0.744E-04    0.23      16.2  T
   9   -109.3825733 -0.924919E-08  0.389E-04    0.23      30.9  T
     SCC iter.                  ...        0 min,  0.056 sec
     gradient                   ...        0 min,  0.009 sec
 * total energy  :  -107.5478564 Eh     change       -0.1133047E-02 Eh
   gradient norm :     0.0112864 Eh/α   predicted    -0.1030298E-02 (  -9.07%)
   displ. norm   :     0.0460635 α      lambda       -0.1359526E-03
   maximum displ.:     0.0203776 α      in ANC's #15, #16, #11, ...

........................................................................
.............................. CYCLE    4 ..............................
........................................................................

 iter      E             dE          RMSdq      gap      omega  full diag
   1   -109.3842832 -0.109384E+03  0.363E-02    0.24       0.0  T
   2   -109.3828045  0.147867E-02  0.122E-01    0.22       1.0  T
   3   -109.3843966 -0.159214E-02  0.106E-02    0.23       1.1  T
   4   -109.3843988 -0.220102E-05  0.590E-03    0.23       2.0  T
   5   -109.3844006 -0.176784E-05  0.259E-03    0.23       4.6  T
   6   -109.3844010 -0.417153E-06  0.110E-03    0.23      11.0  T
   7   -109.3844011 -0.108018E-06  0.265E-04    0.23      45.4  T
   8   -109.3844011 -0.184356E-08  0.169E-04    0.23      71.3  T
     SCC iter.                  ...        0 min,  0.049 sec
     gradient                   ...        0 min,  0.008 sec
 * total energy  :  -107.5479546 Eh     change       -0.9818844E-04 Eh
   gradient norm :     0.0066314 Eh/α   predicted    -0.6813461E-04 ( -30.61%)
   displ. norm   :     0.0590691 α      lambda       -0.8308887E-04
   maximum displ.:     0.0242351 α      in ANC's #15, #16, #11, ...

........................................................................
.............................. CYCLE    5 ..............................
........................................................................

 iter      E             dE          RMSdq      gap      omega  full diag
   1   -109.3862513 -0.109386E+03  0.271E-02    0.24       0.0  T
   2   -109.3857002  0.551109E-03  0.749E-02    0.22       1.0  T
   3   -109.3862956 -0.595357E-03  0.117E-02    0.24       1.0  T
   4   -109.3862990 -0.344765E-05  0.580E-03    0.24       2.1  T
   5   -109.3863007 -0.162807E-05  0.248E-03    0.23       4.9  T
   6   -109.3863011 -0.486760E-06  0.775E-04    0.23      15.5  T
   7   -109.3863012 -0.492101E-07  0.209E-04    0.23      57.7  T
     SCC iter.                  ...        0 min,  0.044 sec
     gradient                   ...        0 min,  0.008 sec
 * total energy  :  -107.5480044 Eh     change       -0.4987756E-04 Eh
   gradient norm :     0.0030373 Eh/α   predicted    -0.4169458E-04 ( -16.41%)
   displ. norm   :     0.0305669 α      lambda       -0.1409544E-04
   maximum displ.:     0.0125930 α      in ANC's #11, #8, #13, ...

........................................................................
.............................. CYCLE    6 ..............................
........................................................................

 iter      E             dE          RMSdq      gap      omega  full diag
   1   -109.3865079 -0.109387E+03  0.808E-03    0.23       0.0  T
   2   -109.3865037  0.416602E-05  0.791E-03    0.23       1.5  T
   3   -109.3865006  0.308615E-05  0.952E-03    0.24       1.3  T
   4   -109.3865087 -0.804111E-05  0.194E-03    0.23       6.2  T
   5   -109.3865088 -0.872639E-07  0.879E-04    0.23      13.7  T
   6   -109.3865088 -0.618831E-07  0.271E-04    0.23      44.4  T
     SCC iter.                  ...        0 min,  0.037 sec
     gradient                   ...        0 min,  0.009 sec
 * total energy  :  -107.5480148 Eh     change       -0.1036975E-04 Eh
   gradient norm :     0.0017918 Eh/α   predicted    -0.7166207E-05 ( -30.89%)
   displ. norm   :     0.0565673 α      lambda       -0.1027372E-04
   maximum displ.:     0.0251041 α      in ANC's #8, #11, #13, ...

........................................................................
.............................. CYCLE    7 ..............................
........................................................................

 iter      E             dE          RMSdq      gap      omega  full diag
   1   -109.3862133 -0.109386E+03  0.137E-02    0.23       0.0  T
   2   -109.3862139 -0.678329E-06  0.784E-03    0.23       1.5  T
   3   -109.3862134  0.578676E-06  0.445E-03    0.23       2.7  T
   4   -109.3862136 -0.261751E-06  0.234E-03    0.23       5.1  T
   5   -109.3862134  0.232438E-06  0.267E-03    0.23       4.5  T
   6   -109.3862142 -0.766640E-06  0.230E-04    0.23      52.5  T
   7   -109.3862142 -0.239659E-08  0.117E-04    0.23     102.5  T
     SCC iter.                  ...        0 min,  0.043 sec
     gradient                   ...        0 min,  0.009 sec
 * total energy  :  -107.5480221 Eh     change       -0.7343383E-05 Eh
   gradient norm :     0.0015026 Eh/α   predicted    -0.5151222E-05 ( -29.85%)
   displ. norm   :     0.0155572 α      lambda       -0.2489747E-05
   maximum displ.:     0.0082477 α      in ANC's #8, #5, #10, ...

........................................................................
.............................. CYCLE    8 ..............................
........................................................................

 iter      E             dE          RMSdq      gap      omega  full diag
   1   -109.3860823 -0.109386E+03  0.398E-03    0.23       0.0  T
   2   -109.3860816  0.790241E-06  0.351E-03    0.23       3.4  T
   3   -109.3860800  0.155418E-05  0.521E-03    0.23       2.3  T
   4   -109.3860824 -0.242306E-05  0.913E-04    0.23      13.2  T
   5   -109.3860825 -0.463761E-07  0.308E-04    0.23      39.1  T
   6   -109.3860825 -0.824195E-08  0.932E-05    0.23     129.1  T
     SCC iter.                  ...        0 min,  0.038 sec
     gradient                   ...        0 min,  0.009 sec
 * total energy  :  -107.5480250 Eh     change       -0.2885169E-05 Eh
   gradient norm :     0.0007921 Eh/α   predicted    -0.1245518E-05 ( -56.83%)
   displ. norm   :     0.0421839 α      lambda       -0.3218681E-05
   maximum displ.:     0.0230722 α      in ANC's #8, #5, #10, ...

........................................................................
.............................. CYCLE    9 ..............................
........................................................................

 iter      E             dE          RMSdq      gap      omega  full diag
   1   -109.3861270 -0.109386E+03  0.933E-03    0.23       0.0  T
   2   -109.3861260  0.918702E-06  0.613E-03    0.23       2.0  T
   3   -109.3861059  0.201277E-04  0.145E-02    0.23       1.0  T
   4   -109.3861270 -0.210832E-04  0.128E-03    0.23       9.4  T
   5   -109.3861271 -0.126256E-06  0.333E-04    0.23      36.2  T
   6   -109.3861271 -0.865023E-08  0.121E-04    0.23      99.4  T
     SCC iter.                  ...        0 min,  0.037 sec
     gradient                   ...        0 min,  0.008 sec
 * total energy  :  -107.5480283 Eh     change       -0.3272239E-05 Eh
   gradient norm :     0.0006545 Eh/α   predicted    -0.1615676E-05 ( -50.62%)
   displ. norm   :     0.0361802 α      lambda       -0.1516376E-05
   maximum displ.:     0.0203566 α      in ANC's #8, #5, #10, ...

........................................................................
.............................. CYCLE   10 ..............................
........................................................................

 iter      E             dE          RMSdq      gap      omega  full diag
   1   -109.3861859 -0.109386E+03  0.780E-03    0.23       0.0  T
   2   -109.3861857  0.201756E-06  0.479E-03    0.23       2.5  T
   3   -109.3861740  0.116294E-04  0.106E-02    0.23       1.1  T
   4   -109.3861859 -0.118324E-04  0.756E-04    0.23      15.9  T
   5   -109.3861859 -0.434656E-07  0.127E-04    0.23      95.2  T
   6   -109.3861859 -0.703565E-09  0.592E-05    0.23     203.2  T
     SCC iter.                  ...        0 min,  0.037 sec
     gradient                   ...        0 min,  0.009 sec
 * total energy  :  -107.5480300 Eh     change       -0.1736186E-05 Eh
   gradient norm :     0.0006537 Eh/α   predicted    -0.7616449E-06 ( -56.13%)
   displ. norm   :     0.0374637 α      lambda       -0.1347351E-05
   maximum displ.:     0.0212732 α      in ANC's #8, #5, #10, ...

........................................................................
.............................. CYCLE   11 ..............................
........................................................................

 iter      E             dE          RMSdq      gap      omega  full diag
   1   -109.3862387 -0.109386E+03  0.811E-03    0.23       0.0  T
   2   -109.3862386  0.882645E-07  0.488E-03    0.23       2.5  T
   3   -109.3862312  0.742736E-05  0.840E-03    0.23       1.4  T
   4   -109.3862386 -0.746429E-05  0.102E-03    0.23      11.8  T
   5   -109.3862387 -0.853710E-07  0.122E-04    0.23      98.4  T
   6   -109.3862387 -0.490544E-09  0.705E-05    0.23     170.9  T
     SCC iter.                  ...        0 min,  0.037 sec
     gradient                   ...        0 min,  0.008 sec
 * total energy  :  -107.5480315 Eh     change       -0.1444218E-05 Eh
   gradient norm :     0.0003834 Eh/α   predicted    -0.6749936E-06 ( -53.26%)
   displ. norm   :     0.0296521 α      lambda       -0.8116795E-06
   maximum displ.:     0.0170750 α      in ANC's #8, #5, #4, ...

........................................................................
.............................. CYCLE   12 ..............................
........................................................................

 iter      E             dE          RMSdq      gap      omega  full diag
   1   -109.3862520 -0.109386E+03  0.628E-03    0.23       0.0  T
   2   -109.3862520  0.418935E-07  0.376E-03    0.23       3.2  T
   3   -109.3862481  0.384313E-05  0.602E-03    0.23       2.0  T
   4   -109.3862520 -0.387072E-05  0.623E-04    0.23      19.3  T
   5   -109.3862520 -0.300860E-07  0.841E-05    0.23     143.1  T
   6   -109.3862520 -0.168967E-09  0.500E-05    0.23     240.6  T
     SCC iter.                  ...        0 min,  0.037 sec
     gradient                   ...        0 min,  0.008 sec
 * total energy  :  -107.5480323 Eh     change       -0.7922255E-06 Eh
   gradient norm :     0.0002415 Eh/α   predicted    -0.4079956E-06 ( -48.50%)
   displ. norm   :     0.0281131 α      lambda        0.2075571E-06
   maximum displ.:     0.0161736 α      in ANC's #8, #5, #4, ...

........................................................................
.............................. CYCLE   13 ..............................
........................................................................

 iter      E             dE          RMSdq      gap      omega  full diag
   1   -109.3862556 -0.109386E+03  0.596E-03    0.23       0.0  T
   2   -109.3862556  0.484402E-07  0.359E-03    0.23       3.4  T
   3   -109.3862515  0.409904E-05  0.622E-03    0.23       1.9  T
   4   -109.3862556 -0.413728E-05  0.582E-04    0.23      20.7  T
   5   -109.3862556 -0.255826E-07  0.827E-05    0.23     145.6  T
   6   -109.3862556 -0.183448E-09  0.495E-05    0.23     243.3  T
     SCC iter.                  ...        0 min,  0.037 sec
     gradient                   ...        0 min,  0.008 sec
 * total energy  :  -107.5480322 Eh     change        0.7961515E-07 Eh
   gradient norm :     0.0005569 Eh/α   predicted     0.1031006E-06 (  29.50%)
   displ. norm   :     0.0075954 α      lambda       -0.6059203E-06
   maximum displ.:     0.0034663 α      in ANC's #10, #11, #7, ...

........................................................................
.............................. CYCLE   14 ..............................
........................................................................

 iter      E             dE          RMSdq      gap      omega  full diag
   1   -109.3862366 -0.109386E+03  0.199E-03    0.23       0.0  T
   2   -109.3862365  0.889195E-07  0.152E-03    0.23       7.9  T
   3   -109.3862357  0.712635E-06  0.283E-03    0.23       4.2  T
   4   -109.3862366 -0.803991E-06  0.358E-04    0.23      33.6  T
   5   -109.3862366 -0.946508E-08  0.638E-05    0.23     188.8  T
     SCC iter.                  ...        0 min,  0.031 sec
     gradient                   ...        0 min,  0.008 sec
 * total energy  :  -107.5480328 Eh     change       -0.5952682E-06 Eh
   gradient norm :     0.0003098 Eh/α   predicted    -0.3060048E-06 ( -48.59%)
   displ. norm   :     0.0070639 α      lambda        0.6855902E-07
   maximum displ.:     0.0031996 α      in ANC's #10, #11, #7, ...

........................................................................
.............................. CYCLE   15 ..............................
........................................................................

 iter      E             dE          RMSdq      gap      omega  full diag
   1   -109.3862171 -0.109386E+03  0.187E-03    0.23       0.0  T
   2   -109.3862171  0.823800E-07  0.144E-03    0.23       8.4  T
   3   -109.3862164  0.618714E-06  0.265E-03    0.23       4.5  T
   4   -109.3862171 -0.704474E-06  0.318E-04    0.23      37.9  T
   5   -109.3862172 -0.726082E-08  0.577E-05    0.23     208.6  T
     SCC iter.                  ...        0 min,  0.029 sec
     gradient                   ...        0 min,  0.008 sec
 * total energy  :  -107.5480327 Eh     change        0.5027570E-07 Eh
   gradient norm :     0.0003429 Eh/α   predicted     0.3380081E-07 ( -32.77%)
   displ. norm   :     0.0060789 α      lambda       -0.4312992E-06
   maximum displ.:     0.0026154 α      in ANC's #7, #2, #4, ...

........................................................................
.............................. CYCLE   16 ..............................
........................................................................

 iter      E             dE          RMSdq      gap      omega  full diag
   1   -109.3862145 -0.109386E+03  0.154E-03    0.23       0.0  T
   2   -109.3862143  0.230109E-06  0.173E-03    0.23       6.9  T
   3   -109.3862143 -0.449523E-07  0.158E-03    0.23       7.6  T
   4   -109.3862145 -0.204522E-06  0.166E-04    0.23      72.7  T
   5   -109.3862145 -0.260523E-08  0.378E-05    0.23     318.4  T
     SCC iter.                  ...        0 min,  0.030 sec
     gradient                   ...        0 min,  0.008 sec
 * total energy  :  -107.5480332 Eh     change       -0.4839807E-06 Eh
   gradient norm :     0.0001275 Eh/α   predicted    -0.2201024E-06 ( -54.52%)
   displ. norm   :     0.0174680 α      lambda       -0.4200291E-06
   maximum displ.:     0.0074770 α      in ANC's #2, #4, #7, ...

........................................................................
.............................. CYCLE   17 ..............................
........................................................................

 iter      E             dE          RMSdq      gap      omega  full diag
   1   -109.3861975 -0.109386E+03  0.341E-03    0.23       0.0  T
   2   -109.3861974  0.507888E-07  0.213E-03    0.23       5.6  T
   3   -109.3861949  0.251236E-05  0.492E-03    0.23       2.4  T
   4   -109.3861975 -0.256891E-05  0.204E-04    0.23      59.0  T
   5   -109.3861975 -0.271862E-08  0.484E-05    0.23     248.7  T
   6   -109.3861975 -0.587903E-10  0.272E-05    0.23     442.1  T
     SCC iter.                  ...        0 min,  0.036 sec
     gradient                   ...        0 min,  0.008 sec
 * total energy  :  -107.5480337 Eh     change       -0.4666496E-06 Eh
   gradient norm :     0.0000905 Eh/α   predicted    -0.2139545E-06 ( -54.15%)
   displ. norm   :     0.0236263 α      lambda       -0.3245157E-06
   maximum displ.:     0.0109337 α      in ANC's #2, #4, #8, ...

........................................................................
.............................. CYCLE   18 ..............................
........................................................................

 iter      E             dE          RMSdq      gap      omega  full diag
   1   -109.3861780 -0.109386E+03  0.453E-03    0.23       0.0  T
   2   -109.3861780 -0.324236E-08  0.266E-03    0.23       4.5  T
   3   -109.3861779  0.196819E-07  0.501E-04    0.23      24.0  T
   4   -109.3861779 -0.311502E-08  0.420E-04    0.23      28.7  T
     SCC iter.                  ...        0 min,  0.024 sec
     gradient                   ...        0 min,  0.008 sec
 * total energy  :  -107.5480341 Eh     change       -0.3653370E-06 Eh
   gradient norm :     0.0001631 Eh/α   predicted    -0.1672605E-06 ( -54.22%)
   displ. norm   :     0.0273040 α      lambda       -0.3032994E-06
   maximum displ.:     0.0138171 α      in ANC's #8, #2, #4, ...

........................................................................
.............................. CYCLE   19 ..............................
........................................................................

 iter      E             dE          RMSdq      gap      omega  full diag
   1   -109.3861698 -0.109386E+03  0.532E-03    0.23       0.0  T
   2   -109.3861696  0.116309E-06  0.332E-03    0.23       3.6  T
   3   -109.3861635  0.611010E-05  0.767E-03    0.23       1.6  T
   4   -109.3861698 -0.623892E-05  0.180E-04    0.23      67.0  T
   5   -109.3861698 -0.255883E-08  0.661E-05    0.23     182.2  T
   6   -109.3861698 -0.127883E-09  0.345E-05    0.23     348.8  T
     SCC iter.                  ...        0 min,  0.035 sec
     gradient                   ...        0 min,  0.008 sec
 * total energy  :  -107.5480344 Eh     change       -0.3683994E-06 Eh
   gradient norm :     0.0001794 Eh/α   predicted    -0.1518716E-06 ( -58.78%)
   displ. norm   :     0.0293578 α      lambda       -0.2822766E-06
   maximum displ.:     0.0147972 α      in ANC's #2, #8, #4, ...

........................................................................
.............................. CYCLE   20 ..............................
........................................................................

 iter      E             dE          RMSdq      gap      omega  full diag
   1   -109.3861912 -0.109386E+03  0.589E-03    0.23       0.0  T
   2   -109.3861901  0.102190E-05  0.470E-03    0.23       2.6  T
   3   -109.3861846  0.550963E-05  0.818E-03    0.23       1.5  T
   4   -109.3861912 -0.661982E-05  0.342E-04    0.23      35.2  T
   5   -109.3861913 -0.111070E-07  0.859E-05    0.23     140.2  T
   6   -109.3861913 -0.375863E-09  0.448E-05    0.23     268.5  T
     SCC iter.                  ...        0 min,  0.035 sec
     gradient                   ...        0 min,  0.008 sec
 * total energy  :  -107.5480347 Eh     change       -0.3109857E-06 Eh
   gradient norm :     0.0000924 Eh/α   predicted    -0.1449595E-06 ( -53.39%)
   displ. norm   :     0.0167956 α      lambda       -0.1362468E-06
   maximum displ.:     0.0088941 α      in ANC's #2, #8, #7, ...
 * RMSD in coord.:     0.0586525 α      energy gain  -0.4882832E-02 Eh

generating ANC from exact Hessian ...
Using Lindh-Hessian (1995)
 Shifting diagonal of input Hessian by   9.861268679399767E-003
 Lowest  eigenvalues of input Hessian
    0.000000    0.000000    0.000000    0.000000    0.000000    0.000000
    0.010000    0.010094    0.010265    0.010554    0.010715    0.010883
    0.011316    0.011540    0.012627    0.012771    0.013130    0.013489
 Highest eigenvalues
    2.107140    2.150943    2.170274    2.184886    2.236276    2.279403
 

........................................................................
.............................. CYCLE   21 ..............................
........................................................................

 iter      E             dE          RMSdq      gap      omega  full diag
   1   -109.3862161 -0.109386E+03  0.344E-03    0.23       0.0  T
   2   -109.3862161 -0.752451E-09  0.203E-03    0.23       5.9  T
   3   -109.3862161  0.940819E-07  0.958E-04    0.23      12.6  T
   4   -109.3862161 -0.868306E-07  0.299E-04    0.23      40.3  T
     SCC iter.                  ...        0 min,  0.024 sec
     gradient                   ...        0 min,  0.008 sec
 * total energy  :  -107.5480349 Eh     change       -0.1521091E-06 Eh
   gradient norm :     0.0000619 Eh/α   predicted     0.0000000E+00 (-100.00%)
   displ. norm   :     0.0000928 α      lambda        0.0000000E+00
   maximum displ.:     0.0000418 α      in ANC's #201, #200, #7, ...

........................................................................
.............................. CYCLE   22 ..............................
........................................................................

 iter      E             dE          RMSdq      gap      omega  full diag
   1   -109.3862146 -0.109386E+03  0.299E-04    0.23       0.0  T
   2   -109.3862145  0.797938E-07  0.909E-04    0.23      13.2  T
   3   -109.3862146 -0.872010E-07  0.749E-05    0.23     160.8  T
     SCC iter.                  ...        0 min,  0.018 sec
     gradient                   ...        0 min,  0.008 sec
 * total energy  :  -107.5480349 Eh     change       -0.1072952E-07 Eh
   gradient norm :     0.0000601 Eh/α   predicted    -0.1905597E-08 ( -82.24%)
   displ. norm   :     0.0000928 α      lambda        0.0000000E+00
   maximum displ.:     0.0000418 α      in ANC's #201, #200, #7, ...

   *** GEOMETRY OPTIMIZATION CONVERGED AFTER 22 ITERATIONS ***

------------------------------------------------------------------------
 total energy gain   :        -0.0048830 Eh       -3.0641 kcal/mol
 total RMSD          :         0.0586528 a0        0.0310 Å
 total power (kW/mol):        -0.5827409 (step)  -10.9415 (real)
------------------------------------------------------------------------

 ANCopt (total)                0 d,  0 h,  0 min,  1.172 sec
 optimizer setup                ...        0 min,  0.000 sec (  0.018%)
 model hessian                  ...        0 min,  0.062 sec (  5.296%)
 ANC generation                 ...        0 min,  0.008 sec (  0.699%)
 coordinate transformation      ...        0 min,  0.002 sec (  0.165%)
 single point calculation       ...        0 min,  1.081 sec ( 92.240%)
 optimization log               ...        0 min,  0.005 sec (  0.404%)
 hessian update                 ...        0 min,  0.002 sec (  0.191%)
 rational function              ...        0 min,  0.002 sec (  0.186%)

================
 final structure:
================
69
 xtb: 6.7.1 (edcfbbe)
C            8.54214753252582       -0.19335278912451        1.84438998235890
C            7.28816014873290       -0.40640714595423        1.05768512692225
C            6.16115769948250        0.30939819486906        1.20089681165398
C            5.01112085989306        0.02389266254767        0.38774218857630
C            3.82888852772375        0.72713154285525        0.48304322602839
C            2.72983700290255        0.39734145492427       -0.32776294533512
N            1.53809774060270        1.10992118833997       -0.22547394431437
C            1.42713339803221        2.50112622112019       -0.19626907493869
C            2.41175903349679        3.46145804098284       -0.30377749064025
C            2.02457205968771        4.79941551692737       -0.27348982174763
C            0.68660802787134        5.15827514818566       -0.14311150572469
C           -0.30905633320633        4.20070931351372       -0.05937279495362
C            0.05444664033154        2.85634496887661       -0.09915228442957
C           -0.68045709218184        1.63504050030470       -0.08479096332739
C           -2.02283765251659        1.32044526429991       -0.01926190542942
C           -2.42215187432733       -0.02432873918272        0.00582425587643
C           -1.45542314086987       -1.07532503254840       -0.01022286078581
C           -0.11265817596102       -0.75298588201643       -0.09500975499616
C            0.28675775406212        0.57522848580719       -0.15846266902032
C           -1.86122347172317       -2.53078290780034        0.07491471885359
C           -1.33550408082237       -3.26699299716453       -1.17414038554554
C           -1.24094703999037       -3.14375140968635        1.34696423002169
C           -3.36190652818257       -2.70606142830778        0.13973882144801
C           -3.90740766238077       -3.98073692745395        0.21479656430290
C           -5.27333203672873       -4.19021632213103        0.26990189061590
C           -6.13525891012398       -3.10306275816542        0.24750944497695
C           -5.62468375312872       -1.82698957281904        0.17700089209317
C           -4.23933567896965       -1.61043699059575        0.12642768753018
N           -3.75562555923203       -0.31789359666750        0.06481020597398
C           -4.69645468640195        0.75874211002169        0.06561879476645
C           -5.15717131977476        1.27162387296957        1.27151681701359
C           -6.06518280334735        2.31655257745914        1.26642106707953
C           -6.51179476136980        2.84530185138918        0.06608505688785
C           -6.05088894597880        2.32943038724624       -1.13446957572482
C           -5.14243476331458        1.28482624789275       -1.13998770270798
C            2.84710980439338       -0.66364428927787       -1.25495006445559
C            4.01157591830882       -1.36264536899228       -1.36676844171607
C            5.13189736910470       -1.04883876460906       -0.54836114837055
C            6.33682886288519       -1.78256694741890       -0.66913620159014
O            6.55341111942063       -2.72497491918066       -1.43921199522380
O            7.40875623748716       -1.42385222012694        0.15949331707876
H            9.36645056061233        0.03123564570733        1.16883248397459
H            8.79761073164351       -1.10509198966440        2.38275096599033
H            8.41349314248240        0.62249753462032        2.54800676371622
H            6.11360213169930        1.10661047990669        1.92446108935704
H            3.73289007574213        1.51170059017538        1.21894805795517
H            3.44983138267535        3.19247550630142       -0.42426568632449
H            2.77831858974562        5.56732578204793       -0.35826238391259
H            0.42269348392919        6.20550541807854       -0.11710087329222
H           -1.34646530046574        4.48499086270001        0.02877167516983
H           -2.75685930086110        2.10800117974064        0.01868534812757
H            0.63634798954902       -1.52799432339588       -0.09804435883641
H           -1.61179257875673       -4.31676095666933       -1.15059848918725
H           -1.75316439669783       -2.82067757716892       -2.07475807685274
H           -0.25268434614549       -3.20487416376561       -1.22880104395088
H           -1.48497942564048       -4.19884028259822        1.42682694068431
H           -0.15935483574014       -3.04549369481700        1.33099787645915
H           -1.61951531721303       -2.63344243257534        2.23060798324852
H           -3.25283367726777       -4.83782805670679        0.23117462359075
H           -5.66314064824636       -5.19482416767163        0.32753884297284
H           -7.20344105357609       -3.25194855325990        0.28587370185566
H           -6.29704396283452       -0.98427546050280        0.15963006941896
H           -4.80125183960922        0.85282971482357        2.20087112294401
H           -6.42289177293933        2.71723659414042        2.20271070519619
H           -7.21957618071071        3.66027855967535        0.06617123275104
H           -6.39792829010918        2.73962587196401       -2.07064905973272
H           -4.77533068912500        0.87636932592697       -2.06958754344427
H            2.01623076039496       -0.87855921634514       -1.91079332308848
H            4.12654810957757       -2.16213489953737       -2.08349518302227
 
 Bond Distances (Angstroems)
 ---------------------------
C1-C2=1.4956         C1-H42=1.0892        C1-H43=1.0892        C1-H44=1.0850        C2-C1=1.4956         C2-C3=1.3428         
C2-O41=1.3625        C3-C2=1.3428         C3-C4=1.4371         C3-H45=1.0777        C4-C3=1.4371         C4-C5=1.3789         
C4-C38=1.4289        C5-C4=1.3789         C5-C6=1.4050         C5-H46=1.0800        C6-C5=1.4050         C6-N7=1.3923         
C6-C36=1.4139        N7-C6=1.3923         N7-C8=1.3959         N7-C19=1.3624        C8-N7=1.3959         C8-C9=1.3796         
C8-C13=1.4212        C9-C8=1.3796         C9-C10=1.3932        C9-H47=1.0791        C10-C9=1.3932        C10-C11=1.3914       
C10-H48=1.0794       C11-C10=1.3914       C11-C12=1.3839       C11-H49=1.0803       C12-C11=1.3839       C12-C13=1.3932       
C12-H50=1.0793       C13-C8=1.4212        C13-C12=1.3932       C13-C14=1.4254       C14-C13=1.4254       C14-C15=1.3803       
C14-C19=1.4367       C15-C14=1.3803       C15-C16=1.4030       C15-H51=1.0773       C16-C15=1.4030       C16-C17=1.4281       
C16-N29=1.3667       C17-C16=1.4281       C17-C18=1.3835       C17-C20=1.5134       C18-C17=1.3835       C18-C19=1.3884       
C18-H52=1.0778       C19-N7=1.3624        C19-C14=1.4367       C19-C18=1.3884       C20-C17=1.5134       C20-C21=1.5422       
C20-C22=1.5423       C20-C23=1.5123       C21-C20=1.5422       C21-H53=1.0858       C21-H54=1.0885       C21-H55=1.0860       
C22-C20=1.5423       C22-H56=1.0859       C22-H57=1.0862       C22-H58=1.0884       C23-C20=1.5123       C23-C24=1.3885       
C23-C28=1.4037       C24-C23=1.3885       C24-C25=1.3830       C24-H59=1.0786       C25-C24=1.3830       C25-C26=1.3876       
C25-H60=1.0791       C26-C25=1.3876       C26-C27=1.3762       C26-H61=1.0792       C27-C26=1.3762       C27-C28=1.4031       
C27-H62=1.0782       C28-C23=1.4037       C28-C27=1.4031       C28-N29=1.3815       N29-C16=1.3667       N29-C28=1.3815       
N29-C30=1.4298       C30-N29=1.4298       C30-C31=1.3891       C30-C35=1.3889       C31-C30=1.3891       C31-C32=1.3843       
C31-H63=1.0797       C32-C31=1.3843       C32-C33=1.3856       C32-H64=1.0794       C33-C32=1.3856       C33-C34=1.3856       
C33-H65=1.0794       C34-C33=1.3856       C34-C35=1.3844       C34-H66=1.0794       C35-C30=1.3889       C35-C34=1.3844       
C35-H67=1.0797       C36-C6=1.4139        C36-C37=1.3627       C36-H68=1.0801       C37-C36=1.3627       C37-C38=1.4225       
C37-H69=1.0799       C38-C4=1.4289        C38-C37=1.4225       C38-C39=1.4159       C39-C38=1.4159       C39-O40=1.2361       
C39-O41=1.4015       O40-C39=1.2361       O41-C2=1.3625        O41-C39=1.4015       H42-C1=1.0892        H43-C1=1.0892        
H44-C1=1.0850        H45-C3=1.0777        H46-C5=1.0800        H47-C9=1.0791        H48-C10=1.0794       H49-C11=1.0803       
H50-C12=1.0793       H51-C15=1.0773       H52-C18=1.0778       H53-C21=1.0858       H54-C21=1.0885       H55-C21=1.0860       
H56-C22=1.0859       H57-C22=1.0862       H58-C22=1.0884       H59-C24=1.0786       H60-C25=1.0791       H61-C26=1.0792       
H62-C27=1.0782       H63-C31=1.0797       H64-C32=1.0794       H65-C33=1.0794       H66-C34=1.0794       H67-C35=1.0797       
H68-C36=1.0801       H69-C37=1.0799       
 C  H  Rav=1.0817 sigma=0.0039  Rmin=1.0773  Rmax=1.0892    28
 C  C  Rav=1.4123 sigma=0.0466  Rmin=1.3428  Rmax=1.5423    39
 N  C  Rav=1.3881 sigma=0.0223  Rmin=1.3624  Rmax=1.4298     6
 O  C  Rav=1.3334 sigma=0.0706  Rmin=1.2361  Rmax=1.4015     3
 
 selected bond angles (degree)
 --------------------
H42-C1-C2=109.74               H43-C1-C2=109.72               H43-C1-H42=107.56              H44-C1-C2=110.41               
H44-C1-H42=109.69              H44-C1-H43=109.68              C3-C2-C1=124.87                O41-C2-C1=112.27               
O41-C2-C3=122.87               C4-C3-C2=120.36                H45-C3-C2=120.20               H45-C3-C4=119.44               
C5-C4-C3=123.07                C38-C4-C3=116.89               C38-C4-C5=120.04               C6-C5-C4=120.74                
H46-C5-C4=119.59               H46-C5-C6=119.62               N7-C6-C5=120.47                C36-C6-C5=119.32               
C36-C6-N7=120.21               C8-N7-C6=125.43                C19-N7-C6=126.08               C19-N7-C8=108.49               
C9-C8-N7=129.45                C13-C8-N7=109.10               C13-C8-C9=121.38               C10-C9-C8=117.93               
H47-C9-C8=121.45               H47-C9-C10=120.61              C11-C10-C9=121.13              H48-C10-C9=119.17              
H48-C10-C11=119.70             
 
 selected dihedral angles (degree)
 ---------------------------------
C3-C2-C1-H42=238.94           C3-C2-C1-H43=120.97           C3-C2-C1-H44=359.97           O41-C2-C1-H42= 58.91          
O41-C2-C1-H43=300.94          O41-C2-C1-H44=179.94          C4-C3-C2-C1=179.77            C4-C3-C2-O41=359.81           
H45-C3-C2-C1=  0.05           H45-C3-C2-O41=180.09          C5-C4-C3-C2=180.34            C5-C4-C3-H45=  0.06           
C38-C4-C3-C2=  0.61           C38-C4-C3-H45=180.33          C6-C5-C4-C3=180.64            C6-C5-C4-C38=  0.36           
H46-C5-C4-C3=357.96           H46-C5-C4-C38=177.68          N7-C6-C5-C4=179.90            N7-C6-C5-H46=  2.59           
C36-C6-C5-C4=359.63           C36-C6-C5-H46=182.32          C8-N7-C6-C5= 47.14            C8-N7-C6-C36=227.42           
C19-N7-C6-C5=226.04           C19-N7-C6-C36= 46.31          C9-C8-N7-C6=  2.47            C9-C8-N7-C19=183.41           
C13-C8-N7-C6=179.41           C13-C8-N7-C19=  0.36          C10-C9-C8-N7=178.54           C10-C9-C8-C13=  1.92          
H47-C9-C8-N7=359.54           H47-C9-C8-C13=182.92          C11-C10-C9-C8=359.80          C11-C10-C9-H47=178.82         
H48-C10-C9-C8=180.14          H48-C10-C9-H47=359.15         
           -------------------------------------------------
          |                Final Singlepoint                |
           -------------------------------------------------

          ...................................................
          :                      SETUP                      :
          :.................................................:
          :  # basis functions                 192          :
          :  # atomic orbitals                 192          :
          :  # shells                          110          :
          :  # electrons                       198          :
          :  max. iterations                   250          :
          :  Hamiltonian                  GFN2-xTB          :
          :  restarted?                      false          :
          :  GBSA solvation                   true          :
          :  PC potential                    false          :
          :  electronic temp.          300.0000000     K    :
          :  accuracy                    1.0000000          :
          :  -> integral cutoff          0.2500000E+02      :
          :  -> integral neglect         0.1000000E-07      :
          :  -> SCF convergence          0.1000000E-05 Eh   :
          :  -> wf. convergence          0.1000000E-03 e    :
          :  Broyden damping             0.4000000          :
          :  net charge                          0          :
          :  unpaired electrons                  2          :
          ...................................................

 iter      E             dE          RMSdq      gap      omega  full diag
   1   -109.3862146 -0.109386E+03  0.397E-05    0.23       0.0  T
   2   -109.3862146  0.179995E-09  0.490E-05    0.23     245.7  T
   3   -109.3862146 -0.101366E-09  0.396E-05    0.23     304.2  T

   *** convergence criteria satisfied after 3 iterations ***

         #    Occupation            Energy/Eh            Energy/eV
      -------------------------------------------------------------
         1        2.0000           -0.7207671             -19.6131
       ...           ...                  ...                  ...
        94        2.0000           -0.4012552             -10.9187
        95        2.0000           -0.3897750             -10.6063
        96        2.0000           -0.3841155             -10.4523
        97        2.0000           -0.3781576             -10.2902
        98        1.9997           -0.3711378             -10.0992
        99        1.0003           -0.3559295              -9.6853
       100        0.9891           -0.2615752              -7.1178 (HOMO)
       101        0.0109           -0.2530064              -6.8847 (LUMO)
       102        0.0000           -0.2465411              -6.7087
       103        0.0000           -0.2439269              -6.6376
       104                         -0.2415768              -6.5736
       105                         -0.2385882              -6.4923
       ...                                ...                  ...
       192                          0.7405392              20.1511
      -------------------------------------------------------------
                  HL-Gap            0.0085688 Eh            0.2332 eV
             Fermi-level           -0.3104124 Eh           -8.4468 eV
 
 transition dipole moment (au) for excitation:          99         100
     X       Y       Z   
   1.5254  -0.9841  -0.1338  total (au/Debye):    1.820   4.627
 dE (eV)             :    2.568
 oscillator strength :  0.29474E+00

 SCC (total)                   0 d,  0 h,  0 min,  0.042 sec
 SCC setup                      ...        0 min,  0.001 sec (  1.504%)
 Dispersion                     ...        0 min,  0.001 sec (  1.586%)
 classical contributions        ...        0 min,  0.000 sec (  0.081%)
 integral evaluation            ...        0 min,  0.002 sec (  5.863%)
 iterations                     ...        0 min,  0.018 sec ( 43.090%)
 molecular gradient             ...        0 min,  0.008 sec ( 18.496%)
 printout                       ...        0 min,  0.012 sec ( 29.219%)

         :::::::::::::::::::::::::::::::::::::::::::::::::::::
         ::                     SUMMARY                     ::
         :::::::::::::::::::::::::::::::::::::::::::::::::::::
         :: total energy            -107.548034895575 Eh    ::
         :: total w/o Gsasa/hb      -107.509452664875 Eh    ::
         :: gradient norm              0.000068986783 Eh/a0 ::
         :: HOMO-LUMO gap              0.233167715698 eV    ::
         ::.................................................::
         :: SCC energy              -109.385912318980 Eh    ::
         :: -> isotropic ES            0.094337314760 Eh    ::
         :: -> anisotropic ES          0.003643510639 Eh    ::
         :: -> anisotropic XC          0.049342479904 Eh    ::
         :: -> dispersion             -0.094455050600 Eh    ::
         :: -> Gsolv                  -0.063392217687 Eh    ::
         ::    -> Gelec               -0.024809986986 Eh    ::
         ::    -> Gsasa               -0.043106110572 Eh    ::
         ::    -> Ghb                  0.000000000000 Eh    ::
         ::    -> Gshift               0.004523879872 Eh    ::
         :: repulsion energy           1.837877423404 Eh    ::
         :: add. restraining           0.000000000000 Eh    ::
         :: total charge              -0.000000000002 e     ::
         :::::::::::::::::::::::::::::::::::::::::::::::::::::

           ------------------------------------------------- 
          |                Numerical Hessian                |
           ------------------------------------------------- 
step length          :   0.00500
SCC accuracy         :   0.30000
Hessian scale factor :   1.00000
frozen atoms in %    :   0.00000    0
RMS gradient         :   0.00006
estimated CPU  time     21.15 min
estimated wall time      0.53 min

writing file <hessian>.

 projected vibrational frequencies (cm⁻¹)
eigval :       -0.00    -0.00    -0.00    -0.00    -0.00     0.00
eigval :       11.91    21.45    27.11    32.40    35.43    49.43
eigval :       53.47    57.14    81.77    92.90    99.83   108.15
eigval :      112.35   126.76   135.95   136.96   150.13   157.74
eigval :      161.84   203.92   205.35   214.08   219.70   241.54
eigval :      251.30   257.41   272.28   275.83   289.51   293.61
eigval :      321.72   334.01   336.64   363.33   369.74   372.59
eigval :      386.45   395.84   413.26   421.48   426.87   432.34
eigval :      448.28   475.03   483.80   495.44   505.24   520.92
eigval :      525.95   529.52   537.99   542.25   555.51   556.58
eigval :      572.85   578.24   589.11   592.84   610.66   623.99
eigval :      629.43   657.54   662.40   666.47   668.63   672.51
eigval :      674.85   688.46   696.40   710.00   749.93   761.72
eigval :      762.70   774.12   786.89   801.03   813.41   820.05
eigval :      821.35   843.63   857.21   859.64   869.94   873.95
eigval :      874.81   898.73   900.72   904.38   909.00   909.29
eigval :      917.57   918.04   924.48   928.24   932.96   938.33
eigval :      941.46   953.23   958.24   970.69   991.61  1006.35
eigval :     1011.93  1024.90  1027.66  1064.32  1074.67  1077.66
eigval :     1082.53  1101.62  1108.25  1113.15  1132.23  1139.31
eigval :     1142.72  1151.68  1158.48  1171.95  1176.02  1176.42
eigval :     1183.29  1191.49  1202.83  1209.58  1223.26  1226.40
eigval :     1231.52  1239.84  1249.02  1254.09  1256.31  1271.18
eigval :     1276.92  1285.51  1300.50  1305.92  1306.69  1328.44
eigval :     1335.37  1348.35  1353.14  1376.13  1386.17  1391.50
eigval :     1399.31  1401.74  1409.91  1417.42  1422.94  1428.30
eigval :     1438.46  1442.15  1448.62  1456.60  1459.73  1462.98
eigval :     1466.10  1466.95  1481.92  1484.28  1486.32  1494.83
eigval :     1497.49  1506.67  1532.49  1550.17  1568.42  1573.70
eigval :     1577.33  1578.60  1585.82  1604.81  1651.87  3005.48
eigval :     3020.77  3026.51  3028.80  3046.29  3048.50  3054.49
eigval :     3058.79  3063.48  3074.89  3075.50  3081.20  3084.79
eigval :     3084.99  3086.60  3086.80  3089.09  3090.55  3092.63
eigval :     3093.81  3097.12  3098.20  3102.59  3103.54  3104.70
eigval :     3107.60  3111.53  3118.12
           -------------------------------------------------
          |                Property Printout                |
           -------------------------------------------------

    * Orbital Energies and Occupations

         #    Occupation            Energy/Eh            Energy/eV
      -------------------------------------------------------------
         1        2.0000           -0.7207676             -19.6131
       ...           ...                  ...                  ...
        88        2.0000           -0.4241106             -11.5406
        89        2.0000           -0.4208175             -11.4510
        90        2.0000           -0.4196886             -11.4203
        91        2.0000           -0.4183516             -11.3839
        92        2.0000           -0.4159360             -11.3182
        93        2.0000           -0.4122907             -11.2190
        94        2.0000           -0.4012554             -10.9187
        95        2.0000           -0.3897746             -10.6063
        96        2.0000           -0.3841160             -10.4523
        97        2.0000           -0.3781574             -10.2902
        98        1.9997           -0.3711382             -10.0992
        99        1.0003           -0.3559293              -9.6853
       100        0.9891           -0.2615754              -7.1178 (HOMO)
       101        0.0109           -0.2530061              -6.8846 (LUMO)
       102        0.0000           -0.2465410              -6.7087
       103        0.0000           -0.2439268              -6.6376
       104                         -0.2415766              -6.5736
       105                         -0.2385886              -6.4923
       106                         -0.2361620              -6.4263
       107                         -0.2201952              -5.9918
       108                         -0.1997835              -5.4364
       109                         -0.1922050              -5.2302
       110                         -0.1754625              -4.7746
       111                         -0.1588385              -4.3222
       ...                                ...                  ...
       192                          0.7405398              20.1511
      -------------------------------------------------------------
                  HL-Gap            0.0085692 Eh            0.2332 eV
             Fermi-level           -0.3104124 Eh           -8.4468 eV

     #   Z          covCN         q      C6AA      α(0)
     1   6 C        3.755    -0.120    22.854     6.816
     2   6 C        2.841     0.141    24.918     8.181
     3   6 C        2.905    -0.088    30.218     9.014
     4   6 C        2.980     0.007    27.854     8.657
     5   6 C        2.917    -0.059    29.466     8.901
     6   6 C        2.909     0.029    27.350     8.575
     7   7 N        2.795     0.004    21.184     6.836
     8   6 C        3.076     0.040    27.035     8.525
     9   6 C        2.908    -0.041    29.009     8.832
    10   6 C        2.922    -0.041    29.026     8.835
    11   6 C        2.918    -0.034    28.851     8.808
    12   6 C        2.911    -0.035    28.874     8.811
    13   6 C        3.054    -0.020    28.456     8.748
    14   6 C        3.060    -0.015    28.318     8.727
    15   6 C        2.913    -0.056    29.395     8.891
    16   6 C        2.927     0.060    26.663     8.468
    17   6 C        2.976    -0.017    28.421     8.745
    18   6 C        2.912    -0.048    29.196     8.860
    19   6 C        3.063     0.043    26.963     8.515
    20   6 C        3.909     0.025    20.089     6.371
    21   6 C        3.761    -0.106    22.578     6.774
    22   6 C        3.761    -0.107    22.584     6.774
    23   6 C        2.978     0.001    27.993     8.679
    24   6 C        2.925    -0.031    28.781     8.798
    25   6 C        2.917    -0.030    28.756     8.794
    26   6 C        2.918    -0.028    28.691     8.784
    27   6 C        2.922    -0.047    29.166     8.856
    28   6 C        2.930     0.056    26.746     8.481
    29   7 N        2.756    -0.002    21.297     6.854
    30   6 C        2.933     0.059    26.676     8.470
    31   6 C        2.920    -0.034    28.853     8.809
    32   6 C        2.920    -0.024    28.596     8.769
    33   6 C        2.919    -0.026    28.640     8.776
    34   6 C        2.920    -0.024    28.595     8.769
    35   6 C        2.920    -0.034    28.849     8.808
    36   6 C        2.913    -0.047    29.161     8.855
    37   6 C        2.915    -0.039    28.971     8.826
    38   6 C        2.973    -0.061    29.522     8.912
    39   6 C        2.714     0.304    21.832     7.648
    40   8 O        0.857    -0.542    24.741     6.669
    41   8 O        1.706    -0.299    18.977     5.882
    42   1 H        0.925     0.067     2.118     2.276
    43   1 H        0.925     0.067     2.115     2.274
    44   1 H        0.925     0.065     2.138     2.286
    45   1 H        0.926     0.046     2.371     2.408
    46   1 H        0.926     0.036     2.501     2.473
    47   1 H        0.926     0.036     2.504     2.475
    48   1 H        0.926     0.032     2.560     2.502
    49   1 H        0.926     0.034     2.524     2.484
    50   1 H        0.926     0.037     2.486     2.466
    51   1 H        0.926     0.049     2.338     2.391
    52   1 H        0.926     0.048     2.341     2.393
    53   1 H        0.925     0.050     2.320     2.382
    54   1 H        0.925     0.038     2.478     2.462
    55   1 H        0.925     0.047     2.361     2.403
    56   1 H        0.925     0.050     2.314     2.379
    57   1 H        0.925     0.047     2.362     2.403
    58   1 H        0.925     0.038     2.471     2.458
    59   1 H        0.926     0.049     2.336     2.390
    60   1 H        0.926     0.044     2.392     2.419
    61   1 H        0.926     0.045     2.381     2.413
    62   1 H        0.926     0.046     2.366     2.405
    63   1 H        0.926     0.050     2.321     2.382
    64   1 H        0.926     0.051     2.305     2.374
    65   1 H        0.926     0.049     2.328     2.386
    66   1 H        0.926     0.051     2.308     2.376
    67   1 H        0.926     0.049     2.327     2.385
    68   1 H        0.926     0.035     2.512     2.478
    69   1 H        0.926     0.026     2.648     2.544

 Mol. C6AA /au·bohr⁶  :      65159.436824
 Mol. C8AA /au·bohr⁸  :    1629305.897665
 Mol. α(0) /au        :        407.570229


MOs/occ written to file <molden.input>


molecular dipole:
                 x           y           z       tot (Debye)
 q only:       -8.226       2.175       1.727
   full:       -8.043       2.185       1.731      21.637
molecular quadrupole (traceless):
                xx          xy          yy          xz          yz          zz
 q only:      -27.115      49.163      13.931      32.548      -9.426      13.184
  q+dip:      -22.240      46.876      15.609      32.832      -9.252       6.631
   full:      -26.131      50.178      13.013      32.762     -10.872      13.118

           -------------------------------------------------
          |                Geometry Summary                 |
           -------------------------------------------------

      molecular mass/u    :      532.6317856
   center of mass at/Å    :        0.0018490       0.0027898      -0.0042077
  moments of inertia/u·Å² :        0.3357117E+04   0.1080727E+05   0.1348696E+05
rotational constants/cm⁻¹ :        0.5021461E-02   0.1559842E-02   0.1249921E-02

 * 68 selected distances

     #   Z          #   Z                                           value/Å
     2   6 C        3   6 C                                       1.3427664
     4   6 C        5   6 C                                       1.3788767
     5   6 C        6   6 C                                       1.4050206
     6   6 C        7   7 N                                       1.3922915
     7   7 N        8   6 C                                       1.3959290
     8   6 C        9   6 C                                       1.3795953
     9   6 C       10   6 C                                       1.3931840
    10   6 C       11   6 C                                       1.3913759
    11   6 C       12   6 C                                       1.3839409
     8   6 C       13   6 C                                       1.4212253
    12   6 C       13   6 C                                       1.3932095
    13   6 C       14   6 C                                       1.4254384
    14   6 C       15   6 C                                       1.3803080
    15   6 C       16   6 C                                       1.4030319
    16   6 C       17   6 C                                       1.4280811
    17   6 C       18   6 C                                       1.3835134
     7   7 N       19   6 C                                       1.3624386
    14   6 C       19   6 C                                       1.4367094 (max)
    18   6 C       19   6 C                                       1.3884211
    23   6 C       24   6 C                                       1.3885255
    24   6 C       25   6 C                                       1.3829924
    25   6 C       26   6 C                                       1.3875599
    26   6 C       27   6 C                                       1.3762346
    23   6 C       28   6 C                                       1.4037280
    27   6 C       28   6 C                                       1.4030831
    16   6 C       29   7 N                                       1.3666792
    28   6 C       29   7 N                                       1.3814633
    30   6 C       31   6 C                                       1.3890637
    31   6 C       32   6 C                                       1.3843364
    32   6 C       33   6 C                                       1.3855847
    33   6 C       34   6 C                                       1.3856007
    30   6 C       35   6 C                                       1.3889385
    34   6 C       35   6 C                                       1.3843835
     6   6 C       36   6 C                                       1.4139024
    36   6 C       37   6 C                                       1.3627500
     4   6 C       38   6 C                                       1.4288560
    37   6 C       38   6 C                                       1.4224576
    38   6 C       39   6 C                                       1.4159110
    39   6 C       40   8 O                                       1.2361463
     2   6 C       41   8 O                                       1.3625295
     1   6 C       42   1 H                                       1.0891711
     1   6 C       43   1 H                                       1.0892027
     1   6 C       44   1 H                                       1.0850071
     3   6 C       45   1 H                                       1.0776616
     5   6 C       46   1 H                                       1.0799632
     9   6 C       47   1 H                                       1.0791031
    10   6 C       48   1 H                                       1.0793547
    11   6 C       49   1 H                                       1.0802865
    12   6 C       50   1 H                                       1.0792604
    15   6 C       51   1 H                                       1.0772522 (min)
    18   6 C       52   1 H                                       1.0778023
    21   6 C       53   1 H                                       1.0857728
    21   6 C       54   1 H                                       1.0884622
    21   6 C       55   1 H                                       1.0859767
    22   6 C       56   1 H                                       1.0858833
    22   6 C       57   1 H                                       1.0861636
    22   6 C       58   1 H                                       1.0883730
    24   6 C       59   1 H                                       1.0785828
    25   6 C       60   1 H                                       1.0791246
    26   6 C       61   1 H                                       1.0791905
    27   6 C       62   1 H                                       1.0782102
    31   6 C       63   1 H                                       1.0797068
    32   6 C       64   1 H                                       1.0794174
    33   6 C       65   1 H                                       1.0794173
    34   6 C       66   1 H                                       1.0794114
    35   6 C       67   1 H                                       1.0797030
    36   6 C       68   1 H                                       1.0801292
    37   6 C       69   1 H                                       1.0798609

 * 4 distinct bonds (by element types)

   Z      Z             #   av. dist./Å        max./Å        min./Å
   1 H    6 C          28     1.0816947     1.0892027     1.0772522
   6 C    6 C          33     1.3951093     1.4367094     1.3427664
   6 C    7 N           5     1.3797603     1.3959290     1.3624386
   6 C    8 O           2     1.2993379     1.3625295     1.2361463

           -------------------------------------------------
          |               Frequency Printout                |
           -------------------------------------------------
 projected vibrational frequencies (cm⁻¹)
eigval :       -0.00    -0.00    -0.00    -0.00    -0.00     0.00
eigval :       11.91    21.45    27.11    32.40    35.43    49.43
eigval :       53.47    57.14    81.77    92.90    99.83   108.15
eigval :      112.35   126.76   135.95   136.96   150.13   157.74
eigval :      161.84   203.92   205.35   214.08   219.70   241.54
eigval :      251.30   257.41   272.28   275.83   289.51   293.61
eigval :      321.72   334.01   336.64   363.33   369.74   372.59
eigval :      386.45   395.84   413.26   421.48   426.87   432.34
eigval :      448.28   475.03   483.80   495.44   505.24   520.92
eigval :      525.95   529.52   537.99   542.25   555.51   556.58
eigval :      572.85   578.24   589.11   592.84   610.66   623.99
eigval :      629.43   657.54   662.40   666.47   668.63   672.51
eigval :      674.85   688.46   696.40   710.00   749.93   761.72
eigval :      762.70   774.12   786.89   801.03   813.41   820.05
eigval :      821.35   843.63   857.21   859.64   869.94   873.95
eigval :      874.81   898.73   900.72   904.38   909.00   909.29
eigval :      917.57   918.04   924.48   928.24   932.96   938.33
eigval :      941.46   953.23   958.24   970.69   991.61  1006.35
eigval :     1011.93  1024.90  1027.66  1064.32  1074.67  1077.66
eigval :     1082.53  1101.62  1108.25  1113.15  1132.23  1139.31
eigval :     1142.72  1151.68  1158.48  1171.95  1176.02  1176.42
eigval :     1183.29  1191.49  1202.83  1209.58  1223.26  1226.40
eigval :     1231.52  1239.84  1249.02  1254.09  1256.31  1271.18
eigval :     1276.92  1285.51  1300.50  1305.92  1306.69  1328.44
eigval :     1335.37  1348.35  1353.14  1376.13  1386.17  1391.50
eigval :     1399.31  1401.74  1409.91  1417.42  1422.94  1428.30
eigval :     1438.46  1442.15  1448.62  1456.60  1459.73  1462.98
eigval :     1466.10  1466.95  1481.92  1484.28  1486.32  1494.83
eigval :     1497.49  1506.67  1532.49  1550.17  1568.42  1573.70
eigval :     1577.33  1578.60  1585.82  1604.81  1651.87  3005.48
eigval :     3020.77  3026.51  3028.80  3046.29  3048.50  3054.49
eigval :     3058.79  3063.48  3074.89  3075.50  3081.20  3084.79
eigval :     3084.99  3086.60  3086.80  3089.09  3090.55  3092.63
eigval :     3093.81  3097.12  3098.20  3102.59  3103.54  3104.70
eigval :     3107.60  3111.53  3118.12
 reduced masses (amu)
   1: 12.23   2: 11.68   3: 11.74   4: 11.38   5: 11.51   6: 11.59   7: 11.37   8: 11.45
   9: 10.70  10: 10.90  11: 10.81  12: 10.69  13: 10.79  14: 10.81  15:  9.97  16:  7.95
  17:  5.11  18:  9.81  19: 10.23  20: 10.28  21: 14.42  22:  6.54  23:  8.91  24: 10.11
  25: 10.32  26:  5.10  27:  6.56  28: 10.19  29: 10.72  30:  9.91  31: 10.24  32: 10.80
  33: 10.06  34: 10.02  35: 10.52  36: 10.27  37: 11.29  38:  9.52  39: 11.03  40:  9.80
  41:  9.62  42:  8.92  43: 10.73  44: 10.32  45: 10.42  46: 10.57  47: 10.92  48: 10.86
  49: 10.35  50: 10.83  51: 10.86  52: 12.44  53: 11.05  54: 11.47  55:  9.93  56: 10.82
  57: 11.49  58: 11.64  59: 11.58  60: 11.26  61: 11.33  62: 11.05  63: 11.70  64: 11.35
  65: 11.49  66: 11.24  67: 11.65  68: 11.18  69: 11.20  70: 11.10  71: 11.66  72:  9.16
  73: 11.88  74: 11.69  75: 11.52  76: 11.54  77: 11.32  78:  3.74  79:  5.88  80:  3.46
  81: 10.08  82:  3.90  83:  4.00  84:  8.34  85:  5.00  86:  3.39  87:  3.79  88: 10.78
  89:  3.51  90:  3.36  91:  3.34  92:  3.80  93:  8.45  94:  6.47  95:  3.93  96:  3.57
  97:  9.28  98:  3.87  99:  3.26 100:  4.16 101:  8.78 102:  3.49 103: 12.72 104: 11.32
 105:  4.62 106:  9.81 107: 10.69 108:  9.79 109:  3.22 110:  4.56 111:  6.28 112:  6.04
 113:  7.70 114:  6.18 115:  8.44 116:  7.73 117:  6.16 118:  3.91 119:  5.20 120:  5.90
 121: 10.04 122:  5.48 123:  6.69 124:  3.12 125:  2.41 126:  4.53 127:  1.50 128:  4.22
 129:  7.25 130:  7.07 131:  5.13 132:  6.29 133:  7.75 134:  6.62 135:  6.45 136:  8.61
 137:  8.14 138:  3.54 139:  8.84 140:  8.59 141: 10.19 142: 11.15 143: 11.08 144: 11.79
 145: 11.45 146: 11.00 147: 11.19 148:  9.97 149:  6.37 150:  8.14 151:  2.94 152:  9.34
 153: 10.26 154:  4.12 155:  8.57 156:  8.92 157: 10.62 158: 11.33 159:  1.57 160:  9.76
 161:  9.25 162:  7.39 163:  6.22 164:  9.44 165:  1.60 166:  1.76 167: 11.33 168:  1.89
 169:  2.60 170: 11.70 171: 11.49 172: 11.51 173: 11.73 174: 11.73 175: 11.55 176: 11.53
 177: 11.48 178: 12.48 179: 11.71 180:  1.94 181:  1.45 182:  1.82 183:  1.77 184:  1.94
 185:  1.94 186:  1.39 187:  1.43 188:  1.77 189:  1.76 190:  1.77 191:  1.82 192:  1.75
 193:  1.80 194:  1.79 195:  1.77 196:  1.87 197:  1.86 198:  1.84 199:  1.82 200:  1.89
 201:  1.90 202:  1.88 203:  1.93 204:  1.83 205:  1.82 206:  1.86 207:  1.81
 IR intensities (km·mol⁻¹)
   1:  1.55   2:  1.02   3:  0.66   4:  0.22   5:  0.91   6:  1.71   7:  1.24   8:  0.31
   9:  2.22  10:  4.80  11:  4.22  12:  1.89  13:  0.02  14:  2.08  15:  0.87  16:  5.97
  17: 12.68  18:  1.83  19:  0.43  20:  1.50  21:  0.48  22:  0.38  23:  0.01  24:  0.59
  25: 17.10  26:  1.23  27:  0.32  28:  0.75  29:  3.73  30:  1.15  31:  4.23  32: 11.13
  33:  3.19  34:  3.11  35:  2.66  36:  7.34  37:  0.45  38:  0.23  39:  2.95  40:  3.09
  41:  1.99  42:  0.34  43:  5.44  44:  2.57  45:  0.54  46:  2.90  47:  2.55  48:  8.36
  49:  1.16  50:  0.70  51:  0.75  52:  3.20  53:  0.94  54:  1.04  55:  1.49  56: 19.64
  57:  8.65  58:  7.92  59: 29.45  60:  1.79  61: 21.18  62:  1.24  63: 18.03  64:  0.11
  65: 13.17  66:  7.65  67: 14.63  68:116.50  69: 19.03  70:  2.78  71:  6.20  72: 36.55
  73: 22.44  74:  7.13  75:  3.65  76:177.66  77:120.43  78: 38.37  79: 12.11  80: 29.05
  81:  5.54  82: 17.30  83: 13.71  84: 65.82  85: 22.64  86: 10.64  87: 16.68  88: 49.71
  89:  0.47  90:  5.88  91:  0.90  92:  3.32  93: 27.97  94:  0.19  95:  9.54  96:  7.07
  97: 17.02  98:  1.30  99:  0.45 100:  0.03 101:  6.26 102:  6.55 103:612.58 104:899.19
 105:  0.48 106: 71.21 107: 20.44 108:  6.49 109:  0.43 110: 13.18 111:450.99 112: 35.32
 113: 17.67 114: 38.78 115: 34.77 116:121.77 117: 35.98 118:  2.77 119:135.57 120: 12.66
 121:  5.29 122: 27.87 123:263.90 124:  6.40 125: 14.19 126: 35.52 127:  1.24 128: 42.94
 129:175.29 130:125.69 131:228.71 132: 44.14 133: 21.19 134:303.40 135:  2.99 136:100.66
 137:937.54 138:  0.02 139: 27.59 140:102.42 141:  9.10 142:  2.44 143:  3.12 144:  1.42
 145:208.08 146:205.92 147:830.21 148: 27.73 149: 94.17 150: 12.80 151: 11.17 152:******
 153:158.48 154: 21.95 155: 14.28 156:  1.59 157:680.53 158:512.94 159:  8.00 160: 18.10
 161: 15.64 162:112.07 163: 13.92 164: 68.78 165:  1.31 166: 88.91 167:****** 168:103.06
 169: 17.96 170:122.70 171: 41.89 172: 29.12 173:385.25 174:501.73 175:127.48 176: 14.48
 177:  3.10 178:****** 179:****** 180: 14.22 181: 73.43 182: 50.05 183: 12.83 184:  7.14
 185: 73.02 186: 12.39 187: 58.12 188: 28.75 189: 88.21 190: 21.25 191: 45.44 192: 30.36
 193: 30.54 194:  1.11 195:  7.93 196: 80.84 197: 84.29 198: 20.43 199: 43.69 200: 76.28
 201:127.88 202:102.14 203:192.06 204:112.08 205: 36.70 206: 83.48 207:  5.05
 Raman intensities (Ä⁴*amu⁻¹)
   1:  0.00   2:  0.00   3:  0.00   4:  0.00   5:  0.00   6:  0.00   7:  0.00   8:  0.00
   9:  0.00  10:  0.00  11:  0.00  12:  0.00  13:  0.00  14:  0.00  15:  0.00  16:  0.00
  17:  0.00  18:  0.00  19:  0.00  20:  0.00  21:  0.00  22:  0.00  23:  0.00  24:  0.00
  25:  0.00  26:  0.00  27:  0.00  28:  0.00  29:  0.00  30:  0.00  31:  0.00  32:  0.00
  33:  0.00  34:  0.00  35:  0.00  36:  0.00  37:  0.00  38:  0.00  39:  0.00  40:  0.00
  41:  0.00  42:  0.00  43:  0.00  44:  0.00  45:  0.00  46:  0.00  47:  0.00  48:  0.00
  49:  0.00  50:  0.00  51:  0.00  52:  0.00  53:  0.00  54:  0.00  55:  0.00  56:  0.00
  57:  0.00  58:  0.00  59:  0.00  60:  0.00  61:  0.00  62:  0.00  63:  0.00  64:  0.00
  65:  0.00  66:  0.00  67:  0.00  68:  0.00  69:  0.00  70:  0.00  71:  0.00  72:  0.00
  73:  0.00  74:  0.00  75:  0.00  76:  0.00  77:  0.00  78:  0.00  79:  0.00  80:  0.00
  81:  0.00  82:  0.00  83:  0.00  84:  0.00  85:  0.00  86:  0.00  87:  0.00  88:  0.00
  89:  0.00  90:  0.00  91:  0.00  92:  0.00  93:  0.00  94:  0.00  95:  0.00  96:  0.00
  97:  0.00  98:  0.00  99:  0.00 100:  0.00 101:  0.00 102:  0.00 103:  0.00 104:  0.00
 105:  0.00 106:  0.00 107:  0.00 108:  0.00 109:  0.00 110:  0.00 111:  0.00 112:  0.00
 113:  0.00 114:  0.00 115:  0.00 116:  0.00 117:  0.00 118:  0.00 119:  0.00 120:  0.00
 121:  0.00 122:  0.00 123:  0.00 124:  0.00 125:  0.00 126:  0.00 127:  0.00 128:  0.00
 129:  0.00 130:  0.00 131:  0.00 132:  0.00 133:  0.00 134:  0.00 135:  0.00 136:  0.00
 137:  0.00 138:  0.00 139:  0.00 140:  0.00 141:  0.00 142:  0.00 143:  0.00 144:  0.00
 145:  0.00 146:  0.00 147:  0.00 148:  0.00 149:  0.00 150:  0.00 151:  0.00 152:  0.00
 153:  0.00 154:  0.00 155:  0.00 156:  0.00 157:  0.00 158:  0.00 159:  0.00 160:  0.00
 161:  0.00 162:  0.00 163:  0.00 164:  0.00 165:  0.00 166:  0.00 167:  0.00 168:  0.00
 169:  0.00 170:  0.00 171:  0.00 172:  0.00 173:  0.00 174:  0.00 175:  0.00 176:  0.00
 177:  0.00 178:  0.00 179:  0.00 180:  0.00 181:  0.00 182:  0.00 183:  0.00 184:  0.00
 185:  0.00 186:  0.00 187:  0.00 188:  0.00 189:  0.00 190:  0.00 191:  0.00 192:  0.00
 193:  0.00 194:  0.00 195:  0.00 196:  0.00 197:  0.00 198:  0.00 199:  0.00 200:  0.00
 201:  0.00 202:  0.00 203:  0.00 204:  0.00 205:  0.00 206:  0.00 207:  0.00
 output can be read by thermo (or use thermo option).
 writing <g98.out> molden fake output.
 recommended (thermochemical) frequency scaling factor: 1.0
           -------------------------------------------------
          |             Thermodynamic Functions             |
           -------------------------------------------------

Molecule has no symmetry elements
It seems to be the C1 point group
c1  symmetry found (for desy threshold:  0.10E+00) used in thermo

          ...................................................
          :                      SETUP                      :
          :.................................................:
          :  # frequencies                         201      :
          :  # imaginary freq.                       0      :
          :  linear?                             false      :
          :  only rotor calc.                    false      :
          :  symmetry                               c1      :
          :  rotational number                       1      :
          :  scaling factor                  1.0000000      :
          :  rotor cutoff                   50.0000000 cm⁻¹ :
          :  imag. cutoff                  -20.0000000 cm⁻¹ :
          :.................................................:

    mode    ω/cm⁻¹     T·S(HO)/kcal·mol⁻¹    T·S(FR)/kcal·mol⁻¹   T·S(vib)
   ------------------------------------------------------------------------
       1     11.91    -2.28484 (  0.32%)    -1.48145 ( 99.68%)    -1.48403
       2     21.45    -1.93659 (  3.28%)    -1.30726 ( 96.72%)    -1.32787
       3     27.11    -1.79805 (  7.95%)    -1.23791 ( 92.05%)    -1.28245
       4     32.40    -1.69253 ( 14.99%)    -1.18507 ( 85.01%)    -1.26113
       5     35.43    -1.63974 ( 20.13%)    -1.15861 ( 79.87%)    -1.25546
       6     49.43    -1.44300 ( 48.86%)    -1.05991 ( 51.14%)    -1.24710
       7     53.47    -1.39677 ( 56.67%)    -1.03667 ( 43.33%)    -1.24073
       8     57.14    -1.35765 ( 63.04%)    -1.01699 ( 36.96%)    -1.23175
       9     81.77    -1.14724 ( 87.74%)    -0.91082 ( 12.26%)    -1.11825
      10     92.90    -1.07277 ( 92.26%)    -0.87303 (  7.74%)    -1.05731
      11     99.83    -1.03088 ( 94.08%)    -0.85170 (  5.92%)    -1.02027
      12    108.15    -0.98445 ( 95.63%)    -0.82800 (  4.37%)    -0.97762
      13    112.35    -0.96240 ( 96.23%)    -0.81671 (  3.77%)    -0.95690
      14    126.76    -0.89284 ( 97.64%)    -0.78096 (  2.36%)    -0.89020
      15    135.95    -0.85275 ( 98.20%)    -0.76023 (  1.80%)    -0.85108
      16    136.96    -0.84850 ( 98.25%)    -0.75803 (  1.75%)    -0.84692
      17    150.13    -0.79622 ( 98.78%)    -0.73083 (  1.22%)    -0.79543
      18    157.74    -0.76824 ( 99.00%)    -0.71618 (  1.00%)    -0.76772
      19    161.84    -0.75376 ( 99.10%)    -0.70858 (  0.90%)    -0.75335
      20    203.92    -0.62536 ( 99.64%)    -0.64013 (  0.36%)    -0.62541
      21    205.35    -0.62153 ( 99.65%)    -0.63805 (  0.35%)    -0.62159
      22    214.08    -0.59887 ( 99.70%)    -0.62572 (  0.30%)    -0.59895
      23    219.70    -0.58483 ( 99.73%)    -0.61803 (  0.27%)    -0.58492
      24    241.54    -0.53414 ( 99.82%)    -0.58996 (  0.18%)    -0.53424
      25    251.30    -0.51324 ( 99.84%)    -0.57822 (  0.16%)    -0.51334
      26    257.41    -0.50068 ( 99.86%)    -0.57112 (  0.14%)    -0.50078
      27    272.28    -0.47159 ( 99.89%)    -0.55448 (  0.11%)    -0.47168
      28    275.83    -0.46493 ( 99.89%)    -0.55064 (  0.11%)    -0.46502
      29    289.51    -0.44032 ( 99.91%)    -0.53630 (  0.09%)    -0.44040
      30    293.61    -0.43324 ( 99.92%)    -0.53214 (  0.08%)    -0.43332
   ------------------------------------------------------------------------

   temp. (K)  partition function   enthalpy   heat capacity  entropy
                                   cal/mol     cal/K/mol   cal/K/mol   J/K/mol
 298.15  VIB  0.258E+15            19764.099    126.258    121.193
         ROT  0.534E+08              888.752      2.981     38.342
         INT  0.138E+23            20652.852    129.239    159.536
         TR   0.119E+29             1481.254      4.968     44.684
         TOT                       22134.1056   134.2067   204.2193   854.4534

       T/K    H(0)-H(T)+PV         H(T)/Eh          T*S/Eh         G(T)/Eh
   ------------------------------------------------------------------------
    298.15    0.352729E-01    0.567677E+00    0.970312E-01    0.470646E+00
   ------------------------------------------------------------------------

         :::::::::::::::::::::::::::::::::::::::::::::::::::::
         ::                  THERMODYNAMIC                  ::
         :::::::::::::::::::::::::::::::::::::::::::::::::::::
         :: total free energy        -107.077389162077 Eh   ::
         ::.................................................::
         :: total energy             -107.548034897235 Eh   ::
         :: zero point energy           0.532403957355 Eh   ::
         :: G(RRHO) w/o ZPVE           -0.061758222197 Eh   ::
         :: G(RRHO) contrib.            0.470645735158 Eh   ::
         :::::::::::::::::::::::::::::::::::::::::::::::::::::

optimized geometry written to: xtbopt.xyz


           -------------------------------------------------
          | TOTAL ENERGY             -107.548034897235 Eh   |
          | TOTAL ENTHALPY           -106.980357997322 Eh   |
          | TOTAL FREE ENERGY        -107.077389162077 Eh   |
          | GRADIENT NORM               0.000061859447 Eh/α |
          | HOMO-LUMO GAP               0.233180946204 eV   |
           -------------------------------------------------

------------------------------------------------------------------------
 * finished run on 2025/08/29 at 14:10:31.599     
------------------------------------------------------------------------
 total:
 * wall-time:     0 d,  0 h,  0 min,  4.195 sec
 *  cpu-time:     0 d,  0 h,  2 min, 31.970 sec
 * ratio c/w:    36.230 speedup
 SCF:
 * wall-time:     0 d,  0 h,  0 min,  0.218 sec
 *  cpu-time:     0 d,  0 h,  0 min,  7.342 sec
 * ratio c/w:    33.719 speedup
 ANC optimizer:
 * wall-time:     0 d,  0 h,  0 min,  1.215 sec
 *  cpu-time:     0 d,  0 h,  0 min, 48.428 sec
 * ratio c/w:    39.866 speedup
 analytical hessian:
 * wall-time:     0 d,  0 h,  0 min,  2.604 sec
 *  cpu-time:     0 d,  0 h,  1 min, 30.555 sec
 * ratio c/w:    34.777 speedup

