49
 energy: -89.596301759173 gnorm: 0.000072810441 xtb: 6.7.1 (edcfbbe)
C            8.41692743513442        0.75546269918429        0.05511076015935
O            7.59915019109461       -0.39020298480403        0.04203416583428
C            6.25170720804415       -0.23019153506255        0.02230012980116
C            5.49634258399764       -1.40654941024845        0.00741954189065
C            4.12325961948707       -1.36219792322439       -0.01270404750218
C            3.44505448796247       -0.13686233884887       -0.01836710677828
C            2.00134355165654       -0.07754380024849       -0.03665154982864
C            1.09124278502974       -1.10092187717563       -0.00151756846390
C           -0.25745523061584       -0.69112262089263       -0.04932688199203
C           -1.36842197907374       -1.64615980411737       -0.03125941775134
C           -2.38098812184975       -1.59124782639853       -0.98522999483075
C           -3.40867691807054       -2.51122060620144       -0.96278608363472
C           -3.42972297090926       -3.49943402842299        0.01527294418494
C           -4.56822033780705       -4.47614146688818        0.02189804862621
F           -4.41529876887833       -5.47204083059608        0.90733190111391
F           -4.74410084934134       -5.06467823064727       -1.17774734206033
F           -5.74552099139788       -3.89009792917282        0.31635788751418
C           -2.42173790091161       -3.57137048984194        0.96548656339020
C           -1.39344159767470       -2.64872168897659        0.93415183629175
C           -0.38534333983151        0.68224086587993       -0.10748765122558
C           -1.57150464555044        1.47941788191132       -0.07993345656870
N           -2.79699840023708        1.01943440840843       -0.01928515444196
C           -3.60958562180037        2.11525654111694        0.00910006465830
C           -4.99734795855469        2.20361773134840        0.07069923697839
C           -5.55630459113844        3.46314848211230        0.08270431251393
C           -4.77106815464596        4.61839606141123        0.03508771153355
C           -3.39327683073429        4.55605167354243       -0.02665099883282
C           -2.82317349659210        3.29419915900732       -0.03921248077947
N           -1.52861569796356        2.85500701933069       -0.09585506885295
S            1.17507697288978        1.45234843948031       -0.11037593903855
C            4.20878108884018        1.02981411351402       -0.00485421992353
C            5.58865939931992        0.99369360064953        0.01524931017083
H            9.44087643186699        0.38579328960359        0.06821225753482
H            8.26517907174490        1.36758663285486       -0.83962353767476
H            8.24116218434790        1.36429092972676        0.94771220098303
H            6.02097995234728       -2.34876751955463        0.01125291690441
H            3.56808943812201       -2.28633856519478       -0.02722665044902
H            1.36777962901525       -2.13881697220866        0.03849328660746
H           -2.35794037616956       -0.82879288556706       -1.74559025792094
H           -4.19587094893543       -2.47180766495846       -1.70009354221194
H           -2.44275904887470       -4.34186642842011        1.72093600042444
H           -0.61158851871753       -2.69494278430509        1.67758880885080
H           -5.59907075441550        1.31016390488076        0.10852407841653
H           -6.63010278829511        3.56742183021339        0.13032933354481
H           -5.25619657342594        5.58304381815844        0.04728991681298
H           -2.78734779445315        5.44918692103352       -0.06271309627873
H           -0.69764419489013        3.42124813832551       -0.13285106316350
H            3.70841582173900        1.98789348304815       -0.00889430082804
H            6.13529754909132        1.92331858723143        0.02569119629617
