$hessian                                                                        
        0.4872932865  -0.0750947497  -0.2456354011  -0.1222873899   0.1253256579
        0.0105700902  -0.0308546882   0.0218603722   0.0155568556   0.0042594658
        0.0029395732  -0.0084559751  -0.0226178225  -0.0188584958   0.0238372528
       -0.1052050107  -0.0880421941   0.0740456994   0.0005402861   0.0037621656
        0.0034147097  -0.0001742710  -0.0009385324   0.0004585891   0.0004329740
       -0.0002736945  -0.0006727919  -0.0003921987   0.0000495082   0.0003220183
       -0.0004491990   0.0003098829  -0.0000732193  -0.0015317644   0.0014330199
        0.0004666168  -0.0039451107  -0.0010107818   0.0030774131   0.0011027512
       -0.0007064146  -0.0002769503  -0.0004198675   0.0005778887   0.0001979821
        0.0008455475  -0.0003091917  -0.0000887907  -0.0008933165  -0.0000403526
       -0.0000250699   0.0002487194  -0.0003199228  -0.0000966188   0.0003978730
       -0.0002900287  -0.0000937296  -0.0003802585  -0.0001286556  -0.0000475609
        0.0002923968  -0.0000373120   0.0000413157  -0.0002390231   0.0002618790
        0.0001118960  -0.0000768575  -0.0001007708  -0.0000270194   0.0001079413
       -0.0003110232   0.0001576749  -0.0003932058   0.0001172923  -0.0003298667
        0.0003611256   0.0000423478   0.0002478209  -0.0000713981  -0.0000105912
       -0.0000419956   0.0003034651   0.0000179514   0.0002169730  -0.0004488870
        0.0003269920  -0.0004469036   0.0002869929  -0.0005281998   0.0003909059
        0.0000047199   0.0003684988  -0.0001159210  -0.0000061935  -0.0000736831
        0.0000107640   0.0000266340   0.0004269571  -0.0001197544   0.0001082818
       -0.0004622062   0.0002432699  -0.0002671300   0.0001115866  -0.0002277887
        0.0004358963   0.0002533055   0.0000325275  -0.0010711897   0.0000612967
       -0.0000100177   0.0010410053  -0.0001295141   0.0000216861  -0.0008465349
        0.0002928784   0.0001546215  -0.2135884145   0.0255622205   0.1227064327
        0.0046204157  -0.0087653338   0.0005086468  -0.0011956643   0.0020230059
        0.0059725581   0.0046948223   0.0104873829  -0.0062312366   0.0000294339
       -0.0000475479   0.0001392192  -0.0000075014  -0.0000446321   0.0000196831
        0.0000364422  -0.0000028137   0.0000498718  -0.0000685739  -0.0000362657
        0.0000733549  -0.0001857838  -0.0000312966  -0.0000514050  -0.0000107026
       -0.0000645312   0.0000210380   0.0000034905  -0.0000283271  -0.0000050308
        0.0000189287   0.0000080159  -0.0000206580  -0.0000188580  -0.0000201000
       -0.0000077862   0.0000154727  -0.0000276991   0.0000157312   0.0000300464
       -0.0000018771   0.0000226535   0.0000198681   0.0000260753  -0.0000062121
        0.0000230919   0.0000166248   0.0000086694   0.0000024035   0.0000342040
       -0.0000128808  -0.0000163136   0.0000174421  -0.0000217073  -0.0000093138
       -0.0000289029  -0.0000035868   0.0000170812   0.0000186569   0.0000146044
        0.0000715836   0.0000329597   0.0000167328
       -0.0750947497   0.5851740157  -0.1088553937   0.0569900808  -0.2539940913
        0.0330500669   0.0704389546   0.0055732547  -0.0532840440  -0.0042777372
       -0.0438272674   0.0167175651  -0.0551203230   0.0212326284   0.0334355939
       -0.0296252509  -0.2277311052   0.0823471535   0.0046659435   0.0068414808
       -0.0032012009   0.0000976371  -0.0007879126   0.0000498134  -0.0019502777
        0.0007872188   0.0010539332   0.0017049563  -0.0009443880  -0.0009870787
        0.0002513501  -0.0004749066   0.0002905717   0.0006844575  -0.0002467974
       -0.0004036899   0.0027136711  -0.0005539323  -0.0028526906  -0.0004860493
       -0.0003510442   0.0003355713   0.0000831078   0.0005431263   0.0005352814
       -0.0006169716  -0.0000588625  -0.0001103123   0.0017513690   0.0003114374
        0.0003120595  -0.0015930173  -0.0001022933  -0.0000629504   0.0005686236
        0.0018326170   0.0005813842  -0.0004518063   0.0004438675   0.0001589038
       -0.0012465717   0.0012264704  -0.0004371772  -0.0020441081  -0.0023364954
       -0.0006111604   0.0015265074   0.0018179757   0.0004842192  -0.0007329955
        0.0010748263  -0.0003163773   0.0014385143   0.0001309741   0.0010310085
       -0.0014553372  -0.0000307371  -0.0010867301   0.0000127403   0.0007992769
       -0.0002813659  -0.0003259769  -0.0008929253   0.0000196336   0.0005421558
       -0.0006487148   0.0006438451  -0.0005478934   0.0006514608  -0.0006506235
       -0.0007716117  -0.0004217259  -0.0003941994   0.0006603860   0.0000323400
        0.0005144549   0.0000090223  -0.0017345521   0.0005928574   0.0000507532
        0.0017213505  -0.0005426979   0.0010793843  -0.0006942887   0.0004096601
        0.0013360640  -0.0007687606   0.0005321363   0.0009619189  -0.0014075611
       -0.0004885081   0.0000502794  -0.0018718032  -0.0007665448  -0.0006505369
        0.0011333039   0.0000899451   0.0255539918  -0.0462996720  -0.0143016408
        0.0093762927  -0.0233888544   0.0009995600   0.0014777001   0.0019338959
        0.0010793075  -0.0075544808  -0.0237020336   0.0142759494   0.0001786859
       -0.0000461432  -0.0000193230  -0.0000215170  -0.0000450459   0.0000141610
       -0.0000627156  -0.0000946607  -0.0000050696  -0.0000580969  -0.0000165977
        0.0001057348   0.0000924327   0.0000815364  -0.0000822754   0.0000692400
        0.0001756161  -0.0000900131   0.0000419894  -0.0001256521   0.0000721567
        0.0000348209  -0.0000551497   0.0001019832  -0.0000113837  -0.0000103185
       -0.0000156531   0.0000241643  -0.0000354887   0.0000364250   0.0000344279
        0.0000174220   0.0000149688   0.0000383066   0.0000328089   0.0000082503
        0.0000280577   0.0000398270   0.0000215165   0.0000217292   0.0000408650
       -0.0000027864  -0.0000178057   0.0000313161  -0.0000524385   0.0000177044
       -0.0000128979   0.0000616881   0.0000338743   0.0000532734  -0.0001212329
        0.0000759192  -0.0000215068   0.0000458184
       -0.2456354011  -0.1088553937   0.3285205483   0.0352777871  -0.0181562500
       -0.0669121628  -0.0018249727  -0.0176885431   0.0088873139  -0.0053037936
        0.0111477551  -0.0059884865   0.0357964732   0.0070286327  -0.0269840248
        0.0546539674   0.1258527318  -0.1262671937   0.0034337440  -0.0027411472
        0.0050904148   0.0000251082   0.0006320100  -0.0001973785   0.0000979672
       -0.0002793551  -0.0005996770  -0.0004194062   0.0002343947   0.0002848457
        0.0000378656  -0.0000011480  -0.0004351846   0.0005741051  -0.0007153345
       -0.0000162047   0.0014392503   0.0009297258  -0.0012036584  -0.0008043136
        0.0002111184  -0.0000253944   0.0002328292  -0.0000677862  -0.0001319056
       -0.0002383618   0.0000390331   0.0000476557   0.0000481247   0.0001444324
        0.0000151704   0.0004256658   0.0002919361   0.0001118170  -0.0002774702
       -0.0007680648  -0.0002362850   0.0003242427  -0.0001067798  -0.0000276105
        0.0004122425  -0.0006182712   0.0001022743   0.0006635492   0.0009188737
        0.0002608431  -0.0005375543  -0.0006375500  -0.0001727362   0.0002258359
       -0.0002116150   0.0000162565  -0.0002750502  -0.0001117955  -0.0001868828
        0.0003147100  -0.0000081507   0.0002455169   0.0000374030  -0.0002892037
        0.0001260494  -0.0000785472   0.0003136974  -0.0001445108   0.0000815994
        0.0000509839   0.0000273423   0.0000372402   0.0000820301   0.0000019578
        0.0002764820  -0.0000786403   0.0002101983  -0.0002428873   0.0000235023
       -0.0001967567  -0.0000156048   0.0003755709  -0.0001502659  -0.0000782147
       -0.0003578639   0.0000533595  -0.0002423378   0.0002033906  -0.0000212164
       -0.0005161487   0.0002344576  -0.0002035377  -0.0001436935   0.0005647495
        0.0001453071  -0.0002585065   0.0002377833   0.0001121812   0.0006169551
       -0.0002736435   0.0000390960   0.1226315863  -0.0142042659  -0.1178642287
       -0.0063725762   0.0152047632  -0.0001141623   0.0060841457   0.0009683962
        0.0031549456  -0.0004629757   0.0002918389   0.0006216300   0.0000523993
        0.0001262108   0.0000926663   0.0000150185   0.0000402841  -0.0000138898
        0.0000663718   0.0000650673   0.0000508699   0.0000433477   0.0000029671
       -0.0001131048   0.0000254392  -0.0000007365   0.0000757898  -0.0000185346
       -0.0000102078  -0.0000047062  -0.0000093326   0.0000563338  -0.0000198473
       -0.0000285250   0.0000160556  -0.0000324307   0.0000147467   0.0000166868
        0.0000124510  -0.0000168245   0.0000320467  -0.0000247678  -0.0000292142
       -0.0000027258  -0.0000214723  -0.0000247844  -0.0000288043  -0.0000035496
       -0.0000251785  -0.0000263318  -0.0000141071  -0.0000065547  -0.0000368766
        0.0000022708   0.0000190497  -0.0000255004   0.0000262420  -0.0000025770
        0.0000225900  -0.0000151398  -0.0000237135  -0.0000343009   0.0000293375
       -0.0000721976  -0.0000237639  -0.0000218714
       -0.1222873899   0.0569900808   0.0352777871   0.4579059993  -0.0673914170
       -0.2305731227  -0.2231356150   0.0668707439   0.1077665404  -0.0342716390
       -0.0573547908   0.0442434954  -0.0194705192   0.0214506619   0.0031960761
        0.0300156720   0.0252335088  -0.0301261208  -0.0065035413  -0.0049145065
        0.0063412202  -0.0014586259   0.0049913526  -0.0006962284  -0.0005732742
       -0.0000290767   0.0004083554   0.0017637745   0.0058443675  -0.0033058478
       -0.0004218643  -0.0074682123   0.0033029450   0.0062293638  -0.0016054588
       -0.0025377169   0.0138906603  -0.0025801758  -0.0060315986  -0.0057962820
        0.0052433243   0.0020800377   0.0029893109  -0.0044368928  -0.0003063680
       -0.0060730225   0.0023764984   0.0005553181   0.0069502618   0.0000553232
        0.0002576337  -0.0036611723   0.0009378410   0.0001378761  -0.0020133382
        0.0056959289   0.0017672496   0.0015476564   0.0013386223   0.0004541196
       -0.0040520439   0.0030397297  -0.0008360407  -0.0017931087  -0.0064833266
       -0.0018616781   0.0033434162   0.0039894897   0.0010484122  -0.0018745354
        0.0037222789  -0.0014229462   0.0049928688  -0.0004479606   0.0038375693
       -0.0047670682  -0.0004025809  -0.0034081839   0.0003673348   0.0014588660
       -0.0003367068  -0.0024968100  -0.0016887442  -0.0012970779   0.0036385721
       -0.0030525683   0.0038182686  -0.0026379586   0.0042822887  -0.0034510494
       -0.0013700304  -0.0031019745   0.0000690534   0.0012343703   0.0005423747
        0.0008628275  -0.0002007424  -0.0056924559   0.0017772874  -0.0004874057
        0.0059205306  -0.0023848541   0.0034781527  -0.0017569049   0.0020556503
       -0.0007880946  -0.0030433386   0.0007791513   0.0091735927  -0.0030067661
       -0.0006681421  -0.0077387923   0.0004073908  -0.0003475621   0.0051019575
       -0.0017111120  -0.0016659935  -0.0135026956   0.0221434758   0.0027162602
       -0.0749774302  -0.0695415132   0.0556020388  -0.0123127408   0.0041046238
        0.0084396463   0.0025630137  -0.0013662536   0.0043553614   0.0002037905
       -0.0002329156   0.0001022055   0.0000103950   0.0001237858  -0.0000894275
       -0.0000864170  -0.0000958153   0.0000524551   0.0000486916   0.0001035101
       -0.0002883394  -0.0002427306   0.0003162806   0.0002418860   0.0000087441
        0.0000341980  -0.0001464074  -0.0002253681   0.0000699148   0.0002879976
       -0.0000130388  -0.0001409062   0.0003130909   0.0000121581   0.0000645770
        0.0000116748   0.0000216667  -0.0000477148   0.0000829781  -0.0000367941
       -0.0000149251  -0.0000126404   0.0000444313   0.0000476164   0.0000140824
        0.0000607421   0.0000621555  -0.0001460317  -0.0000254589  -0.0000392633
        0.0000420568  -0.0000486679   0.0000340312  -0.0000536226   0.0000199511
        0.0000570301  -0.0000835806  -0.0000529299   0.0000364326  -0.0003124128
       -0.0002194025   0.0000587359   0.0000910925
        0.1253256579  -0.2539940913  -0.0181562500  -0.0673914170   0.5998320686
       -0.1268163852   0.0040001269  -0.0934245018   0.0156199974  -0.0106974643
        0.0287073112  -0.0024278617   0.0230064536  -0.0095592714  -0.0150960478
       -0.0226126290  -0.0633634072   0.0390888242  -0.0008198526  -0.0035845812
        0.0016716939  -0.0003672805   0.0007877155   0.0001153578   0.0017831714
       -0.0005562480  -0.0012147257  -0.0016028247   0.0023804927   0.0004469103
       -0.0005015553  -0.0019977503   0.0006073295  -0.0008532775   0.0017423506
        0.0001327276  -0.0055643405  -0.0047479520   0.0088912762   0.0008908167
        0.0004124406   0.0000077010  -0.0000860708  -0.0011706211  -0.0008328898
        0.0000916079   0.0004511637   0.0001132722  -0.0010384158  -0.0006282930
       -0.0002674539   0.0003789791  -0.0004580087  -0.0001339641  -0.0002018250
        0.0002860693   0.0000721407  -0.0000739174  -0.0001358541  -0.0000514191
        0.0000276345   0.0003515476   0.0001489977   0.0004884730  -0.0001521181
       -0.0000605846  -0.0001070766  -0.0001338063  -0.0000358855   0.0001107409
       -0.0003436841   0.0001574887  -0.0004454232   0.0000809905  -0.0003536271
        0.0004019322   0.0000153593   0.0002989903  -0.0000428476  -0.0000319544
       -0.0000132484   0.0003311918   0.0000835109   0.0002147085  -0.0004490772
        0.0003217748  -0.0004429980   0.0002842368  -0.0005235519   0.0003938188
        0.0000657605   0.0003890913  -0.0000832618  -0.0000280901  -0.0000436543
       -0.0000222611   0.0000016046   0.0004735620  -0.0001605665   0.0000714538
       -0.0005241661   0.0002416842  -0.0003003190   0.0001112174  -0.0002267955
       -0.0003604896  -0.0000096280  -0.0000366730   0.0003223010  -0.0000448653
        0.0001258838  -0.0005013295   0.0016044460   0.0005377038   0.0001505918
       -0.0008064333  -0.0004339682   0.0036234509  -0.0045195108  -0.0006058423
       -0.0688436386  -0.1899381939   0.1086863454   0.0221561040  -0.0053465244
       -0.0139522817  -0.0009396660  -0.0023562912   0.0038644509  -0.0000539546
        0.0002474111  -0.0000557888   0.0000106698   0.0000135630  -0.0000251294
        0.0000298897   0.0000457942   0.0000613456   0.0000492879   0.0000265281
       -0.0000566323   0.0001307536  -0.0000157956   0.0000013421   0.0000076036
       -0.0000630846   0.0000866805  -0.0000243289  -0.0000028623   0.0000021409
        0.0000274765   0.0000071495   0.0000047892  -0.0000063653  -0.0000078907
        0.0000014475   0.0000093889  -0.0000115210   0.0000116897   0.0000161856
       -0.0000011288   0.0000148650   0.0000103705   0.0000171971  -0.0000074570
        0.0000125361   0.0000110991  -0.0000037107  -0.0000000397   0.0000176922
       -0.0000115417  -0.0000104086   0.0000106530  -0.0000092423  -0.0000021136
       -0.0000059382  -0.0000190678   0.0000121318   0.0000137926   0.0000178474
        0.0000974546   0.0000611913  -0.0000258900
        0.0105700902   0.0330500669  -0.0669121628  -0.2305731227  -0.1268163852
        0.3270468349   0.1305550029  -0.0308533883  -0.1275806183   0.0293520888
        0.0322851941  -0.0324999370   0.0023684090  -0.0141552677  -0.0018426468
       -0.0131993757   0.0039121649   0.0097924478   0.0050002399   0.0048997444
       -0.0056037168   0.0011020858  -0.0040800253   0.0005664302  -0.0000331964
        0.0002304812   0.0000616431  -0.0008099373  -0.0050996723   0.0022626055
        0.0004507788   0.0062203663  -0.0028371536  -0.0038854513   0.0004811723
        0.0024025927  -0.0050269575   0.0064868177   0.0072601348   0.0048824032
       -0.0044008542  -0.0009418354  -0.0020939909   0.0033532887   0.0002098234
        0.0045987951  -0.0018483974  -0.0005048890  -0.0050468568  -0.0000498718
       -0.0001067856   0.0024799311  -0.0007321622  -0.0000974024   0.0016966786
       -0.0040689553  -0.0012956517  -0.0013737738  -0.0010382712  -0.0003336087
        0.0030086353  -0.0019959192   0.0006711085   0.0013587799   0.0045655908
        0.0012701425  -0.0023843022  -0.0028226704  -0.0007308192   0.0013211408
       -0.0026046903   0.0009840411  -0.0035081979   0.0002927586  -0.0027021465
        0.0033754332   0.0002965503   0.0024123437  -0.0002497674  -0.0010786320
        0.0002608813   0.0017117509   0.0012321920   0.0008708682  -0.0025110300
        0.0021333070  -0.0026485925   0.0018458311  -0.0029550774   0.0023994021
        0.0010010827   0.0021369652  -0.0000029701  -0.0009188362  -0.0003797349
       -0.0006408706   0.0001434329   0.0040398534  -0.0012514414   0.0003203623
       -0.0041816697   0.0016662729  -0.0024373012   0.0012225928  -0.0014351409
        0.0006284251   0.0023210526  -0.0005351193  -0.0068791870   0.0020024885
        0.0004866003   0.0060579465  -0.0007642727   0.0001228103  -0.0042200412
        0.0015048564   0.0010523838   0.0092580172  -0.0143733609  -0.0009679288
        0.0561980050   0.1084614472  -0.1133196248   0.0015478578  -0.0007596622
       -0.0001478134   0.0040965892   0.0042876998   0.0032194642  -0.0001253788
        0.0000852163  -0.0000543963  -0.0000242752  -0.0001047912   0.0000550963
        0.0000592165   0.0000630720  -0.0000485671  -0.0000607498  -0.0000883762
        0.0002306896   0.0000838671  -0.0001990198  -0.0001605633  -0.0000045018
        0.0000143369   0.0000817850   0.0001676111  -0.0000429572  -0.0002311965
        0.0000016641   0.0001047845  -0.0002209922  -0.0000054098  -0.0000417167
       -0.0000102161  -0.0000181209   0.0000397655  -0.0000665700   0.0000200167
        0.0000123177   0.0000040896  -0.0000372961  -0.0000417792  -0.0000084871
       -0.0000518321  -0.0000494571   0.0001103514   0.0000200991   0.0000219313
       -0.0000271152   0.0000409274  -0.0000280226   0.0000430570  -0.0000110161
       -0.0000354814   0.0000656945   0.0000384975  -0.0000280481   0.0002433793
        0.0001282132  -0.0000394853  -0.0000859949
       -0.0308546882   0.0704389546  -0.0018249727  -0.2231356150   0.0040001269
        0.1305550029   0.4614839161  -0.1067709340  -0.2191101178  -0.0787187477
       -0.0220848930   0.0355671942   0.0183792542  -0.0181881208  -0.0067151054
       -0.0178384897  -0.0215493902   0.0187586507   0.0082590952   0.0110303625
       -0.0063451612   0.0025607229  -0.0051289846   0.0003170553  -0.0005604206
        0.0003927507   0.0001444139  -0.0015478949  -0.0075350402   0.0036278880
        0.0006999805   0.0073916142  -0.0029342089  -0.0102481278   0.0029045386
        0.0068096975  -0.0283949812  -0.0200014172   0.0271733543   0.0071425171
       -0.0078498537  -0.0024576043  -0.0040646877   0.0054834437   0.0009457249
        0.0074736094  -0.0030455094  -0.0006231770  -0.0078799342   0.0000441402
       -0.0001857045   0.0037572980  -0.0013085714  -0.0002632789   0.0024714144
       -0.0058568561  -0.0018382341  -0.0019154569  -0.0013993378  -0.0004739457
        0.0042352309  -0.0029884553   0.0008488552   0.0014536870   0.0065841574
        0.0019202984  -0.0033289769  -0.0039698580  -0.0010464005   0.0019268186
       -0.0038908928   0.0015362330  -0.0052314625   0.0005184439  -0.0040347437
        0.0049926537   0.0004464366   0.0035573922  -0.0004043575  -0.0014418868
        0.0003156473   0.0027164588   0.0016838643   0.0014611637  -0.0039443209
        0.0032526684  -0.0041116876   0.0028156882  -0.0046313031   0.0037013800
        0.0013486900   0.0033763232  -0.0001641230  -0.0012210758  -0.0005895752
       -0.0008397111   0.0002257158   0.0059647205  -0.0018405410   0.0005488252
       -0.0061898987   0.0025354311  -0.0036135119   0.0017993215  -0.0022120959
        0.0013116429   0.0032775145  -0.0007215684  -0.0101698519   0.0029514656
        0.0006466212   0.0090003090  -0.0010099654   0.0001974209  -0.0060192889
        0.0023117086   0.0017706158   0.0014327779   0.0037058342   0.0025554982
       -0.0107490575   0.0001565766   0.0088237784  -0.0946908468   0.1084012494
        0.0033649990  -0.0003867073  -0.0004042596   0.0000695272  -0.0001473354
        0.0002010948  -0.0001063253   0.0000049981  -0.0001513816   0.0000064168
        0.0000321138  -0.0000874196  -0.0000986529   0.0000515094  -0.0001475182
        0.0002871998   0.0000698732   0.0000550083   0.0003977564  -0.0000226374
       -0.0000068681   0.0001970999   0.0002462894  -0.0001094404  -0.0003045555
        0.0000195214   0.0001485679  -0.0003287363  -0.0000210001  -0.0000726873
       -0.0000173850  -0.0000246224   0.0000441011  -0.0000864384   0.0000391841
        0.0000177289   0.0000172185  -0.0000457466  -0.0000512986  -0.0000104823
       -0.0000665634  -0.0000661268   0.0001712984   0.0000313653   0.0000458690
       -0.0000425898   0.0000554120  -0.0000305918   0.0000496724  -0.0000113882
       -0.0000763183   0.0001065520   0.0000770764  -0.0000117585   0.0003373778
        0.0003941466   0.0000178261  -0.0000368878
        0.0218603722   0.0055732547  -0.0176885431   0.0668707439  -0.0934245018
       -0.0308533883  -0.1067709340   0.6211130133  -0.1146081552  -0.0622958158
       -0.2327990381   0.1168855603   0.0101750525  -0.0470105179   0.0091017184
       -0.0112416269  -0.0027319274   0.0084308073   0.0043258105  -0.0033131111
       -0.0006185235  -0.0001001300  -0.0018818217   0.0008287798   0.0001171482
       -0.0005105787  -0.0001381955  -0.0003936850  -0.0005114422   0.0004310596
       -0.0005480168   0.0007788392   0.0002795573   0.0006375043   0.0036601148
       -0.0010508146  -0.0180717080   0.0003613850   0.0127462827   0.0028363180
       -0.0017019981  -0.0013695985  -0.0002206211   0.0011889562   0.0003354547
        0.0016367345  -0.0006767619  -0.0003914728  -0.0013937058   0.0000574788
        0.0000922581   0.0002518727  -0.0006779473  -0.0002031615   0.0009099030
       -0.0002301018  -0.0000817758  -0.0009002822  -0.0001832910  -0.0000718586
        0.0003615580   0.0001612060  -0.0000048681  -0.0009257182   0.0000630254
        0.0000772726   0.0001588448   0.0001806906   0.0000499614   0.0000589708
       -0.0003842127   0.0002466151  -0.0005051991   0.0002225318  -0.0004335640
        0.0004366547   0.0000805208   0.0002876295  -0.0001161255   0.0001340100
       -0.0001083118   0.0005532489  -0.0001204044   0.0004336078  -0.0007626280
        0.0005003698  -0.0007388659   0.0004409990  -0.0008915067   0.0006293521
       -0.0001278200   0.0006629973  -0.0002999713   0.0001127417  -0.0001324386
        0.0001168841   0.0000570823   0.0005171309  -0.0001313557   0.0001949627
       -0.0005829632   0.0003514961  -0.0002975099   0.0000661466  -0.0003621592
        0.0011600471   0.0003659423   0.0001899532  -0.0020283542  -0.0002023239
       -0.0001187800   0.0022949550  -0.0010933264  -0.0001817576  -0.0024065995
        0.0011244405   0.0003169416   0.0038342231  -0.0037940750   0.0009307434
       -0.0183551614   0.0016923370   0.0130309757   0.1082276020  -0.2463699737
        0.0041608020  -0.0003334019   0.0004578562  -0.0000092378  -0.0000925188
        0.0002142218  -0.0000395567  -0.0000311161  -0.0000631374   0.0000355938
        0.0000271089   0.0000398778  -0.0000036608   0.0001010206  -0.0000111627
       -0.0000290303  -0.0000340614   0.0000644791  -0.0004502740   0.0000205653
       -0.0000344842   0.0000130320   0.0000607316  -0.0001128482  -0.0000155754
        0.0000514264   0.0000089934  -0.0000266408  -0.0000174352  -0.0000211499
       -0.0000141281   0.0000189762  -0.0000280820   0.0000175158   0.0000385359
        0.0000061406   0.0000268939   0.0000232290   0.0000288848  -0.0000030828
        0.0000205572   0.0000212897   0.0000314889   0.0000093854   0.0000450416
       -0.0000177062  -0.0000178773   0.0000224146  -0.0000291914  -0.0000051444
       -0.0000302417   0.0000189981   0.0000297261   0.0000732099   0.0000064750
        0.0000785837   0.0000385692  -0.0000105050
        0.0155568556  -0.0532840440   0.0088873139   0.1077665404   0.0156199974
       -0.1275806183  -0.2191101178  -0.1146081552   0.3130281355   0.0496094589
        0.0883284903  -0.1149963009  -0.0165310497   0.0299103596   0.0016067682
        0.0149405069   0.0158211083  -0.0192515751  -0.0043552486  -0.0055532614
        0.0095756547  -0.0014408211   0.0046367377  -0.0000278992   0.0001804289
       -0.0002420438  -0.0003773835   0.0011247037   0.0060541202  -0.0030346119
        0.0001182530  -0.0060003546   0.0035258871   0.0093360366  -0.0018008746
       -0.0024998951   0.0251853027   0.0121101643  -0.0254367696  -0.0074228826
        0.0062645337   0.0014982590   0.0029418036  -0.0053008052  -0.0014513361
       -0.0061771885   0.0028760999   0.0006498321   0.0062443827  -0.0002876105
        0.0000569820  -0.0027342935   0.0011028679   0.0002448387  -0.0024155942
        0.0046538875   0.0014324018   0.0018858434   0.0011295451   0.0003841525
       -0.0034067916   0.0022470288  -0.0006204478  -0.0006210764  -0.0050260491
       -0.0014723348   0.0024025072   0.0028612799   0.0007494083  -0.0013962120
        0.0029817947  -0.0011856185   0.0040066793  -0.0004397946   0.0030919175
       -0.0038061424  -0.0003515418  -0.0027028909   0.0003308811   0.0010240479
       -0.0002035973  -0.0021625733  -0.0012108004  -0.0011957275   0.0031202339
       -0.0025553344   0.0032435742  -0.0022110219   0.0036632857  -0.0029132143
       -0.0009589357  -0.0026827135   0.0002086097   0.0008680273   0.0004702429
        0.0005870517  -0.0001830034  -0.0045485902   0.0013917522  -0.0004599730
        0.0047313091  -0.0019594616   0.0027510699  -0.0013020453   0.0017188577
       -0.0015934180  -0.0027194309   0.0004439555   0.0088940780  -0.0021283379
       -0.0003585748  -0.0082325583   0.0018726559   0.0001710584   0.0060783829
       -0.0024582990  -0.0015289887   0.0024232482   0.0010754794   0.0045563447
        0.0148183599  -0.0006557409  -0.0110930212   0.0038306923   0.0035585041
       -0.0360098194   0.0002484239   0.0000575284  -0.0002621690   0.0001784965
       -0.0001980851   0.0001533123  -0.0000520170   0.0001085573  -0.0000987813
       -0.0001833495  -0.0000252621  -0.0001150054  -0.0000407658   0.0001349738
       -0.0001755540   0.0011273011  -0.0001770120  -0.0006347847   0.0000215493
        0.0000592368  -0.0001286423  -0.0002149949   0.0001275888   0.0002369003
       -0.0000324419  -0.0001093290   0.0002594490   0.0000252770   0.0000571366
        0.0000214658   0.0000138545  -0.0000270483   0.0000577288  -0.0000420449
       -0.0000178285  -0.0000207393   0.0000267273   0.0000273086   0.0000070111
        0.0000429777   0.0000417661  -0.0001371881  -0.0000269312  -0.0000485368
        0.0000383862  -0.0000361049   0.0000167691  -0.0000271589   0.0000100172
        0.0000783866  -0.0000943627  -0.0000552309   0.0000001026  -0.0002658986
       -0.0002061182   0.0000560335   0.0000333616
        0.0042594658  -0.0042777372  -0.0053037936  -0.0342716390  -0.0106974643
        0.0293520888  -0.0787187477  -0.0622958158   0.0496094589   0.4299917061
       -0.0181550505  -0.2177750942  -0.1003200077   0.0845872492   0.0043389160
       -0.0283674952   0.0204800650   0.0131260355   0.0046661248   0.0033031725
       -0.0019361500  -0.0026751291  -0.0027890512   0.0046057476  -0.0000842209
        0.0013212305   0.0000079097   0.0012645986  -0.0009362999  -0.0005266532
        0.0034110892   0.0017148372  -0.0006068861  -0.0096033266  -0.0340872749
        0.0226102077  -0.1652891298  -0.0059055994   0.0852061416  -0.0310513178
        0.0178419272   0.0131644806   0.0024464902  -0.0097233536  -0.0002539698
       -0.0071891312   0.0026982991   0.0009339791   0.0061695285  -0.0022222573
       -0.0008238994  -0.0031513983   0.0019343863   0.0005903743  -0.0002436021
        0.0027056151   0.0009042784   0.0001620800   0.0001922273   0.0001477984
       -0.0014624772   0.0017810801  -0.0002360174   0.0001279918  -0.0028618613
       -0.0010517618   0.0011164098   0.0014286105   0.0004156456  -0.0005941194
        0.0013502878  -0.0004440717   0.0019376433  -0.0000632760   0.0014174874
       -0.0018841259  -0.0001098414  -0.0013402757   0.0001135629   0.0007377404
       -0.0002235328  -0.0008133540  -0.0008430955  -0.0003368271   0.0011993138
       -0.0011218256   0.0012927020  -0.0009619138   0.0014122768  -0.0012109993
       -0.0006880189  -0.0010404730  -0.0001449725   0.0006224761   0.0001034044
        0.0004616769  -0.0000394771  -0.0022218763   0.0007157311  -0.0000739619
        0.0022587563  -0.0008548148   0.0012321663  -0.0005563565   0.0007399521
       -0.0008742804  -0.0013532059   0.0002529670   0.0047244156  -0.0012142422
       -0.0002471029  -0.0055263610   0.0033738916  -0.0001594543   0.0076299003
       -0.0007143652   0.0000450048   0.0007188375  -0.0000587043  -0.0003373445
       -0.0015278677   0.0015507211   0.0060496915   0.0050895414   0.0109143521
       -0.0075685801  -0.0005791683   0.0015795902   0.0057797689  -0.0001178473
        0.0003158382   0.0000693052  -0.0002880812   0.0000672718  -0.0000263453
       -0.0000802829  -0.0000373717  -0.0003343716  -0.0002130693  -0.0000807716
        0.0001088761   0.0004129440   0.0000619110  -0.0001177040   0.0000331537
       -0.0000577587  -0.0003919078  -0.0000089104  -0.0001042135   0.0000637603
        0.0000327146  -0.0000534021   0.0001529009   0.0000417968   0.0000249135
        0.0000005517  -0.0000060685   0.0000126800   0.0000089479  -0.0000390061
       -0.0000005007  -0.0000461367  -0.0000029380   0.0000002704   0.0000295120
        0.0000005559   0.0000086614  -0.0000126830  -0.0000135629  -0.0000532750
        0.0000076277  -0.0000105847  -0.0000076254  -0.0000110502  -0.0000497927
        0.0000497328  -0.0000345540  -0.0001370587   0.0000432687  -0.0001008101
       -0.0004470332  -0.0002103222   0.0002482380
        0.0029395732  -0.0438272674   0.0111477551  -0.0573547908   0.0287073112
        0.0322851941  -0.0220848930  -0.2327990381   0.0883284903  -0.0181550505
        0.6366423033  -0.1640866644   0.0604434386  -0.2207321453   0.0070697709