$hessian                                                                        
        0.5076220761   0.0079433207  -0.0288543246  -0.0661672896   0.0174320506
        0.0030957021  -0.0138592825   0.0280543778  -0.0142209503  -0.0005916949
       -0.0001151843  -0.0010255601   0.0004143173   0.0006409997  -0.0000880486
        0.0000868013   0.0003446324  -0.0002370253  -0.0001714364  -0.0000387584
       -0.0001562730   0.0000520390   0.0000067345   0.0000002525  -0.0000213967
       -0.0000619507   0.0000015708  -0.0001249649   0.0000968721   0.0000375585
        0.0000670254   0.0000258914   0.0000071520   0.0000568323  -0.0000519352
       -0.0000376309  -0.0000220016   0.0000215780   0.0000084016   0.0000215441
        0.0000036132  -0.0000074952   0.0000204177   0.0000006830  -0.0000083246
        0.0000085395   0.0000069819  -0.0000032489   0.0000056741   0.0000007380
        0.0000002160  -0.0000065320  -0.0000158984  -0.0000128932   0.0000431035
        0.0000618947  -0.0000023092  -0.0000461449  -0.0000554919   0.0000079503
        0.0000106031  -0.0000003647  -0.0000072159  -0.0000145940  -0.0000071599
        0.0000130917  -0.0000040101   0.0000097348   0.0000023942  -0.0000119565
       -0.0000005440  -0.0000006404  -0.0000187864   0.0000066023   0.0000069656
        0.0000621717   0.0000305472  -0.0000037139   0.0001347414  -0.0001147497
       -0.0000485899  -0.0001572840  -0.0000237630   0.0000390268   0.0000682403
       -0.0000157448  -0.0000088201  -0.0000415595  -0.0000206724   0.0000265399
        0.0000655743   0.0000213013  -0.0000226012  -0.0000963288  -0.0000282669
        0.0000437937   0.0000275955   0.0000263224  -0.0000392579   0.0000208606
       -0.0000037383   0.0000083471  -0.0000094350  -0.0000018889   0.0000081248
        0.0000023788  -0.0000011003   0.0000083686  -0.0000178687   0.0000065848
       -0.0000127442   0.0000097843  -0.0000035033   0.0000074199  -0.0000010496
        0.0000000188   0.0000069246  -0.0000023503   0.0000008541  -0.0000035836
       -0.0000002985  -0.0000000258  -0.0000020795  -0.0000005944  -0.0000005807
        0.0000041944  -0.0000067596   0.0000019464  -0.0000032411   0.0000034391
       -0.0000015325   0.0000012414   0.0000108797  -0.0000031238  -0.0000064066
       -0.0000064067   0.0000067821  -0.0000100465  -0.0000346793  -0.0000043366
        0.0000028096   0.0000429339   0.0000217044  -0.0000269171  -0.0002685796
        0.0020293577  -0.0000290600  -0.0027679067   0.0020117897   0.0024433774
       -0.1955327063   0.0594396429   0.0972219828  -0.0558394435  -0.0122805163
       -0.0472412880  -0.1713033534  -0.1066229563  -0.0111035250  -0.0013844498
        0.0011354781   0.0000890224   0.0001136096   0.0000053861  -0.0000456448
       -0.0000321329  -0.0000117171   0.0000041143  -0.0000028147   0.0000104408
        0.0000043367  -0.0000104655  -0.0000173735   0.0000081542  -0.0000064582
        0.0000021592   0.0000029936   0.0000009797  -0.0000011006  -0.0000036695
       -0.0000025170  -0.0000001675   0.0000040762  -0.0000016950   0.0000045694
        0.0000015920  -0.0000004215   0.0000020155   0.0000012718  -0.0000013074
       -0.0000015604   0.0000006422  -0.0000002969  -0.0000029376  -0.0000010012
        0.0000008129   0.0000012417   0.0000032028   0.0000032196  -0.0000090941
        0.0000007738   0.0000050191  -0.0000021177  -0.0000028359  -0.0000009731
        0.0000001436   0.0000005026   0.0000054116  -0.0000040387   0.0000024406
       -0.0000009296   0.0000013768  -0.0000006818   0.0000026827   0.0000000448
       -0.0000006807   0.0000019457  -0.0000003427  -0.0000002156   0.0000003051
       -0.0000000371   0.0000015905   0.0000005937   0.0000003530  -0.0000022975
        0.0000043999  -0.0000009792   0.0000012858   0.0000024457  -0.0000009662
       -0.0000037650  -0.0000001384   0.0000026096   0.0000002611  -0.0003754677
        0.0001425376   0.0000413623  -0.0000322362  -0.0000356934   0.0001135774
        0.0079433207   0.4380171985   0.0316849499   0.0278288301  -0.1648192589
        0.0714709489   0.0175182245  -0.0259754105   0.0012273920  -0.0025006511
        0.0017264644  -0.0004830088   0.0008070186  -0.0004147521   0.0001323509
        0.0000352325   0.0003720113  -0.0002428741   0.0001349618  -0.0003508299
       -0.0001712715   0.0000580365   0.0002457348  -0.0000925238  -0.0000030774
        0.0000991923   0.0000601847   0.0004560454  -0.0003280359  -0.0001119242
       -0.0001297380  -0.0001486393   0.0000098254  -0.0000532141  -0.0000719581
        0.0000759790   0.0000287191   0.0000074764  -0.0000086843  -0.0000400123
       -0.0000504003   0.0000099476  -0.0000526028   0.0000013014   0.0000207871
       -0.0000162593  -0.0000108895   0.0000068176  -0.0000185184  -0.0000018610
       -0.0000045843   0.0000024926   0.0000331418   0.0000231949  -0.0000933206
       -0.0001501136   0.0000146035   0.0000913247   0.0001385688  -0.0000168098
       -0.0000130037  -0.0000127952   0.0000195152   0.0000287759   0.0000115350
       -0.0000384982   0.0000125041  -0.0000203441  -0.0000168719   0.0000498893
        0.0000202233  -0.0000056674   0.0000287039  -0.0000458849  -0.0000152378
       -0.0000875027   0.0000342594  -0.0000209080  -0.0006364701   0.0003166020
        0.0001905785   0.0005556690   0.0001030504  -0.0001238874  -0.0002421472
        0.0000676087   0.0000216567   0.0001456801   0.0000840210  -0.0000974041
       -0.0002114479  -0.0000889988   0.0000824185   0.0003117621   0.0000970426
       -0.0001112691  -0.0000861240  -0.0000987304   0.0001009136  -0.0000761937
        0.0000146244  -0.0000306619   0.0000358528   0.0000036723  -0.0000258249
       -0.0000103258   0.0000015733  -0.0000260787   0.0000573746  -0.0000184623
        0.0000332638  -0.0000270241   0.0000080726  -0.0000279995   0.0000029020
       -0.0000001664  -0.0000098630   0.0000047703  -0.0000042208   0.0000034438
        0.0000064198  -0.0000040464   0.0000011044  -0.0000016761  -0.0000027307
       -0.0000017900   0.0000039929  -0.0000061067   0.0000046220   0.0000000809
        0.0000006137   0.0000000874  -0.0000320466   0.0000096017   0.0000109733
        0.0000053898  -0.0000232897   0.0000318599   0.0001228765   0.0000447228
       -0.0000198708  -0.0001681874  -0.0001415667   0.0000879987   0.0006358868
       -0.0011436427   0.0018059587   0.0030359632  -0.0008864451  -0.0010695559
        0.0633015840  -0.0663615827  -0.0437002035  -0.0119797721  -0.0507931796
       -0.0480291041  -0.1073171404  -0.1285226108  -0.0124903250   0.0002564494
       -0.0006691881   0.0000906892  -0.0000525846  -0.0000397476   0.0001777904
       -0.0000108648  -0.0000502969   0.0000221689  -0.0000267389  -0.0000088081
        0.0000045356   0.0000096088  -0.0000083243  -0.0000285158  -0.0000071677
       -0.0000111355   0.0000045281   0.0000054297   0.0000060992   0.0000169678
        0.0000065795  -0.0000029598  -0.0000014563  -0.0000005521  -0.0000040857
       -0.0000038042   0.0000000453  -0.0000041838  -0.0000049682   0.0000044233
        0.0000045935  -0.0000003840   0.0000028867   0.0000084371   0.0000064657
       -0.0000022177  -0.0000029269  -0.0000021829  -0.0000106061   0.0000180052
        0.0000001246  -0.0000168379   0.0000059013   0.0000085028   0.0000067799
       -0.0000058381   0.0000084465  -0.0000085535   0.0000077573  -0.0000063438
        0.0000043907  -0.0000016311  -0.0000020656  -0.0000046635   0.0000005855
       -0.0000008135  -0.0000009660   0.0000003220  -0.0000006169   0.0000005951
        0.0000003011  -0.0000035855   0.0000007254   0.0000012132   0.0000017962
       -0.0000077411   0.0000056873  -0.0000008791  -0.0000037349   0.0000071008
        0.0000129138  -0.0000007137  -0.0000042474   0.0000022290   0.0002323138
       -0.0002350220  -0.0002714010   0.0001698860   0.0000210323  -0.0001688161
       -0.0288543246   0.0316849499   0.4863466877  -0.0054758595   0.0814850833
       -0.1112479312  -0.0055040698  -0.0089624837   0.0087170455   0.0008575338
       -0.0027642793  -0.0002977936  -0.0002152361   0.0003346613   0.0008058099
       -0.0001311742  -0.0003239743   0.0005311554  -0.0001768843  -0.0000930476
       -0.0001208113  -0.0001112918  -0.0001077997   0.0000735128   0.0000000403
       -0.0000696901  -0.0000120905  -0.0002384375   0.0001844208   0.0000733144
        0.0000702266   0.0000525197   0.0000093430   0.0000904271   0.0000576774
       -0.0001051020  -0.0000148775  -0.0000018123   0.0000032795   0.0000302542
        0.0000266667  -0.0000163025   0.0000258616  -0.0000005602  -0.0000091822
        0.0000100353   0.0000060253  -0.0000049936   0.0000059692   0.0000028807
        0.0000050226  -0.0000047927  -0.0000153227  -0.0000140437   0.0000515952
        0.0000746259  -0.0000035313  -0.0000492439  -0.0000662387   0.0000024691
        0.0000091632   0.0000032928  -0.0000037485  -0.0000183118  -0.0000048810
        0.0000192092  -0.0000097786   0.0000122539   0.0000088891  -0.0000272936
       -0.0000101731   0.0000008799  -0.0000187154   0.0000254430   0.0000062328
        0.0000520513  -0.0000090819   0.0000125795   0.0003109636  -0.0001822007
       -0.0001081364  -0.0002616575  -0.0000503003   0.0000725568   0.0001143758
       -0.0000326909  -0.0000114825  -0.0000703372  -0.0000389634   0.0000451582
        0.0000942292   0.0000461015  -0.0000394000  -0.0001369215  -0.0000505783
        0.0000696090   0.0000361975   0.0000496785  -0.0000611726   0.0000300137
       -0.0000058261   0.0000104484  -0.0000169788  -0.0000008487   0.0000124213
        0.0000026731  -0.0000002060   0.0000084145  -0.0000231160   0.0000071450
       -0.0000136871   0.0000127699  -0.0000037996   0.0000073482  -0.0000073460
        0.0000015445   0.0000114154  -0.0000011080   0.0000013349  -0.0000053392
       -0.0000034941   0.0000014538  -0.0000008313  -0.0000010466   0.0000008412
        0.0000027069  -0.0000041657   0.0000027215  -0.0000028559   0.0000041561
       -0.0000018944   0.0000024441   0.0000106277  -0.0000032549  -0.0000044484
       -0.0000037624   0.0000097967  -0.0000134139  -0.0000485562  -0.0000268028
        0.0000152339   0.0000690100   0.0000649334  -0.0000552040   0.0012488469
        0.0002458446   0.0000542670   0.0015337838   0.0000715315  -0.0000847617
        0.0939411437  -0.0399270049  -0.1029739567  -0.0463586367  -0.0481182366
       -0.2372420780  -0.0116377879  -0.0127899965  -0.0440391377   0.0009040297
       -0.0008249932  -0.0004821182   0.0000192999   0.0001004957  -0.0000305955
       -0.0000020698   0.0000250224  -0.0000030291   0.0000092118   0.0000042374
        0.0000053501  -0.0000017028  -0.0000024696   0.0000318529   0.0000041792
        0.0000053483   0.0000056405  -0.0000005725  -0.0000054608  -0.0000092503
       -0.0000004229   0.0000011096   0.0000009049  -0.0000000120   0.0000025820
        0.0000030751  -0.0000026835   0.0000025075  -0.0000001105  -0.0000017760
       -0.0000016537   0.0000009895  -0.0000004124  -0.0000046667  -0.0000024702
        0.0000028791   0.0000010845   0.0000016229   0.0000043092  -0.0000073041
        0.0000024631   0.0000075012  -0.0000025137  -0.0000016948  -0.0000028581
        0.0000064210  -0.0000040435   0.0000022983  -0.0000018323   0.0000031258
       -0.0000014775   0.0000007676   0.0000007433   0.0000021549  -0.0000002199
        0.0000000282  -0.0000001859  -0.0000000231  -0.0000007425  -0.0000005125
       -0.0000000045  -0.0000006444   0.0000022184  -0.0000008173  -0.0000041095
        0.0000061621  -0.0000029013   0.0000020703   0.0000044727  -0.0000032601
       -0.0000062354   0.0000003424   0.0000021927   0.0000008599  -0.0000651746
       -0.0001267826  -0.0000329720  -0.0000759410   0.0000416548   0.0000832710
       -0.0661672896   0.0278288301  -0.0054758595   0.2937523351  -0.1620504378
       -0.0893177635  -0.1813601829   0.0707763358   0.0830247777  -0.0299288550
        0.0176408059   0.0193665393   0.0003812610   0.0003742683   0.0054760706
       -0.0009539935  -0.0000556744   0.0006549534   0.0004989845  -0.0010604262
       -0.0007398020  -0.0000948215   0.0006428616  -0.0002577767   0.0000397964
        0.0003045420   0.0002349590   0.0016398525  -0.0011199794  -0.0003837974
       -0.0005914347  -0.0003836842   0.0000570768  -0.0002771856  -0.0002371206
        0.0003594322   0.0001431759  -0.0001367209  -0.0000513429  -0.0002052390
       -0.0001029149   0.0000589831  -0.0001711067  -0.0000046745   0.0000666714
       -0.0000699087  -0.0000488160   0.0000226856  -0.0000731371   0.0000007539
        0.0000262551   0.0000345349   0.0001418985   0.0001280980  -0.0003855140
       -0.0005897611   0.0000264099   0.0004470922   0.0005490714  -0.0001129014
       -0.0001216169  -0.0000293121   0.0001322772   0.0001173213   0.0000328803
       -0.0001379384   0.0000614338  -0.0000864765  -0.0000582068   0.0001567346
        0.0000887369   0.0000021641   0.0000929843  -0.0000980224  -0.0000472168
       -0.0004490730  -0.0000205440  -0.0000139633  -0.0021093776   0.0012664947
        0.0005794032   0.0017693566   0.0003273144  -0.0003723466  -0.0007939085
        0.0002106796   0.0000696180   0.0004489218   0.0002766920  -0.0003155691
       -0.0007172908  -0.0002577296   0.0002659762   0.0010508510   0.0002880986
       -0.0003327213  -0.0003125014  -0.0002787283   0.0003178240  -0.0002826082
        0.0000579241  -0.0001168926   0.0001193007   0.0000255578  -0.0000973255
       -0.0000445066   0.0000198888  -0.0000937611   0.0001899504  -0.0000555922
        0.0001155589  -0.0000871472   0.0000368766  -0.0001027079  -0.0000110828
        0.0000097861  -0.0000258700   0.0000203326  -0.0000078882   0.0000060687
        0.0000185985  -0.0000085077   0.0000162092  -0.0000217977   0.0000003715
        0.0000016151   0.0000099724  -0.0000133115   0.0000174153  -0.0000044193
        0.0000089211  -0.0000001763  -0.0001248024   0.0000417136   0.0000457664
        0.0000187302  -0.0000755381   0.0001116167   0.0004522789   0.0000935965
       -0.0000577198  -0.0005688029  -0.0004304257   0.0002959763   0.0032519117
        0.0008990301   0.0011173299  -0.0151284004   0.0226749594  -0.0007550693
       -0.0102369343   0.0278141764  -0.0124164795  -0.0020076088   0.0103938718
       -0.0093764844   0.0099390762  -0.0148908949   0.0106060970   0.0003221240
       -0.0001021320  -0.0015416675  -0.0012709899   0.0006634870   0.0004013177
        0.0001670722   0.0000628321   0.0000709216  -0.0000923258  -0.0000384378
        0.0000231679  -0.0000150987  -0.0001005662  -0.0001495607   0.0000050244
       -0.0000677662  -0.0000102769  -0.0000043713  -0.0000230465   0.0000393592
        0.0000358680  -0.0000000588  -0.0000383273   0.0000196248  -0.0000444291
       -0.0000193657   0.0000047474  -0.0000274640  -0.0000290864   0.0000241003
        0.0000152905  -0.0000074118   0.0000114223   0.0000356089   0.0000137515
       -0.0000124769  -0.0000164349  -0.0000179415  -0.0000339922   0.0000762514
       -0.0000026587  -0.0000559772   0.0000308147   0.0000240803   0.0000196259
        0.0000030483   0.0000127752  -0.0000466719   0.0000372814  -0.0000249005
        0.0000060738   0.0000011343   0.0000053002  -0.0000325226   0.0000141617
       -0.0000004979  -0.0000154777   0.0000081407  -0.0000045984  -0.0000053860
        0.0000049992  -0.0000242143   0.0000097048  -0.0000014218  -0.0000013866
       -0.0000203848   0.0000120486   0.0000025463  -0.0000079902   0.0000213510
        0.0000445582  -0.0000095144  -0.0000102161   0.0000076032   0.0000298316
        0.0000899314   0.0000892389  -0.0003862806  -0.0014281646  -0.0014068622
        0.0174320506  -0.1648192589   0.0814850833  -0.1620504378   0.3643345802
       -0.0964917294   0.0869859449  -0.1057402512  -0.0256171759   0.0019465808
        0.0044038074  -0.0013473512   0.0020486557  -0.0000943033   0.0039944301
        0.0007719908   0.0006453061  -0.0013421180  -0.0009865466   0.0002396424
       -0.0001641615  -0.0002021082  -0.0004536750   0.0002638869   0.0000224519
       -0.0003331875  -0.0001548378  -0.0011784010   0.0009171892   0.0002687551
        0.0003469050   0.0003455750   0.0000488044   0.0002945922   0.0000117625
       -0.0003232756  -0.0000793838   0.0000360822   0.0000254430   0.0001233330
        0.0001051586  -0.0000368548   0.0001366468  -0.0000012784  -0.0000528370
        0.0000470845   0.0000300360  -0.0000196723   0.0000456347  -0.0000028150
       -0.0000019688  -0.0000097040  -0.0000923311  -0.0000867139   0.0002723916
        0.0004412664  -0.0000195874  -0.0003098182  -0.0004035349   0.0000769473
        0.0000675677   0.0000353001  -0.0000859076  -0.0000858949  -0.0000275610
        0.0001030296  -0.0000366330   0.0000751041   0.0000482908  -0.0001345407
       -0.0000621412   0.0000079005  -0.0000654150   0.0000947540   0.0000356945
        0.0002629981  -0.0000508602   0.0000319630   0.0016571222  -0.0008607684
       -0.0004584801  -0.0013903122  -0.0002645700   0.0003008344   0.0006198782
       -0.0001650559  -0.0000537418  -0.0003581826  -0.0002171360   0.0002477739
        0.0005495664   0.0002140614  -0.0002113297  -0.0008053986  -0.0002358468
        0.0002692108   0.0002352476   0.0002300936  -0.0002492558   0.0002101698
       -0.0000420803   0.0000878497  -0.0000880187  -0.0000182387   0.0000746415
        0.0000298614  -0.0000122803   0.0000714306  -0.0001432180   0.0000414983
       -0.0000865176   0.0000619353  -0.0000257222   0.0000768665   0.0000058736
       -0.0000074386   0.0000201409  -0.0000175994   0.0000075496  -0.0000055708
       -0.0000129441   0.0000067819  -0.0000124446   0.0000157785   0.0000015902
       -0.0000014845  -0.0000054099   0.0000114758  -0.0000117621   0.0000034066
       -0.0000066042   0.0000009306   0.0000912446  -0.0000306213  -0.0000341244
       -0.0000107142   0.0000580045  -0.0000848016  -0.0003327832  -0.0000917083
        0.0000500869   0.0004353685   0.0003573346  -0.0002252166   0.0001693473
       -0.0016977491   0.0049747705   0.0364316778  -0.0316251070  -0.0057335815
        0.0111146356  -0.0195014545   0.0065418649   0.0055775265  -0.0053864648
        0.0173707208   0.0008546078  -0.0401470651   0.0192307833  -0.0000835010
       -0.0004958021  -0.0008372895  -0.0002950884   0.0000420800   0.0000166574
       -0.0000598516   0.0000204194  -0.0000622762   0.0000623397   0.0000290445
       -0.0000196292   0.0000485796   0.0001492413   0.0000919250   0.0000198008
        0.0000554239   0.0000005371  -0.0000049560   0.0000088434  -0.0000401640
       -0.0000216600   0.0000071169   0.0000140998  -0.0000048751   0.0000244452
        0.0000139157  -0.0000058451   0.0000215688   0.0000164367  -0.0000176840
       -0.0000073991   0.0000044554  -0.0000099852  -0.0000208122  -0.0000113916
        0.0000051544   0.0000114229   0.0000113858   0.0000260116  -0.0000495336
        0.0000006275   0.0000412533  -0.0000198554  -0.0000179323  -0.0000169499
        0.0000075855  -0.0000166648   0.0000286385  -0.0000233100   0.0000174091
       -0.0000057740  -0.0000015067  -0.0000008172   0.0000204787  -0.0000100074
        0.0000014334   0.0000078037  -0.0000061167   0.0000028481   0.0000021885
       -0.0000043055   0.0000146050  -0.0000048776  -0.0000013754  -0.0000014725
        0.0000179031  -0.0000121539  -0.0000006612   0.0000078331  -0.0000183798
       -0.0000342923   0.0000079155   0.0000059053  -0.0000047701   0.0009381584
       -0.0007709719  -0.0001673676  -0.0012676228   0.0008315878  -0.0017872393
        0.0030957021   0.0714709489  -0.1112479312  -0.0893177635  -0.0964917294
        0.2308830598   0.0693213841  -0.0096615446  -0.0949273144   0.0326714542
       -0.0166323145  -0.0126880516   0.0042738017   0.0054794192  -0.0020036342
        0.0002758793  -0.0005763531   0.0001589648  -0.0008391194  -0.0000433833
       -0.0002567927   0.0000615558  -0.0000820077   0.0001091121  -0.0000226442
       -0.0002384257  -0.0000591131  -0.0005117039   0.0004092281   0.0000905303
        0.0001978775   0.0001112013   0.0000479458   0.0002316547  -0.0001822364
       -0.0001225950  -0.0000427146   0.0000676126   0.0000204672   0.0000743039
        0.0000383048  -0.0000091830   0.0000647772  -0.0000116352  -0.0000282954
        0.0000233409   0.0000130389  -0.0000066907   0.0000337625  -0.0000042790
       -0.0000206734  -0.0000156008  -0.0000618344  -0.0000460675   0.0001314600
        0.0002046738  -0.0000147897  -0.0001561374  -0.0001931932   0.0000522825
        0.0000471221   0.0000106187  -0.0000620909  -0.0000340494  -0.0000050024
        0.0000506725  -0.0000237689   0.0000210228   0.0000185636  -0.0000444620
       -0.0000271265  -0.0000014943  -0.0000399096   0.0000381785   0.0000251595
        0.0001812151   0.0000547363  -0.0000140348   0.0006968107  -0.0004168876
       -0.0001672845  -0.0006704789  -0.0001048151   0.0001099039   0.0002906412
       -0.0000696587  -0.0000236356  -0.0001627380  -0.0001065634   0.0001204025
        0.0002789674   0.0000877409  -0.0000972264  -0.0003984841  -0.0000995686
        0.0000984767   0.0001217804   0.0000955042  -0.0000980953   0.0001139803
       -0.0000232417   0.0000533728  -0.0000493904  -0.0000103896   0.0000374679
        0.0000214216  -0.0000092075   0.0000344102  -0.0000717657   0.0000199196
       -0.0000419294   0.0000326416  -0.0000143746   0.0000469241   0.0000131846
       -0.0000062965   0.0000050025  -0.0000099230   0.0000032685  -0.0000000245
       -0.0000014993   0.0000014585  -0.0000068546   0.0000114762  -0.0000008873
       -0.0000035674  -0.0000010895   0.0000042311  -0.0000072928   0.0000015081
       -0.0000038996  -0.0000012460   0.0000489893  -0.0000168534  -0.0000157073
       -0.0000066350   0.0000305456  -0.0000527834  -0.0001904465  -0.0000245470
        0.0000171363   0.0002183008   0.0001406505  -0.0000824320   0.0011105439
        0.0045438235  -0.0003800853  -0.0121637550   0.0075444818   0.0093018014
        0.0016899271  -0.0097933383   0.0077348398  -0.0112656282   0.0355570170
       -0.0248119888   0.0032983308   0.0117508792  -0.0019673497  -0.0017324739
       -0.0007524009   0.0007702378   0.0012280977  -0.0009565376  -0.0006546538
       -0.0001293345  -0.0000357151  -0.0000509333   0.0000171558   0.0000308146
       -0.0000158605   0.0000041198   0.0000303274  -0.0000032757  -0.0000144058
        0.0000191618  -0.0000035457   0.0000018480   0.0000136763  -0.0000096907
       -0.0000177592  -0.0000018594   0.0000174362  -0.0000094664   0.0000171878
        0.0000055041   0.0000023952   0.0000087032   0.0000149108  -0.0000090295
       -0.0000066687   0.0000018498  -0.0000048084  -0.0000128550  -0.0000050894
        0.0000029773   0.0000079426   0.0000086605   0.0000103196  -0.0000339004
       -0.0000011580   0.0000226537  -0.0000156668  -0.0000138540  -0.0000044117
       -0.0000121677  -0.0000020371   0.0000242723  -0.0000186045   0.0000084133
       -0.0000013370  -0.0000006199  -0.0000025850   0.0000145898  -0.0000061656
        0.0000002416   0.0000057124  -0.0000034009   0.0000021220   0.0000026551
       -0.0000029559   0.0000120042  -0.0000065512   0.0000000906   0.0000054687
        0.0000046206  -0.0000043422  -0.0000038521   0.0000007068  -0.0000083490
       -0.0000165523   0.0000064168   0.0000061678  -0.0000074507  -0.0006778190
        0.0007149538   0.0001840643  -0.0013352315  -0.0017637263   0.0000093839
       -0.0138592825   0.0175182245  -0.0055040698  -0.1813601829   0.0869859449
        0.0693213841   0.4502242296  -0.1417408193  -0.1945521841  -0.1416273119
       -0.0454288693   0.1283605505  -0.0378035718   0.0168005317   0.0214470919
       -0.0007939617  -0.0133407744   0.0061653077  -0.0019423860   0.0016861397
        0.0008506436   0.0003349069  -0.0005489788  -0.0001361734  -0.0000433052
       -0.0001625728  -0.0001717536  -0.0015637386   0.0010836542   0.0003836929
        0.0004323847   0.0003536608   0.0000519163   0.0005138491  -0.0003721355
       -0.0002469440  -0.0001243881   0.0000530825   0.0000322484   0.0002145761
        0.0001296870  -0.0000579969   0.0001733223  -0.0000041086  -0.0000666102
        0.0000699830   0.0000491284  -0.0000242245   0.0000720625  -0.0000112465
       -0.0000276096  -0.0000236548  -0.0001386061  -0.0001307411   0.0003840161
        0.0005879087  -0.0000235155  -0.0004435371  -0.0005525258   0.0001154910
        0.0001255503   0.0000278254  -0.0001380491  -0.0001161030  -0.0000389853
        0.0001367851  -0.0000547695   0.0000880673   0.0000573864  -0.0001584630
       -0.0000883580   0.0000016988  -0.0000871541   0.0001124188   0.0000437778
        0.0004350020  -0.0000050508   0.0000238082   0.0021294824  -0.0012331827
       -0.0006127411  -0.0017831014  -0.0003432925   0.0003761773   0.0008008555
       -0.0002162175  -0.0000673178  -0.0004585146  -0.0002794070   0.0003181073
        0.0007315277   0.0002648562  -0.0002678122  -0.0010600958  -0.0002957529
        0.0003431696   0.0003098400   0.0002865657  -0.0003303466   0.0002824903
       -0.0000613814   0.0001228878  -0.0001149601  -0.0000271646   0.0000972899
        0.0000437139  -0.0000189873   0.0000925631  -0.0001873264   0.0000546555
       -0.0001136488   0.0000913818  -0.0000379261   0.0001026821   0.0000142278
       -0.0000106462   0.0000238347  -0.0000215890   0.0000081837  -0.0000076571
       -0.0000146294   0.0000070498  -0.0000173392   0.0000218952  -0.0000011417
       -0.0000009439  -0.0000071085   0.0000118759  -0.0000182158   0.0000058056
       -0.0000092155  -0.0000001239   0.0001234770  -0.0000413435  -0.0000454157
       -0.0000146450   0.0000749615  -0.0001141682  -0.0004504281  -0.0000935617
        0.0000565170   0.0005571704   0.0004501548  -0.0003099572  -0.0035420374
        0.0208394818  -0.0171955766  -0.0799367214   0.0615925755  -0.0237258525
       -0.0007229256   0.0024151665  -0.0007005363   0.0014710291  -0.0003205304
        0.0016438789   0.0010280536  -0.0030182503  -0.0002488458   0.0042114789
        0.0009188811  -0.0046566707   0.0001164416   0.0050071262   0.0038349691
       -0.0000249278   0.0000731628  -0.0000620086   0.0001127375   0.0000443971
       -0.0000122773  -0.0000734558   0.0000596691   0.0001107923  -0.0000192274
        0.0000600641   0.0000128210   0.0000020074   0.0000228892  -0.0000329167
       -0.0000349307  -0.0000004267   0.0000388034  -0.0000178404   0.0000440040
        0.0000183369  -0.0000008053   0.0000245750   0.0000297372  -0.0000216413
       -0.0000199461   0.0000057579  -0.0000079100  -0.0000379969  -0.0000174091
        0.0000176504   0.0000126850   0.0000105899   0.0000374463  -0.0000735064
       -0.0000000151   0.0000610403  -0.0000312212  -0.0000283169  -0.0000176794
       -0.0000088541  -0.0000096787   0.0000448982  -0.0000387622   0.0000259539
       -0.0000044935  -0.0000009808  -0.0000086902   0.0000343492  -0.0000144764
       -0.0000013215   0.0000176476  -0.0000092811   0.0000044583   0.0000065754
       -0.0000061966   0.0000255983  -0.0000100904   0.0000004148   0.0000032136
        0.0000177964  -0.0000125146  -0.0000027806   0.0000050066  -0.0000215394
       -0.0000409546   0.0000107156   0.0000112615  -0.0000115570  -0.0000707947
        0.0055349305   0.0041668444   0.0033330654  -0.0145791260   0.0112842009
        0.0280543778  -0.0259754105  -0.0089624837   0.0707763358  -0.1057402512
       -0.0096615446  -0.1417408193   0.4982025800  -0.1729389671   0.0026940037
       -0.1008197694   0.0407946573  -0.0191601709   0.0387220183  -0.0164447408
       -0.0138655853  -0.0258262990   0.0298539891   0.0014374731  -0.0013842018
       -0.0002847491  -0.0005261230   0.0003881299   0.0000596356   0.0000497444
        0.0000762747   0.0001767916   0.0009866115  -0.0006050884  -0.0001612807
       -0.0002130065  -0.0002245381   0.0000688651  -0.0002622638   0.0001734548
       -0.0001170725   0.0000877236  -0.0000234001  -0.0000218266  -0.0001110588
       -0.0000858203   0.0000248868  -0.0001060165   0.0000110668   0.0000420184
       -0.0000401442  -0.0000283837   0.0000137295  -0.0000471486   0.0000068285
        0.0000155988   0.0000119874   0.0000892858   0.0000723834  -0.0002266351
       -0.0003536304   0.0000193755   0.0002575923   0.0003362005  -0.0000699240
       -0.0000734328  -0.0000213092   0.0000890361   0.0000641931   0.0000174935
       -0.0000858588   0.0000353341  -0.0000462540  -0.0000358104   0.0001021670
        0.0000514246  -0.0000031198   0.0000578817  -0.0000775220  -0.0000295473
       -0.0002521782   0.0000327237  -0.0000176098  -0.0013414681   0.0007250177
        0.0003116892   0.0011101091   0.0002136930  -0.0002326419  -0.0004938666
        0.0001342572   0.0000412411   0.0002807810   0.0001745985  -0.0001961674
       -0.0004574220  -0.0001630439   0.0001651101   0.0006669232   0.0001849049
       -0.0002081643  -0.0001928532  -0.0001833257   0.0001996157  -0.0001796973
        0.0000368205  -0.0000779188   0.0000743232   0.0000148655  -0.0000608555
       -0.0000275701   0.0000099977  -0.0000572025   0.0001177287  -0.0000349786
        0.0000704837  -0.0000559436   0.0000223857  -0.0000654119  -0.0000114823
        0.0000068242  -0.0000101910   0.0000134064  -0.0000055597   0.0000036583
        0.0000080912  -0.0000042128   0.0000106515  -0.0000156550   0.0000006748
        0.0000032583   0.0000009349  -0.0000071266   0.0000107563  -0.0000014153
        0.0000046053   0.0000024501  -0.0000769973   0.0000253779   0.0000266867
        0.0000074883  -0.0000485174   0.0000730439   0.0002893764   0.0000616697
       -0.0000359593  -0.0003528317  -0.0002922270   0.0001855089   0.0562199677
       -0.0394878522  -0.0228308503   0.0170109427  -0.2229905002   0.1285690912
        0.0021950925  -0.0050529847   0.0026122699  -0.0014011053   0.0015940643
       -0.0012948859   0.0009735398   0.0016216178  -0.0001259213  -0.0136478251
       -0.0091535372   0.0215661031   0.0056601691   0.0008752179   0.0010260303