99
 energy: -149.985154021159 gnorm: 0.000033017616 xtb: 6.7.1 (edcfbbe)
C           -0.49163172304745       -2.77909254460781       -4.33985552752813
C           -0.29185110821329       -2.36828277009890       -2.91510478022806
N            0.94388465377170       -2.06033665488221       -2.54786011236681
C            1.12716349351783       -1.68080256784463       -1.28177637811403
N            2.39963194829530       -1.36991275341852       -0.83345874987213
C            2.74932710905089       -1.66032206465186        0.49386355302095
C            2.29090926013940       -2.82621354412946        1.10544105247366
C            2.66875470228673       -3.13290213690797        2.39731588708783
C            3.52373504625647       -2.28866791180399        3.08735241908184
C            4.00724357312209       -1.14795192018591        2.47237287563169
C            3.63510878305898       -0.82460281139982        1.17456446472744
C            4.10734822606357        0.43326932026315        0.47284292661079
C            3.02634754035620        1.50970414035204        0.56280408282231
C            2.04459354132204        1.47254243157875        1.54537839131047
C            1.09350621573096        2.47526384536626        1.63287847066543
C            1.11054927645724        3.53425038731636        0.74244504302529
C            2.08587076405384        3.58058749753224       -0.24039568707627
C            3.03301607522152        2.57641129432459       -0.33034084020672
C            5.41371683970662        0.90380476637389        1.09387716588858
C            6.51466031130981        0.05167767002148        1.03587281966341
C            7.72391868263547        0.41943905036956        1.59370912226318
C            7.85380783877784        1.64764470980652        2.22298850640032
C            6.76449084409379        2.49711124752145        2.29092816489942
C            5.55087821522546        2.12794604892451        1.73180421571382
C            4.30871646963312        0.08515069052525       -0.99499066166618
C            5.32329614161369        0.65715962478788       -1.74911816725258
C            5.45021737863247        0.38431862699200       -3.09973156370130
C            4.55236374886945       -0.47248560321741       -3.71150771098387
C            3.54079860090896       -1.06128891371076       -2.97630528994970
C            3.40571684973589       -0.78219917649839       -1.62018191976225
C            0.05645314091932       -1.56825331923025       -0.39854605808640
C           -1.19752713310290       -1.95104474948731       -0.87231032352185
N           -2.32548300872882       -1.87694182681751       -0.10384701950274
C           -2.33587403070346       -1.29705017375756        1.18153333763706
C           -1.54111096656701       -1.79105292115530        2.20781026120791
C           -1.58737340235413       -1.20052437583984        3.45814174641275
C           -2.43818413933473       -0.13242516064170        3.68712828831595
C           -3.25896734165195        0.33548110182833        2.67397279673899
C           -3.22577321813709       -0.24610009635231        1.41614013774536
C           -4.08724145523015        0.19601698596274        0.24615409413602
C           -5.23888078022706        1.05642566258592        0.72712998685756
C           -5.37320971999706        2.39088509972466        0.37187687918978
C           -6.43692242009137        3.14105120303970        0.84797662616608
C           -7.37597919316582        2.56965317499856        1.68787646468209
C           -7.24347264311693        1.24046635413144        2.05737047570249
C           -6.18270924289539        0.49216008226930        1.58285885463089
C           -3.22827988911034        0.89932506211767       -0.80533841119972
C           -1.94806823487212        1.35966546554279       -0.53085467149421
C           -1.17317852120635        1.92652556033619       -1.52920104933151
C           -1.67098192227110        2.05353676886767       -2.81313317380526
C           -2.95812992404139        1.62309391116670       -3.09035352488222
C           -3.72756590768361        1.04927967575706       -2.09601905990356
C           -4.57175519251816       -1.08110051131158       -0.43109872576533
C           -5.85547158927528       -1.27049968742910       -0.91727175650901
C           -6.18158319656949       -2.42899815336596       -1.60303094262961
C           -5.22421460826133       -3.40637914550726       -1.81408863580585
C           -3.93892919909860       -3.23398400674297       -1.33233620334664
C           -3.61298314222748       -2.07070856138922       -0.65181056560703
N           -1.35569775365013       -2.36434591427602       -2.13763488419163
H            0.12021226679083       -3.65098488627755       -4.56276766605392
H           -0.17742249511349       -1.97176848405017       -4.99816917265000
H           -1.53933324665333       -3.00709358604000       -4.50884707896698
H            1.63961786968398       -3.49088133899466        0.55557875262182
H            2.30196281925809       -4.03643425619896        2.86132847045353
H            3.81640044265568       -2.51973145401032        4.10014978383122
H            4.67317578202982       -0.49094775611027        3.01128687695708
H            2.02166521175147        0.65978919790658        2.25673268543196
H            0.33961973744628        2.42913376917710        2.40565351243462
H            0.36862168298331        4.31618883086120        0.81177814122892
H            2.10967979257494        4.40228303938774       -0.94187494364718
H            3.78972891963016        2.62510337742593       -1.09926263870299
H            6.41574251041078       -0.90729920785504        0.54661263962935
H            8.56708192779198       -0.25368865641827        1.53778997987431
H            8.79845354330388        1.93767415772645        2.65904326907893
H            6.85413565231731        3.45529346327176        2.78220354468077
H            4.70983398135458        2.80181273235470        1.79780273739103
H            6.02000228915553        1.33285332637250       -1.27478065077765
H            6.24472795171897        0.84362744285373       -3.66861252662776
H            4.64240834285888       -0.69446743518467       -4.76454149189404
H            2.83785486421817       -1.73116491628239       -3.44066198186715
H            0.20189889432721       -1.17318061830253        0.59161161835798
H           -0.89700632924389       -2.63837457807478        2.02562829049173
H           -0.96079807520047       -1.57980084360566        4.25136533737493
H           -2.46904064379755        0.33596396683570        4.65924443280712
H           -3.92310792371664        1.16520898229665        2.86222432637200
H           -4.64482428139077        2.85237372624249       -0.27825658963511
H           -6.52810579582376        4.17823730302092        0.55941135844579
H           -8.20453395236858        3.15635637313786        2.05664305050995
H           -7.96777755295324        0.78576092202272        2.71757117887488
H           -6.07838953735042       -0.54264658806754        1.87756462620269
H           -1.53863690386599        1.27462359128968        0.46527604285930
H           -0.17314575035800        2.26215759376813       -1.29632309635665
H           -1.06046773681414        2.48713421283965       -3.59162895084038
H           -3.36172314543296        1.72609709857642       -4.08706114689780
H           -4.72621644426942        0.70708300981701       -2.32399096950796
H           -6.60360552883377       -0.50560096902998       -0.77107024225942
H           -7.18473590476131       -2.56175661523354       -1.97957285737953
H           -5.47826715656423       -4.30858843391059       -2.34995685173935
H           -3.18268174111673       -3.98572297771601       -1.49002951602608
