99
 energy: -149.984927181496 gnorm: 0.000045608693 xtb: 6.7.1 (edcfbbe)
C           -1.14190976847160       -4.85401423603466       -1.30320511506313
C           -0.77901846521997       -3.61875266838658       -0.54161001779047
N            0.49414459240586       -3.24910560379609       -0.56795432452044
C            0.82532692842350       -2.16237822434364        0.13008879732171
N            2.14451186775459       -1.72577092437997        0.14490458852166
C            2.69006755886502       -1.26266484678633        1.34716640855703
C            2.33116174794114       -1.85977579143419        2.55485487973435
C            2.90520291864548       -1.44162440108265        3.73878773010423
C            3.85864181741775       -0.43632918722329        3.72901059353963
C            4.23340458319135        0.14391934687210        2.53019038940121
C            3.66067543224804       -0.25970338739661        1.33221563853713
C            3.99295447068129        0.39224218626015        0.00527116619518
C            2.92487521143681        1.42984354776804       -0.34236793093179
C            2.03453921386640        1.91158022728176        0.60889198910616
C            1.08349267088639        2.86075786148273        0.27270885154628
C            1.01075389501834        3.35021397536163       -1.01929673313912
C            1.89707508706457        2.88026620261597       -1.97449818728356
C            2.84234422581791        1.92732608631732       -1.63941942967632
C            5.37801545569993        1.01498411825036        0.08143155105356
C            6.46847626253149        0.17157958026927        0.28285480435813
C            7.74913273029412        0.68147123981223        0.37663826409374
C            7.96189308394829        2.04757750100462        0.27703392449230
C            6.88390491590100        2.89321158572646        0.08776403195112
C            5.59898915687321        2.38168312552758       -0.00653354321965
C            3.94661863712024       -0.68758934718461       -1.06639572830232
C            4.79028101186434       -0.65767243552969       -2.16775427183045
C            4.67662412707222       -1.59214588380875       -3.18190632086520
C            3.70546800694399       -2.57471976636057       -3.10011923458145
C            2.86597366368128       -2.63281661431536       -2.00415643032432
C            2.97579616415677       -1.69233887786074       -0.98451030605580
C           -0.12426687670103       -1.42910357938203        0.83173899472904
C           -1.44131652793396       -1.88210152639830        0.76550834343281
N           -2.48041302803315       -1.19025795815868        1.32080467257619
C           -2.32543405775950        0.12573690533475        1.81201343026297
C           -1.56132527815153        0.39340739400527        2.93856284607581
C           -1.45566463059633        1.69437956640712        3.39964273018397
C           -2.11820089118948        2.71720629534830        2.74252338991798
C           -2.89890289590553        2.44547709866913        1.63028623935968
C           -3.01811026849420        1.14798279292544        1.15934846783750
C           -3.82724115033625        0.73623911435547       -0.05921046347985
C           -4.76297896889027        1.84303948836205       -0.49856928901847
C           -4.66125634302935        2.45209807558720       -1.74114453396474
C           -5.53540006124796        3.46572763359658       -2.10023918367367
C           -6.51862443471718        3.88548830245560       -1.22217056914781
C           -6.62251081365014        3.28832577690269        0.02412123948660
C           -5.75069234108244        2.27730591292783        0.38286349187366
C           -2.86809334940336        0.30495226677986       -1.17092545936377
C           -1.54792037969414        0.73419371455543       -1.20404953493651
C           -0.67852374587213        0.27022706696318       -2.17664144721354
C           -1.11946960504277       -0.61712050777964       -3.14144527020327
C           -2.44302937099556       -1.02495864946727       -3.13670541266929
C           -3.30830174008672       -0.56971083228766       -2.15941146944587
C           -4.57832423643854       -0.52626413843461        0.34798730445985
C           -5.90441131678664       -0.79365181765513        0.04974680981146
C           -6.46150871260080       -2.01777348003910        0.38366031902081
C           -5.69635274842709       -2.98763936845957        1.00854509122838
C           -4.37116234241947       -2.73373592331961        1.31666215794378
C           -3.81835977022646       -1.50817584115995        0.98431135243222
N           -1.75194446907194       -3.00013913374023        0.09633909360532
H           -0.84618440323274       -4.74230962953936       -2.34403607517943
H           -2.21253872114111       -5.01994548876423       -1.23655347984077
H           -0.60742205750724       -5.70903702171455       -0.89348245639817
H            1.60193131456005       -2.65765356785858        2.55342032374459
H            2.61466005688943       -1.90909575672549        4.66793998935572
H            4.30867346783961       -0.10411986760578        4.65202010298841
H            4.96972005319291        0.93351825060637        2.52473473142196
H            2.08336383983928        1.55261950857325        1.62651263797011
H            0.39873466520472        3.21769348118145        1.02897354862689
H            0.26825980582902        4.08943933044167       -1.28124730807400
H            1.85092254306755        3.25459714048901       -2.98700499808924
H            3.52614653263519        1.56705377079129       -2.39368889692128
H            6.30450204225009       -0.89395973221080        0.36422466740891
H            8.58295686479915        0.01185730378250        0.52987010674454
H            8.96227516302230        2.44844022656123        0.34926620778164
H            7.03831924274896        3.96013356547231        0.01484992968389
H            4.76818296339729        3.05683522205953       -0.14768752611699
H            5.54362641185333        0.11365865652892       -2.23736281799206
H            5.34022513025528       -1.54642357815464       -4.03239989469529
H            3.60489811413991       -3.30803656452014       -3.88663359707423
H            2.11097957467107       -3.39656528960345       -1.92383855068779
H            0.14844286069169       -0.52199249025903        1.34314388657840
H           -1.05953725005166       -0.41492037623887        3.44981613166365
H           -0.85614498344814        1.90556955976753        4.27236697146529
H           -2.02963340364501        3.73324130976233        3.09698299525205
H           -3.40761250499809        3.25007882022324        1.12130916002655
H           -3.89607597149194        2.13696574226692       -2.43507057662711
H           -5.44348744729938        3.92823998069426       -3.07235004830952
H           -7.19928691812841        4.67505240726131       -1.50478070036732
H           -7.38429782650451        3.61138170331582        0.71868640099419
H           -5.83148885124136        1.81603372155461        1.35719271204228
H           -1.18036258969855        1.42861148794036       -0.46268879738815
H            0.34920190070322        0.60302496732770       -2.17046711688599
H           -0.43547418329101       -0.98728439618160       -3.89112131957996
H           -2.80220559686818       -1.71022812587916       -3.89053773204094
H           -4.33532207166399       -0.90371474969987       -2.15950266915613
H           -6.50176721844889       -0.05258518143713       -0.46010152937773
H           -7.49516715125069       -2.21571530669925        0.14260388186382
H           -6.13122321766092       -3.94311431196361        1.26038619934559
H           -3.75860370637310       -3.47876876259141        1.79875436244663
