      -----------------------------------------------------------      
     |                   =====================                   |     
     |                           x T B                           |     
     |                   =====================                   |     
     |                         S. Grimme                         |     
     |          Mulliken Center for Theoretical Chemistry        |     
     |                    University of Bonn                     |     
      -----------------------------------------------------------      

   * xtb version 6.7.1 (edcfbbe) compiled by 'albert@albert-system' on 2024-07-22

   xtb is free software: you can redistribute it and/or modify it under
   the terms of the GNU Lesser General Public License as published by
   the Free Software Foundation, either version 3 of the License, or
   (at your option) any later version.
   
   xtb is distributed in the hope that it will be useful,
   but WITHOUT ANY WARRANTY; without even the implied warranty of
   MERCHANTABILITY or FITNESS FOR A PARTICULAR PURPOSE.  See the
   GNU Lesser General Public License for more details.
   
   Cite this work as:
   * C. Bannwarth, E. Caldeweyher, S. Ehlert, A. Hansen, P. Pracht,
     J. Seibert, S. Spicher, S. Grimme, WIREs Comput. Mol. Sci., 2020, 11,
     e01493. DOI: 10.1002/wcms.1493
   
   for GFN2-xTB:
   * C. Bannwarth, S. Ehlert and S. Grimme., J. Chem. Theory Comput., 2019,
     15, 1652-1671. DOI: 10.1021/acs.jctc.8b01176
   for GFN1-xTB:
   * S. Grimme, C. Bannwarth, P. Shushkov, J. Chem. Theory Comput., 2017,
     13, 1989-2009. DOI: 10.1021/acs.jctc.7b00118
   for GFN0-xTB:
   * P. Pracht, E. Caldeweyher, S. Ehlert, S. Grimme, ChemRxiv, 2019, preprint.
     DOI: 10.26434/chemrxiv.8326202.v1
   for GFN-FF:
   * S. Spicher and S. Grimme, Angew. Chem. Int. Ed., 2020, 59, 15665-15673.
     DOI: 10.1002/anie.202004239
   
   for ALPB and GBSA implicit solvation:
   * S. Ehlert, M. Stahn, S. Spicher, S. Grimme, J. Chem. Theory Comput.,
     2021, 17, 4250-4261. DOI: 10.1021/acs.jctc.1c00471
   
   for ddCOSMO and CPCM-X implicit solvation:
   * M. Stahn, S. Ehlert, S. Grimme, J. Phys. Chem. A,
     2023, XX, XXXX-XXXX. DOI: 10.1021/acs.jpca.3c04382
   
   for DFT-D4:
   * E. Caldeweyher, C. Bannwarth and S. Grimme, J. Chem. Phys., 2017,
     147, 034112. DOI: 10.1063/1.4993215
   * E. Caldeweyher, S. Ehlert, A. Hansen, H. Neugebauer, S. Spicher,
     C. Bannwarth and S. Grimme, J. Chem. Phys., 2019, 150, 154122.
     DOI: 10.1063/1.5090222
   * E. Caldeweyher, J.-M. Mewes, S. Ehlert and S. Grimme, Phys. Chem. Chem. Phys.
     2020, 22, 8499-8512. DOI: 10.1039/D0CP00502A
   
   for sTDA-xTB:
   * S. Grimme and C. Bannwarth, J. Chem. Phys., 2016, 145, 054103.
     DOI: 10.1063/1.4959605
   
   in the mass-spec context:
   * V. Asgeirsson, C. Bauer and S. Grimme, Chem. Sci., 2017, 8, 4879.
     DOI: 10.1039/c7sc00601b
   * J. Koopman and S. Grimme, ACS Omega 2019, 4, 12, 15120-15133.
     DOI: 10.1021/acsomega.9b02011
   
   for metadynamics refer to:
   * S. Grimme, J. Chem. Theory Comput., 2019, 155, 2847-2862
     DOI: 10.1021/acs.jctc.9b00143
   
   for SPH calculations refer to:
   * S. Spicher and S. Grimme, J. Chem. Theory Comput., 2021, 17, 1701-1714
     DOI: 10.1021/acs.jctc.0c01306
   
   for ONIOM refer to:
   * C. Plett, A. Katbashev, S. Ehlert, S. Grimme, M. Bursch,
     Phys. Chem. Chem. Phys., 2023, 25, 17860-17868. DOI: 10.1039/D3CP02178E
   
   for DIPRO refer to:
   * J. Kohn, N. Gildemeister, S. Grimme, D. Fazzi, A. Hansen,
     J. Chem. Phys., 2023, just accepted.
   
   for PTB refer to:
   * S. Grimme, M. Mueller, A. Hansen, J. Chem. Phys., 2023, 158, 124111.
     DOI: 10.1063/5.0137838
   
   with help from (in alphabetical order)
   P. Atkinson, C. Bannwarth, F. Bohle, G. Brandenburg, E. Caldeweyher
   M. Checinski, S. Dohm, S. Ehlert, S. Ehrlich, I. Gerasimov, C. Hölzer
   A. Katbashev, J. Kohn, J. Koopman, C. Lavigne, S. Lehtola, F. März, M. Müller,
   F. Musil, H. Neugebauer, J. Pisarek, C. Plett, P. Pracht, F. Pultar,
   J. Seibert, P. Shushkov, S. Spicher, M. Stahn, M. Steiner, T. Strunk,
   J. Stückrath, T. Rose, and J. Unsleber
   
 * started run on 2025/07/18 at 16:47:09.653     
   ID    Z sym.   atoms
    1    6 C      1-7, 9, 11-23, 25-36, 38-48
    2    7 N      8, 10, 24, 37
    3    1 H      49-80

           -------------------------------------------------
          |                Calculation Setup                |
           -------------------------------------------------

          program call               : xtb data2507/gas/2DPA-DPQ/2DPA-DPQ_gas_S0_crest.xyz --gfn 2 --ohess vtight --parallel 40 --molden --ceasefiles --namespace data2507/gas/2DPA-DPQ/2DPA-DPQ_gas_S0_finalOpt
          calculation namespace      : data2507/gas/2DPA-DPQ/2DPA-DPQ_gas_S0_finalOpt
          coordinate file            : data2507/gas/2DPA-DPQ/2DPA-DPQ_gas_S0_crest.xyz
          omp threads                :                    40


           -------------------------------------------------
          |                 G F N 2 - x T B                 |
           -------------------------------------------------

        Reference                      10.1021/acs.jctc.8b01176
      * Hamiltonian:
        H0-scaling (s, p, d)           1.850000    2.230000    2.230000
        zeta-weighting                 0.500000
      * Dispersion:
        s8                             2.700000
        a1                             0.520000
        a2                             5.000000
        s9                             5.000000
      * Repulsion:
        kExp                           1.500000    1.000000
        rExp                           1.000000
      * Coulomb:
        alpha                          2.000000
        third order                    shell-resolved
        anisotropic                    true
        a3                             3.000000
        a5                             4.000000
        cn-shift                       1.200000
        cn-exp                         4.000000
        max-rad                        5.000000


          ...................................................
          :                      SETUP                      :
          :.................................................:
          :  # basis functions                 224          :
          :  # atomic orbitals                 224          :
          :  # shells                          128          :
          :  # electrons                       228          :
          :  max. iterations                   250          :
          :  Hamiltonian                  GFN2-xTB          :
          :  restarted?                      false          :
          :  GBSA solvation                  false          :
          :  PC potential                    false          :
          :  electronic temp.          300.0000000     K    :
          :  accuracy                    1.0000000          :
          :  -> integral cutoff          0.2500000E+02      :
          :  -> integral neglect         0.1000000E-07      :
          :  -> SCF convergence          0.1000000E-05 Eh   :
          :  -> wf. convergence          0.1000000E-03 e    :
          :  Broyden damping             0.4000000          :
          :  net charge                          0          :
          :  unpaired electrons                  0          :
          ...................................................

 iter      E             dE          RMSdq      gap      omega  full diag
   1   -124.4272941 -0.124427E+03  0.412E+00    1.87       0.0  T
   2   -124.5206687 -0.933746E-01  0.253E+00    2.07       1.0  T
   3   -124.4995804  0.210882E-01  0.877E-01    1.91       1.0  T
   4   -124.5291735 -0.295930E-01  0.304E-01    1.85       1.0  T
   5   -124.5342647 -0.509127E-02  0.105E-01    1.88       1.0  T
   6   -124.5350429 -0.778177E-03  0.445E-02    1.87       1.0  T
   7   -124.5352300 -0.187101E-03  0.185E-02    1.87       1.0  T
   8   -124.5352324 -0.238111E-05  0.726E-03    1.87       1.5  T
   9   -124.5352359 -0.350959E-05  0.139E-03    1.87       8.1  T
  10   -124.5352360 -0.138231E-06  0.637E-04    1.87      17.6  T
  11   -124.5352361 -0.138137E-07  0.249E-04    1.87      44.9  T

   *** convergence criteria satisfied after 11 iterations ***

         #    Occupation            Energy/Eh            Energy/eV
      -------------------------------------------------------------
         1        2.0000           -0.6801584             -18.5081
       ...           ...                  ...                  ...
       108        2.0000           -0.3995287             -10.8717
       109        2.0000           -0.3985830             -10.8460
       110        2.0000           -0.3879638             -10.5570
       111        2.0000           -0.3838607             -10.4454
       112        2.0000           -0.3663504              -9.9689
       113        2.0000           -0.3531684              -9.6102
       114        2.0000           -0.3454969              -9.4015 (HOMO)
       115                         -0.2767204              -7.5299 (LUMO)
       116                         -0.2484030              -6.7594
       117                         -0.2364787              -6.4349
       118                         -0.2297178              -6.2509
       119                         -0.2291039              -6.2342
       ...                                ...                  ...
       224                          0.7100830              19.3223
      -------------------------------------------------------------
                  HL-Gap            0.0687765 Eh            1.8715 eV
             Fermi-level           -0.3111087 Eh           -8.4657 eV

 SCC (total)                   0 d,  0 h,  0 min,  0.121 sec
 SCC setup                      ...        0 min,  0.001 sec (  0.504%)
 Dispersion                     ...        0 min,  0.004 sec (  2.923%)
 classical contributions        ...        0 min,  0.000 sec (  0.050%)
 integral evaluation            ...        0 min,  0.007 sec (  5.974%)
 iterations                     ...        0 min,  0.098 sec ( 81.087%)
 molecular gradient             ...        0 min,  0.011 sec (  9.004%)
 printout                       ...        0 min,  0.000 sec (  0.382%)

         :::::::::::::::::::::::::::::::::::::::::::::::::::::
         ::                     SUMMARY                     ::
         :::::::::::::::::::::::::::::::::::::::::::::::::::::
         :: total energy            -122.248136831586 Eh    ::
         :: gradient norm              0.000487878628 Eh/a0 ::
         :: HOMO-LUMO gap              1.871505145331 eV    ::
         ::.................................................::
         :: SCC energy              -124.532551280880 Eh    ::
         :: -> isotropic ES            0.028983268090 Eh    ::
         :: -> anisotropic ES          0.012273653033 Eh    ::
         :: -> anisotropic XC          0.081677579437 Eh    ::
         :: -> dispersion             -0.122992465696 Eh    ::
         :: repulsion energy           2.284414449294 Eh    ::
         :: add. restraining           0.000000000000 Eh    ::
         :: total charge               0.000000000000 e     ::
         :::::::::::::::::::::::::::::::::::::::::::::::::::::

      ----------------------------------------------------------- 
     |                   =====================                   |
     |                        A N C O P T                        |
     |                   =====================                   |
     |               Approximate Normal Coordinate               |
     |                Rational Function Optimizer                |
      ----------------------------------------------------------- 

Optimization log is written to '/dev/null'
      ----------------------------------------------------------- 
     |                   =====================                   |
     |                        A N C O P T                        |
     |                   =====================                   |
     |               Approximate Normal Coordinate               |
     |                Rational Function Optimizer                |
      ----------------------------------------------------------- 

          ...................................................
          :                      SETUP                      :
          :.................................................:
          :   optimization level         verytight          :
          :   max. optcycles                  1600          :
          :   ANC micro-cycles                  20          :
          :   degrees of freedom               234          :
          :.................................................:
          :   RF solver                   davidson          :
          :   write xtbopt.log                true          :
          :   linear?                        false          :
          :   energy convergence         0.1000000E-06 Eh   :
          :   grad. convergence          0.2000000E-03 Eh/α :
          :   maxmium RF displ.          1.0000000          :
          :   Hlow (freq-cutoff)         0.1000000E-01      :
          :   Hmax (freq-cutoff)         5.0000000          :
          :   S6 in model hess.         20.0000000          :
          ...................................................

generating ANC from exact Hessian ...
Using Lindh-Hessian (1995)
 Shifting diagonal of input Hessian by   9.874497536078211E-003
 Lowest  eigenvalues of input Hessian
    0.000000    0.000000    0.000000    0.000000    0.000000    0.000000
    0.010000    0.010037    0.010179    0.010331    0.010362    0.010643
    0.010834    0.011062    0.011173    0.011211    0.011257    0.011433
 Highest eigenvalues
    2.076038    2.116154    2.139817    2.146850    2.198522    2.306529
 

........................................................................
.............................. CYCLE    1 ..............................
........................................................................

 iter      E             dE          RMSdq      gap      omega  full diag
   1   -124.5352361 -0.124535E+03  0.852E-05    1.87       0.0  T
   2   -124.5352361 -0.114312E-09  0.517E-05    1.87     216.5  T
   3   -124.5352361 -0.723475E-10  0.332E-05    1.87     336.9  T
     SCC iter.                  ...        0 min,  0.026 sec
     gradient                   ...        0 min,  0.010 sec
 * total energy  :  -122.2481368 Eh     change       -0.2907271E-08 Eh
   gradient norm :     0.0004877 Eh/α   predicted     0.0000000E+00 (-100.00%)
   displ. norm   :     0.0124381 α      lambda       -0.2896308E-06
   maximum displ.:     0.0063768 α      in ANC's #17, #15, #1, ...

........................................................................
.............................. CYCLE    2 ..............................
........................................................................

 iter      E             dE          RMSdq      gap      omega  full diag
   1   -124.5354532 -0.124535E+03  0.391E-03    1.87       0.0  T
   2   -124.5354532 -0.611011E-08  0.232E-03    1.87       4.8  T
   3   -124.5354532  0.147485E-07  0.393E-04    1.87      28.4  T
   4   -124.5354532 -0.160863E-07  0.104E-04    1.87     107.0  T
     SCC iter.                  ...        0 min,  0.032 sec
     gradient                   ...        0 min,  0.010 sec
 * total energy  :  -122.2481382 Eh     change       -0.1384136E-05 Eh
   gradient norm :     0.0002588 Eh/α   predicted    -0.8650815E-06 ( -37.50%)
   displ. norm   :     0.0167713 α      lambda       -0.9799287E-06
   maximum displ.:     0.0094038 α      in ANC's #17, #15, #1, ...

........................................................................
.............................. CYCLE    3 ..............................
........................................................................

 iter      E             dE          RMSdq      gap      omega  full diag
   1   -124.5354938 -0.124535E+03  0.323E-03    1.87       0.0  T
   2   -124.5354938 -0.391169E-08  0.189E-03    1.87       5.9  T
   3   -124.5354938  0.567586E-08  0.288E-04    1.87      38.8  T
   4   -124.5354938 -0.654607E-08  0.757E-05    1.87     147.8  T
     SCC iter.                  ...        0 min,  0.032 sec
     gradient                   ...        0 min,  0.010 sec
 * total energy  :  -122.2481395 Eh     change       -0.1265583E-05 Eh
   gradient norm :     0.0002699 Eh/α   predicted    -0.4905714E-06 ( -61.24%)
   displ. norm   :     0.0485091 α      lambda       -0.2229983E-05
   maximum displ.:     0.0254627 α      in ANC's #17, #15, #1, ...

........................................................................
.............................. CYCLE    4 ..............................
........................................................................

 iter      E             dE          RMSdq      gap      omega  full diag
   1   -124.5353787 -0.124535E+03  0.885E-03    1.87       0.0  T
   2   -124.5353788 -0.287755E-07  0.518E-03    1.87       2.2  T
   3   -124.5353787  0.372891E-07  0.802E-04    1.87      13.9  T
   4   -124.5353788 -0.458559E-07  0.174E-04    1.87      64.1  T
     SCC iter.                  ...        0 min,  0.032 sec
     gradient                   ...        0 min,  0.010 sec
 * total energy  :  -122.2481416 Eh     change       -0.2087468E-05 Eh
   gradient norm :     0.0001572 Eh/α   predicted    -0.1124964E-05 ( -46.11%)
   displ. norm   :     0.0218097 α      lambda       -0.4106352E-06
   maximum displ.:     0.0102100 α      in ANC's #1, #17, #15, ...

........................................................................
.............................. CYCLE    5 ..............................
........................................................................

 iter      E             dE          RMSdq      gap      omega  full diag
   1   -124.5353915 -0.124535E+03  0.360E-03    1.87       0.0  T
   2   -124.5353915 -0.413765E-08  0.211E-03    1.87       5.3  T
   3   -124.5353914  0.118936E-07  0.398E-04    1.87      28.1  T
   4   -124.5353915 -0.136581E-07  0.712E-05    1.87     157.0  T
     SCC iter.                  ...        0 min,  0.032 sec
     gradient                   ...        0 min,  0.010 sec
 * total energy  :  -122.2481420 Eh     change       -0.4169262E-06 Eh
   gradient norm :     0.0001172 Eh/α   predicted    -0.2073718E-06 ( -50.26%)
   displ. norm   :     0.0137473 α      lambda       -0.2342766E-06
   maximum displ.:     0.0079336 α      in ANC's #1, #4, #6, ...

........................................................................
.............................. CYCLE    6 ..............................
........................................................................

 iter      E             dE          RMSdq      gap      omega  full diag
   1   -124.5353937 -0.124535E+03  0.197E-03    1.87       0.0  T
   2   -124.5353937 -0.921361E-09  0.116E-03    1.87       9.7  T
   3   -124.5353937  0.635428E-08  0.246E-04    1.87      45.4  T
   4   -124.5353937 -0.706277E-08  0.373E-05    1.87     299.9  T
     SCC iter.                  ...        0 min,  0.032 sec
     gradient                   ...        0 min,  0.010 sec
 * total energy  :  -122.2481423 Eh     change       -0.3006671E-06 Eh
   gradient norm :     0.0000683 Eh/α   predicted    -0.1189405E-06 ( -60.44%)
   displ. norm   :     0.0188152 α      lambda       -0.3650147E-06
   maximum displ.:     0.0114008 α      in ANC's #1, #4, #3, ...

........................................................................
.............................. CYCLE    7 ..............................
........................................................................

 iter      E             dE          RMSdq      gap      omega  full diag
   1   -124.5353831 -0.124535E+03  0.286E-03    1.87       0.0  T
   2   -124.5353831 -0.171933E-08  0.168E-03    1.87       6.7  T
   3   -124.5353831  0.902338E-08  0.290E-04    1.87      38.6  T
   4   -124.5353831 -0.101150E-07  0.482E-05    1.87     232.2  T
     SCC iter.                  ...        0 min,  0.032 sec
     gradient                   ...        0 min,  0.010 sec
 * total energy  :  -122.2481427 Eh     change       -0.4550729E-06 Eh
   gradient norm :     0.0000899 Eh/α   predicted    -0.1837256E-06 ( -59.63%)
   displ. norm   :     0.0233695 α      lambda       -0.3650501E-06
   maximum displ.:     0.0143538 α      in ANC's #1, #4, #3, ...

........................................................................
.............................. CYCLE    8 ..............................
........................................................................

 iter      E             dE          RMSdq      gap      omega  full diag
   1   -124.5353726 -0.124535E+03  0.375E-03    1.87       0.0  T
   2   -124.5353726 -0.215930E-08  0.220E-03    1.87       5.1  T
   3   -124.5353726  0.112720E-07  0.326E-04    1.87      34.3  T
   4   -124.5353726 -0.127969E-07  0.497E-05    1.87     224.8  T
     SCC iter.                  ...        0 min,  0.032 sec
     gradient                   ...        0 min,  0.010 sec
 * total energy  :  -122.2481432 Eh     change       -0.4414982E-06 Eh
   gradient norm :     0.0001377 Eh/α   predicted    -0.1833624E-06 ( -58.47%)
   displ. norm   :     0.0222211 α      lambda       -0.3023582E-06
   maximum displ.:     0.0139660 α      in ANC's #1, #4, #3, ...

........................................................................
.............................. CYCLE    9 ..............................
........................................................................

 iter      E             dE          RMSdq      gap      omega  full diag
   1   -124.5353620 -0.124535E+03  0.368E-03    1.87       0.0  T
   2   -124.5353620 -0.156778E-08  0.216E-03    1.87       5.2  T
   3   -124.5353620  0.822139E-08  0.284E-04    1.87      39.3  T
   4   -124.5353620 -0.944638E-08  0.398E-05    1.87     281.0  T
     SCC iter.                  ...        0 min,  0.032 sec
     gradient                   ...        0 min,  0.010 sec
 * total energy  :  -122.2481436 Eh     change       -0.3865447E-06 Eh
   gradient norm :     0.0001300 Eh/α   predicted    -0.1515048E-06 ( -60.81%)
   displ. norm   :     0.0231911 α      lambda       -0.3314982E-06
   maximum displ.:     0.0147875 α      in ANC's #1, #4, #3, ...

........................................................................
.............................. CYCLE   10 ..............................
........................................................................

 iter      E             dE          RMSdq      gap      omega  full diag
   1   -124.5353638 -0.124535E+03  0.392E-03    1.87       0.0  T
   2   -124.5353638 -0.173497E-08  0.230E-03    1.87       4.9  T
   3   -124.5353638  0.826978E-08  0.292E-04    1.87      38.3  T
   4   -124.5353638 -0.955784E-08  0.426E-05    1.87     262.6  T
     SCC iter.                  ...        0 min,  0.032 sec
     gradient                   ...        0 min,  0.011 sec
 * total energy  :  -122.2481440 Eh     change       -0.4282222E-06 Eh
   gradient norm :     0.0000821 Eh/α   predicted    -0.1690461E-06 ( -60.52%)
   displ. norm   :     0.0286093 α      lambda       -0.3913569E-06
   maximum displ.:     0.0183383 α      in ANC's #1, #4, #3, ...

........................................................................
.............................. CYCLE   11 ..............................
........................................................................

 iter      E             dE          RMSdq      gap      omega  full diag
   1   -124.5353714 -0.124535E+03  0.489E-03    1.87       0.0  T
   2   -124.5353714 -0.258956E-08  0.287E-03    1.87       3.9  T
   3   -124.5353714  0.117792E-07  0.349E-04    1.87      32.1  T
   4   -124.5353714 -0.136565E-07  0.543E-05    1.87     205.8  T
     SCC iter.                  ...        0 min,  0.032 sec
     gradient                   ...        0 min,  0.011 sec
 * total energy  :  -122.2481445 Eh     change       -0.4836412E-06 Eh
   gradient norm :     0.0000522 Eh/α   predicted    -0.2006384E-06 ( -58.52%)
   displ. norm   :     0.0297494 α      lambda       -0.3267575E-06
   maximum displ.:     0.0193373 α      in ANC's #1, #4, #3, ...

........................................................................
.............................. CYCLE   12 ..............................
........................................................................

 iter      E             dE          RMSdq      gap      omega  full diag
   1   -124.5353722 -0.124535E+03  0.508E-03    1.87       0.0  T
   2   -124.5353722 -0.283109E-08  0.298E-03    1.87       3.8  T
   3   -124.5353722  0.173117E-07  0.400E-04    1.87      27.9  T
   4   -124.5353722 -0.196250E-07  0.606E-05    1.87     184.4  T
     SCC iter.                  ...        0 min,  0.032 sec
     gradient                   ...        0 min,  0.011 sec
 * total energy  :  -122.2481449 Eh     change       -0.3974746E-06 Eh
   gradient norm :     0.0000794 Eh/α   predicted    -0.1674320E-06 ( -57.88%)
   displ. norm   :     0.0234643 α      lambda       -0.2222064E-06
   maximum displ.:     0.0155923 α      in ANC's #1, #4, #3, ...

........................................................................
.............................. CYCLE   13 ..............................
........................................................................

 iter      E             dE          RMSdq      gap      omega  full diag
   1   -124.5353809 -0.124535E+03  0.399E-03    1.87       0.0  T
   2   -124.5353809 -0.198284E-08  0.234E-03    1.87       4.8  T
   3   -124.5353809  0.155644E-07  0.362E-04    1.87      30.9  T
   4   -124.5353809 -0.173312E-07  0.505E-05    1.87     221.4  T
     SCC iter.                  ...        0 min,  0.032 sec
     gradient                   ...        0 min,  0.011 sec
 * total energy  :  -122.2481452 Eh     change       -0.2882517E-06 Eh
   gradient norm :     0.0000868 Eh/α   predicted    -0.1119159E-06 ( -61.17%)
   displ. norm   :     0.0196836 α      lambda       -0.2047156E-06
   maximum displ.:     0.0132453 α      in ANC's #1, #3, #4, ...

........................................................................
.............................. CYCLE   14 ..............................
........................................................................

 iter      E             dE          RMSdq      gap      omega  full diag
   1   -124.5353852 -0.124535E+03  0.338E-03    1.87       0.0  T
   2   -124.5353852 -0.203487E-08  0.198E-03    1.87       5.6  T
   3   -124.5353852  0.137353E-07  0.338E-04    1.87      33.1  T
   4   -124.5353852 -0.151470E-07  0.526E-05    1.87     212.6  T
     SCC iter.                  ...        0 min,  0.032 sec
     gradient                   ...        0 min,  0.011 sec
 * total energy  :  -122.2481454 Eh     change       -0.2793746E-06 Eh
   gradient norm :     0.0000676 Eh/α   predicted    -0.1029382E-06 ( -63.15%)
   displ. norm   :     0.0230771 α      lambda       -0.2540844E-06
   maximum displ.:     0.0154610 α      in ANC's #1, #3, #2, ...

........................................................................
.............................. CYCLE   15 ..............................
........................................................................

 iter      E             dE          RMSdq      gap      omega  full diag
   1   -124.5353888 -0.124535E+03  0.398E-03    1.87       0.0  T
   2   -124.5353888 -0.347585E-08  0.233E-03    1.87       4.8  T
   3   -124.5353888  0.187909E-07  0.399E-04    1.87      28.0  T
   4   -124.5353888 -0.206755E-07  0.702E-05    1.87     159.3  T
     SCC iter.                  ...        0 min,  0.032 sec
     gradient                   ...        0 min,  0.011 sec
 * total energy  :  -122.2481458 Eh     change       -0.3342663E-06 Eh
   gradient norm :     0.0000435 Eh/α   predicted    -0.1303471E-06 ( -61.01%)
   displ. norm   :     0.0268368 α      lambda       -0.2696029E-06
   maximum displ.:     0.0181018 α      in ANC's #1, #3, #2, ...

........................................................................
.............................. CYCLE   16 ..............................
........................................................................

 iter      E             dE          RMSdq      gap      omega  full diag
   1   -124.5353898 -0.124535E+03  0.456E-03    1.87       0.0  T
   2   -124.5353898 -0.473742E-08  0.267E-03    1.87       4.2  T
   3   -124.5353898  0.208871E-07  0.427E-04    1.87      26.2  T
   4   -124.5353898 -0.230859E-07  0.813E-05    1.87     137.6  T
     SCC iter.                  ...        0 min,  0.032 sec
     gradient                   ...        0 min,  0.011 sec
 * total energy  :  -122.2481461 Eh     change       -0.3383191E-06 Eh
   gradient norm :     0.0000470 Eh/α   predicted    -0.1380327E-06 ( -59.20%)
   displ. norm   :     0.0233617 α      lambda       -0.1887703E-06
   maximum displ.:     0.0162025 α      in ANC's #1, #3, #2, ...

........................................................................
.............................. CYCLE   17 ..............................
........................................................................

 iter      E             dE          RMSdq      gap      omega  full diag
   1   -124.5353880 -0.124535E+03  0.384E-03    1.87       0.0  T
   2   -124.5353880 -0.335500E-08  0.225E-03    1.87       5.0  T
   3   -124.5353880  0.141074E-07  0.352E-04    1.87      31.8  T
   4   -124.5353880 -0.155924E-07  0.688E-05    1.87     162.5  T
     SCC iter.                  ...        0 min,  0.035 sec
     gradient                   ...        0 min,  0.011 sec
 * total energy  :  -122.2481464 Eh     change       -0.2528964E-06 Eh
   gradient norm :     0.0000534 Eh/α   predicted    -0.9863378E-07 ( -61.00%)
   displ. norm   :     0.0139000 α      lambda       -0.1174184E-06
   maximum displ.:     0.0098717 α      in ANC's #1, #3, #8, ...

........................................................................
.............................. CYCLE   18 ..............................
........................................................................

 iter      E             dE          RMSdq      gap      omega  full diag
   1   -124.5353928 -0.124535E+03  0.217E-03    1.87       0.0  T
   2   -124.5353928 -0.114683E-08  0.127E-03    1.87       8.8  T
   3   -124.5353928  0.407216E-08  0.193E-04    1.87      57.8  T
   4   -124.5353928 -0.450864E-08  0.398E-05    1.87     281.2  T
     SCC iter.                  ...        0 min,  0.032 sec
     gradient                   ...        0 min,  0.011 sec
 * total energy  :  -122.2481465 Eh     change       -0.1643874E-06 Eh
   gradient norm :     0.0000459 Eh/α   predicted    -0.6062938E-07 ( -63.12%)
   displ. norm   :     0.0125483 α      lambda       -0.1199514E-06
   maximum displ.:     0.0089758 α      in ANC's #1, #3, #8, ...

........................................................................
.............................. CYCLE   19 ..............................
........................................................................

 iter      E             dE          RMSdq      gap      omega  full diag
   1   -124.5353943 -0.124535E+03  0.186E-03    1.87       0.0  T
   2   -124.5353943 -0.962288E-09  0.109E-03    1.87      10.2  T
   3   -124.5353943  0.222897E-08  0.157E-04    1.87      71.2  T
   4   -124.5353943 -0.255909E-08  0.305E-05    1.87     366.8  T
     SCC iter.                  ...        0 min,  0.032 sec
     gradient                   ...        0 min,  0.011 sec
 * total energy  :  -122.2481467 Eh     change       -0.1766179E-06 Eh
   gradient norm :     0.0000322 Eh/α   predicted    -0.6337416E-07 ( -64.12%)
   displ. norm   :     0.0140900 α      lambda       -0.1451933E-06
   maximum displ.:     0.0097379 α      in ANC's #1, #3, #13, ...

........................................................................
.............................. CYCLE   20 ..............................
........................................................................

 iter      E             dE          RMSdq      gap      omega  full diag
   1   -124.5353941 -0.124535E+03  0.206E-03    1.87       0.0  T
   2   -124.5353941 -0.131240E-08  0.121E-03    1.87       9.3  T
   3   -124.5353941  0.348503E-08  0.199E-04    1.87      56.3  T
   4   -124.5353941 -0.401779E-08  0.320E-05    1.87     349.8  T
     SCC iter.                  ...        0 min,  0.032 sec
     gradient                   ...        0 min,  0.011 sec
 * total energy  :  -122.2481469 Eh     change       -0.2030877E-06 Eh
   gradient norm :     0.0000301 Eh/α   predicted    -0.7517428E-07 ( -62.98%)
   displ. norm   :     0.0182590 α      lambda       -0.1776209E-06
   maximum displ.:     0.0124447 α      in ANC's #1, #3, #6, ...
 * RMSD in coord.:     0.0392879 α      energy gain  -0.1008734E-04 Eh

generating ANC from exact Hessian ...
Using Lindh-Hessian (1995)
 Shifting diagonal of input Hessian by   9.874891112913786E-003
 Lowest  eigenvalues of input Hessian
    0.000000    0.000000    0.000000    0.000000    0.000000    0.000000
    0.010000    0.010038    0.010179    0.010332    0.010363    0.010644
    0.010834    0.011062    0.011174    0.011213    0.011259    0.011433
 Highest eigenvalues
    2.075916    2.116302    2.139792    2.146894    2.198314    2.306299
 

........................................................................
.............................. CYCLE   21 ..............................
........................................................................

 iter      E             dE          RMSdq      gap      omega  full diag
   1   -124.5353951 -0.124535E+03  0.261E-03    1.87       0.0  T
   2   -124.5353951 -0.214902E-08  0.153E-03    1.87       7.3  T
   3   -124.5353951  0.646511E-08  0.269E-04    1.87      41.5  T
   4   -124.5353951 -0.743476E-08  0.400E-05    1.87     279.5  T
     SCC iter.                  ...        0 min,  0.032 sec
     gradient                   ...        0 min,  0.011 sec
 * total energy  :  -122.2481472 Eh     change       -0.2337466E-06 Eh
   gradient norm :     0.0000413 Eh/α   predicted     0.0000000E+00 (-100.00%)
   displ. norm   :     0.0000620 α      lambda        0.0000000E+00
   maximum displ.:     0.0000233 α      in ANC's #216, #1, #4, ...

........................................................................
.............................. CYCLE   22 ..............................
........................................................................

 iter      E             dE          RMSdq      gap      omega  full diag
   1   -124.5353957 -0.124535E+03  0.557E-05    1.87       0.0  T
   2   -124.5353957 -0.251674E-10  0.346E-05    1.87     323.3  T
   3   -124.5353957 -0.111839E-10  0.229E-05    1.87     487.5  T
     SCC iter.                  ...        0 min,  0.024 sec
     gradient                   ...        0 min,  0.011 sec
 * total energy  :  -122.2481472 Eh     change       -0.1810690E-08 Eh
   gradient norm :     0.0000295 Eh/α   predicted    -0.8942373E-09 ( -50.61%)
   displ. norm   :     0.0000620 α      lambda        0.0000000E+00
   maximum displ.:     0.0000233 α      in ANC's #216, #1, #4, ...

   *** GEOMETRY OPTIMIZATION CONVERGED AFTER 22 ITERATIONS ***

------------------------------------------------------------------------
 total energy gain   :        -0.0000103 Eh       -0.0065 kcal/mol
 total RMSD          :         0.0392891 a0        0.0208 Å
 total power (kW/mol):        -0.0012319 (step)   -0.0227 (real)
------------------------------------------------------------------------

 ANCopt (total)                0 d,  0 h,  0 min,  1.195 sec
 optimizer setup                ...        0 min,  0.000 sec (  0.031%)
 model hessian                  ...        0 min,  0.120 sec ( 10.020%)
 ANC generation                 ...        0 min,  0.011 sec (  0.919%)
 coordinate transformation      ...        0 min,  0.002 sec (  0.137%)
 single point calculation       ...        0 min,  1.049 sec ( 87.767%)
 optimization log               ...        0 min,  0.006 sec (  0.508%)
 hessian update                 ...        0 min,  0.003 sec (  0.220%)
 rational function              ...        0 min,  0.002 sec (  0.208%)

================
 final structure:
================
80
 xtb: 6.7.1 (edcfbbe)
C            7.23339892828124       -2.93354981391410        0.12402479929221
C            6.27643609297283       -3.22357747952005       -0.83362671872080
C            5.09784711973303       -2.50196153728987       -0.87848530953212
C            4.86437065384905       -1.47193648765965        0.02825530751445
C            3.60279107192617       -0.71217894979860       -0.01787906474813
C            2.40913026959801       -1.39672212506871       -0.05962985940078
C            1.18899834081116       -0.70709622565122       -0.05011834627541
N            0.02317981815630       -1.37517344157417       -0.17606038685488
C           -1.10300928030212       -0.70904164316890       -0.14245379872375
N           -2.25747948612725       -1.43226931697771       -0.38819787091408
C           -2.24702563657485       -2.82137974704740       -0.14414885594571
C           -1.72523248647478       -3.32037698743756        1.04495700296850
C           -1.73263302037246       -4.67981095062160        1.28977907154340
C           -2.26365017386551       -5.55741733648143        0.35922436164688
C           -2.78009097708418       -5.06434678719789       -0.82685079568054
C           -2.76922475159308       -3.70617990516617       -1.08278699390930
C           -3.31870774278453       -0.87841941459558       -1.11544700944953
C           -4.62436718574128       -1.30536326984888       -0.87654805268996
C           -5.67329848988019       -0.75404299656727       -1.58365493684989
C           -5.44216110963122        0.23460002379706       -2.52710077909244
C           -4.14646940839475        0.65286488606997       -2.77628968383835
C           -3.08802485467050        0.09176498903268       -2.08758606599182
C           -1.10205650120542        0.71203140837747        0.13408943605859
N           -2.25555837543696        1.43634110617982        0.38092305955777
C           -2.24343455271426        2.82596798333767        0.13987903711280
C           -1.72215260841604        3.32693725706323       -1.04859827573331
C           -1.72776862148051        4.68698730548143       -1.29012568703912
C           -2.25649700674148        5.56315374096686       -0.35690622663778
C           -2.77257406446136        5.06804709099825        0.82848152573201
C           -2.76348086213763        3.70925553418164        1.08112893197484
C           -3.31702920302727        0.88268137321782        1.10806204948793
C           -3.08659004417493       -0.08799348951350        2.07974513675568
C           -4.14519388616119       -0.64960937312394        2.76775698407896
C           -5.44078588410797       -0.23107976793765        2.51848986848864
C           -5.67161946920110        0.75851735477418        1.57596479205413
C           -4.62250484118084        1.31025462659360        0.86942848109434
N            0.02502709694956        1.37671000389265        0.16748426071065
C            1.18998237758190        0.70695886878614        0.04226842015918
C            2.41120846450602        1.39464952311517        0.05380514340288
C            3.60388551880660        0.70818435154464        0.01497832127412
C            4.86694979248790        1.46568026214057       -0.02714568383021
C            5.09907770315600        2.49556967452403        0.88011225311490
C            6.27930592947875        3.21474692009432        0.83951575361421
C            7.23939063214027        2.92232307086445       -0.11427443997384
C            7.01022299613365        1.90995054860790       -1.03128339088504
C            5.83411798983673        1.18563863243606       -0.98908758263468
C            5.82842465880265       -1.19418878362257        0.99398039434744
C            7.00282223673631       -1.92099775216109        1.04048396531387
H            8.15458012874331       -3.49646974830614        0.15800689774166
H            6.44964356957776       -4.01445194376043       -1.54919566896546
H            4.35589312300948       -2.72166104373059       -1.63296817223330
H            2.38743079626218       -2.47559191194949       -0.08661894170876
H           -1.30790126791803       -2.64347791541801        1.77355692843468
H           -1.32524751172335       -5.05616565170064        2.21659065569809
H           -2.27055332810840       -6.61903959960756        0.55531542087681
H           -3.18688341815700       -5.74127696448887       -1.56372125201212
H           -3.16180186569144       -3.32643675364275       -2.01471059603330
H           -4.80565807420490       -2.06002933835527       -0.12619662306363
H           -6.68052565639442       -1.09042664286766       -1.38832480190652
H           -6.26684537280645        0.67083494633950       -3.06995113241063
H           -3.95471150533790        1.41248130296647       -3.51974342461972
H           -2.07479558375787        0.39259672787861       -2.31065993841877
H           -1.30664941051093        2.65105827576817       -1.77919855846939
H           -1.32077886025720        5.06500172034325       -2.21643446790523
H           -2.26198966977428        6.62525821447887       -0.55042961722447
H           -3.17762974791262        5.74382203561680        1.56736918090533
H           -3.15570714992023        3.32780623323168        2.01250789754723
H           -2.07337444912820       -0.38881565538618        2.30287903791686
H           -3.95366018866705       -1.40985959510375        3.51061925171598
H           -6.26564273122879       -0.66786370605254        3.06063310834761
H           -6.67877020341511        1.09521735784239        1.38080779232428
H           -4.80349157120092        2.06563246468357        0.11971603733435
H            2.39118232644721        2.47355266206908        0.08075785908106
H            4.35472680307937        2.71705551150285        1.63170496167820
H            6.45139830336328        4.00552166883517        1.55546412478351
H            8.16189718141590        3.48326565497563       -0.14483851705999
H            7.75199126722836        1.68348845135829       -1.78330142079741
H            5.65550600614296        0.40391329483865       -1.71273425032096
H            5.64861302713400       -0.41237470926709        1.71723835471331
H            7.74209907090960       -1.69642901272540        1.79551696360409
 
 Bond Distances (Angstroems)
 ---------------------------
C1-C2=1.3846         C1-C48=1.3850        C1-H49=1.0801        C2-C1=1.3846         C2-C3=1.3827         C2-H50=1.0805        
C3-C2=1.3827         C3-C4=1.3920         C3-H51=1.0807        C4-C3=1.3920         C4-C5=1.4734         C4-C47=1.3925        
C5-C4=1.4734         C5-C6=1.3767         C5-C40=1.4207        C6-C5=1.3767         C6-C7=1.4016         C6-H52=1.0794        
C7-C6=1.4016         C7-N8=1.3496         C7-C38=1.4171        N8-C7=1.3496         N8-C9=1.3089         C9-N8=1.3089         
C9-N10=1.3843        C9-C23=1.4477        N10-C9=1.3843        N10-C11=1.4104       N10-C17=1.4007       C11-N10=1.4104       
C11-C12=1.3911       C11-C16=1.3916       C12-C11=1.3911       C12-C13=1.3813       C12-H53=1.0785       C13-C12=1.3813       
C13-C14=1.3850       C13-H54=1.0801       C14-C13=1.3850       C14-C15=1.3844       C14-H55=1.0796       C15-C14=1.3844       
C15-C16=1.3821       C15-H56=1.0801       C16-C11=1.3916       C16-C15=1.3821       C16-H57=1.0802       C17-N10=1.4007       
C17-C18=1.3943       C17-C22=1.3927       C18-C17=1.3943       C18-C19=1.3799       C18-H58=1.0795       C19-C18=1.3799       
C19-C20=1.3860       C19-H59=1.0797       C20-C19=1.3860       C20-C21=1.3841       C20-H60=1.0794       C21-C20=1.3841       
C21-C22=1.3818       C21-H61=1.0801       C22-C17=1.3927       C22-C21=1.3818       C22-H62=1.0802       C23-C9=1.4477        
C23-N24=1.3842       C23-N37=1.3089       N24-C23=1.3842       N24-C25=1.4104       N24-C31=1.4007       C25-N24=1.4104       
C25-C26=1.3911       C25-C30=1.3916       C26-C25=1.3911       C26-C27=1.3813       C26-H63=1.0785       C27-C26=1.3813       
C27-C28=1.3850       C27-H64=1.0801       C28-C27=1.3850       C28-C29=1.3844       C28-H65=1.0796       C29-C28=1.3844       
C29-C30=1.3821       C29-H66=1.0801       C30-C25=1.3916       C30-C29=1.3821       C30-H67=1.0802       C31-N24=1.4007       
C31-C32=1.3927       C31-C36=1.3943       C32-C31=1.3927       C32-C33=1.3818       C32-H68=1.0802       C33-C32=1.3818       
C33-C34=1.3841       C33-H69=1.0801       C34-C33=1.3841       C34-C35=1.3860       C34-H70=1.0794       C35-C34=1.3860       
C35-C36=1.3799       C35-H71=1.0797       C36-C31=1.3943       C36-C35=1.3799       C36-H72=1.0795       N37-C23=1.3089       
N37-C38=1.3496       C38-C7=1.4171        C38-N37=1.3496       C38-C39=1.4016       C39-C38=1.4016       C39-C40=1.3767       
C39-H73=1.0794       C40-C5=1.4207        C40-C39=1.3767       C40-C41=1.4734       C41-C40=1.4734       C41-C42=1.3920       
C41-C46=1.3925       C42-C41=1.3920       C42-C43=1.3827       C42-H74=1.0807       C43-C42=1.3827       C43-C44=1.3846       
C43-H75=1.0805       C44-C43=1.3846       C44-C45=1.3850       C44-H76=1.0801       C45-C44=1.3850       C45-C46=1.3819       
C45-H77=1.0803       C46-C41=1.3925       C46-C45=1.3819       C46-H78=1.0801       C47-C4=1.3925        C47-C48=1.3819       
C47-H79=1.0801       C48-C1=1.3850        C48-C47=1.3819       C48-H80=1.0803       H49-C1=1.0801        H50-C2=1.0805        
H51-C3=1.0807        H52-C6=1.0794        H53-C12=1.0785       H54-C13=1.0801       H55-C14=1.0796       H56-C15=1.0801       
H57-C16=1.0802       H58-C18=1.0795       H59-C19=1.0797       H60-C20=1.0794       H61-C21=1.0801       H62-C22=1.0802       
H63-C26=1.0785       H64-C27=1.0801       H65-C28=1.0796       H66-C29=1.0801       H67-C30=1.0802       H68-C32=1.0802       
H69-C33=1.0801       H70-C34=1.0794       H71-C35=1.0797       H72-C36=1.0795       H73-C39=1.0794       H74-C42=1.0807       
H75-C43=1.0805       H76-C44=1.0801       H77-C45=1.0803       H78-C46=1.0801       H79-C47=1.0801       H80-C48=1.0803       
 C  H  Rav=1.0799 sigma=0.0005  Rmin=1.0785  Rmax=1.0807    32
 C  C  Rav=1.3932 sigma=0.0213  Rmin=1.3767  Rmax=1.4734    45
 N  C  Rav=1.3708 sigma=0.0372  Rmin=1.3089  Rmax=1.4104    10
 
 selected bond angles (degree)
 --------------------
C48-C1-C2=119.72               H49-C1-C2=120.14               H49-C1-C48=120.14              C3-C2-C1=120.15                
H50-C2-C1=120.04               H50-C2-C3=119.81               C4-C3-C2=120.53                H51-C3-C2=120.12               
H51-C3-C4=119.34               C5-C4-C3=120.32                C47-C4-C3=118.90               C47-C4-C5=120.77               
C6-C5-C4=119.14                C40-C5-C4=120.94               C40-C5-C6=119.90               C7-C6-C5=120.66                
H52-C6-C5=121.01               H52-C6-C7=118.32               N8-C7-C6=120.52                C38-C7-C6=119.40               
C38-C7-N8=120.04               C9-N8-C7=119.27                N10-C9-N8=116.56               C23-C9-N8=120.26               
C23-C9-N10=123.18              C11-N10-C9=118.53              C17-N10-C9=121.16              C17-N10-C11=119.01             
 
 selected dihedral angles (degree)
 ---------------------------------
C3-C2-C1-C48=  0.26           C3-C2-C1-H49=180.09           H50-C2-C1-C48=180.19          H50-C2-C1-H49=  0.00          
C4-C3-C2-C1=  0.52            C4-C3-C2-H50=180.59           H51-C3-C2-C1=179.33           H51-C3-C2-H50=359.41          
C5-C4-C3-C2=180.43            C5-C4-C3-H51=  1.60           C47-C4-C3-C2=359.02           C47-C4-C3-H51=180.19          
C6-C5-C4-C3= 49.66            C6-C5-C4-C47=231.09           C40-C5-C4-C3=228.03           C40-C5-C4-C47= 49.46          
C7-C6-C5-C4=177.43            C7-C6-C5-C40=359.05           H52-C6-C5-C4=358.29           H52-C6-C5-C40=179.90          
N8-C7-C6-C5=175.80            N8-C7-C6-H52=354.97           C38-C7-C6-C5=358.18           C38-C7-C6-H52=177.35          
C9-N8-C7-C6=178.91            C9-N8-C7-C38=356.52           N10-C9-N8-C7=174.77           C23-C9-N8-C7=355.07           
C11-N10-C9-N8= 24.20          C11-N10-C9-C23=203.89         C17-N10-C9-N8=217.35          C17-N10-C9-C23= 37.04         
           -------------------------------------------------
          |                Final Singlepoint                |
           -------------------------------------------------

          ...................................................
          :                      SETUP                      :
          :.................................................:
          :  # basis functions                 224          :
          :  # atomic orbitals                 224          :
          :  # shells                          128          :
          :  # electrons                       228          :
          :  max. iterations                   250          :
          :  Hamiltonian                  GFN2-xTB          :
          :  restarted?                      false          :
          :  GBSA solvation                  false          :
          :  PC potential                    false          :
          :  electronic temp.          300.0000000     K    :
          :  accuracy                    1.0000000          :
          :  -> integral cutoff          0.2500000E+02      :
          :  -> integral neglect         0.1000000E-07      :
          :  -> SCF convergence          0.1000000E-05 Eh   :
          :  -> wf. convergence          0.1000000E-03 e    :
          :  Broyden damping             0.4000000          :
          :  net charge                          0          :
          :  unpaired electrons                  0          :
          ...................................................

 iter      E             dE          RMSdq      gap      omega  full diag
   1   -124.5353957 -0.124535E+03  0.650E-06    1.87       0.0  T
   2   -124.5353957 -0.568434E-12  0.580E-06    1.87    1926.6  T
   3   -124.5353957 -0.405009E-11  0.175E-06    1.87    6374.9  T

   *** convergence criteria satisfied after 3 iterations ***

         #    Occupation            Energy/Eh            Energy/eV
      -------------------------------------------------------------
         1        2.0000           -0.6801819             -18.5087
       ...           ...                  ...                  ...
       108        2.0000           -0.3996013             -10.8737
       109        2.0000           -0.3986511             -10.8478
       110        2.0000           -0.3880171             -10.5585
       111        2.0000           -0.3839113             -10.4468
       112        2.0000           -0.3663472              -9.9688
       113        2.0000           -0.3531920              -9.6108
       114        2.0000           -0.3455331              -9.4024 (HOMO)
       115                         -0.2768085              -7.5323 (LUMO)
       116                         -0.2484171              -6.7598
       117                         -0.2364850              -6.4351
       118                         -0.2297184              -6.2510
       119                         -0.2290844              -6.2337
       ...                                ...                  ...
       224                          0.7100289              19.3209
      -------------------------------------------------------------
                  HL-Gap            0.0687246 Eh            1.8701 eV
             Fermi-level           -0.3111708 Eh           -8.4674 eV

 SCC (total)                   0 d,  0 h,  0 min,  0.041 sec
 SCC setup                      ...        0 min,  0.000 sec (  0.462%)
 Dispersion                     ...        0 min,  0.001 sec (  2.330%)
 classical contributions        ...        0 min,  0.000 sec (  0.086%)
 integral evaluation            ...        0 min,  0.004 sec (  9.112%)
 iterations                     ...        0 min,  0.024 sec ( 60.400%)
 molecular gradient             ...        0 min,  0.011 sec ( 26.329%)
 printout                       ...        0 min,  0.000 sec (  1.076%)

         :::::::::::::::::::::::::::::::::::::::::::::::::::::
         ::                     SUMMARY                     ::
         :::::::::::::::::::::::::::::::::::::::::::::::::::::
         :: total energy            -122.248147154515 Eh    ::
         :: gradient norm              0.000029539955 Eh/a0 ::
         :: HOMO-LUMO gap              1.870091481517 eV    ::
         ::.................................................::
         :: SCC energy              -124.532705400928 Eh    ::
         :: -> isotropic ES            0.028963452993 Eh    ::
         :: -> anisotropic ES          0.012276835624 Eh    ::
         :: -> anisotropic XC          0.081690349247 Eh    ::
         :: -> dispersion             -0.123007290205 Eh    ::
         :: repulsion energy           2.284558246413 Eh    ::
         :: add. restraining           0.000000000000 Eh    ::
         :: total charge              -0.000000000000 e     ::
         :::::::::::::::::::::::::::::::::::::::::::::::::::::

           ------------------------------------------------- 
          |                Numerical Hessian                |
           ------------------------------------------------- 
step length          :   0.00500
SCC accuracy         :   0.30000
Hessian scale factor :   1.00000
frozen atoms in %    :   0.00000    0
RMS gradient         :   0.00003
estimated CPU  time     30.93 min
estimated wall time      0.78 min

writing file <hessian>.

 projected vibrational frequencies (cm⁻¹)
eigval :       -0.00    -0.00     0.00     0.00     0.00     0.00
eigval :       12.55    16.83    16.92    27.58    30.71    43.90
eigval :       48.02    48.35    55.58    58.19    65.21    66.62
eigval :       68.15    71.04    81.40    87.20   100.49   107.67
eigval :      123.83   146.04   160.36   161.77   192.64   201.84
eigval :      210.68   235.16   243.34   243.80   249.16   250.19
eigval :      276.88   284.66   307.82   318.81   342.44   355.01
eigval :      372.24   373.36   374.76   376.02   378.56   379.54
eigval :      387.21   389.54   417.05   445.35   452.92   457.45
eigval :      472.09   479.77   489.72   500.45   506.59   526.82
eigval :      541.10   560.24   571.63   580.33   584.69   589.23
eigval :      590.09   590.72   591.25   594.24   594.43   615.31
eigval :      649.77   649.89   658.65   660.89   661.74   669.34
eigval :      673.86   679.52   688.07   697.55   721.09   727.44
eigval :      736.89   755.97   756.27   758.15   758.86   761.91
eigval :      763.92   840.05   855.59   862.69   868.41   869.12
eigval :      874.74   875.52   876.32   879.00   882.31   891.28
eigval :      892.82   894.04   896.10   902.46   903.49   904.57
eigval :      908.72   924.01   924.66   926.69   926.70   927.84
eigval :      928.49   928.86   929.10   929.96   930.11   931.66
eigval :      932.10   933.24   958.70   973.63   983.02   997.97
eigval :     1004.99  1012.04  1016.25  1069.15  1083.35  1083.62
eigval :     1084.94  1085.24  1085.34  1087.36  1120.93  1121.91
eigval :     1122.49  1122.86  1124.42  1126.11  1170.46  1180.33
eigval :     1180.63  1181.12  1181.26  1182.34  1182.35  1191.82
eigval :     1195.08  1195.83  1197.01  1198.51  1200.39  1206.76
eigval :     1210.63  1238.86  1255.40  1264.67  1274.32  1276.73
eigval :     1278.89  1280.55  1282.86  1283.62  1291.69  1303.50
eigval :     1313.35  1315.46  1319.26  1319.68  1321.87  1322.33
eigval :     1329.32  1329.53  1348.92  1398.17  1420.03  1428.87
eigval :     1432.92  1434.51  1435.23  1439.25  1444.99  1449.22
eigval :     1467.26  1469.93  1473.38  1475.12  1477.14  1481.18
eigval :     1490.68  1505.77  1525.74  1579.08  1580.26  1580.93
eigval :     1582.45  1586.36  1586.61  1588.30  1595.26  1595.54
eigval :     1599.15  1599.72  1600.14  1601.45  3070.08  3070.09
eigval :     3073.37  3073.79  3076.15  3076.18  3076.30  3076.53
eigval :     3079.34  3079.38  3080.28  3080.59  3080.98  3081.37
eigval :     3085.94  3086.53  3086.62  3086.74  3087.73  3087.79
eigval :     3092.28  3092.62  3093.73  3093.88  3093.98  3094.07
eigval :     3095.04  3095.28  3100.00  3100.27  3103.75  3103.83
           -------------------------------------------------
          |                Property Printout                |
           -------------------------------------------------

    * Orbital Energies and Occupations

         #    Occupation            Energy/Eh            Energy/eV
      -------------------------------------------------------------
         1        2.0000           -0.6801819             -18.5087
       ...           ...                  ...                  ...
       102        2.0000           -0.4090979             -11.1321
       103        2.0000           -0.4078688             -11.0987
       104        2.0000           -0.4055530             -11.0357
       105        2.0000           -0.4045637             -11.0087
       106        2.0000           -0.4045452             -11.0082
       107        2.0000           -0.4005403             -10.8993
       108        2.0000           -0.3996013             -10.8737
       109        2.0000           -0.3986511             -10.8478
       110        2.0000           -0.3880171             -10.5585
       111        2.0000           -0.3839113             -10.4468
       112        2.0000           -0.3663472              -9.9688
       113        2.0000           -0.3531920              -9.6108
       114        2.0000           -0.3455331              -9.4024 (HOMO)
       115                         -0.2768085              -7.5323 (LUMO)
       116                         -0.2484171              -6.7598
       117                         -0.2364850              -6.4351
       118                         -0.2297184              -6.2510
       119                         -0.2290845              -6.2337
       120                         -0.2284797              -6.2172
       121                         -0.2233431              -6.0775
       122                         -0.2224691              -6.0537
       123                         -0.2223537              -6.0506
       124                         -0.2218617              -6.0372
       125                         -0.2208398              -6.0094
       ...                                ...                  ...
       224                          0.7100289              19.3209
      -------------------------------------------------------------
                  HL-Gap            0.0687246 Eh            1.8701 eV
             Fermi-level           -0.3111708 Eh           -8.4674 eV

     #   Z          covCN         q      C6AA      α(0)
     1   6 C        2.920    -0.031    28.779     8.797
     2   6 C        2.919    -0.030    28.742     8.792
     3   6 C        2.925    -0.034    28.848     8.808
     4   6 C        2.979     0.014    27.686     8.631
     5   6 C        2.977     0.005    27.915     8.667
     6   6 C        2.924    -0.049    29.228     8.866
     7   6 C        2.959     0.072    26.390     8.426
     8   7 N        1.854    -0.272    27.902     7.829
     9   6 C        2.894     0.134    25.073     8.210
    10   7 N        2.758    -0.077    22.730     7.081
    11   6 C        2.930     0.074    26.336     8.416
    12   6 C        2.923    -0.035    28.874     8.812
    13   6 C        2.921    -0.027    28.680     8.782
    14   6 C        2.919    -0.035    28.870     8.811
    15   6 C        2.920    -0.028    28.707     8.786
    16   6 C        2.923    -0.042    29.047     8.838
    17   6 C        2.925     0.066    26.533     8.447
    18   6 C        2.923    -0.044    29.082     8.844
    19   6 C        2.920    -0.028    28.697     8.785
    20   6 C        2.920    -0.036    28.900     8.816
    21   6 C        2.920    -0.028    28.696     8.785
    22   6 C        2.923    -0.044    29.088     8.845
    23   6 C        2.894     0.134    25.073     8.210
    24   7 N        2.758    -0.077    22.731     7.081
    25   6 C        2.930     0.074    26.336     8.416
    26   6 C        2.923    -0.035    28.874     8.812
    27   6 C        2.921    -0.027    28.680     8.782
    28   6 C        2.919    -0.035    28.870     8.811
    29   6 C        2.920    -0.028    28.706     8.786
    30   6 C        2.923    -0.042    29.047     8.838
    31   6 C        2.925     0.066    26.533     8.447
    32   6 C        2.923    -0.044    29.088     8.844
    33   6 C        2.920    -0.028    28.696     8.785
    34   6 C        2.920    -0.036    28.900     8.816
    35   6 C        2.920    -0.028    28.697     8.785
    36   6 C        2.923    -0.044    29.081     8.843
    37   7 N        1.854    -0.272    27.904     7.829
    38   6 C        2.959     0.072    26.390     8.426
    39   6 C        2.924    -0.049    29.228     8.866
    40   6 C        2.977     0.005    27.915     8.667
    41   6 C        2.979     0.014    27.686     8.631
    42   6 C        2.925    -0.034    28.848     8.808
    43   6 C        2.919    -0.030    28.742     8.792
    44   6 C        2.920    -0.031    28.779     8.797
    45   6 C        2.919    -0.029    28.734     8.790
    46   6 C        2.925    -0.031    28.765     8.795
    47   6 C        2.925    -0.031    28.765     8.795
    48   6 C        2.919    -0.029    28.734     8.790
    49   1 H        0.926     0.029     2.598     2.520
    50   1 H        0.926     0.030     2.589     2.516
    51   1 H        0.926     0.032     2.562     2.503
    52   1 H        0.926     0.048     2.342     2.393
    53   1 H        0.926     0.036     2.505     2.475
    54   1 H        0.926     0.036     2.507     2.476
    55   1 H        0.926     0.034     2.535     2.490
    56   1 H        0.926     0.034     2.526     2.485
    57   1 H        0.926     0.034     2.536     2.490
    58   1 H        0.926     0.034     2.535     2.490
    59   1 H        0.926     0.035     2.519     2.482
    60   1 H        0.926     0.034     2.532     2.488
    61   1 H        0.926     0.035     2.518     2.481
    62   1 H        0.926     0.027     2.623     2.533
    63   1 H        0.926     0.036     2.504     2.475
    64   1 H        0.926     0.036     2.507     2.476
    65   1 H        0.926     0.034     2.535     2.490
    66   1 H        0.926     0.034     2.525     2.485
    67   1 H        0.926     0.034     2.537     2.491
    68   1 H        0.926     0.027     2.623     2.533
    69   1 H        0.926     0.035     2.518     2.481
    70   1 H        0.926     0.034     2.532     2.488
    71   1 H        0.926     0.035     2.519     2.482
    72   1 H        0.926     0.034     2.534     2.489
    73   1 H        0.926     0.048     2.342     2.393
    74   1 H        0.926     0.032     2.562     2.503
    75   1 H        0.926     0.030     2.590     2.516
    76   1 H        0.926     0.029     2.598     2.520
    77   1 H        0.926     0.029     2.598     2.521
    78   1 H        0.926     0.029     2.600     2.521
    79   1 H        0.926     0.029     2.600     2.522
    80   1 H        0.926     0.029     2.598     2.521

 Mol. C6AA /au·bohr⁶  :      92901.478266
 Mol. C8AA /au·bohr⁸  :    2336942.155853
 Mol. α(0) /au        :        493.046826


MOs/occ written to file <molden.input>


molecular dipole:
                 x           y           z       tot (Debye)
 q only:       -0.789       0.001       0.001
   full:       -0.733       0.001       0.002       1.863
molecular quadrupole (traceless):
                xx          xy          yy          xz          yz          zz
 q only:        7.650      -0.009      -0.655       0.006      -1.487      -6.995
  q+dip:        8.976      -0.013      -2.286       0.022      -1.884      -6.689
   full:        7.979      -0.013      -4.694       0.011      -1.761      -3.285

           -------------------------------------------------
          |                Geometry Summary                 |
           -------------------------------------------------

      molecular mass/u    :      616.7532964
   center of mass at/Å    :        0.0000329       0.0001112      -0.0012652
  moments of inertia/u·Å² :        0.4946343E+04   0.1134397E+05   0.1455834E+05
rotational constants/cm⁻¹ :        0.3408100E-02   0.1486043E-02   0.1157936E-02

 * 84 selected distances

     #   Z          #   Z                                           value/Å
     1   6 C        2   6 C                                       1.3845543
     2   6 C        3   6 C                                       1.3826837
     3   6 C        4   6 C                                       1.3919920
     5   6 C        6   6 C                                       1.3766514
     6   6 C        7   6 C                                       1.4015693
     7   6 C        8   7 N                                       1.3495635
     8   7 N        9   6 C                                       1.3088786
     9   6 C       10   7 N                                       1.3842869
    10   7 N       11   6 C                                       1.4104245
    11   6 C       12   6 C                                       1.3911288
    12   6 C       13   6 C                                       1.3813232
    13   6 C       14   6 C                                       1.3849565
    14   6 C       15   6 C                                       1.3844148
    11   6 C       16   6 C                                       1.3916196
    15   6 C       16   6 C                                       1.3821140
    10   7 N       17   6 C                                       1.4006594
    17   6 C       18   6 C                                       1.3943101
    18   6 C       19   6 C                                       1.3799317
    19   6 C       20   6 C                                       1.3859762
    20   6 C       21   6 C                                       1.3841452
    17   6 C       22   6 C                                       1.3926690
    21   6 C       22   6 C                                       1.3818289
    23   6 C       24   7 N                                       1.3842393
    24   7 N       25   6 C                                       1.4104299
    25   6 C       26   6 C                                       1.3911088
    26   6 C       27   6 C                                       1.3813412
    27   6 C       28   6 C                                       1.3849622
    28   6 C       29   6 C                                       1.3844171
    25   6 C       30   6 C                                       1.3916166
    29   6 C       30   6 C                                       1.3821101
    24   7 N       31   6 C                                       1.4007109
    31   6 C       32   6 C                                       1.3926522
    32   6 C       33   6 C                                       1.3818159
    33   6 C       34   6 C                                       1.3841460
    34   6 C       35   6 C                                       1.3859800
    31   6 C       36   6 C                                       1.3942854
    35   6 C       36   6 C                                       1.3799454
    23   6 C       37   7 N                                       1.3089044
     7   6 C       38   6 C                                       1.4170704
    37   7 N       38   6 C                                       1.3495802
    38   6 C       39   6 C                                       1.4015866
     5   6 C       40   6 C                                       1.4207439 (max)
    39   6 C       40   6 C                                       1.3766702
    41   6 C       42   6 C                                       1.3920032
    42   6 C       43   6 C                                       1.3826796
    43   6 C       44   6 C                                       1.3845542
    44   6 C       45   6 C                                       1.3850349
    41   6 C       46   6 C                                       1.3925409
    45   6 C       46   6 C                                       1.3818942
     4   6 C       47   6 C                                       1.3925406
     1   6 C       48   6 C                                       1.3850361
    47   6 C       48   6 C                                       1.3818914
     1   6 C       49   1 H                                       1.0800966
     2   6 C       50   1 H                                       1.0805195
     3   6 C       51   1 H                                       1.0807443
     6   6 C       52   1 H                                       1.0794255
    12   6 C       53   1 H                                       1.0785248 (min)
    13   6 C       54   1 H                                       1.0800860
    14   6 C       55   1 H                                       1.0796024
    15   6 C       56   1 H                                       1.0801356
    16   6 C       57   1 H                                       1.0801868
    18   6 C       58   1 H                                       1.0795438
    19   6 C       59   1 H                                       1.0797289
    20   6 C       60   1 H                                       1.0793942
    21   6 C       61   1 H                                       1.0800518
    22   6 C       62   1 H                                       1.0802294
    26   6 C       63   1 H                                       1.0785325
    27   6 C       64   1 H                                       1.0800851
    28   6 C       65   1 H                                       1.0796053
    29   6 C       66   1 H                                       1.0801375
    30   6 C       67   1 H                                       1.0801907
    32   6 C       68   1 H                                       1.0802263
    33   6 C       69   1 H                                       1.0800510
    34   6 C       70   1 H                                       1.0793927
    35   6 C       71   1 H                                       1.0797249
    36   6 C       72   1 H                                       1.0795466
    39   6 C       73   1 H                                       1.0794256
    42   6 C       74   1 H                                       1.0807433
    43   6 C       75   1 H                                       1.0805197
    44   6 C       76   1 H                                       1.0800969
    45   6 C       77   1 H                                       1.0802947
    46   6 C       78   1 H                                       1.0801210
    47   6 C       79   1 H                                       1.0801240
    48   6 C       80   1 H                                       1.0802946

 * 3 distinct bonds (by element types)

   Z      Z             #   av. dist./Å        max./Å        min./Å
   1 H    6 C          32     1.0799182     1.0807443     1.0785248
   6 C    6 C          42     1.3881070     1.4207439     1.3766514
   6 C    7 N          10     1.3707678     1.4104299     1.3088786

           -------------------------------------------------
          |               Frequency Printout                |
           -------------------------------------------------
 projected vibrational frequencies (cm⁻¹)
eigval :       -0.00    -0.00     0.00     0.00     0.00     0.00
eigval :       12.55    16.83    16.92    27.58    30.71    43.90
eigval :       48.02    48.35    55.58    58.19    65.21    66.62
eigval :       68.15    71.04    81.40    87.20   100.49   107.67
eigval :      123.83   146.04   160.36   161.77   192.64   201.84
eigval :      210.68   235.16   243.34   243.80   249.16   250.19
eigval :      276.88   284.66   307.82   318.81   342.44   355.01
eigval :      372.24   373.36   374.76   376.02   378.56   379.54
eigval :      387.21   389.54   417.05   445.35   452.92   457.45
eigval :      472.09   479.77   489.72   500.45   506.59   526.82
eigval :      541.10   560.24   571.63   580.33   584.69   589.23
eigval :      590.09   590.72   591.25   594.24   594.43   615.31
eigval :      649.77   649.89   658.65   660.89   661.74   669.34
eigval :      673.86   679.52   688.07   697.55   721.09   727.44
eigval :      736.89   755.97   756.27   758.15   758.86   761.91
eigval :      763.92   840.05   855.59   862.69   868.41   869.12
eigval :      874.74   875.52   876.32   879.00   882.31   891.28
eigval :      892.82   894.04   896.10   902.46   903.49   904.57
eigval :      908.72   924.01   924.66   926.69   926.70   927.84
eigval :      928.49   928.86   929.10   929.96   930.11   931.66
eigval :      932.10   933.24   958.70   973.63   983.02   997.97
eigval :     1004.99  1012.04  1016.25  1069.15  1083.35  1083.62
eigval :     1084.94  1085.24  1085.34  1087.36  1120.93  1121.91
eigval :     1122.49  1122.86  1124.42  1126.11  1170.46  1180.33
eigval :     1180.63  1181.12  1181.26  1182.34  1182.35  1191.82
eigval :     1195.08  1195.83  1197.01  1198.51  1200.39  1206.76
eigval :     1210.63  1238.86  1255.40  1264.67  1274.32  1276.73
eigval :     1278.89  1280.55  1282.86  1283.62  1291.69  1303.50
eigval :     1313.35  1315.46  1319.26  1319.68  1321.87  1322.33
eigval :     1329.32  1329.53  1348.92  1398.17  1420.03  1428.87
eigval :     1432.92  1434.51  1435.23  1439.25  1444.99  1449.22
eigval :     1467.26  1469.93  1473.38  1475.12  1477.14  1481.18
eigval :     1490.68  1505.77  1525.74  1579.08  1580.26  1580.93
eigval :     1582.45  1586.36  1586.61  1588.30  1595.26  1595.54
eigval :     1599.15  1599.72  1600.14  1601.45  3070.08  3070.09
eigval :     3073.37  3073.79  3076.15  3076.18  3076.30  3076.53
eigval :     3079.34  3079.38  3080.28  3080.59  3080.98  3081.37
eigval :     3085.94  3086.53  3086.62  3086.74  3087.73  3087.79
eigval :     3092.28  3092.62  3093.73  3093.88  3093.98  3094.07
eigval :     3095.04  3095.28  3100.00  3100.27  3103.75  3103.83
 reduced masses (amu)
   1: 11.29   2: 11.52   3: 11.58   4: 11.40   5: 11.25   6: 11.23   7: 10.88   8: 10.88
   9: 10.95  10: 10.84  11: 10.90  12: 10.64  13: 10.64  14: 10.35  15: 10.35  16:  9.99
  17: 10.04  18: 10.50  19: 10.34  20: 10.82  21: 10.83  22: 11.06  23:  9.83  24: 10.07
  25: 10.86  26: 11.65  27: 11.09  28: 10.82  29: 11.14  30: 10.91  31: 11.34  32: 10.46
  33: 10.55  34: 10.67  35: 10.56  36: 10.47  37: 11.57  38: 11.53  39: 10.72  40: 10.59
  41: 11.37  42: 10.72  43:  9.41  44: 10.95  45:  9.38  46:  9.26  47:  9.01  48: 10.04
  49:  9.23  50:  9.59  51: 11.61  52: 11.55  53: 11.29  54: 10.15  55: 10.01  56: 10.32
  57:  9.99  58: 10.70  59: 11.03  60: 11.27  61: 11.10  62: 11.49  63: 11.74  64: 11.05
  65: 11.43  66: 11.26  67: 11.21  68: 11.35  69: 11.26  70: 11.20  71: 12.02  72: 11.52
  73: 11.23  74: 11.47  75: 10.23  76: 10.25  77:  9.95  78: 10.15  79: 10.14  80:  9.06
  81: 11.23  82: 10.25  83: 11.51  84: 11.24  85: 11.99  86:  4.32  87:  4.27  88:  4.32
  89:  4.14  90:  4.91  91:  5.52  92: 11.26  93:  6.30  94:  9.93  95:  3.37  96:  3.33
  97:  3.28  98:  3.28  99:  3.22 100:  3.33 101:  3.24 102:  3.84 103:  3.90 104:  4.50
 105:  3.86 106:  8.20 107:  6.29 108:  3.88 109: 11.44 110:  4.03 111:  3.85 112:  3.94
 113:  3.42 114:  3.52 115:  2.79 116:  2.93 117:  3.07 118:  4.27 119:  4.04 120:  2.96
 121:  2.96 122: 11.20 123: 11.65 124: 10.75 125: 10.95 126: 10.80 127: 10.61 128: 10.64
 129: 10.73 130:  9.00 131:  6.73 132:  6.83 133:  6.74 134:  6.62 135:  6.57 136:  5.50
 137:  4.17 138:  4.20 139:  4.02 140:  4.00 141:  4.04 142:  3.97 143:  8.29 144:  1.32
 145:  1.31 146:  1.30 147:  1.31 148:  1.31 149:  1.32 150:  3.95 151:  1.83 152:  2.44
 153:  1.92 154:  2.01 155:  1.81 156:  4.33 157:  6.64 158:  8.34 159:  9.85 160: 11.13
 161:  6.34 162:  5.25 163:  4.32 164:  4.03 165:  3.72 166:  3.96 167:  8.36 168:  9.71
 169: 10.92 170: 11.35 171: 11.37 172: 11.90 173: 11.86 174: 11.73 175: 11.85 176: 11.91
 177: 11.38 178: 10.97 179: 10.27 180:  9.39 181: 10.56 182:  9.09 183:  9.04 184:  9.54
 185:  9.47 186: 10.29 187: 10.39 188:  9.05 189:  9.27 190:  9.29 191:  9.62 192:  9.58
 193: 10.44 194: 12.73 195: 11.90 196: 11.51 197: 11.50 198: 11.50 199: 11.49 200: 11.55
 201: 11.55 202: 11.68 203: 11.47 204: 11.47 205: 11.50 206: 11.49 207: 11.48 208: 11.51
 209:  1.75 210:  1.75 211:  1.77 212:  1.78 213:  1.75 214:  1.75 215:  1.76 216:  1.76
 217:  1.79 218:  1.79 219:  1.84 220:  1.84 221:  1.77 222:  1.77 223:  1.87 224:  1.87
 225:  1.85 226:  1.84 227:  1.85 228:  1.85 229:  1.92 230:  1.92 231:  1.83 232:  1.86
 233:  1.83 234:  1.86 235:  1.90 236:  1.90 237:  1.92 238:  1.92 239:  1.87 240:  1.87
 IR intensities (km·mol⁻¹)
   1:  0.00   2:  0.00   3:  0.00   4:  0.00   5:  0.02   6:  0.00   7:  0.08   8:  0.06
   9:  0.07  10:  0.47  11:  0.32  12:  0.01  13:  0.08  14:  0.80  15:  1.26  16:  0.05
  17:  0.01  18:  0.25  19:  0.26  20:  0.04  21:  0.14  22:  0.63  23:  0.25  24:  0.31
  25:  0.41  26:  0.61  27:  0.32  28:  0.04  29:  0.24  30:  0.27  31:  3.21  32:  0.76
  33:  2.09  34:  0.17  35:  0.04  36:  2.97  37:  0.54  38:  4.40  39:  1.26  40:  0.23
  41:  4.24  42:  0.53  43:  0.66  44:  0.55  45:  1.45  46:  0.00  47:  0.00  48:  3.58
  49:  2.54  50:  0.35  51:  3.31  52: 20.11  53:  2.19  54:  6.20  55: 14.04  56: 13.56
  57: 13.56  58:  7.56  59:  8.45  60:  5.25  61:  8.17  62:  0.17  63:  0.62  64:  0.73
  65:  2.09  66:  0.58  67:  0.12  68:  1.26  69:  0.35  70:  0.97  71:  3.76  72:  0.64
  73:  0.06  74:  0.20  75:  1.25  76:  7.98  77:  2.49  78: 11.97  79:  1.80  80:  2.60
  81: 12.34  82:  3.36  83:  1.10  84:  0.52  85:  3.06  86:  8.90  87: 52.14  88: 14.79
  89:  6.72  90: 32.63  91:  7.03  92:  0.42  93: 10.04  94:  3.13  95:  0.04  96:  0.01
  97:  0.23  98:  0.08  99:  4.13 100:  0.61 101:  0.02 102:  0.64 103:  0.07 104:  0.09
 105:  0.02 106:  2.06 107:  0.97 108:  0.11 109:  5.61 110:  1.01 111:  0.82 112:  0.39
 113:  0.44 114:  0.38 115:  0.00 116:  0.07 117:  0.28 118:  0.96 119:  2.83 120:  0.29
 121:  0.03 122:  0.49 123:  2.90 124:  3.26 125:  0.45 126:  0.25 127:  3.51 128:  6.51
 129:  1.13 130:  0.00 131:  1.70 132:  0.13 133:  0.02 134:  0.04 135:  0.05 136:  0.09
 137:  0.18 138:  1.05 139:  1.57 140:  0.38 141:  1.38 142:  0.07 143: 19.04 144:  0.02
 145:  0.35 146:  0.06 147:  0.17 148:  0.01 149:  0.00 150:  0.35 151:  5.53 152:  5.84
 153: 14.71 154:  4.66 155:  0.06 156:  0.69 157: 45.34 158: 11.30 159: 19.31 160: 13.07
 161: 64.56 162:124.70 163: 21.63 164: 24.96 165: 23.20 166:  3.01 167: 89.55 168:444.14
 169:124.31 170: 70.84 171: 83.94 172:  4.24 173:  4.43 174:  0.71 175: 10.65 176:  0.11
 177:382.56 178: 40.73 179:  6.16 180:123.03 181:294.25 182:  2.05 183:  6.60 184:  1.83
 185: 15.87 186:352.61 187:  8.73 188: 74.97 189: 93.86 190:193.92 191:273.01 192:  3.21
 193:  1.03 194: 89.13 195: 53.32 196:  2.12 197:  0.02 198:  8.64 199:  0.02 200:  5.69
 201:  9.69 202:  2.24 203: 34.62 204:125.12 205:  9.95 206: 59.70 207:  6.52 208:  0.60
 209:  8.98 210:  5.76 211:  2.14 212:  0.01 213:  2.17 214:  6.09 215:  7.23 216: 16.71
 217:  1.92 218: 12.23 219: 66.40 220: 32.89 221:  0.06 222:  0.05 223:165.51 224: 17.28
 225: 10.13 226: 72.05 227:122.92 228:  7.67 229:121.53 230: 20.91 231: 34.03 232:  0.43
 233:  1.05 234:110.78 235:121.01 236:  9.46 237: 83.46 238:  3.08 239: 17.07 240: 29.42
 Raman intensities (Ä⁴*amu⁻¹)
   1:  0.00   2:  0.00   3:  0.00   4:  0.00   5:  0.00   6:  0.00   7:  0.00   8:  0.00
   9:  0.00  10:  0.00  11:  0.00  12:  0.00  13:  0.00  14:  0.00  15:  0.00  16:  0.00
  17:  0.00  18:  0.00  19:  0.00  20:  0.00  21:  0.00  22:  0.00  23:  0.00  24:  0.00
  25:  0.00  26:  0.00  27:  0.00  28:  0.00  29:  0.00  30:  0.00  31:  0.00  32:  0.00
  33:  0.00  34:  0.00  35:  0.00  36:  0.00  37:  0.00  38:  0.00  39:  0.00  40:  0.00
  41:  0.00  42:  0.00  43:  0.00  44:  0.00  45:  0.00  46:  0.00  47:  0.00  48:  0.00
  49:  0.00  50:  0.00  51:  0.00  52:  0.00  53:  0.00  54:  0.00  55:  0.00  56:  0.00
  57:  0.00  58:  0.00  59:  0.00  60:  0.00  61:  0.00  62:  0.00  63:  0.00  64:  0.00
  65:  0.00  66:  0.00  67:  0.00  68:  0.00  69:  0.00  70:  0.00  71:  0.00  72:  0.00
  73:  0.00  74:  0.00  75:  0.00  76:  0.00  77:  0.00  78:  0.00  79:  0.00  80:  0.00
  81:  0.00  82:  0.00  83:  0.00  84:  0.00  85:  0.00  86:  0.00  87:  0.00  88:  0.00
  89:  0.00  90:  0.00  91:  0.00  92:  0.00  93:  0.00  94:  0.00  95:  0.00  96:  0.00
  97:  0.00  98:  0.00  99:  0.00 100:  0.00 101:  0.00 102:  0.00 103:  0.00 104:  0.00
 105:  0.00 106:  0.00 107:  0.00 108:  0.00 109:  0.00 110:  0.00 111:  0.00 112:  0.00
 113:  0.00 114:  0.00 115:  0.00 116:  0.00 117:  0.00 118:  0.00 119:  0.00 120:  0.00
 121:  0.00 122:  0.00 123:  0.00 124:  0.00 125:  0.00 126:  0.00 127:  0.00 128:  0.00
 129:  0.00 130:  0.00 131:  0.00 132:  0.00 133:  0.00 134:  0.00 135:  0.00 136:  0.00
 137:  0.00 138:  0.00 139:  0.00 140:  0.00 141:  0.00 142:  0.00 143:  0.00 144:  0.00
 145:  0.00 146:  0.00 147:  0.00 148:  0.00 149:  0.00 150:  0.00 151:  0.00 152:  0.00
 153:  0.00 154:  0.00 155:  0.00 156:  0.00 157:  0.00 158:  0.00 159:  0.00 160:  0.00
 161:  0.00 162:  0.00 163:  0.00 164:  0.00 165:  0.00 166:  0.00 167:  0.00 168:  0.00
 169:  0.00 170:  0.00 171:  0.00 172:  0.00 173:  0.00 174:  0.00 175:  0.00 176:  0.00
 177:  0.00 178:  0.00 179:  0.00 180:  0.00 181:  0.00 182:  0.00 183:  0.00 184:  0.00
 185:  0.00 186:  0.00 187:  0.00 188:  0.00 189:  0.00 190:  0.00 191:  0.00 192:  0.00
 193:  0.00 194:  0.00 195:  0.00 196:  0.00 197:  0.00 198:  0.00 199:  0.00 200:  0.00
 201:  0.00 202:  0.00 203:  0.00 204:  0.00 205:  0.00 206:  0.00 207:  0.00 208:  0.00
 209:  0.00 210:  0.00 211:  0.00 212:  0.00 213:  0.00 214:  0.00 215:  0.00 216:  0.00
 217:  0.00 218:  0.00 219:  0.00 220:  0.00 221:  0.00 222:  0.00 223:  0.00 224:  0.00
 225:  0.00 226:  0.00 227:  0.00 228:  0.00 229:  0.00 230:  0.00 231:  0.00 232:  0.00
 233:  0.00 234:  0.00 235:  0.00 236:  0.00 237:  0.00 238:  0.00 239:  0.00 240:  0.00
 output can be read by thermo (or use thermo option).
 writing <g98.out> molden fake output.
 recommended (thermochemical) frequency scaling factor: 1.0
           -------------------------------------------------
          |             Thermodynamic Functions             |
           -------------------------------------------------

Molecule has the following symmetry elements: (C2) 
It seems to be the C2 point group
c2  symmetry found (for desy threshold:  0.10E+00) used in thermo

          ...................................................
          :                      SETUP                      :
          :.................................................:
          :  # frequencies                         234      :
          :  # imaginary freq.                       0      :
          :  linear?                             false      :
          :  only rotor calc.                    false      :
          :  symmetry                               c2      :
          :  rotational number                       2      :
          :  scaling factor                  1.0000000      :
          :  rotor cutoff                   50.0000000 cm⁻¹ :
          :  imag. cutoff                  -20.0000000 cm⁻¹ :
          :.................................................:

    mode    ω/cm⁻¹     T·S(HO)/kcal·mol⁻¹    T·S(FR)/kcal·mol⁻¹   T·S(vib)
   ------------------------------------------------------------------------
       1     12.55    -2.25405 (  0.40%)    -1.46606 ( 99.60%)    -1.46917
       2     16.83    -2.08026 (  1.27%)    -1.37914 ( 98.73%)    -1.38802
       3     16.92    -2.07717 (  1.29%)    -1.37759 ( 98.71%)    -1.38664
       4     27.58    -1.78773 (  8.48%)    -1.23275 ( 91.52%)    -1.27979
       5     30.71    -1.72411 ( 12.47%)    -1.20089 ( 87.53%)    -1.26611
       6     43.90    -1.51300 ( 37.28%)    -1.09505 ( 62.72%)    -1.25088
       7     48.02    -1.46016 ( 45.96%)    -1.06853 ( 54.04%)    -1.24853
       8     48.35    -1.45613 ( 46.64%)    -1.06650 ( 53.36%)    -1.24823
       9     55.58    -1.37394 ( 60.43%)    -1.02519 ( 39.57%)    -1.23593
      10     58.19    -1.34696 ( 64.72%)    -1.01162 ( 35.28%)    -1.22864
      11     65.21    -1.27993 ( 74.32%)    -0.97785 ( 25.68%)    -1.20235
      12     66.62    -1.26739 ( 75.91%)    -0.97153 ( 24.09%)    -1.19613
      13     68.15    -1.25404 ( 77.54%)    -0.96480 ( 22.46%)    -1.18906
      14     71.04    -1.22965 ( 80.30%)    -0.95249 ( 19.70%)    -1.17504
      15     81.40    -1.14991 ( 87.54%)    -0.91217 ( 12.46%)    -1.12029
      16     87.20    -1.10967 ( 90.25%)    -0.89177 (  9.75%)    -1.08842
      17    100.49    -1.02703 ( 94.23%)    -0.84974 (  5.77%)    -1.01680
      18    107.67    -0.98701 ( 95.56%)    -0.82931 (  4.44%)    -0.98001
      19    123.83    -0.90628 ( 97.41%)    -0.78789 (  2.59%)    -0.90322
      20    146.04    -0.81193 ( 98.64%)    -0.73902 (  1.36%)    -0.81094
      21    160.36    -0.75894 ( 99.06%)    -0.71130 (  0.94%)    -0.75850
      22    161.77    -0.75403 ( 99.10%)    -0.70872 (  0.90%)    -0.75362
      23    192.64    -0.65660 ( 99.55%)    -0.65697 (  0.45%)    -0.65660
      24    201.84    -0.63097 ( 99.62%)    -0.64316 (  0.38%)    -0.63101
      25    210.68    -0.60755 ( 99.68%)    -0.63045 (  0.32%)    -0.60762
      26    235.16    -0.54836 ( 99.80%)    -0.59789 (  0.20%)    -0.54846
      27    243.34    -0.53020 ( 99.82%)    -0.58776 (  0.18%)    -0.53030
      28    243.80    -0.52921 ( 99.82%)    -0.58721 (  0.18%)    -0.52931
      29    249.16    -0.51773 ( 99.84%)    -0.58076 (  0.16%)    -0.51783
      30    250.19    -0.51558 ( 99.84%)    -0.57954 (  0.16%)    -0.51568
      31    276.88    -0.46298 ( 99.89%)    -0.54951 (  0.11%)    -0.46308
      32    284.66    -0.44887 ( 99.90%)    -0.54131 (  0.10%)    -0.44896
   ------------------------------------------------------------------------

   temp. (K)  partition function   enthalpy   heat capacity  entropy
                                   cal/mol     cal/K/mol   cal/K/mol   J/K/mol
 298.15  VIB  0.531E+18            22668.100    142.729    142.339
         ROT  0.345E+08              888.752      2.981     37.474
         INT  0.183E+26            23556.852    145.710    179.813
         TR   0.148E+29             1481.254      4.968     45.120
         TOT                       25038.1062   150.6777   224.9335   941.1217

       T/K    H(0)-H(T)+PV         H(T)/Eh          T*S/Eh         G(T)/Eh
   ------------------------------------------------------------------------
    298.15    0.399008E-01    0.660070E+00    0.106873E+00    0.553197E+00
   ------------------------------------------------------------------------

         :::::::::::::::::::::::::::::::::::::::::::::::::::::
         ::                  THERMODYNAMIC                  ::
         :::::::::::::::::::::::::::::::::::::::::::::::::::::
         :: total free energy        -121.694950341323 Eh   ::
         ::.................................................::
         :: total energy             -122.248147154515 Eh   ::
         :: zero point energy           0.620169208360 Eh   ::
         :: G(RRHO) w/o ZPVE           -0.066972395168 Eh   ::
         :: G(RRHO) contrib.            0.553196813192 Eh   ::
         :::::::::::::::::::::::::::::::::::::::::::::::::::::

optimized geometry written to: xtbopt.xyz


           -------------------------------------------------
          | TOTAL ENERGY             -122.248147154515 Eh   |
          | TOTAL ENTHALPY           -121.588077184111 Eh   |
          | TOTAL FREE ENERGY        -121.694950341323 Eh   |
          | GRADIENT NORM               0.000029536379 Eh/α |
          | HOMO-LUMO GAP               1.870091612548 eV   |
           -------------------------------------------------

------------------------------------------------------------------------
 * finished run on 2025/07/18 at 16:47:14.671     
------------------------------------------------------------------------
 total:
 * wall-time:     0 d,  0 h,  0 min,  5.017 sec
 *  cpu-time:     0 d,  0 h,  3 min,  5.332 sec
 * ratio c/w:    36.939 speedup
 SCF:
 * wall-time:     0 d,  0 h,  0 min,  0.122 sec
 *  cpu-time:     0 d,  0 h,  0 min,  4.856 sec
 * ratio c/w:    39.841 speedup
 ANC optimizer:
 * wall-time:     0 d,  0 h,  0 min,  1.237 sec
 *  cpu-time:     0 d,  0 h,  0 min, 49.475 sec
 * ratio c/w:    39.996 speedup
 analytical hessian:
 * wall-time:     0 d,  0 h,  0 min,  3.490 sec
 *  cpu-time:     0 d,  0 h,  2 min,  4.781 sec
 * ratio c/w:    35.757 speedup

