112
 energy: -173.542381747577 gnorm: 0.000163675815 xtb: 6.7.1 (edcfbbe)
N          -12.60424811530076       -3.37655713259039        0.12196079665637
C          -11.51195649001886       -3.01145635294361        0.10869081384995
C          -10.18507563383408       -2.56465431177353        0.09039387447941
C           -9.14225104385463       -3.42846307280346       -0.29954575925578
C           -7.85277405251212       -2.98068407673935       -0.32450737759381
C           -7.52763324335597       -1.64309796766286        0.02127932149740
C           -6.16190830153252       -1.27328394645632       -0.03980690765206
N           -5.18892838801203       -2.18794373742786       -0.09311032197274
C           -4.03535717161099       -1.53315566872131       -0.05627381390286
C           -2.72570133211017       -2.08085038249618       -0.05593882030044
C           -2.52402394829526       -3.46531207289823       -0.06823912381295
C           -1.25442837907209       -3.98935624259277       -0.05084895684336
C           -0.14813660810071       -3.13446848445297       -0.03012639189971
C            1.21273683891175       -3.67054242344305       -0.02015949457632
C            1.52793736101607       -4.82159286406366        0.70551221249390
C            2.81024693015318       -5.32266825487726        0.72740436185574
C            3.82946300388411       -4.69634830915794        0.00543941543811
N            5.12825456536883       -5.20190453090991        0.02183010094141
C            5.34376286069098       -6.58416759923462        0.09743924859343
C            4.51459476244548       -7.46770993597140       -0.59310711511230
C            4.73115604279057       -8.82950891503739       -0.51307546433917
C            5.77630546203511       -9.33045102437174        0.24596946735716
C            6.60555512953157       -8.45625739961704        0.92974763684556
C            6.39314275506050       -7.09310973744802        0.86201998255169
C            6.22414479839116       -4.33299604926364       -0.03831886178774
C            6.19153797028944       -3.10463716983052        0.62206821100742
C            7.27454414580638       -2.25012162238473        0.55473383547981
C            8.40659988774716       -2.60667411965012       -0.15991986688337
C            8.44668321510336       -3.82848507734376       -0.81185029920284
C            7.36563956226776       -4.68642206466744       -0.75790696293937
C            3.51883658618748       -3.55227768247514       -0.73373549968755
C            2.23765540994167       -3.04834942547239       -0.73705197335153
C           -0.35490091688087       -1.75509026998829       -0.02064728837141
C           -1.62766039744167       -1.18906338643653       -0.03168692329723
C           -1.85354529479447        0.25429301947263       -0.03720852749018
C           -0.80250988095522        1.14720850548131       -0.02841978122577
C           -0.96252450447804        2.54390452275769       -0.09007219289284
C            0.17789613022645        3.42360317727583       -0.06312520224902
C            1.37987091176841        3.05144451282094        0.57073340859903
C            2.46722848509770        3.88641094549028        0.60118076380388
C            2.42048453475303        5.14553021408070       -0.01163552973326
N            3.52613703547392        5.99102816500476        0.01075956465070
C            3.34905631344146        7.37688753762294        0.08997545224027
C            4.19098955930078        8.23755801412559       -0.61535684984438
C            4.01377128595981        9.60450215472996       -0.53185326230598
C            2.99702436242934       10.13434872486570        0.24654115242987
C            2.15703048608267        9.28349876551791        0.94710779970035
C            2.32898424091376        7.91524792623015        0.87535739655080
C            4.81862411274932        5.45827751955116       -0.03859198892457
C            5.09308988278728        4.34023515158693       -0.82756454859726
C            6.36881109246424        3.81310954991168       -0.86544053547674
C            7.38968725279961        4.39176572210235       -0.12830504743084
C            7.12371265721332        5.50577031530469        0.65186711760358
C            5.84998731873824        6.03669066866258        0.70260874342435
C            1.23223751944599        5.53160083501199       -0.64612732248406
C            0.14416871338823        4.69672182060721       -0.66459972106322
C           -2.28442798321813        3.03934923013516       -0.19611173423285
C           -3.35104591339222        2.19816769343377       -0.17449994316001
C           -3.19632549243395        0.78640745269903       -0.06710441690858
C           -4.25142998490944       -0.11691369589791       -0.01459791311300
N           -5.62451571325866        0.02437249585217        0.00100608310503
C           -6.36147716279746        1.21986053777146       -0.02828999782052
C           -7.15215380613948        1.51831807334278       -1.13525075608939
C           -7.89183372128188        2.68566603766429       -1.15515708837579
C           -7.84707662222366        3.55946263898515       -0.08045937837050
C           -7.05859867141926        3.26362970334067        1.02063550386110
C           -6.31670055167282        2.09796188172502        1.05302252759408
C           -8.58051021927399       -0.79769997114766        0.44474372207364
C           -9.87220693645167       -1.24888817491119        0.47683989481030
H           -9.37938556810239       -4.44485658101576       -0.57881537322398
H           -7.04469707879112       -3.63005087724520       -0.62089439065050
H           -3.39570504150100       -4.10032787218390       -0.09164346789633
H           -1.10668439470371       -5.05839975652219       -0.08073556071914
H            0.76150527195337       -5.30718476795682        1.29083577524746
H            3.03884335274848       -6.19934906014011        1.31551170953226
H            3.70676618317175       -7.07771463102574       -1.19482403978317
H            4.08409793369557       -9.50365443672039       -1.05441729475085
H            5.94371952577006      -10.39505967723207        0.30389764732849
H            7.41951361002036       -8.83868282021540        1.52764758668308
H            7.03417517722895       -6.41299517971644        1.40367628531454
H            5.31534050470488       -2.83068520607256        1.19123906097585
H            7.23720578669590       -1.30261406977400        1.07190364523799
H            9.25224592216066       -1.93768131034471       -0.20746796511174
H            9.32352880767699       -4.11287670380713       -1.37446920650430
H            7.39468787914878       -5.63366593641286       -1.27612087623904
H            4.29144572448677       -3.07057587551024       -1.31508192417902
H            2.01594123629819       -2.17867652062406       -1.33779113006384
H            0.51956990713658       -1.12575039113607        0.02121392107980
H            0.20734307120331        0.77167560225132       -0.01813581715796
H            1.43750006443983        2.10725688819809        1.09040598658168
H            3.36589305529780        3.58576091078459        1.12033495779110
H            4.97642002988237        7.82522656428655       -1.23169893304818
H            4.66919996195414       10.26063664040438       -1.08505593319250
H            2.86054305698224       11.20316165565019        0.30711905832464
H            1.36669941370249        9.68870664473821        1.56136990980982
H            1.68259865846363        7.25299768596474        1.43228071932762
H            4.30134633712417        3.89732865353773       -1.41365990106995
H            6.56917308511505        2.94918569193475       -1.48176471323682
H            8.38595020474227        3.97816980337563       -0.16233831158568
H            7.91260330527566        5.96005340741557        1.23275076902017
H            5.64156558295477        6.89707812851195        1.32144625916562
H            1.18708320078188        6.49033658732428       -1.14227405611599
H           -0.74148942365239        5.01000693145964       -1.19542983148808
H           -2.45281142107986        4.10369526578951       -0.25741068670855
H           -4.34547021094285        2.60600985313207       -0.25360452062298
H           -7.18417819873413        0.82799395070246       -1.96508469980334
H           -8.50417612733352        2.91518289501919       -2.01417122425717
H           -8.42756349674251        4.46928877710855       -0.09937951003749
H           -7.02573458924824        3.94080600156467        1.86113668762936
H           -5.70207255138191        1.85580203114051        1.90786828916459
H           -8.37044763878460        0.20360540649681        0.78379115494923
H          -10.66745947421609       -0.59665971501421        0.80875749119196
