$hessian                                                                        
        1.2110472266   0.3383170093   0.0325074643  -1.1604765799  -0.3188235339
       -0.0305063097  -0.0528056638  -0.0200342079  -0.0023161275   0.0072881439
       -0.0057640268  -0.0044831752  -0.0039041408  -0.0019038808  -0.0004437943
        0.0045034255   0.0010843611  -0.0000796412  -0.0024207001   0.0002329433
        0.0000380338   0.0016047130  -0.0004154060  -0.0005086352  -0.0008847833
       -0.0013802555   0.0000553112   0.0003228047  -0.0002500547   0.0000686162
       -0.0001704084   0.0000950521   0.0000064849   0.0001569933  -0.0000382753
       -0.0000199579   0.0000360359  -0.0002219669  -0.0000022432  -0.0000155125
        0.0000047838  -0.0000022159   0.0000062183  -0.0000899677   0.0000201788
       -0.0001202242  -0.0000512833   0.0000399476   0.0003769603  -0.0001397597
        0.0000096986  -0.0003945843   0.0001892340  -0.0000072431   0.0000296806
       -0.0002144697   0.0000641183   0.0000197121   0.0000580577   0.0000156046
        0.0000052910  -0.0000438565  -0.0000054097  -0.0000045566   0.0000018380
       -0.0000042960   0.0000173869  -0.0000260984   0.0000080851  -0.0000260110
        0.0000446221  -0.0000051300   0.0001193580   0.0001065900  -0.0000659806
       -0.0000170063  -0.0000442511  -0.0000176863   0.0000279541   0.0000189911
       -0.0000030627  -0.0000077448   0.0000068430   0.0000035836   0.0000227141
        0.0000014143  -0.0000100911  -0.0000325294  -0.0000135449  -0.0000014815
       -0.0000512896   0.0001128920  -0.0000384326   0.0000598847   0.0000556765
       -0.0000002426  -0.0001082676   0.0002176989   0.0000125533   0.0000288463
       -0.0002886194  -0.0000007859  -0.0000053810   0.0002111093   0.0000105838
       -0.0000401542  -0.0002678202   0.0000082001   0.0000579719   0.0002224747
       -0.0000020735  -0.0000701875  -0.0000554048   0.0000037893   0.0001130926
       -0.0000452214   0.0000182548  -0.0000284244  -0.0001575961   0.0000514065
        0.0003740619   0.0002810066  -0.0000040386  -0.0003841501  -0.0003306345
        0.0000028250  -0.0000358978   0.0002228347  -0.0000857685  -0.0000144092
       -0.0000539912   0.0000050300   0.0000078237   0.0000299721  -0.0000120874
       -0.0000098001  -0.0000041974   0.0000038422  -0.0000122932   0.0000445345
        0.0000036976   0.0000332396  -0.0000571305  -0.0000133961   0.0001654920
       -0.0000753777   0.0000842303  -0.0000388927   0.0000406672   0.0000136436
        0.0000346073  -0.0000144348   0.0000000076  -0.0000062552  -0.0000085543
       -0.0000061628   0.0000248411   0.0000069750   0.0000102592  -0.0000439236
        0.0000055887  -0.0000027030  -0.0001668360   0.0000096728  -0.0000530739
       -0.0000147351   0.0001246290  -0.0000310662  -0.0000133985   0.0000642517
        0.0000064706  -0.0001077280  -0.0000159062   0.0000025794   0.0001307780
        0.0001606175  -0.0000687347  -0.0011881771   0.0007117327  -0.0000619757
        0.0010874608   0.0003023639   0.0004050295  -0.0002576395   0.0004375900
        0.0000206173  -0.0000256355  -0.0001227610  -0.0000111592  -0.0000908813
        0.0001061425  -0.0000791329  -0.0000135666   0.0000268926  -0.0000003005
       -0.0000426695   0.0000698447   0.0000528104   0.0000452455  -0.0000938326
        0.0001006598  -0.0045478365  -0.0006602222  -0.0001547230   0.0014686336
        0.0087910150   0.0055476904   0.0001226664   0.0001515355   0.0000914682
       -0.0002685786  -0.0001485718   0.0000179616   0.0000272333  -0.0000287486
        0.0000080732  -0.0000209319   0.0000534326   0.0000114867   0.0000150724
       -0.0000003956   0.0000144504  -0.0000172266   0.0000240263  -0.0000174181
       -0.0000027087  -0.0000048979  -0.0000130851   0.0000090549   0.0000099894
        0.0000080037  -0.0000036410   0.0000200408  -0.0000029767  -0.0000106357
        0.0000104535  -0.0000127002  -0.0000014828  -0.0000042809  -0.0000008650
       -0.0000028329   0.0000043955   0.0000144237   0.0000003527  -0.0000053457
       -0.0000011608  -0.0000120289  -0.0000089983   0.0000013264  -0.0000158334
        0.0000033793   0.0000109553   0.0000003041   0.0000093823   0.0000032300
       -0.0000257323  -0.0000117513   0.0000110829   0.0000108033  -0.0000052799
       -0.0000229361  -0.0000352819  -0.0000207414  -0.0000148797  -0.0000406696
        0.0000037856   0.0000090851   0.0000081829   0.0000103253   0.0000230272
       -0.0000303012   0.0000016450  -0.0000129587  -0.0000081207   0.0000046313
       -0.0000006687  -0.0000144279  -0.0000139328   0.0000130255  -0.0000016677
       -0.0000231172   0.0000035921   0.0000085843  -0.0000112900  -0.0000072920
       -0.0000074433   0.0000023377   0.0000141182  -0.0000018121  -0.0000062495
       -0.0000159527  -0.0000043382   0.0000081041   0.0000012961  -0.0000181965
        0.0000084251  -0.0000055489  -0.0000171515  -0.0000076521  -0.0000157358
        0.0000016213  -0.0000097930  -0.0000038783  -0.0000110797  -0.0000316713
        0.0000171278   0.0000150244   0.0000009796  -0.0000149747   0.0000008894
       -0.0000575594  -0.0000067314   0.0000253523   0.0000092695  -0.0000005825
       -0.0000005409   0.0000359714  -0.0000604029   0.0000482930  -0.0000553524
        0.0000488478   0.0000413654  -0.0000728989  -0.0000155379   0.0000109232
       -0.0000535240  -0.0000399584   0.0000057205   0.0000102441   0.0000064687
       -0.0005342252  -0.0001711525  -0.0000691999   0.0001377229  -0.0003405285
       -0.0000665758
        0.3383170093   0.1123875556   0.0089992635  -0.3188621843  -0.1247043694
       -0.0095787394  -0.0200540554   0.0117773956   0.0005296918   0.0000220165
       -0.0029307813  -0.0026149490  -0.0018080859  -0.0005086066   0.0011107071
        0.0011942997   0.0006469660   0.0001956093  -0.0007411771   0.0001675520
       -0.0001934393   0.0003929286  -0.0000896793  -0.0001636872  -0.0002702410
       -0.0003854489   0.0000253260   0.0001040517  -0.0000722507   0.0000220813
       -0.0000643290   0.0000175772  -0.0000010592   0.0000462437  -0.0000116623
       -0.0000065619   0.0000114602  -0.0000622075   0.0000004808  -0.0000024287
        0.0000038649  -0.0000015705  -0.0000005604  -0.0000292387   0.0000095054
       -0.0000359116  -0.0000136725   0.0000118738   0.0001107190  -0.0000409098
        0.0000044847  -0.0001117889   0.0000681819  -0.0000031594   0.0000098716
       -0.0000730114   0.0000186079   0.0000071412   0.0000192523   0.0000044163
        0.0000003164  -0.0000134648  -0.0000032086  -0.0000010551   0.0000011370
       -0.0000015731   0.0000053607  -0.0000083913   0.0000024306  -0.0000097220
        0.0000150310  -0.0000027785   0.0000251979   0.0000233382  -0.0000195503
       -0.0000037344  -0.0000096065  -0.0000050712   0.0000067393   0.0000035832
       -0.0000015302  -0.0000014429   0.0000026292   0.0000007095   0.0000054167
       -0.0000007880  -0.0000029580  -0.0000058730  -0.0000033497  -0.0000012786
       -0.0000129199   0.0000322639  -0.0000104356   0.0000161466   0.0000160749
        0.0000018702  -0.0000253452   0.0000651079   0.0000042838   0.0000034106
       -0.0000801121  -0.0000004940   0.0000055122   0.0000544114   0.0000016580
       -0.0000146695  -0.0000744345   0.0000012745   0.0000157180   0.0000622839
        0.0000000828  -0.0000220927  -0.0000136724   0.0000005209   0.0000356475
       -0.0000128359   0.0000077424  -0.0000096448  -0.0000462531   0.0000147362
        0.0001096271   0.0000821682   0.0000001508  -0.0001170808  -0.0000879354
       -0.0000004550  -0.0000081749   0.0000551508  -0.0000248792  -0.0000028391
       -0.0000128218   0.0000005084   0.0000030196   0.0000066539  -0.0000035192
       -0.0000028418  -0.0000005868   0.0000007959  -0.0000024007   0.0000118588
        0.0000001419   0.0000084245  -0.0000144452  -0.0000042227   0.0000555917
       -0.0000249606   0.0000244612  -0.0000126571   0.0000147637   0.0000043596
        0.0000109936  -0.0000055943  -0.0000009844  -0.0000012481  -0.0000023132
       -0.0000019599   0.0000084872   0.0000018689   0.0000031206  -0.0000155924
        0.0000008545  -0.0000021972  -0.0000476700   0.0000037621  -0.0000147901
       -0.0000018674   0.0000358375  -0.0000068386  -0.0000068387   0.0000200910
        0.0000003008  -0.0000175114  -0.0000072666   0.0000024588   0.0000257833
        0.0000425295  -0.0000095644  -0.0002809917   0.0002051966  -0.0000009548
        0.0002958332   0.0001568689   0.0000955187  -0.0000161975   0.0000571024
        0.0000052444  -0.0000146431  -0.0000393233  -0.0000030638  -0.0000173656
        0.0000132192   0.0000036213  -0.0000122698   0.0000060892   0.0000020219
       -0.0000051547   0.0000115109   0.0000216341   0.0000165194  -0.0000115142
        0.0000276324  -0.0008169508   0.0001013740   0.0012235594   0.0029482717
        0.0026134688   0.0003239784  -0.0003671304   0.0003075833  -0.0000186835
       -0.0003054459  -0.0001254172   0.0000531809   0.0000097038  -0.0000078649
        0.0000045469  -0.0000119332   0.0000234318   0.0000044783   0.0000056511
        0.0000013111   0.0000018716  -0.0000066187   0.0000089363  -0.0000066107
       -0.0000005029  -0.0000026789  -0.0000028839   0.0000030983   0.0000046147
        0.0000039555  -0.0000017661   0.0000074057  -0.0000006536  -0.0000035012
        0.0000033404  -0.0000036930  -0.0000000350  -0.0000011032   0.0000004196
       -0.0000008331   0.0000006868   0.0000039724   0.0000005156  -0.0000006545
        0.0000002934  -0.0000028668  -0.0000023317   0.0000003517  -0.0000044314
        0.0000011479   0.0000031091  -0.0000003152   0.0000035233   0.0000017058
       -0.0000072780  -0.0000031665   0.0000026594   0.0000035508  -0.0000012299
       -0.0000075761  -0.0000096303  -0.0000055862  -0.0000043596  -0.0000147312
        0.0000011457   0.0000026003   0.0000021522   0.0000033685   0.0000056662
       -0.0000091899   0.0000005139  -0.0000044899  -0.0000024971   0.0000015471
        0.0000002821  -0.0000036345  -0.0000034867   0.0000035483  -0.0000000293
       -0.0000053649   0.0000010186   0.0000020558  -0.0000018409  -0.0000011448
       -0.0000017820  -0.0000000581   0.0000045796   0.0000000252  -0.0000023164
       -0.0000047732  -0.0000014492   0.0000031870   0.0000010166  -0.0000059106
        0.0000026939  -0.0000017361  -0.0000047371  -0.0000021576  -0.0000046956
        0.0000009884  -0.0000019857  -0.0000005435  -0.0000023676  -0.0000080073
        0.0000040256   0.0000037635   0.0000009652  -0.0000059088   0.0000019349
       -0.0000121714  -0.0000019094   0.0000065515   0.0000076136  -0.0000009837
        0.0000114307  -0.0000001385  -0.0000236913   0.0000055698   0.0000064220
       -0.0000135087   0.0000052306   0.0000036355  -0.0000026026   0.0000017034
       -0.0000072471  -0.0000080068  -0.0000037950   0.0000030298  -0.0000049329
        0.0001224729   0.0000356977   0.0000526127   0.0002258124   0.0003499397
       -0.0000538989
        0.0325074643   0.0089992635   0.0176833647  -0.0303520885  -0.0095371687
       -0.0344949262  -0.0021785921   0.0005607406   0.0164276767  -0.0009274877
       -0.0017617561   0.0003123481  -0.0008340491   0.0009734819  -0.0009144155
        0.0000168810   0.0002375996   0.0001577004   0.0000029483  -0.0001065403
        0.0003162817   0.0000905560  -0.0000250019   0.0000292958  -0.0000073545
       -0.0000372996  -0.0000223068   0.0000114415  -0.0000032957  -0.0000015766
       -0.0000051637   0.0000001501   0.0000057106   0.0000074907  -0.0000043577
        0.0000021350   0.0000013057  -0.0000050375  -0.0000015685  -0.0000006627
       -0.0000012994   0.0000006180   0.0000027782   0.0000004973  -0.0000010695
       -0.0000022770  -0.0000009839   0.0000017176   0.0000110409  -0.0000041491
       -0.0000016647  -0.0000125025   0.0000041692   0.0000032625   0.0000010205
       -0.0000056096   0.0000005199  -0.0000011160   0.0000019885   0.0000002514
       -0.0000005434  -0.0000016600  -0.0000001191   0.0000001101   0.0000004563
        0.0000008493  -0.0000003631  -0.0000010526   0.0000002670  -0.0000011172
        0.0000012210   0.0000006455   0.0000038073   0.0000039230  -0.0000030571
        0.0000005974  -0.0000022952  -0.0000002955   0.0000013896  -0.0000002263
        0.0000002547  -0.0000001952  -0.0000002669   0.0000007767   0.0000013108
        0.0000001517   0.0000004112  -0.0000002787  -0.0000009657   0.0000004026
       -0.0000029253   0.0000045473  -0.0000001029   0.0000034607   0.0000043431
       -0.0000011480  -0.0000073291   0.0000074363   0.0000022720   0.0000055879
       -0.0000093640   0.0000006622  -0.0000069347   0.0000069503   0.0000009727
        0.0000005580  -0.0000091562   0.0000036583   0.0000012032   0.0000083792
       -0.0000013165   0.0000000880  -0.0000018235   0.0000003720  -0.0000008540
        0.0000005867  -0.0000013079   0.0000003148  -0.0000028627   0.0000029507
        0.0000080129   0.0000062496  -0.0000017646  -0.0000074851  -0.0000079510
        0.0000031528  -0.0000016178   0.0000066551  -0.0000027577   0.0000002642
       -0.0000011995   0.0000009100   0.0000010808   0.0000010769   0.0000000701
       -0.0000000384   0.0000001933   0.0000009107   0.0000004226   0.0000003214
        0.0000006701   0.0000022780  -0.0000005575  -0.0000001920   0.0000044148
       -0.0000016099   0.0000011933  -0.0000011218  -0.0000003673   0.0000005819
        0.0000009628  -0.0000007255   0.0000008344  -0.0000007298  -0.0000006323
        0.0000003964   0.0000001466  -0.0000005968   0.0000007449  -0.0000016089
       -0.0000002926   0.0000008093  -0.0000056434   0.0000004504  -0.0000010868
       -0.0000029303   0.0000041474  -0.0000018641  -0.0000014593   0.0000007325
        0.0000042204  -0.0000054770  -0.0000073783   0.0000026802   0.0000030470
        0.0000080067  -0.0000138628  -0.0000667174   0.0000189694  -0.0000271177
        0.0000156031  -0.0000396880   0.0000434253  -0.0000197208   0.0000420132
       -0.0000098688   0.0000166813  -0.0000087314  -0.0000250906  -0.0000080869
        0.0000084747  -0.0000244008   0.0000012004  -0.0000029018   0.0000047372
       -0.0000019746  -0.0000023506  -0.0000012910   0.0000009852  -0.0000106027
       -0.0000076756  -0.0000504859   0.0012292539  -0.0008525577   0.0018148373
       -0.0005543345   0.0006394583  -0.0001794968  -0.0000875597   0.0003805994
       -0.0001929706  -0.0000146639  -0.0000348251   0.0000022507  -0.0000003631
       -0.0000067739  -0.0000014023   0.0000030953  -0.0000021968  -0.0000008798
       -0.0000017683   0.0000004439   0.0000000970  -0.0000006515  -0.0000004456
        0.0000010076  -0.0000006663  -0.0000004274   0.0000008043   0.0000010905
       -0.0000000405   0.0000002091   0.0000004098  -0.0000003485   0.0000004548
        0.0000000992   0.0000000082   0.0000005388   0.0000001981   0.0000001163
       -0.0000010921   0.0000004176   0.0000005359  -0.0000000394   0.0000005437
        0.0000002790  -0.0000006443  -0.0000001910   0.0000003761  -0.0000012165
        0.0000004045   0.0000010042  -0.0000001990   0.0000013856   0.0000005273
       -0.0000021113  -0.0000013095   0.0000009652   0.0000000209  -0.0000027551
        0.0000002071  -0.0000014593  -0.0000012061  -0.0000014515  -0.0000003545
        0.0000003338  -0.0000007146   0.0000012856  -0.0000015671   0.0000012398
        0.0000004790  -0.0000000873   0.0000000515  -0.0000009544   0.0000004676
        0.0000004971  -0.0000011083  -0.0000008748   0.0000011647  -0.0000001492
       -0.0000009763   0.0000002461  -0.0000003340   0.0000001629  -0.0000001625
       -0.0000009172  -0.0000006313   0.0000004798   0.0000007946   0.0000004936
       -0.0000000453  -0.0000003064   0.0000008814   0.0000003728  -0.0000000901
        0.0000003489   0.0000003295   0.0000001776   0.0000004021   0.0000005200
       -0.0000001230   0.0000005792   0.0000003640  -0.0000001072  -0.0000023509
        0.0000011229   0.0000023192  -0.0000010719   0.0000002702   0.0000008109
       -0.0000013965  -0.0000016163   0.0000016381  -0.0000005110  -0.0000040770
       -0.0000191846   0.0000077969   0.0000086041   0.0000079660  -0.0000191536
        0.0000100483  -0.0000008330   0.0000035520  -0.0000000113   0.0000036895
        0.0000085384   0.0000117575   0.0000118337   0.0000007764   0.0000119607
        0.0001445389   0.0001102499  -0.0000350607   0.0002006972   0.0000171903
        0.0004083382
       -1.1604765799  -0.3188621843  -0.0303520885   1.4766418601   0.3913336495
        0.0339880472  -0.2509612572  -0.0556323827  -0.0039132992  -0.0503296813
        0.0073493735   0.0123059883   0.0047453068   0.0073657530   0.0043938802
       -0.0081636846  -0.0018237132   0.0002255891   0.0046301440  -0.0002484201
       -0.0002194627  -0.0029368565   0.0006944852   0.0008787319   0.0015883494
        0.0024403201  -0.0001015524  -0.0005553888   0.0004293592  -0.0001273100
        0.0002895573  -0.0001622452  -0.0000150391  -0.0002517109   0.0000607603
        0.0000302865  -0.0000606258   0.0003708961   0.0000032165   0.0000158815
       -0.0000085901   0.0000014105  -0.0000136211   0.0001433326  -0.0000315202
        0.0001917776   0.0000772836  -0.0000625842  -0.0005914188   0.0002201518
       -0.0000168809   0.0006096916  -0.0003004027   0.0000116010  -0.0000495840
        0.0003349060  -0.0000993353  -0.0000339586  -0.0000902179  -0.0000245883
       -0.0000099510   0.0000652572   0.0000093580   0.0000034652  -0.0000023042
        0.0000066829  -0.0000320520   0.0000405872  -0.0000135161   0.0000386202
       -0.0000721193   0.0000095797  -0.0001800373  -0.0001588592   0.0001034198
        0.0000252207   0.0000663080   0.0000275210  -0.0000423532  -0.0000288584
        0.0000046277   0.0000075608  -0.0000128438  -0.0000033728  -0.0000370673
       -0.0000014393   0.0000175793   0.0000466239   0.0000205205   0.0000027847
        0.0000792287  -0.0001764055   0.0000606986  -0.0000938732  -0.0000886942
       -0.0000015840   0.0001603597  -0.0003727229  -0.0000191927  -0.0000394020
        0.0005025606   0.0000021598   0.0000054956  -0.0003591662  -0.0000177594
        0.0000551784   0.0004549416  -0.0000194873  -0.0000954242  -0.0003718568
        0.0000032402   0.0001075939   0.0000888191  -0.0000055252  -0.0001785725
        0.0000747036  -0.0000277188   0.0000483966   0.0002534770  -0.0000829154
       -0.0005904199  -0.0004434466   0.0000067355   0.0006036882   0.0005183189
       -0.0000037619   0.0000564528  -0.0003440305   0.0001354085   0.0000237619
        0.0000859281  -0.0000075921  -0.0000104793  -0.0000476799   0.0000200153
        0.0000176043   0.0000079652  -0.0000054114   0.0000195374  -0.0000670895
       -0.0000050462  -0.0000502113   0.0000898612   0.0000213910  -0.0002573291
        0.0001179651  -0.0001316723   0.0000625735  -0.0000634851  -0.0000203924
       -0.0000526797   0.0000220090   0.0000017391   0.0000092156   0.0000123799
        0.0000101861  -0.0000392083  -0.0000116494  -0.0000150140   0.0000699812
       -0.0000086013   0.0000061902   0.0002699831  -0.0000108791   0.0000848244
        0.0000246627  -0.0001959009   0.0000465448   0.0000268964  -0.0001055506
       -0.0000115433   0.0001839004   0.0000374389  -0.0000038965  -0.0002196146
       -0.0002756744   0.0001313156   0.0021258450  -0.0012918634   0.0000988539
       -0.0018555097  -0.0005441113  -0.0007218539   0.0004580173  -0.0006896428
       -0.0000084031   0.0000173676   0.0001858018  -0.0000188855   0.0001075709
       -0.0001179358   0.0001197785   0.0000316097  -0.0000436495   0.0000071128
        0.0000560718  -0.0001103544  -0.0000952414  -0.0000985712   0.0001710784
       -0.0001258619   0.0097263601  -0.0022516409  -0.0014516249  -0.0259070089
       -0.0295393013  -0.0146699479   0.0009867648  -0.0008422724  -0.0010017703
       -0.0007774235  -0.0001777657  -0.0000529165  -0.0000404881   0.0000316110
       -0.0000114961   0.0000281211  -0.0000837825  -0.0000183447  -0.0000273705
       -0.0000003980  -0.0000217052   0.0000225706  -0.0000348007   0.0000255981
        0.0000005469   0.0000088660   0.0000192424  -0.0000172311  -0.0000143280
       -0.0000131276   0.0000014689  -0.0000303835   0.0000044292   0.0000120642
       -0.0000164561   0.0000203712  -0.0000013359   0.0000059778   0.0000014805
        0.0000017644  -0.0000058901  -0.0000211261  -0.0000025536   0.0000064158
        0.0000024783   0.0000164464   0.0000124823  -0.0000007251   0.0000214472
       -0.0000067993  -0.0000158619  -0.0000026043  -0.0000153739  -0.0000053807
        0.0000357545   0.0000182473  -0.0000153931  -0.0000178630   0.0000107322
        0.0000347570   0.0000519053   0.0000329160   0.0000236657   0.0000630556
       -0.0000028051  -0.0000152135  -0.0000130761  -0.0000165001  -0.0000352628
        0.0000442918  -0.0000026988   0.0000191632   0.0000137230  -0.0000074439
        0.0000017174   0.0000237031   0.0000209769  -0.0000190626   0.0000045271
        0.0000344574  -0.0000046262  -0.0000105724   0.0000177922   0.0000113131
        0.0000118516  -0.0000022983  -0.0000216610   0.0000028228   0.0000096052
        0.0000249568   0.0000063836  -0.0000121230  -0.0000010539   0.0000271356
       -0.0000139691   0.0000100631   0.0000257320   0.0000107515   0.0000259578
       -0.0000021252   0.0000144395   0.0000073801   0.0000169727   0.0000478409
       -0.0000250585  -0.0000245503   0.0000014165   0.0000221608  -0.0000035412
        0.0000923937   0.0000090413  -0.0000463416   0.0000006998  -0.0000028318
       -0.0000034936  -0.0000443960   0.0000837014  -0.0000697090   0.0000763698
       -0.0000744571  -0.0000629348   0.0001093477   0.0000197782  -0.0000119238
        0.0000873224   0.0000620175  -0.0000026125  -0.0000201434  -0.0000089367
        0.0000908650   0.0000664290   0.0001176488   0.0006605523   0.0019332580
        0.0005134723
       -0.3188235339  -0.1247043694  -0.0095371687   0.3913336495   0.2086895879
        0.0231886186  -0.0554939392  -0.0733858871  -0.0041652830   0.0074088692
        0.0083434772   0.0042856997   0.0052438169   0.0022824873  -0.0047230327
       -0.0020168841  -0.0017361228  -0.0006505085   0.0015585701  -0.0007471787
        0.0008822739  -0.0006763725   0.0002911008   0.0003482547   0.0004507879
        0.0006668180  -0.0000804387  -0.0001582431   0.0001295986  -0.0000498351
        0.0000895831  -0.0000405423   0.0000022165  -0.0000770105   0.0000177368
        0.0000107615  -0.0000135714   0.0001069503  -0.0000000766   0.0000071307
       -0.0000051492   0.0000011149  -0.0000024266   0.0000464212  -0.0000126548
        0.0000576655   0.0000227962  -0.0000190314  -0.0001759199   0.0000652706
       -0.0000062584   0.0001791723  -0.0000976805   0.0000042876  -0.0000157880
        0.0001054736  -0.0000299637  -0.0000106573  -0.0000289514  -0.0000069742
       -0.0000027339   0.0000221484   0.0000036197   0.0000004032  -0.0000019445
        0.0000017969  -0.0000085911   0.0000133559  -0.0000031972   0.0000124975
       -0.0000228361   0.0000033233  -0.0000492831  -0.0000430009   0.0000313990
        0.0000077519   0.0000186139   0.0000081201  -0.0000129969  -0.0000082780
        0.0000019537   0.0000026551  -0.0000038688  -0.0000010489  -0.0000099335
        0.0000000495   0.0000050170   0.0000124756   0.0000056927   0.0000010378
        0.0000223182  -0.0000525130   0.0000181411  -0.0000290746  -0.0000258134
       -0.0000008201   0.0000447846  -0.0001052713  -0.0000045063  -0.0000106764
        0.0001400249   0.0000019120  -0.0000049623  -0.0000982883  -0.0000029188
        0.0000173856   0.0001213615  -0.0000007804  -0.0000264078  -0.0001026899
        0.0000001910   0.0000387702   0.0000294303  -0.0000025275  -0.0000531461
        0.0000231413  -0.0000098358   0.0000127091   0.0000730880  -0.0000241024
       -0.0001738481  -0.0001314768   0.0000015265   0.0001833506   0.0001482844
        0.0000001121   0.0000159392  -0.0000962417   0.0000395820   0.0000062011
        0.0000248270  -0.0000017241  -0.0000041898  -0.0000145200   0.0000067420
        0.0000054715   0.0000009471  -0.0000012805   0.0000052593  -0.0000188219
       -0.0000010525  -0.0000143884   0.0000262069   0.0000066550  -0.0000805771
        0.0000364712  -0.0000391467   0.0000193414  -0.0000194368  -0.0000053533
       -0.0000168765   0.0000075739   0.0000010468   0.0000022936   0.0000032594
        0.0000029545  -0.0000126045  -0.0000034349  -0.0000045818   0.0000211759
       -0.0000028572   0.0000018243   0.0000768944  -0.0000043466   0.0000242218
        0.0000051486  -0.0000572486   0.0000125721   0.0000028718  -0.0000262378
        0.0000022064   0.0000437665   0.0000020880  -0.0000008166  -0.0000701625
       -0.0000766289   0.0000014028   0.0005832582  -0.0003551210  -0.0000232900
       -0.0006188584  -0.0002255256  -0.0001403331   0.0001102020  -0.0001476162
       -0.0000082023   0.0000015165   0.0000579146  -0.0000166427   0.0000181169
       -0.0000313421  -0.0000115792   0.0000012643   0.0000125811   0.0000057882
        0.0000054390  -0.0000109014  -0.0000092245  -0.0000423383   0.0000104014
       -0.0000256436  -0.0001868415  -0.0022180286  -0.0066251103  -0.0294787887
       -0.0150852083  -0.0044815932   0.0015844668  -0.0009213202   0.0008423805
        0.0009050006   0.0002692593  -0.0001585029  -0.0000180357   0.0000166539
       -0.0000094761   0.0000135316  -0.0000295789  -0.0000072692  -0.0000096617
       -0.0000012114  -0.0000051529   0.0000081343  -0.0000121868   0.0000087891
       -0.0000000659   0.0000033235   0.0000051392  -0.0000057551  -0.0000058094
       -0.0000052971   0.0000009769  -0.0000101799   0.0000012383   0.0000036510
       -0.0000052210   0.0000058797  -0.0000003477   0.0000017502   0.0000002183
        0.0000001091  -0.0000014943  -0.0000061491  -0.0000009663   0.0000017227
        0.0000004707   0.0000044118   0.0000033015  -0.0000002728   0.0000063218
       -0.0000022015  -0.0000047939  -0.0000005477  -0.0000051866  -0.0000021533
        0.0000105207   0.0000052350  -0.0000046130  -0.0000057302   0.0000026804
        0.0000107270   0.0000169127   0.0000094959   0.0000072300   0.0000197954
       -0.0000002749  -0.0000041776  -0.0000035799  -0.0000058254  -0.0000096207
        0.0000138069  -0.0000007861   0.0000060216   0.0000041223  -0.0000024688
        0.0000002343   0.0000072830   0.0000061493  -0.0000059279   0.0000009983
        0.0000098027  -0.0000012868  -0.0000028868   0.0000043910   0.0000028266
        0.0000033511  -0.0000004766  -0.0000066125   0.0000007263   0.0000029364
        0.0000073079   0.0000022168  -0.0000041895  -0.0000007889   0.0000088049
       -0.0000044535   0.0000030828   0.0000079799   0.0000032326   0.0000079458
       -0.0000008470   0.0000041647   0.0000020869   0.0000044985   0.0000132650
       -0.0000067406  -0.0000066218   0.0000000034   0.0000070548  -0.0000001045
        0.0000251564   0.0000021719  -0.0000107848   0.0000032655  -0.0000043886
       -0.0000117498  -0.0000088587   0.0000298383  -0.0000102925   0.0000028651
        0.0000064708  -0.0000092193   0.0000114027   0.0000056866  -0.0000012122
        0.0000226920   0.0000152184   0.0000145308  -0.0000013417   0.0000124579
       -0.0012093635  -0.0004093370  -0.0001918346  -0.0005712599  -0.0008001470
        0.0012647454
       -0.0305063097  -0.0095787394  -0.0344949262   0.0339880472   0.0231886186
        0.0871916888  -0.0042414304  -0.0042804794  -0.0550524144   0.0124381219
        0.0043591743   0.0004082703   0.0039358816  -0.0047475409   0.0045702976
        0.0001548704  -0.0007334386  -0.0006308174  -0.0001865612   0.0007142595
       -0.0014422154  -0.0002927752  -0.0000072690  -0.0000081458  -0.0000111214
        0.0001087031   0.0000638350  -0.0000140832   0.0000028282   0.0000203274
        0.0000001346  -0.0000070776  -0.0000054818  -0.0000102451   0.0000053148
       -0.0000023605  -0.0000001788   0.0000129004   0.0000017622   0.0000031923
        0.0000002655   0.0000000836  -0.0000016331   0.0000008552   0.0000012682
        0.0000042040   0.0000026834  -0.0000025479  -0.0000181201   0.0000067841
        0.0000007941   0.0000192932  -0.0000068260  -0.0000018753  -0.0000015139
        0.0000086537  -0.0000020835  -0.0000001237  -0.0000025699  -0.0000009063
        0.0000008257   0.0000018346   0.0000006011   0.0000000204   0.0000003593
       -0.0000003801  -0.0000010199   0.0000007305  -0.0000009513   0.0000016042
       -0.0000017912  -0.0000001000  -0.0000066625  -0.0000057472   0.0000037951
       -0.0000001400   0.0000029609   0.0000006707  -0.0000018302  -0.0000009324
       -0.0000003159   0.0000005354  -0.0000009411  -0.0000014293  -0.0000011803
        0.0000003541   0.0000001683   0.0000018053   0.0000009447  -0.0000007534
        0.0000036411  -0.0000064174   0.0000014482  -0.0000036897  -0.0000040240
        0.0000006039   0.0000093341  -0.0000109006  -0.0000029095  -0.0000103570
        0.0000170421  -0.0000021092   0.0000062198  -0.0000141557  -0.0000018088
        0.0000008708   0.0000131899  -0.0000081693   0.0000001568  -0.0000114937
        0.0000014567   0.0000014938   0.0000032185   0.0000022420  -0.0000018191
        0.0000006417   0.0000006437   0.0000000644   0.0000043900  -0.0000026782
       -0.0000132785  -0.0000091397   0.0000007695   0.0000104047   0.0000134531
       -0.0000023090   0.0000016065  -0.0000097748   0.0000035299   0.0000004597
        0.0000028710  -0.0000010861  -0.0000003271  -0.0000013525  -0.0000001107
        0.0000007960   0.0000001181  -0.0000012178   0.0000000347  -0.0000018742
       -0.0000004097  -0.0000022889   0.0000019605   0.0000001840  -0.0000036567
        0.0000021963  -0.0000021206   0.0000016606  -0.0000006850  -0.0000010940
        0.0000003634   0.0000008700   0.0000000668  -0.0000008753  -0.0000000292
       -0.0000012672  -0.0000009482  -0.0000007515  -0.0000013391   0.0000013293
       -0.0000000452  -0.0000006276   0.0000070995  -0.0000007505   0.0000019923