      -----------------------------------------------------------      
     |                   =====================                   |     
     |                           x T B                           |     
     |                   =====================                   |     
     |                         S. Grimme                         |     
     |          Mulliken Center for Theoretical Chemistry        |     
     |                    University of Bonn                     |     
      -----------------------------------------------------------      

   * xtb version 6.7.1 (edcfbbe) compiled by 'albert@albert-system' on 2024-07-22

   xtb is free software: you can redistribute it and/or modify it under
   the terms of the GNU Lesser General Public License as published by
   the Free Software Foundation, either version 3 of the License, or
   (at your option) any later version.
   
   xtb is distributed in the hope that it will be useful,
   but WITHOUT ANY WARRANTY; without even the implied warranty of
   MERCHANTABILITY or FITNESS FOR A PARTICULAR PURPOSE.  See the
   GNU Lesser General Public License for more details.
   
   Cite this work as:
   * C. Bannwarth, E. Caldeweyher, S. Ehlert, A. Hansen, P. Pracht,
     J. Seibert, S. Spicher, S. Grimme, WIREs Comput. Mol. Sci., 2020, 11,
     e01493. DOI: 10.1002/wcms.1493
   
   for GFN2-xTB:
   * C. Bannwarth, S. Ehlert and S. Grimme., J. Chem. Theory Comput., 2019,
     15, 1652-1671. DOI: 10.1021/acs.jctc.8b01176
   for GFN1-xTB:
   * S. Grimme, C. Bannwarth, P. Shushkov, J. Chem. Theory Comput., 2017,
     13, 1989-2009. DOI: 10.1021/acs.jctc.7b00118
   for GFN0-xTB:
   * P. Pracht, E. Caldeweyher, S. Ehlert, S. Grimme, ChemRxiv, 2019, preprint.
     DOI: 10.26434/chemrxiv.8326202.v1
   for GFN-FF:
   * S. Spicher and S. Grimme, Angew. Chem. Int. Ed., 2020, 59, 15665-15673.
     DOI: 10.1002/anie.202004239
   
   for ALPB and GBSA implicit solvation:
   * S. Ehlert, M. Stahn, S. Spicher, S. Grimme, J. Chem. Theory Comput.,
     2021, 17, 4250-4261. DOI: 10.1021/acs.jctc.1c00471
   
   for ddCOSMO and CPCM-X implicit solvation:
   * M. Stahn, S. Ehlert, S. Grimme, J. Phys. Chem. A,
     2023, XX, XXXX-XXXX. DOI: 10.1021/acs.jpca.3c04382
   
   for DFT-D4:
   * E. Caldeweyher, C. Bannwarth and S. Grimme, J. Chem. Phys., 2017,
     147, 034112. DOI: 10.1063/1.4993215
   * E. Caldeweyher, S. Ehlert, A. Hansen, H. Neugebauer, S. Spicher,
     C. Bannwarth and S. Grimme, J. Chem. Phys., 2019, 150, 154122.
     DOI: 10.1063/1.5090222
   * E. Caldeweyher, J.-M. Mewes, S. Ehlert and S. Grimme, Phys. Chem. Chem. Phys.
     2020, 22, 8499-8512. DOI: 10.1039/D0CP00502A
   
   for sTDA-xTB:
   * S. Grimme and C. Bannwarth, J. Chem. Phys., 2016, 145, 054103.
     DOI: 10.1063/1.4959605
   
   in the mass-spec context:
   * V. Asgeirsson, C. Bauer and S. Grimme, Chem. Sci., 2017, 8, 4879.
     DOI: 10.1039/c7sc00601b
   * J. Koopman and S. Grimme, ACS Omega 2019, 4, 12, 15120-15133.
     DOI: 10.1021/acsomega.9b02011
   
   for metadynamics refer to:
   * S. Grimme, J. Chem. Theory Comput., 2019, 155, 2847-2862
     DOI: 10.1021/acs.jctc.9b00143
   
   for SPH calculations refer to:
   * S. Spicher and S. Grimme, J. Chem. Theory Comput., 2021, 17, 1701-1714
     DOI: 10.1021/acs.jctc.0c01306
   
   for ONIOM refer to:
   * C. Plett, A. Katbashev, S. Ehlert, S. Grimme, M. Bursch,
     Phys. Chem. Chem. Phys., 2023, 25, 17860-17868. DOI: 10.1039/D3CP02178E
   
   for DIPRO refer to:
   * J. Kohn, N. Gildemeister, S. Grimme, D. Fazzi, A. Hansen,
     J. Chem. Phys., 2023, just accepted.
   
   for PTB refer to:
   * S. Grimme, M. Mueller, A. Hansen, J. Chem. Phys., 2023, 158, 124111.
     DOI: 10.1063/5.0137838
   
   with help from (in alphabetical order)
   P. Atkinson, C. Bannwarth, F. Bohle, G. Brandenburg, E. Caldeweyher
   M. Checinski, S. Dohm, S. Ehlert, S. Ehrlich, I. Gerasimov, C. Hölzer
   A. Katbashev, J. Kohn, J. Koopman, C. Lavigne, S. Lehtola, F. März, M. Müller,
   F. Musil, H. Neugebauer, J. Pisarek, C. Plett, P. Pracht, F. Pultar,
   J. Seibert, P. Shushkov, S. Spicher, M. Stahn, M. Steiner, T. Strunk,
   J. Stückrath, T. Rose, and J. Unsleber
   
 * started run on 2025/08/21 at 16:04:14.156     
   ID    Z sym.   atoms
    1    7 N      1, 10, 31, 36
    2    6 C      2-9, 11-16, 18-30, 32-35, 37, 38
    3    8 O      17
    4    1 H      39-56

           -------------------------------------------------
          |                Calculation Setup                |
           -------------------------------------------------

          program call               : xtb data2507/toluene/mPTBC/mPTBC_toluene_S0_crest.xyz --gfn 2 --gbsa toluene --ohess vtight --parallel 40 --molden --ceasefiles --namespace data2507/toluene/mPTBC/mPTBC_toluene_S0_finalOpt
          calculation namespace      : data2507/toluene/mPTBC/mPTBC_toluene_S0_finalOpt
          coordinate file            : data2507/toluene/mPTBC/mPTBC_toluene_S0_crest.xyz
          omp threads                :                    40


           -------------------------------------------------
          |                 G F N 2 - x T B                 |
           -------------------------------------------------

        Reference                      10.1021/acs.jctc.8b01176
      * Hamiltonian:
        H0-scaling (s, p, d)           1.850000    2.230000    2.230000
        zeta-weighting                 0.500000
      * Dispersion:
        s8                             2.700000
        a1                             0.520000
        a2                             5.000000
        s9                             5.000000
      * Repulsion:
        kExp                           1.500000    1.000000
        rExp                           1.000000
      * Coulomb:
        alpha                          2.000000
        third order                    shell-resolved
        anisotropic                    true
        a3                             3.000000
        a5                             4.000000
        cn-shift                       1.200000
        cn-exp                         4.000000
        max-rad                        5.000000

      * Solvation model:               GBSA
        Solvent                        toluene
        Parameter file                 internal GFN2-xTB/GBSA
        Dielectric constant                7.0000E+00
        Reference state                gsolv [1 M gas/solution]
        Free energy shift                  4.5239E-03 Eh       2.8388E+00 kcal/mol
        Temperature                        2.9815E+02 K
        Density                            8.6700E-01 kg/L
        Solvent mass                       9.2140E+01 g/mol
        Interaction kernel             Still
        Born radius scaling (c1)           1.5686E+00
        Born radii integrator          GBOBC
        Born offset                        0.0000E+00 a0       0.0000E+00 AA
        H-bond correction              false
        Ion screening                  false
        Surface tension                    1.0000E-05 Eh       1.5569E+01 dyn/cm
        Grid points                               230 per atom

          ...................................................
          :                      SETUP                      :
          :.................................................:
          :  # basis functions                 170          :
          :  # atomic orbitals                 170          :
          :  # shells                           94          :
          :  # electrons                       176          :
          :  max. iterations                   250          :
          :  Hamiltonian                  GFN2-xTB          :
          :  restarted?                      false          :
          :  GBSA solvation                   true          :
          :  PC potential                    false          :
          :  electronic temp.          300.0000000     K    :
          :  accuracy                    1.0000000          :
          :  -> integral cutoff          0.2500000E+02      :
          :  -> integral neglect         0.1000000E-07      :
          :  -> SCF convergence          0.1000000E-05 Eh   :
          :  -> wf. convergence          0.1000000E-03 e    :
          :  Broyden damping             0.4000000          :
          :  net charge                          0          :
          :  unpaired electrons                  0          :
          ...................................................

 iter      E             dE          RMSdq      gap      omega  full diag
   1    -97.3269569 -0.973270E+02  0.517E+00    1.58       0.0  T
   2    -97.3593695 -0.324126E-01  0.318E+00    1.86       1.0  T
   3    -97.2387506  0.120619E+00  0.174E+00    1.32       1.0  T
   4    -97.3853767 -0.146626E+00  0.339E-01    1.53       1.0  T
   5    -97.3879047 -0.252796E-02  0.130E-01    1.52       1.0  T
   6    -97.3881651 -0.260428E-03  0.573E-02    1.53       1.0  T
   7    -97.3882064 -0.412767E-04  0.224E-02    1.53       1.0  T
   8    -97.3882162 -0.983079E-05  0.101E-02    1.53       1.3  T
   9    -97.3882178 -0.157408E-05  0.496E-03    1.53       2.7  T
  10    -97.3882184 -0.597351E-06  0.204E-03    1.53       6.6  T
  11    -97.3882185 -0.123504E-06  0.740E-04    1.53      18.1  T
  12    -97.3882185 -0.750475E-10  0.413E-04    1.53      32.4  T

   *** convergence criteria satisfied after 12 iterations ***

         #    Occupation            Energy/Eh            Energy/eV
      -------------------------------------------------------------
         1        2.0000           -0.7392882             -20.1171
       ...           ...                  ...                  ...
        82        2.0000           -0.4309352             -11.7263
        83        2.0000           -0.4243071             -11.5460
        84        2.0000           -0.4221080             -11.4861
        85        2.0000           -0.4207455             -11.4491
        86        2.0000           -0.4155317             -11.3072
        87        2.0000           -0.3991601             -10.8617
        88        2.0000           -0.3544226              -9.6443 (HOMO)
        89                         -0.2981733              -8.1137 (LUMO)
        90                         -0.2923871              -7.9563
        91                         -0.2724276              -7.4131
        92                         -0.2518428              -6.8530
        93                         -0.2512569              -6.8370
       ...                                ...                  ...
       170                          1.1589835              31.5375
      -------------------------------------------------------------
                  HL-Gap            0.0562494 Eh            1.5306 eV
             Fermi-level           -0.3262979 Eh           -8.8790 eV

 SCC (total)                   0 d,  0 h,  0 min,  0.117 sec
 SCC setup                      ...        0 min,  0.001 sec (  1.158%)
 Dispersion                     ...        0 min,  0.002 sec (  1.928%)
 classical contributions        ...        0 min,  0.000 sec (  0.138%)
 integral evaluation            ...        0 min,  0.005 sec (  4.257%)
 iterations                     ...        0 min,  0.100 sec ( 85.916%)
 molecular gradient             ...        0 min,  0.007 sec (  5.901%)
 printout                       ...        0 min,  0.001 sec (  0.624%)

         :::::::::::::::::::::::::::::::::::::::::::::::::::::
         ::                     SUMMARY                     ::
         :::::::::::::::::::::::::::::::::::::::::::::::::::::
         :: total energy             -95.554327973272 Eh    ::
         :: total w/o Gsasa/hb       -95.513917953353 Eh    ::
         :: gradient norm              0.008496341683 Eh/a0 ::
         :: HOMO-LUMO gap              1.530623281603 eV    ::
         ::.................................................::
         :: SCC energy               -97.388389082616 Eh    ::
         :: -> isotropic ES            0.052259853051 Eh    ::
         :: -> anisotropic ES          0.007982245953 Eh    ::
         :: -> anisotropic XC          0.087843012075 Eh    ::
         :: -> dispersion             -0.077842672640 Eh    ::
         :: -> Gsolv                  -0.049505271752 Eh    ::
         ::    -> Gelec               -0.009095251833 Eh    ::
         ::    -> Gsasa               -0.044933899791 Eh    ::
         ::    -> Ghb                  0.000000000000 Eh    ::
         ::    -> Gshift               0.004523879872 Eh    ::
         :: repulsion energy           1.834061109344 Eh    ::
         :: add. restraining           0.000000000000 Eh    ::
         :: total charge              -0.000000000000 e     ::
         :::::::::::::::::::::::::::::::::::::::::::::::::::::

      ----------------------------------------------------------- 
     |                   =====================                   |
     |                        A N C O P T                        |
     |                   =====================                   |
     |               Approximate Normal Coordinate               |
     |                Rational Function Optimizer                |
      ----------------------------------------------------------- 

Optimization log is written to '/dev/null'
      ----------------------------------------------------------- 
     |                   =====================                   |
     |                        A N C O P T                        |
     |                   =====================                   |
     |               Approximate Normal Coordinate               |
     |                Rational Function Optimizer                |
      ----------------------------------------------------------- 

          ...................................................
          :                      SETUP                      :
          :.................................................:
          :   optimization level         verytight          :
          :   max. optcycles                  1120          :
          :   ANC micro-cycles                  20          :
          :   degrees of freedom               162          :
          :.................................................:
          :   RF solver                   davidson          :
          :   write xtbopt.log                true          :
          :   linear?                        false          :
          :   energy convergence         0.1000000E-06 Eh   :
          :   grad. convergence          0.2000000E-03 Eh/α :
          :   maxmium RF displ.          1.0000000          :
          :   Hlow (freq-cutoff)         0.1000000E-01      :
          :   Hmax (freq-cutoff)         5.0000000          :
          :   S6 in model hess.         20.0000000          :
          ...................................................

generating ANC from exact Hessian ...
Using Lindh-Hessian (1995)
 Shifting diagonal of input Hessian by   9.858868380953498E-003
 Lowest  eigenvalues of input Hessian
    0.000000    0.000000    0.000000    0.000000    0.000000    0.000000
    0.010000    0.010061    0.010214    0.010378    0.010507    0.010543
    0.011032    0.011447    0.011597    0.012095    0.012944    0.013377
 Highest eigenvalues
    2.072017    2.200936    2.218995    2.622417    2.631632    2.631682
 

........................................................................
.............................. CYCLE    1 ..............................
........................................................................

 iter      E             dE          RMSdq      gap      omega  full diag
   1    -97.3882185 -0.973882E+02  0.104E-04    1.53       0.0  T
   2    -97.3882185 -0.670468E-10  0.716E-05    1.53     186.7  T
   3    -97.3882185 -0.101224E-09  0.487E-05    1.53     274.5  T
     SCC iter.                  ...        0 min,  0.019 sec
     gradient                   ...        0 min,  0.006 sec
 * total energy  :   -95.5543280 Eh     change       -0.6198022E-08 Eh
   gradient norm :     0.0084923 Eh/α   predicted     0.0000000E+00 (-100.00%)
   displ. norm   :     0.0336228 α      lambda       -0.2935054E-04
   maximum displ.:     0.0145810 α      in ANC's #18, #38, #7, ...

........................................................................
.............................. CYCLE    2 ..............................
........................................................................

 iter      E             dE          RMSdq      gap      omega  full diag
   1    -97.3835998 -0.973836E+02  0.243E-02    1.53       0.0  T
   2    -97.3836014 -0.162085E-05  0.141E-02    1.53       1.0  T
   3    -97.3836001  0.128947E-05  0.696E-03    1.53       1.9  T
   4    -97.3836022 -0.210659E-05  0.861E-04    1.53      15.5  T
   5    -97.3836022 -0.109649E-07  0.466E-04    1.53      28.7  T
   6    -97.3836022 -0.639528E-08  0.206E-04    1.53      65.0  T
     SCC iter.                  ...        0 min,  0.034 sec
     gradient                   ...        0 min,  0.006 sec
 * total energy  :   -95.5543648 Eh     change       -0.3685570E-04 Eh
   gradient norm :     0.0031817 Eh/α   predicted    -0.3446629E-04 (  -6.48%)
   displ. norm   :     0.0720227 α      lambda       -0.7639595E-04
   maximum displ.:     0.0298964 α      in ANC's #1, #2, #7, ...

........................................................................
.............................. CYCLE    3 ..............................
........................................................................

 iter      E             dE          RMSdq      gap      omega  full diag
   1    -97.3781874 -0.973782E+02  0.746E-02    1.53       0.0  T
   2    -97.3781944 -0.693236E-05  0.417E-02    1.52       1.0  T
   3    -97.3781873  0.709007E-05  0.138E-02    1.52       1.0  T
   4    -97.3781976 -0.103269E-04  0.171E-03    1.52       7.8  T
   5    -97.3781976 -0.241420E-07  0.951E-04    1.52      14.1  T
   6    -97.3781977 -0.257491E-07  0.400E-04    1.52      33.4  T
     SCC iter.                  ...        0 min,  0.035 sec
     gradient                   ...        0 min,  0.006 sec
 * total energy  :   -95.5543250 Eh     change        0.3985529E-04 Eh
   gradient norm :     0.0088205 Eh/α   predicted    -0.3839892E-04 (-196.35%)
   displ. norm   :     0.0382636 α      lambda       -0.1212580E-03
   maximum displ.:     0.0216510 α      in ANC's #1, #6, #2, ...

........................................................................
.............................. CYCLE    4 ..............................
........................................................................

 iter      E             dE          RMSdq      gap      omega  full diag
   1    -97.3824859 -0.973825E+02  0.512E-02    1.52       0.0  T
   2    -97.3824882 -0.227043E-05  0.284E-02    1.52       1.0  T
   3    -97.3824874  0.849580E-06  0.563E-03    1.52       2.4  T
   4    -97.3824892 -0.179706E-05  0.985E-04    1.52      13.6  T
   5    -97.3824892 -0.356067E-08  0.568E-04    1.52      23.5  T
   6    -97.3824892 -0.880834E-08  0.209E-04    1.52      63.8  T
     SCC iter.                  ...        0 min,  0.035 sec
     gradient                   ...        0 min,  0.006 sec
 * total energy  :   -95.5543850 Eh     change       -0.6002255E-04 Eh
   gradient norm :     0.0010590 Eh/α   predicted    -0.6072235E-04 (   1.17%)
   displ. norm   :     0.0267885 α      lambda       -0.6335973E-05
   maximum displ.:     0.0116150 α      in ANC's #7, #2, #10, ...

........................................................................
.............................. CYCLE    5 ..............................
........................................................................

 iter      E             dE          RMSdq      gap      omega  full diag
   1    -97.3833793 -0.973834E+02  0.233E-02    1.53       0.0  T
   2    -97.3833797 -0.425641E-06  0.130E-02    1.53       1.0  T
   3    -97.3833797  0.496391E-08  0.169E-03    1.53       7.9  T
   4    -97.3833799 -0.185432E-06  0.447E-04    1.53      29.9  T
   5    -97.3833799  0.330473E-09  0.225E-04    1.53      59.4  T
     SCC iter.                  ...        0 min,  0.029 sec
     gradient                   ...        0 min,  0.006 sec
 * total energy  :   -95.5543846 Eh     change        0.4153342E-06 Eh
   gradient norm :     0.0011793 Eh/α   predicted    -0.3169438E-05 (-863.11%)
   displ. norm   :     0.0275747 α      lambda       -0.7844152E-05
   maximum displ.:     0.0163304 α      in ANC's #7, #2, #14, ...

........................................................................
.............................. CYCLE    6 ..............................
........................................................................

 iter      E             dE          RMSdq      gap      omega  full diag
   1    -97.3832821 -0.973833E+02  0.164E-02    1.53       0.0  T
   2    -97.3832823 -0.205758E-06  0.922E-03    1.53       1.4  T
   3    -97.3832822  0.794760E-07  0.178E-03    1.53       7.5  T
   4    -97.3832824 -0.165032E-06  0.362E-04    1.53      36.9  T
   5    -97.3832824 -0.164562E-09  0.210E-04    1.53      63.6  T
     SCC iter.                  ...        0 min,  0.029 sec
     gradient                   ...        0 min,  0.006 sec
 * total energy  :   -95.5543921 Eh     change       -0.7512775E-05 Eh
   gradient norm :     0.0007598 Eh/α   predicted    -0.3925924E-05 ( -47.74%)
   displ. norm   :     0.0380594 α      lambda       -0.3407357E-05
   maximum displ.:     0.0234129 α      in ANC's #7, #2, #4, ...

........................................................................
.............................. CYCLE    7 ..............................
........................................................................

 iter      E             dE          RMSdq      gap      omega  full diag
   1    -97.3830488 -0.973830E+02  0.139E-02    1.53       0.0  T
   2    -97.3830489 -0.632217E-07  0.802E-03    1.52       1.7  T
   3    -97.3830488  0.531597E-07  0.128E-03    1.52      10.5  T
   4    -97.3830489 -0.798188E-07  0.280E-04    1.52      47.7  T
   5    -97.3830489 -0.481322E-10  0.155E-04    1.52      86.0  T
     SCC iter.                  ...        0 min,  0.029 sec
     gradient                   ...        0 min,  0.006 sec
 * total energy  :   -95.5543959 Eh     change       -0.3826699E-05 Eh
   gradient norm :     0.0007051 Eh/α   predicted    -0.1707605E-05 ( -55.38%)
   displ. norm   :     0.0681919 α      lambda       -0.4704108E-05
   maximum displ.:     0.0417494 α      in ANC's #2, #7, #4, ...

........................................................................
.............................. CYCLE    8 ..............................
........................................................................

 iter      E             dE          RMSdq      gap      omega  full diag
   1    -97.3830631 -0.973831E+02  0.236E-02    1.53       0.0  T
   2    -97.3830632 -0.141254E-06  0.136E-02    1.52       1.0  T
   3    -97.3830632  0.244481E-07  0.126E-03    1.52      10.6  T
   4    -97.3830632 -0.797989E-07  0.436E-04    1.52      30.7  T
   5    -97.3830633 -0.113583E-08  0.190E-04    1.52      70.5  T
     SCC iter.                  ...        0 min,  0.028 sec
     gradient                   ...        0 min,  0.006 sec
 * total energy  :   -95.5544004 Eh     change       -0.4522162E-05 Eh
   gradient norm :     0.0007292 Eh/α   predicted    -0.2357343E-05 ( -47.87%)
   displ. norm   :     0.0921435 α      lambda       -0.6228839E-05
   maximum displ.:     0.0567372 α      in ANC's #2, #7, #4, ...

........................................................................
.............................. CYCLE    9 ..............................
........................................................................

 iter      E             dE          RMSdq      gap      omega  full diag
   1    -97.3832563 -0.973833E+02  0.300E-02    1.53       0.0  T
   2    -97.3832565 -0.180596E-06  0.175E-02    1.53       1.0  T
   3    -97.3832564  0.167554E-06  0.201E-03    1.52       6.6  T
   4    -97.3832566 -0.246842E-06  0.488E-04    1.53      27.4  T
   5    -97.3832566 -0.750461E-09  0.262E-04    1.52      51.0  T
     SCC iter.                  ...        0 min,  0.029 sec
     gradient                   ...        0 min,  0.006 sec
 * total energy  :   -95.5544062 Eh     change       -0.5702806E-05 Eh
   gradient norm :     0.0010008 Eh/α   predicted    -0.3129866E-05 ( -45.12%)
   displ. norm   :     0.0849323 α      lambda       -0.5130697E-05
   maximum displ.:     0.0533787 α      in ANC's #2, #7, #4, ...

........................................................................
.............................. CYCLE   10 ..............................
........................................................................

 iter      E             dE          RMSdq      gap      omega  full diag
   1    -97.3833203 -0.973833E+02  0.258E-02    1.53       0.0  T
   2    -97.3833204 -0.860975E-07  0.151E-02    1.53       1.0  T
   3    -97.3833203  0.669469E-07  0.150E-03    1.53       8.9  T
   4    -97.3833204 -0.103105E-06  0.387E-04    1.53      34.5  T
   5    -97.3833204 -0.107738E-08  0.218E-04    1.53      61.4  T
     SCC iter.                  ...        0 min,  0.028 sec
     gradient                   ...        0 min,  0.006 sec
 * total energy  :   -95.5544124 Eh     change       -0.6207841E-05 Eh
   gradient norm :     0.0007589 Eh/α   predicted    -0.2576211E-05 ( -58.50%)
   displ. norm   :     0.1415009 α      lambda       -0.8207287E-05
   maximum displ.:     0.0883608 α      in ANC's #2, #7, #4, ...

........................................................................
.............................. CYCLE   11 ..............................
........................................................................

 iter      E             dE          RMSdq      gap      omega  full diag
   1    -97.3835238 -0.973835E+02  0.426E-02    1.53       0.0  T
   2    -97.3835240 -0.270577E-06  0.248E-02    1.53       1.0  T
   3    -97.3835241 -0.158026E-07  0.157E-03    1.53       8.5  T
   4    -97.3835242 -0.952002E-07  0.686E-04    1.53      19.5  T
   5    -97.3835242 -0.970658E-09  0.340E-04    1.53      39.3  T
     SCC iter.                  ...        0 min,  0.029 sec
     gradient                   ...        0 min,  0.006 sec
 * total energy  :   -95.5544225 Eh     change       -0.1010876E-04 Eh
   gradient norm :     0.0008657 Eh/α   predicted    -0.4142635E-05 ( -59.02%)
   displ. norm   :     0.2459243 α      lambda       -0.1205260E-04
   maximum displ.:     0.1533269 α      in ANC's #2, #7, #4, ...

........................................................................
.............................. CYCLE   12 ..............................
........................................................................

 iter      E             dE          RMSdq      gap      omega  full diag
   1    -97.3834216 -0.973834E+02  0.737E-02    1.53       0.0  T
   2    -97.3834226 -0.924470E-06  0.429E-02    1.53       1.0  T
   3    -97.3834226 -0.614950E-07  0.288E-03    1.53       4.6  T
   4    -97.3834229 -0.313367E-06  0.131E-03    1.53      10.2  T
   5    -97.3834230 -0.119712E-07  0.586E-04    1.53      22.8  T
   6    -97.3834230 -0.149850E-07  0.104E-04    1.53     127.9  T
     SCC iter.                  ...        0 min,  0.035 sec
     gradient                   ...        0 min,  0.006 sec
 * total energy  :   -95.5544347 Eh     change       -0.1219535E-04 Eh
   gradient norm :     0.0011273 Eh/α   predicted    -0.6190322E-05 ( -49.24%)
   displ. norm   :     0.1069604 α      lambda       -0.4324176E-05
   maximum displ.:     0.0688980 α      in ANC's #2, #7, #1, ...

........................................................................
.............................. CYCLE   13 ..............................
........................................................................

 iter      E             dE          RMSdq      gap      omega  full diag
   1    -97.3838075 -0.973838E+02  0.314E-02    1.53       0.0  T
   2    -97.3838077 -0.219422E-06  0.182E-02    1.53       1.0  T
   3    -97.3838078 -0.114905E-07  0.141E-03    1.53       9.5  T
   4    -97.3838078 -0.751742E-07  0.621E-04    1.53      21.5  T
   5    -97.3838078 -0.236132E-08  0.302E-04    1.53      44.3  T
     SCC iter.                  ...        0 min,  0.029 sec
     gradient                   ...        0 min,  0.006 sec
 * total energy  :   -95.5544391 Eh     change       -0.4421601E-05 Eh
   gradient norm :     0.0005552 Eh/α   predicted    -0.2175457E-05 ( -50.80%)
   displ. norm   :     0.0387641 α      lambda       -0.1868734E-05
   maximum displ.:     0.0275390 α      in ANC's #2, #1, #7, ...

........................................................................
.............................. CYCLE   14 ..............................
........................................................................

 iter      E             dE          RMSdq      gap      omega  full diag
   1    -97.3838604 -0.973839E+02  0.112E-02    1.53       0.0  T
   2    -97.3838604 -0.513804E-07  0.642E-03    1.53       2.1  T
   3    -97.3838604  0.358565E-08  0.732E-04    1.53      18.2  T
   4    -97.3838605 -0.241484E-07  0.256E-04    1.53      52.3  T
     SCC iter.                  ...        0 min,  0.023 sec
     gradient                   ...        0 min,  0.006 sec
 * total energy  :   -95.5544410 Eh     change       -0.1958526E-05 Eh
   gradient norm :     0.0002827 Eh/α   predicted    -0.9368577E-06 ( -52.17%)
   displ. norm   :     0.0200680 α      lambda       -0.8983585E-06
   maximum displ.:     0.0146472 α      in ANC's #2, #1, #3, ...

........................................................................
.............................. CYCLE   15 ..............................
........................................................................

 iter      E             dE          RMSdq      gap      omega  full diag
   1    -97.3837489 -0.973837E+02  0.485E-03    1.53       0.0  T
   2    -97.3837490 -0.100961E-07  0.279E-03    1.53       4.8  T
   3    -97.3837489  0.196501E-07  0.678E-04    1.53      19.7  T
   4    -97.3837490 -0.251397E-07  0.117E-04    1.53     113.8  T
     SCC iter.                  ...        0 min,  0.023 sec
     gradient                   ...        0 min,  0.006 sec
 * total energy  :   -95.5544420 Eh     change       -0.9763066E-06 Eh
   gradient norm :     0.0003575 Eh/α   predicted    -0.4509440E-06 ( -53.81%)
   displ. norm   :     0.0214604 α      lambda       -0.7397975E-06
   maximum displ.:     0.0136688 α      in ANC's #2, #1, #3, ...

........................................................................
.............................. CYCLE   16 ..............................
........................................................................

 iter      E             dE          RMSdq      gap      omega  full diag
   1    -97.3836521 -0.973837E+02  0.495E-03    1.53       0.0  T
   2    -97.3836521 -0.715643E-08  0.288E-03    1.53       4.6  T
   3    -97.3836521  0.771421E-08  0.460E-04    1.53      29.0  T
   4    -97.3836521 -0.106061E-07  0.956E-05    1.53     139.8  T
     SCC iter.                  ...        0 min,  0.023 sec
     gradient                   ...        0 min,  0.006 sec
 * total energy  :   -95.5544430 Eh     change       -0.9557503E-06 Eh
   gradient norm :     0.0003060 Eh/α   predicted    -0.3747616E-06 ( -60.79%)
   displ. norm   :     0.0376533 α      lambda       -0.1282320E-05
   maximum displ.:     0.0218587 α      in ANC's #2, #1, #7, ...

........................................................................
.............................. CYCLE   17 ..............................
........................................................................

 iter      E             dE          RMSdq      gap      omega  full diag
   1    -97.3835225 -0.973835E+02  0.833E-03    1.53       0.0  T
   2    -97.3835225 -0.995068E-08  0.487E-03    1.53       2.7  T
   3    -97.3835225  0.799555E-08  0.458E-04    1.53      29.2  T
   4    -97.3835225 -0.114108E-07  0.136E-04    1.53      98.1  T
     SCC iter.                  ...        0 min,  0.023 sec
     gradient                   ...        0 min,  0.006 sec
 * total energy  :   -95.5544447 Eh     change       -0.1744123E-05 Eh
   gradient norm :     0.0003559 Eh/α   predicted    -0.6460465E-06 ( -62.96%)
   displ. norm   :     0.0800042 α      lambda       -0.2663443E-05
   maximum displ.:     0.0456025 α      in ANC's #2, #1, #7, ...

........................................................................
.............................. CYCLE   18 ..............................
........................................................................

 iter      E             dE          RMSdq      gap      omega  full diag
   1    -97.3834721 -0.973835E+02  0.175E-02    1.53       0.0  T
   2    -97.3834721 -0.504558E-07  0.102E-02    1.53       1.3  T
   3    -97.3834721  0.305185E-07  0.994E-04    1.53      13.4  T
   4    -97.3834722 -0.459986E-07  0.313E-04    1.53      42.7  T
     SCC iter.                  ...        0 min,  0.023 sec
     gradient                   ...        0 min,  0.006 sec
 * total energy  :   -95.5544481 Eh     change       -0.3427276E-05 Eh
   gradient norm :     0.0003967 Eh/α   predicted    -0.1336091E-05 ( -61.02%)
   displ. norm   :     0.1182050 α      lambda       -0.3296605E-05
   maximum displ.:     0.0683963 α      in ANC's #2, #1, #3, ...

........................................................................
.............................. CYCLE   19 ..............................
........................................................................

 iter      E             dE          RMSdq      gap      omega  full diag
   1    -97.3834124 -0.973834E+02  0.258E-02    1.53       0.0  T
   2    -97.3834125 -0.150100E-06  0.150E-02    1.53       1.0  T
   3    -97.3834124  0.775812E-07  0.169E-03    1.53       7.9  T
   4    -97.3834126 -0.124022E-06  0.516E-04    1.53      25.9  T
   5    -97.3834126 -0.573766E-08  0.279E-04    1.53      47.9  T
     SCC iter.                  ...        0 min,  0.029 sec
     gradient                   ...        0 min,  0.006 sec
 * total energy  :   -95.5544520 Eh     change       -0.3823737E-05 Eh
   gradient norm :     0.0003989 Eh/α   predicted    -0.1663314E-05 ( -56.50%)
   displ. norm   :     0.1175021 α      lambda       -0.2250771E-05
   maximum displ.:     0.0711555 α      in ANC's #2, #1, #3, ...

........................................................................
.............................. CYCLE   20 ..............................
........................................................................

 iter      E             dE          RMSdq      gap      omega  full diag
   1    -97.3835162 -0.973835E+02  0.248E-02    1.52       0.0  T
   2    -97.3835164 -0.169084E-06  0.144E-02    1.52       1.0  T
   3    -97.3835163  0.813204E-07  0.183E-03    1.52       7.3  T
   4    -97.3835164 -0.136511E-06  0.489E-04    1.52      27.3  T
   5    -97.3835165 -0.289043E-08  0.281E-04    1.52      47.6  T
     SCC iter.                  ...        0 min,  0.029 sec
     gradient                   ...        0 min,  0.006 sec
 * total energy  :   -95.5544543 Eh     change       -0.2325312E-05 Eh
   gradient norm :     0.0003257 Eh/α   predicted    -0.1134732E-05 ( -51.20%)
   displ. norm   :     0.0412075 α      lambda       -0.7407486E-06
   maximum displ.:     0.0287034 α      in ANC's #2, #1, #3, ...
 * RMSD in coord.:     0.1386102 α      energy gain  -0.1263228E-03 Eh

generating ANC from exact Hessian ...
Using Lindh-Hessian (1995)
 Shifting diagonal of input Hessian by   9.812894577135245E-003
 Lowest  eigenvalues of input Hessian
    0.000000    0.000000    0.000000    0.000000    0.000000    0.000000
    0.010000    0.010131    0.010279    0.010320    0.010471    0.010933
    0.011017    0.011202    0.011693    0.011709    0.012793    0.013314
 Highest eigenvalues
    2.067277    2.195702    2.212662    2.619874    2.628308    2.628355
 

........................................................................
.............................. CYCLE   21 ..............................
........................................................................

 iter      E             dE          RMSdq      gap      omega  full diag
   1    -97.3836401 -0.973836E+02  0.808E-03    1.52       0.0  T
   2    -97.3836401 -0.295974E-07  0.466E-03    1.52       2.9  T
   3    -97.3836401  0.119863E-07  0.738E-04    1.52      18.1  T
   4    -97.3836402 -0.222427E-07  0.188E-04    1.52      71.2  T
     SCC iter.                  ...        0 min,  0.023 sec
     gradient                   ...        0 min,  0.006 sec
 * total energy  :   -95.5544552 Eh     change       -0.9159451E-06 Eh
   gradient norm :     0.0001830 Eh/α   predicted     0.0000000E+00 (-100.00%)
   displ. norm   :     0.0066408 α      lambda       -0.3023086E-07
   maximum displ.:     0.0041534 α      in ANC's #1, #6, #2, ...

........................................................................
.............................. CYCLE   22 ..............................
........................................................................

 iter      E             dE          RMSdq      gap      omega  full diag
   1    -97.3837034 -0.973837E+02  0.299E-03    1.52       0.0  T
   2    -97.3837034 -0.557660E-08  0.169E-03    1.52       7.9  T
   3    -97.3837034  0.352392E-08  0.310E-04    1.52      43.0  T
   4    -97.3837034 -0.607227E-08  0.778E-05    1.52     171.8  T
     SCC iter.                  ...        0 min,  0.025 sec
     gradient                   ...        0 min,  0.006 sec
 * total energy  :   -95.5544555 Eh     change       -0.3196384E-06 Eh
   gradient norm :     0.0001578 Eh/α   predicted    -0.1395097E-06 ( -56.35%)
   displ. norm   :     0.0307975 α      lambda       -0.1147158E-05
   maximum displ.:     0.0170933 α      in ANC's #1, #6, #2, ...

........................................................................
.............................. CYCLE   23 ..............................
........................................................................

 iter      E             dE          RMSdq      gap      omega  full diag
   1    -97.3839131 -0.973839E+02  0.109E-02    1.52       0.0  T
   2    -97.3839131 -0.403823E-07  0.622E-03    1.52       2.1  T
   3    -97.3839131  0.551159E-08  0.657E-04    1.52      20.3  T
   4    -97.3839131 -0.223454E-07  0.248E-04    1.52      53.9  T
     SCC iter.                  ...        0 min,  0.024 sec
     gradient                   ...        0 min,  0.006 sec
 * total energy  :   -95.5544562 Eh     change       -0.6474638E-06 Eh
   gradient norm :     0.0004979 Eh/α   predicted    -0.5774770E-06 ( -10.81%)
   displ. norm   :     0.0224033 α      lambda       -0.9913318E-06
   maximum displ.:     0.0130120 α      in ANC's #1, #6, #2, ...

........................................................................
.............................. CYCLE   24 ..............................
........................................................................

 iter      E             dE          RMSdq      gap      omega  full diag
   1    -97.3837366 -0.973837E+02  0.895E-03    1.52       0.0  T
   2    -97.3837367 -0.392611E-07  0.508E-03    1.52       2.6  T
   3    -97.3837366  0.589841E-08  0.673E-04    1.52      19.9  T
   4    -97.3837367 -0.223359E-07  0.220E-04    1.52      60.9  T
     SCC iter.                  ...        0 min,  0.024 sec
     gradient                   ...        0 min,  0.006 sec
 * total energy  :   -95.5544569 Eh     change       -0.7683935E-06 Eh
   gradient norm :     0.0002996 Eh/α   predicted    -0.4988431E-06 ( -35.08%)
   displ. norm   :     0.0120619 α      lambda       -0.4453719E-06
   maximum displ.:     0.0076178 α      in ANC's #1, #6, #2, ...

........................................................................
.............................. CYCLE   25 ..............................
........................................................................

 iter      E             dE          RMSdq      gap      omega  full diag
   1    -97.3836275 -0.973836E+02  0.458E-03    1.52       0.0  T
   2    -97.3836276 -0.961109E-08  0.262E-03    1.52       5.1  T
   3    -97.3836275  0.117258E-07  0.539E-04    1.52      24.8  T
   4    -97.3836276 -0.165909E-07  0.114E-04    1.52     117.2  T
     SCC iter.                  ...        0 min,  0.023 sec
     gradient                   ...        0 min,  0.006 sec
 * total energy  :   -95.5544573 Eh     change       -0.3753558E-06 Eh
   gradient norm :     0.0002421 Eh/α   predicted    -0.2231540E-06 ( -40.55%)
   displ. norm   :     0.0190117 α      lambda       -0.5453915E-06
   maximum displ.:     0.0117018 α      in ANC's #1, #2, #6, ...

........................................................................
.............................. CYCLE   26 ..............................
........................................................................

 iter      E             dE          RMSdq      gap      omega  full diag
   1    -97.3836151 -0.973836E+02  0.676E-03    1.52       0.0  T
   2    -97.3836151 -0.218355E-07  0.387E-03    1.52       3.5  T
   3    -97.3836151  0.413192E-08  0.503E-04    1.52      26.6  T
   4    -97.3836151 -0.131501E-07  0.168E-04    1.52      79.6  T
     SCC iter.                  ...        0 min,  0.024 sec
     gradient                   ...        0 min,  0.006 sec
 * total energy  :   -95.5544579 Eh     change       -0.6101212E-06 Eh
   gradient norm :     0.0002294 Eh/α   predicted    -0.2755618E-06 ( -54.83%)
   displ. norm   :     0.0268648 α      lambda       -0.6116713E-06
   maximum displ.:     0.0171402 α      in ANC's #1, #2, #6, ...

........................................................................
.............................. CYCLE   27 ..............................
........................................................................

 iter      E             dE          RMSdq      gap      omega  full diag
   1    -97.3837077 -0.973837E+02  0.778E-03    1.52       0.0  T
   2    -97.3837077 -0.150961E-07  0.452E-03    1.52       3.0  T
   3    -97.3837077  0.140364E-07  0.609E-04    1.52      22.0  T
   4    -97.3837077 -0.213141E-07  0.170E-04    1.52      78.5  T
     SCC iter.                  ...        0 min,  0.026 sec
     gradient                   ...        0 min,  0.006 sec
 * total energy  :   -95.5544584 Eh     change       -0.4948993E-06 Eh
   gradient norm :     0.0002901 Eh/α   predicted    -0.3089140E-06 ( -37.58%)
   displ. norm   :     0.0385498 α      lambda       -0.9301249E-06
   maximum displ.:     0.0242853 α      in ANC's #1, #2, #7, ...

........................................................................
.............................. CYCLE   28 ..............................
........................................................................

 iter      E             dE          RMSdq      gap      omega  full diag
   1    -97.3838388 -0.973838E+02  0.157E-02    1.52       0.0  T
   2    -97.3838389 -0.144936E-06  0.885E-03    1.52       1.5  T
   3    -97.3838389 -0.272224E-07  0.844E-04    1.52      15.8  T
   4    -97.3838390 -0.299693E-07  0.389E-04    1.52      34.4  T
     SCC iter.                  ...        0 min,  0.023 sec
     gradient                   ...        0 min,  0.006 sec
 * total energy  :   -95.5544586 Eh     change       -0.1703435E-06 Eh
   gradient norm :     0.0004638 Eh/α   predicted    -0.4659163E-06 ( 173.52%)
   displ. norm   :     0.0071343 α      lambda       -0.7070169E-06
   maximum displ.:     0.0038371 α      in ANC's #1, #9, #13, ...

........................................................................
.............................. CYCLE   29 ..............................
........................................................................

 iter      E             dE          RMSdq      gap      omega  full diag
   1    -97.3838150 -0.973838E+02  0.406E-03    1.52       0.0  T
   2    -97.3838151 -0.138825E-07  0.228E-03    1.52       5.9  T
   3    -97.3838150  0.844736E-08  0.523E-04    1.52      25.5  T
   4    -97.3838151 -0.144452E-07  0.114E-04    1.52     117.7  T
     SCC iter.                  ...        0 min,  0.024 sec
     gradient                   ...        0 min,  0.006 sec
 * total energy  :   -95.5544593 Eh     change       -0.7045762E-06 Eh
   gradient norm :     0.0001873 Eh/α   predicted    -0.3555241E-06 ( -49.54%)
   displ. norm   :     0.0093435 α      lambda       -0.2911076E-06
   maximum displ.:     0.0064836 α      in ANC's #1, #2, #13, ...

........................................................................
.............................. CYCLE   30 ..............................
........................................................................

 iter      E             dE          RMSdq      gap      omega  full diag
   1    -97.3837009 -0.973837E+02  0.324E-03    1.52       0.0  T
   2    -97.3837009 -0.807439E-08  0.183E-03    1.52       7.3  T
   3    -97.3837009  0.123372E-08  0.309E-04    1.52      43.2  T
   4    -97.3837009 -0.424735E-08  0.862E-05    1.52     155.0  T
     SCC iter.                  ...        0 min,  0.024 sec
     gradient                   ...        0 min,  0.006 sec
 * total energy  :   -95.5544596 Eh     change       -0.3091576E-06 Eh
   gradient norm :     0.0001229 Eh/α   predicted    -0.1491547E-06 ( -51.75%)
   displ. norm   :     0.0093435 α      lambda        0.0000000E+00
   maximum displ.:     0.0064836 α      in ANC's #1, #2, #13, ...

........................................................................
.............................. CYCLE   31 ..............................
........................................................................

 iter      E             dE          RMSdq      gap      omega  full diag
   1    -97.3835847 -0.973836E+02  0.324E-03    1.52       0.0  T
   2    -97.3835847 -0.815403E-08  0.182E-03    1.52       7.3  T
   3    -97.3835847  0.221773E-08  0.337E-04    1.52      39.7  T
   4    -97.3835847 -0.535630E-08  0.880E-05    1.52     151.9  T
     SCC iter.                  ...        0 min,  0.024 sec
     gradient                   ...        0 min,  0.006 sec
 * total energy  :   -95.5544596 Eh     change       -0.2531061E-07 Eh
   gradient norm :     0.0003549 Eh/α   predicted     0.1224990E-08 (-104.84%)
   displ. norm   :     0.0051403 α      lambda       -0.2035071E-06
   maximum displ.:     0.0038605 α      in ANC's #1, #2, #12, ...

........................................................................
.............................. CYCLE   32 ..............................
........................................................................

 iter      E             dE          RMSdq      gap      omega  full diag
   1    -97.3837659 -0.973838E+02  0.171E-03    1.52       0.0  T
   2    -97.3837659 -0.190803E-08  0.977E-04    1.52      13.7  T
   3    -97.3837659  0.889884E-09  0.184E-04    1.52      72.7  T
     SCC iter.                  ...        0 min,  0.018 sec
     gradient                   ...        0 min,  0.006 sec
 * total energy  :   -95.5544599 Eh     change       -0.2402221E-06 Eh
   gradient norm :     0.0001999 Eh/α   predicted    -0.1066825E-06 ( -55.59%)
   displ. norm   :     0.0113151 α      lambda       -0.2990966E-06
   maximum displ.:     0.0081063 α      in ANC's #1, #2, #12, ...

........................................................................
.............................. CYCLE   33 ..............................
........................................................................

 iter      E             dE          RMSdq      gap      omega  full diag
   1    -97.3838080 -0.973838E+02  0.384E-03    1.52       0.0  T
   2    -97.3838080 -0.807107E-08  0.218E-03    1.52       6.1  T
   3    -97.3838080  0.257202E-09  0.267E-04    1.52      50.1  T
   4    -97.3838080 -0.352321E-08  0.862E-05    1.52     154.9  T
     SCC iter.                  ...        0 min,  0.024 sec
     gradient                   ...        0 min,  0.006 sec
 * total energy  :   -95.5544602 Eh     change       -0.3260414E-06 Eh
   gradient norm :     0.0001303 Eh/α   predicted    -0.1516143E-06 ( -53.50%)
   displ. norm   :     0.0113151 α      lambda        0.0000000E+00
   maximum displ.:     0.0081063 α      in ANC's #1, #2, #12, ...

........................................................................
.............................. CYCLE   34 ..............................
........................................................................

 iter      E             dE          RMSdq      gap      omega  full diag
   1    -97.3838475 -0.973838E+02  0.384E-03    1.52       0.0  T
   2    -97.3838475 -0.808144E-08  0.218E-03    1.52       6.1  T
   3    -97.3838475  0.526782E-09  0.274E-04    1.52      48.9  T
   4    -97.3838475 -0.382695E-08  0.874E-05    1.52     152.9  T
     SCC iter.                  ...        0 min,  0.024 sec
     gradient                   ...        0 min,  0.006 sec
 * total energy  :   -95.5544602 Eh     change       -0.4111786E-07 Eh
   gradient norm :     0.0002819 Eh/α   predicted    -0.2881076E-08 ( -92.99%)
   displ. norm   :     0.0067564 α      lambda       -0.2087332E-06
   maximum displ.:     0.0052171 α      in ANC's #1, #2, #4, ...

........................................................................
.............................. CYCLE   35 ..............................
........................................................................

 iter      E             dE          RMSdq      gap      omega  full diag
   1    -97.3838510 -0.973839E+02  0.179E-03    1.52       0.0  T
   2    -97.3838511 -0.186701E-08  0.102E-03    1.52      13.1  T
   3    -97.3838510  0.148034E-08  0.204E-04    1.52      65.7  T
   4    -97.3838511 -0.218230E-08  0.508E-05    1.52     263.2  T
     SCC iter.                  ...        0 min,  0.023 sec
     gradient                   ...        0 min,  0.006 sec
 * total energy  :   -95.5544605 Eh     change       -0.2656371E-06 Eh
   gradient norm :     0.0002142 Eh/α   predicted    -0.1075400E-06 ( -59.52%)
   displ. norm   :     0.0103865 α      lambda       -0.2557961E-06
   maximum displ.:     0.0080247 α      in ANC's #1, #2, #4, ...

........................................................................
.............................. CYCLE   36 ..............................
........................................................................

 iter      E             dE          RMSdq      gap      omega  full diag
   1    -97.3837370 -0.973837E+02  0.235E-03    1.52       0.0  T
   2    -97.3837370 -0.395251E-08  0.134E-03    1.52      10.0  T
   3    -97.3837370  0.381361E-08  0.334E-04    1.52      40.1  T
   4    -97.3837370 -0.523431E-08  0.698E-05    1.52     191.4  T
     SCC iter.                  ...        0 min,  0.024 sec
     gradient                   ...        0 min,  0.006 sec
 * total energy  :   -95.5544608 Eh     change       -0.2736774E-06 Eh
   gradient norm :     0.0000872 Eh/α   predicted    -0.1315397E-06 ( -51.94%)
   displ. norm   :     0.0103865 α      lambda        0.0000000E+00
   maximum displ.:     0.0080247 α      in ANC's #1, #2, #4, ...

........................................................................
.............................. CYCLE   37 ..............................
........................................................................

 iter      E             dE          RMSdq      gap      omega  full diag
   1    -97.3836216 -0.973836E+02  0.235E-03    1.52       0.0  T
   2    -97.3836216 -0.387809E-08  0.134E-03    1.52      10.0  T
   3    -97.3836216  0.459072E-08  0.354E-04    1.52      37.8  T
   4    -97.3836216 -0.604986E-08  0.729E-05    1.52     183.2  T
     SCC iter.                  ...        0 min,  0.024 sec
     gradient                   ...        0 min,  0.006 sec
 * total energy  :   -95.5544608 Eh     change       -0.4096721E-07 Eh
   gradient norm :     0.0003410 Eh/α   predicted     0.3795920E-08 (-109.27%)
   displ. norm   :     0.0056284 α      lambda       -0.1589012E-06
   maximum displ.:     0.0043749 α      in ANC's #1, #2, #4, ...

........................................................................
.............................. CYCLE   38 ..............................
........................................................................

 iter      E             dE          RMSdq      gap      omega  full diag
   1    -97.3836963 -0.973837E+02  0.132E-03    1.52       0.0  T
   2    -97.3836963 -0.658545E-09  0.763E-04    1.52      17.5  T
   3    -97.3836963  0.565137E-09  0.130E-04    1.52     103.1  T
     SCC iter.                  ...        0 min,  0.018 sec
     gradient                   ...        0 min,  0.006 sec
 * total energy  :   -95.5544610 Eh     change       -0.2041950E-06 Eh
   gradient norm :     0.0001805 Eh/α   predicted    -0.8036024E-07 ( -60.65%)
   displ. norm   :     0.0104213 α      lambda       -0.2606871E-06
   maximum displ.:     0.0079729 α      in ANC's #1, #4, #2, ...

........................................................................
.............................. CYCLE   39 ..............................
........................................................................

 iter      E             dE          RMSdq      gap      omega  full diag
   1    -97.3838036 -0.973838E+02  0.266E-03    1.52       0.0  T
   2    -97.3838036 -0.280043E-08  0.154E-03    1.52       8.7  T
   3    -97.3838036  0.141893E-08  0.224E-04    1.52      59.6  T
   4    -97.3838036 -0.258888E-08  0.583E-05    1.52     229.0  T
     SCC iter.                  ...        0 min,  0.023 sec
     gradient                   ...        0 min,  0.006 sec
 * total energy  :   -95.5544613 Eh     change       -0.2848739E-06 Eh
   gradient norm :     0.0001095 Eh/α   predicted    -0.1311090E-06 ( -53.98%)
   displ. norm   :     0.0127675 α      lambda       -0.1709736E-06
   maximum displ.:     0.0099286 α      in ANC's #1, #4, #2, ...

........................................................................
.............................. CYCLE   40 ..............................
........................................................................

 iter      E             dE          RMSdq      gap      omega  full diag
   1    -97.3838325 -0.973838E+02  0.261E-03    1.52       0.0  T
   2    -97.3838325 -0.188103E-08  0.151E-03    1.52       8.8  T
   3    -97.3838325  0.414659E-09  0.159E-04    1.52      84.1  T
   4    -97.3838325 -0.113012E-08  0.593E-05    1.52     225.2  T
     SCC iter.                  ...        0 min,  0.024 sec
     gradient                   ...        0 min,  0.006 sec
 * total energy  :   -95.5544615 Eh     change       -0.2347204E-06 Eh
   gradient norm :     0.0001996 Eh/α   predicted    -0.8898458E-07 ( -62.09%)
   displ. norm   :     0.0117511 α      lambda       -0.1651961E-06
   maximum displ.:     0.0090495 α      in ANC's #1, #4, #2, ...

........................................................................
.............................. CYCLE   41 ..............................
........................................................................

 iter      E             dE          RMSdq      gap      omega  full diag
   1    -97.3838132 -0.973838E+02  0.230E-03    1.52       0.0  T
   2    -97.3838132 -0.149929E-08  0.133E-03    1.52      10.0  T
   3    -97.3838132  0.315865E-09  0.147E-04    1.52      90.8  T
   4    -97.3838132 -0.880547E-09  0.498E-05    1.52     268.3  T
     SCC iter.                  ...        0 min,  0.024 sec
     gradient                   ...        0 min,  0.006 sec
 * total energy  :   -95.5544618 Eh     change       -0.2339000E-06 Eh
   gradient norm :     0.0001425 Eh/α   predicted    -0.8345386E-07 ( -64.32%)
   displ. norm   :     0.0127572 α      lambda       -0.1794667E-06
   maximum displ.:     0.0098298 α      in ANC's #1, #4, #2, ...

........................................................................
.............................. CYCLE   42 ..............................
........................................................................

 iter      E             dE          RMSdq      gap      omega  full diag
   1    -97.3837792 -0.973838E+02  0.238E-03    1.52       0.0  T
   2    -97.3837792 -0.147070E-08  0.138E-03    1.52       9.7  T
   3    -97.3837792  0.112651E-08  0.190E-04    1.52      70.3  T
   4    -97.3837792 -0.165633E-08  0.514E-05    1.52     260.2  T
     SCC iter.                  ...        0 min,  0.023 sec
     gradient                   ...        0 min,  0.006 sec
 * total energy  :   -95.5544620 Eh     change       -0.2556138E-06 Eh
   gradient norm :     0.0000789 Eh/α   predicted    -0.9361600E-07 ( -63.38%)
   displ. norm   :     0.0132503 α      lambda       -0.1683432E-06
   maximum displ.:     0.0102830 α      in ANC's #1, #4, #2, ...
 * RMSD in coord.:     0.0344109 α      energy gain  -0.7742171E-05 Eh

generating ANC from exact Hessian ...
Using Lindh-Hessian (1995)
 Shifting diagonal of input Hessian by   9.812017812935737E-003
 Lowest  eigenvalues of input Hessian
    0.000000    0.000000    0.000000    0.000000    0.000000    0.000000
    0.010000    0.010084    0.010181    0.010303    0.010338    0.010779
    0.010970    0.011297    0.011590    0.011811    0.012533    0.013205
 Highest eigenvalues
    2.072767    2.195721    2.212777    2.620003    2.628341    2.628358
 

........................................................................
.............................. CYCLE   43 ..............................
........................................................................

 iter      E             dE          RMSdq      gap      omega  full diag
   1    -97.3837573 -0.973838E+02  0.258E-03    1.52       0.0  T
   2    -97.3837573 -0.202348E-08  0.150E-03    1.52       8.9  T
   3    -97.3837573  0.200359E-08  0.243E-04    1.52      55.0  T
   4    -97.3837573 -0.282219E-08  0.606E-05    1.52     220.5  T
     SCC iter.                  ...        0 min,  0.023 sec
     gradient                   ...        0 min,  0.006 sec
 * total energy  :   -95.5544623 Eh     change       -0.2395326E-06 Eh
   gradient norm :     0.0000466 Eh/α   predicted     0.0000000E+00 (-100.00%)
   displ. norm   :     0.0000699 α      lambda        0.0000000E+00
   maximum displ.:     0.0000322 α      in ANC's #1, #160, #161, ...

........................................................................
.............................. CYCLE   44 ..............................
........................................................................

 iter      E             dE          RMSdq      gap      omega  full diag
   1    -97.3837629 -0.973838E+02  0.831E-05    1.52       0.0  T
   2    -97.3837629 -0.464127E-10  0.513E-05    1.52     260.3  T
   3    -97.3837629 -0.420641E-11  0.329E-05    1.52     406.3  T
     SCC iter.                  ...        0 min,  0.018 sec
     gradient                   ...        0 min,  0.006 sec
 * total energy  :   -95.5544623 Eh     change       -0.8950849E-09 Eh
   gradient norm :     0.0000852 Eh/α   predicted    -0.1111557E-08 (  24.18%)
   displ. norm   :     0.0000699 α      lambda        0.0000000E+00
   maximum displ.:     0.0000322 α      in ANC's #1, #160, #161, ...

   *** GEOMETRY OPTIMIZATION CONVERGED AFTER 44 ITERATIONS ***

------------------------------------------------------------------------
 total energy gain   :        -0.0001343 Eh       -0.0843 kcal/mol
 total RMSD          :         0.1646496 a0        0.0871 Å
 total power (kW/mol):        -0.0080141 (step)   -0.2161 (real)
------------------------------------------------------------------------

 ANCopt (total)                0 d,  0 h,  0 min,  1.632 sec
 optimizer setup                ...        0 min,  0.000 sec (  0.010%)
 model hessian                  ...        0 min,  0.059 sec (  3.588%)
 ANC generation                 ...        0 min,  0.009 sec (  0.545%)
 coordinate transformation      ...        0 min,  0.005 sec (  0.291%)
 single point calculation       ...        0 min,  1.538 sec ( 94.240%)
 optimization log               ...        0 min,  0.009 sec (  0.532%)
 hessian update                 ...        0 min,  0.005 sec (  0.288%)
 rational function              ...        0 min,  0.004 sec (  0.260%)

================
 final structure:
================
56
 xtb: 6.7.1 (edcfbbe)
N           -4.17956036531822        7.23360151516265       -0.98099850397992
C           -3.65788001517806        6.22080718090317       -0.84197509175440
C           -3.01176005722300        4.97642433862351       -0.66963933587915
C           -3.34732187787981        3.89644520788532       -1.48828480940662
C           -2.71538124386920        2.68235352062237       -1.31363133469998
C           -1.74246504935858        2.52611452393574       -0.32781729153683
C           -1.05360332033370        1.23698311743954       -0.14691025816924
C            0.33177275445268        1.19778467599145       -0.12759997409903
C            1.01007180062642       -0.01339431607041       -0.00585721252628
N            2.41355229639952       -0.04108006489249       -0.00537685770291
C            3.14203068964709        0.65502099080981        0.96825128469587
C            2.52770893528459        1.34637606060345        2.00554310276733
C            3.27867416602358        2.02244318556304        2.95496891051778
C            4.65782446677852        2.00842945097413        2.89291082376010
C            5.28783477675273        1.28919013760170        1.88858153882343
C            4.54194817588025        0.60996033842158        0.94180917272232
O            5.24054843214523       -0.11603679211795        0.00763262929721
C            4.51320665462154       -0.80521893758102       -0.93241280384481
C            5.23052212458285       -1.52477117656112       -1.87145293517132
C            4.57224527909202       -2.21081976599093       -2.88087403139077
C            3.19498571105691       -2.15055207564710       -2.95629557615647
C            2.47237992381832       -1.43423116426013       -2.01440222001179
C            3.11322631234298       -0.77554948115636       -0.97186099507017
C            0.28592116181464       -1.19773479279505        0.11591738692643
C           -1.09992524233996       -1.18485224004934        0.13481363024314
C           -1.83569723354252       -2.44721381458773        0.31897010887350
C           -1.53062605933765       -3.55115002155529       -0.47681839831690
C           -2.20168599397247       -4.74467016791719       -0.30974820886299
C           -3.18739899448432       -4.85144031417910        0.67361100938731
C           -3.87321781545153       -6.07320353429784        0.85424901318156
N           -4.42639308222577       -7.06815652977285        1.00017754372837
C           -3.49085241898046       -3.75429670459607        1.48187016549016
C           -2.81804809799210       -2.56325931474910        1.30103502488245
C           -1.77759412065398        0.03945331566791       -0.00648363077208
C           -3.18870861607983        0.06666311888200       -0.00728980434382
N           -4.33743883113406        0.08855974430706       -0.00794614463594
C           -1.40351614127997        3.61334560350487        0.47708291878622
C           -2.03418878885809        4.82962824307240        0.31665541797263
H           -4.09858665578923        4.01753599899730       -2.25430919970673
H           -2.96817471450738        1.85332719075440       -1.95736537860688
H            0.89127761301915        2.11332287357975       -0.24628223595900
H            1.45219845381151        1.34667840774673        2.08328389193640
H            2.77340675586474        2.55490730937526        3.74602096088629
H            5.24800948771573        2.53750643851657        3.62428548910990
H            6.36320025860687        1.23435161218453        1.82500640672010
H            6.30661989525461       -1.52786707300094       -1.79764147349166
H            5.14003941691228       -2.77213495460876       -3.60591087601545
H            2.66941575314216       -2.65635074311075       -3.75162346950699
H            1.39912372477101       -1.37692296699630       -2.10213073256222
H            0.81070766009234       -2.13352376468250        0.23523298423940
H           -0.77387555786468       -3.46604249170629       -1.24219850835976
H           -1.97166314189500       -5.59705293977301       -0.93160491662864
H           -4.24916655564012       -3.84423087836490        2.24522958960396
H           -3.04572320530987       -1.72166380799420        1.93778458430525
H           -0.65329736557394        3.49723614073602        1.24481940209841
H           -1.77904303693418        5.66909143805224        0.94621107761385
 
 Bond Distances (Angstroems)
 ---------------------------
N1-C2=1.1477         C2-N1=1.1477         C2-C3=1.4127         C3-C2=1.4127         C3-C4=1.3961         C3-C38=1.3964        
C4-C3=1.3961         C4-C5=1.3798         C4-H39=1.0797        C5-C4=1.3798         C5-C6=1.3938         C5-H40=1.0796        
C6-C5=1.3938         C6-C7=1.4728         C6-C37=1.3946        C7-C6=1.4728         C7-C8=1.3861         C7-C34=1.4064        
C8-C7=1.3861         C8-C9=1.3935         C8-H41=1.0795        C9-C8=1.3935         C9-N10=1.4038        C9-C24=1.3935        
N10-C9=1.4038        N10-C11=1.4011       N10-C23=1.4011       C11-N10=1.4011       C11-C12=1.3897       C11-C16=1.4009       
C12-C11=1.3897       C12-C13=1.3865       C12-H42=1.0783       C13-C12=1.3865       C13-C14=1.3806       C13-H43=1.0792       
C14-C13=1.3806       C14-C15=1.3867       C14-H44=1.0785       C15-C14=1.3867       C15-C16=1.3835       C15-H45=1.0786       
C16-C11=1.4009       C16-C15=1.3835       C16-O17=1.3740       O17-C16=1.3740       O17-C18=1.3739       C18-O17=1.3739       
C18-C19=1.3835       C18-C23=1.4009       C19-C18=1.3835       C19-C20=1.3867       C19-H46=1.0786       C20-C19=1.3867       
C20-C21=1.3806       C20-H47=1.0785       C21-C20=1.3806       C21-C22=1.3865       C21-H48=1.0792       C22-C21=1.3865       
C22-C23=1.3898       C22-H49=1.0784       C23-N10=1.4011       C23-C18=1.4009       C23-C22=1.3898       C24-C9=1.3935        
C24-C25=1.3860       C24-H50=1.0795       C25-C24=1.3860       C25-C26=1.4727       C25-C34=1.4065       C26-C25=1.4727       
C26-C27=1.3946       C26-C33=1.3939       C27-C26=1.3946       C27-C28=1.3794       C27-H51=1.0797       C28-C27=1.3794       
C28-C29=1.3964       C28-H52=1.0799       C29-C28=1.3964       C29-C30=1.4127       C29-C32=1.3961       C30-C29=1.4127       
C30-N31=1.1477       N31-C30=1.1477       C32-C29=1.3961       C32-C33=1.3798       C32-H53=1.0797       C33-C26=1.3939       
C33-C32=1.3798       C33-H54=1.0796       C34-C7=1.4064        C34-C25=1.4065       C34-C35=1.4114       C35-C34=1.4114       
C35-N36=1.1489       N36-C35=1.1489       C37-C6=1.3946        C37-C38=1.3794       C37-H55=1.0797       C38-C3=1.3964        
C38-C37=1.3794       C38-H56=1.0799       H39-C4=1.0797        H40-C5=1.0796        H41-C8=1.0795        H42-C12=1.0783       
H43-C13=1.0792       H44-C14=1.0785       H45-C15=1.0786       H46-C19=1.0786       H47-C20=1.0785       H48-C21=1.0792       
H49-C22=1.0784       H50-C24=1.0795       H51-C27=1.0797       H52-C28=1.0799       H53-C32=1.0797       H54-C33=1.0796       
H55-C37=1.0797       H56-C38=1.0799       
 C  H  Rav=1.0792 sigma=0.0006  Rmin=1.0783  Rmax=1.0799    18
 C  C  Rav=1.3969 sigma=0.0209  Rmin=1.3794  Rmax=1.4728    35
 N  C  Rav=1.2751 sigma=0.1269  Rmin=1.1477  Rmax=1.4038     6
 O  C  Rav=1.3740 sigma=0.0000  Rmin=1.3739  Rmax=1.3740     2
 
 selected bond angles (degree)
 --------------------
C3-C2-N1=179.81                C4-C3-C2=120.00                C38-C3-C2=119.93               C38-C3-C4=120.07               
C5-C4-C3=119.76                H39-C4-C3=119.77               H39-C4-C5=120.47               C6-C5-C4=120.52                
H40-C5-C4=119.53               H40-C5-C6=119.94               C7-C6-C5=120.76                C37-C6-C5=119.37               
C37-C6-C7=119.86               C8-C7-C6=119.60                C34-C7-C6=121.12               C34-C7-C8=119.28               
C9-C8-C7=120.82                H41-C8-C7=119.51               H41-C8-C9=119.63               N10-C9-C8=120.25               
C24-C9-C8=119.56               C24-C9-N10=120.18              C11-N10-C9=120.68              C23-N10-C9=120.62              
C23-N10-C11=118.69             
 
 selected dihedral angles (degree)
 ---------------------------------
C4-C3-C2-N1=213.89            C38-C3-C2-N1= 33.66           C5-C4-C3-C2=180.15            C5-C4-C3-C38=  0.39           
H39-C4-C3-C2=  0.23           H39-C4-C3-C38=180.46          C6-C5-C4-C3=359.87            C6-C5-C4-H39=179.80           
H40-C5-C4-C3=180.82           H40-C5-C4-H39=  0.74          C7-C6-C5-C4=180.71            C7-C6-C5-H40=359.76           
C37-C6-C5-C4=359.50           C37-C6-C5-H40=178.55          C8-C7-C6-C5=127.81            C8-C7-C6-C37=309.03           
C34-C7-C6-C5=308.46           C34-C7-C6-C37=129.68          C9-C8-C7-C6=182.30            C9-C8-C7-C34=  1.66           
H41-C8-C7-C6=359.95           H41-C8-C7-C34=179.31          N10-C9-C8-C7=179.16           N10-C9-C8-H41=  1.51          
C24-C9-C8-C7=359.14           C24-C9-C8-H41=181.49          C11-N10-C9-C8= 59.67          C11-N10-C9-C24=239.69         
C23-N10-C9-C8=239.10          C23-N10-C9-C24= 59.12         
           -------------------------------------------------
          |                Final Singlepoint                |
           -------------------------------------------------

          ...................................................
          :                      SETUP                      :
          :.................................................:
          :  # basis functions                 170          :
          :  # atomic orbitals                 170          :
          :  # shells                           94          :
          :  # electrons                       176          :
          :  max. iterations                   250          :
          :  Hamiltonian                  GFN2-xTB          :
          :  restarted?                      false          :
          :  GBSA solvation                   true          :
          :  PC potential                    false          :
          :  electronic temp.          300.0000000     K    :
          :  accuracy                    1.0000000          :
          :  -> integral cutoff          0.2500000E+02      :
          :  -> integral neglect         0.1000000E-07      :
          :  -> SCF convergence          0.1000000E-05 Eh   :
          :  -> wf. convergence          0.1000000E-03 e    :
          :  Broyden damping             0.4000000          :
          :  net charge                          0          :
          :  unpaired electrons                  0          :
          ...................................................

 iter      E             dE          RMSdq      gap      omega  full diag
   1    -97.3837629 -0.973838E+02  0.112E-05    1.52       0.0  T
   2    -97.3837629 -0.724754E-12  0.909E-06    1.52    1470.8  T
   3    -97.3837629 -0.414957E-11  0.246E-06    1.52    5423.5  T

   *** convergence criteria satisfied after 3 iterations ***

         #    Occupation            Energy/Eh            Energy/eV
      -------------------------------------------------------------
         1        2.0000           -0.7378822             -20.0788
       ...           ...                  ...                  ...
        82        2.0000           -0.4310971             -11.7307
        83        2.0000           -0.4239773             -11.5370
        84        2.0000           -0.4218449             -11.4790
        85        2.0000           -0.4211630             -11.4604
        86        2.0000           -0.4161319             -11.3235
        87        2.0000           -0.3990322             -10.8582
        88        2.0000           -0.3542090              -9.6385 (HOMO)
        89                         -0.2984007              -8.1199 (LUMO)
        90                         -0.2923251              -7.9546
        91                         -0.2732906              -7.4366
        92                         -0.2520858              -6.8596
        93                         -0.2515852              -6.8460
       ...                                ...                  ...
       170                          1.1547670              31.4228
      -------------------------------------------------------------
                  HL-Gap            0.0558083 Eh            1.5186 eV
             Fermi-level           -0.3263049 Eh           -8.8792 eV

 SCC (total)                   0 d,  0 h,  0 min,  0.028 sec
 SCC setup                      ...        0 min,  0.000 sec (  1.515%)
 Dispersion                     ...        0 min,  0.001 sec (  1.927%)
 classical contributions        ...        0 min,  0.000 sec (  0.097%)
 integral evaluation            ...        0 min,  0.002 sec (  8.061%)
 iterations                     ...        0 min,  0.018 sec ( 65.306%)
 molecular gradient             ...        0 min,  0.006 sec ( 21.617%)
 printout                       ...        0 min,  0.000 sec (  1.165%)

         :::::::::::::::::::::::::::::::::::::::::::::::::::::
         ::                     SUMMARY                     ::
         :::::::::::::::::::::::::::::::::::::::::::::::::::::
         :: total energy             -95.554462278749 Eh    ::
         :: total w/o Gsasa/hb       -95.513862646315 Eh    ::
         :: gradient norm              0.000088636507 Eh/a0 ::
         :: HOMO-LUMO gap              1.518621307319 eV    ::
         ::.................................................::
         :: SCC energy               -97.383886843364 Eh    ::
         :: -> isotropic ES            0.052646970909 Eh    ::
         :: -> anisotropic ES          0.007965368023 Eh    ::
         :: -> anisotropic XC          0.088016497143 Eh    ::
         :: -> dispersion             -0.077629015046 Eh    ::
         :: -> Gsolv                  -0.049780801851 Eh    ::
         ::    -> Gelec               -0.009181169417 Eh    ::
         ::    -> Gsasa               -0.045123512305 Eh    ::
         ::    -> Ghb                  0.000000000000 Eh    ::
         ::    -> Gshift               0.004523879872 Eh    ::
         :: repulsion energy           1.829424564616 Eh    ::
         :: add. restraining           0.000000000000 Eh    ::
         :: total charge               0.000000000000 e     ::
         :::::::::::::::::::::::::::::::::::::::::::::::::::::

           ------------------------------------------------- 
          |                Numerical Hessian                |
           ------------------------------------------------- 
step length          :   0.00500
SCC accuracy         :   0.30000
Hessian scale factor :   1.00000
frozen atoms in %    :   0.00000    0
RMS gradient         :   0.00009
estimated CPU  time      9.31 min
estimated wall time      0.23 min

writing file <hessian>.

 projected vibrational frequencies (cm⁻¹)
eigval :       -0.00    -0.00    -0.00     0.00     0.00     0.00
eigval :       11.23    18.69    21.36    27.88    28.88    40.28
eigval :       49.87    55.05    58.26    78.00    99.85   107.68
eigval :      119.46   119.52   139.13   150.00   151.23   163.92
eigval :      199.08   208.98   244.08   246.97   255.85   269.48
eigval :      276.90   288.28   290.09   300.66   335.90   365.93
eigval :      368.38   389.63   390.94   420.55   427.36   432.37
eigval :      444.25   463.23   488.50   493.28   502.31   507.39
eigval :      521.09   526.78   532.84   534.05   540.75   547.20
eigval :      571.05   578.40   581.24   605.18   612.79   621.01
eigval :      637.51   644.94   658.29   660.10   679.19   690.04
eigval :      698.36   706.65   728.23   765.55   777.71   778.78
eigval :      786.41   815.94   817.09   824.18   853.95   855.46
eigval :      861.45   864.17   865.48   865.75   875.89   895.62
eigval :      900.38   906.07   914.36   914.91   915.89   917.92
eigval :      918.88   924.07   924.88   967.18  1012.72  1016.06
eigval :     1059.06  1090.07  1091.10  1106.75  1119.15  1134.75
eigval :     1135.75  1162.82  1165.91  1173.24  1182.31  1185.54
eigval :     1186.38  1198.92  1201.51  1215.27  1221.77  1235.39
eigval :     1241.33  1251.01  1258.76  1263.18  1263.78  1273.92
eigval :     1303.15  1307.13  1310.86  1311.13  1328.20  1339.65
eigval :     1364.78  1388.81  1390.06  1414.06  1424.10  1432.96
eigval :     1443.21  1477.91  1480.56  1480.97  1499.09  1526.39
eigval :     1546.99  1549.35  1557.59  1567.28  1578.56  1586.65
eigval :     1586.81  1588.30  1600.31  2347.23  2364.22  2364.70
eigval :     3085.84  3086.10  3088.43  3088.67  3088.85  3088.91
eigval :     3096.46  3096.59  3097.65  3097.75  3098.77  3099.46
eigval :     3099.61  3099.73  3105.53  3105.93  3110.43  3111.12
           -------------------------------------------------
          |                Property Printout                |
           -------------------------------------------------

    * Orbital Energies and Occupations

         #    Occupation            Energy/Eh            Energy/eV
      -------------------------------------------------------------
         1        2.0000           -0.7378822             -20.0788
       ...           ...                  ...                  ...
        76        2.0000           -0.4366727             -11.8825
        77        2.0000           -0.4347105             -11.8291
        78        2.0000           -0.4345854             -11.8257
        79        2.0000           -0.4342580             -11.8168
        80        2.0000           -0.4341887             -11.8149
        81        2.0000           -0.4318859             -11.7522
        82        2.0000           -0.4310971             -11.7307
        83        2.0000           -0.4239773             -11.5370
        84        2.0000           -0.4218449             -11.4790
        85        2.0000           -0.4211630             -11.4604
        86        2.0000           -0.4161319             -11.3235
        87        2.0000           -0.3990322             -10.8582
        88        2.0000           -0.3542090              -9.6385 (HOMO)
        89                         -0.2984007              -8.1199 (LUMO)
        90                         -0.2923251              -7.9546
        91                         -0.2732905              -7.4366
        92                         -0.2520858              -6.8596
        93                         -0.2515852              -6.8460
        94                         -0.2506172              -6.8196
        95                         -0.2469378              -6.7195
        96                         -0.2382337              -6.4827
        97                         -0.2248966              -6.1197
        98                         -0.2211167              -6.0169
        99                         -0.2183307              -5.9411
       ...                                ...                  ...
       170                          1.1547670              31.4228
[...]
    56   1 H        0.926     0.052     2.293     2.368

 Mol. C6AA /au·bohr⁶  :      51496.809043
 Mol. C8AA /au·bohr⁸  :    1324125.028490
 Mol. α(0) /au        :        364.974649


MOs/occ written to file <molden.input>


molecular dipole:
                 x           y           z       tot (Debye)
 q only:        2.419      -0.041      -0.007
   full:        3.126      -0.055      -0.009       7.946
molecular quadrupole (traceless):
                xx          xy          yy          xz          yz          zz
 q only:      -13.220      -0.141     -28.739       0.349      16.819      41.959
  q+dip:      -11.264      -0.441     -39.993       0.536      24.120      51.257
   full:      -14.815      -0.326     -42.077       0.450      20.802      56.892

           -------------------------------------------------
          |                Geometry Summary                 |
           -------------------------------------------------

      molecular mass/u    :      486.5234360
   center of mass at/Å    :        0.0006369       0.0001479      -0.0001528
  moments of inertia/u·Å² :        0.5904580E+04   0.6191936E+04   0.1031995E+05
rotational constants/cm⁻¹ :        0.2855010E-02   0.2722514E-02   0.1633499E-02

 * 56 selected distances

     #   Z          #   Z                                           value/Å
     1   7 N        2   6 C                                       1.1477066
     3   6 C        4   6 C                                       1.3961151
     4   6 C        5   6 C                                       1.3798086
     5   6 C        6   6 C                                       1.3938458
     7   6 C        8   6 C                                       1.3860652
     8   6 C        9   6 C                                       1.3935085
     9   6 C       10   7 N                                       1.4037538
    10   7 N       11   6 C                                       1.4011387
    11   6 C       12   6 C                                       1.3897258
    12   6 C       13   6 C                                       1.3865155
    13   6 C       14   6 C                                       1.3806171
    14   6 C       15   6 C                                       1.3866852
    11   6 C       16   6 C                                       1.4008922
    15   6 C       16   6 C                                       1.3835022
    16   6 C       17   8 O                                       1.3739725
    17   8 O       18   6 C                                       1.3739301
    18   6 C       19   6 C                                       1.3835077
    19   6 C       20   6 C                                       1.3866948
    20   6 C       21   6 C                                       1.3806393
    21   6 C       22   6 C                                       1.3865202
    10   7 N       23   6 C                                       1.4010999
    18   6 C       23   6 C                                       1.4008504
    22   6 C       23   6 C                                       1.3897619
     9   6 C       24   6 C                                       1.3935157
    24   6 C       25   6 C                                       1.3860352
    26   6 C       27   6 C                                       1.3946409
    27   6 C       28   6 C                                       1.3793928
    28   6 C       29   6 C                                       1.3964332
    30   6 C       31   7 N                                       1.1477063
    29   6 C       32   6 C                                       1.3960986
    26   6 C       33   6 C                                       1.3938908
    32   6 C       33   6 C                                       1.3798324
     7   6 C       34   6 C                                       1.4063998
    25   6 C       34   6 C                                       1.4064581 (max)
    35   6 C       36   7 N                                       1.1489392
     6   6 C       37   6 C                                       1.3945689
     3   6 C       38   6 C                                       1.3964141
    37   6 C       38   6 C                                       1.3794306
     4   6 C       39   1 H                                       1.0797478
     5   6 C       40   1 H                                       1.0796217
     8   6 C       41   1 H                                       1.0795099
    12   6 C       42   1 H                                       1.0783166 (min)
    13   6 C       43   1 H                                       1.0791556
    14   6 C       44   1 H                                       1.0784943
    15   6 C       45   1 H                                       1.0786381
    19   6 C       46   1 H                                       1.0786308
    20   6 C       47   1 H                                       1.0784913
    21   6 C       48   1 H                                       1.0791676
    22   6 C       49   1 H                                       1.0783597
    24   6 C       50   1 H                                       1.0795084
    27   6 C       51   1 H                                       1.0796859
    28   6 C       52   1 H                                       1.0798948
    32   6 C       53   1 H                                       1.0797436
    33   6 C       54   1 H                                       1.0796153
    37   6 C       55   1 H                                       1.0796894
    38   6 C       56   1 H                                       1.0798789

 * 4 distinct bonds (by element types)

   Z      Z             #   av. dist./Å        max./Å        min./Å
   1 H    6 C          18     1.0792305     1.0798948     1.0783166
   6 C    6 C          30     1.3902789     1.4064581     1.3793928
   6 C    7 N           6     1.2750574     1.4037538     1.1477063
   6 C    8 O           2     1.3739513     1.3739725     1.3739301

           -------------------------------------------------
          |               Frequency Printout                |
           -------------------------------------------------
 projected vibrational frequencies (cm⁻¹)
eigval :       -0.00    -0.00    -0.00     0.00     0.00     0.00
eigval :       11.23    18.69    21.36    27.88    28.88    40.28
eigval :       49.87    55.05    58.26    78.00    99.85   107.68
eigval :      119.46   119.52   139.13   150.00   151.23   163.92
eigval :      199.08   208.98   244.08   246.97   255.85   269.48
eigval :      276.90   288.28   290.09   300.66   335.90   365.93
eigval :      368.38   389.63   390.94   420.55   427.36   432.37
eigval :      444.25   463.23   488.50   493.28   502.31   507.39
eigval :      521.09   526.78   532.84   534.05   540.75   547.20
eigval :      571.05   578.40   581.24   605.18   612.79   621.01
eigval :      637.51   644.94   658.29   660.10   679.19   690.04
eigval :      698.36   706.65   728.23   765.55   777.71   778.78
eigval :      786.41   815.94   817.09   824.18   853.95   855.46
eigval :      861.45   864.17   865.48   865.75   875.89   895.62
eigval :      900.38   906.07   914.36   914.91   915.89   917.92
eigval :      918.88   924.07   924.88   967.18  1012.72  1016.06
eigval :     1059.06  1090.07  1091.10  1106.75  1119.15  1134.75
eigval :     1135.75  1162.82  1165.91  1173.24  1182.31  1185.54
eigval :     1186.38  1198.92  1201.51  1215.27  1221.77  1235.39
eigval :     1241.33  1251.01  1258.76  1263.18  1263.78  1273.92
eigval :     1303.15  1307.13  1310.86  1311.13  1328.20  1339.65
eigval :     1364.78  1388.81  1390.06  1414.06  1424.10  1432.96
eigval :     1443.21  1477.91  1480.56  1480.97  1499.09  1526.39
eigval :     1546.99  1549.35  1557.59  1567.28  1578.56  1586.65
eigval :     1586.81  1588.30  1600.31  2347.23  2364.22  2364.70
eigval :     3085.84  3086.10  3088.43  3088.67  3088.85  3088.91
eigval :     3096.46  3096.59  3097.65  3097.75  3098.77  3099.46
eigval :     3099.61  3099.73  3105.53  3105.93  3110.43  3111.12
 reduced masses (amu)
   1: 12.19   2: 11.96   3: 11.96   4: 11.97   5: 12.04   6: 12.02   7: 11.31   8: 11.95
   9: 12.12  10: 12.67  11: 11.17  12: 11.88  13: 10.17  14: 12.15  15: 11.82  16: 11.67
  17: 12.44  18: 10.75  19: 12.05  20: 11.43  21: 12.59  22: 11.55  23: 12.18  24: 11.53
  25: 11.94  26: 11.81  27: 12.30  28: 10.46  29: 11.16  30: 11.64  31: 11.67  32: 11.37
  33: 11.49  34: 10.83  35: 11.61  36:  8.95  37:  8.94  38: 11.21  39: 11.33  40: 10.82
  41: 10.29  42: 10.62  43: 10.58  44: 11.67  45: 12.04  46: 11.68  47: 12.06  48: 10.22
  49: 10.95  50: 11.73  51: 11.65  52: 11.60  53: 10.72  54: 10.31  55: 12.13  56: 11.57
  57: 10.61  58: 11.27  59: 10.94  60: 11.30  61: 11.61  62: 11.23  63: 11.66  64: 11.77
  65: 11.46  66: 11.36  67: 11.33  68: 11.34  69: 11.57  70: 11.88  71:  3.30  72:  3.26
  73: 11.71  74:  5.33  75:  5.14  76: 11.68  77: 11.79  78:  4.84  79: 10.40  80:  3.59
  81:  3.29  82:  3.45  83:  3.59  84:  3.82  85:  3.93  86:  3.48  87:  3.95  88:  3.03
  89:  5.34  90:  7.54  91:  3.38  92:  4.13  93:  3.99  94: 11.63  95:  8.91  96:  9.65
  97:  8.22  98:  5.49  99:  5.89 100:  8.65 101:  8.29 102:  3.19 103:  3.12 104:  6.62
 105:  3.81 106:  1.99 107:  2.90 108:  2.57 109:  2.60 110:  6.92 111:  7.85 112:  9.10
 113:  5.09 114:  8.89 115:  5.11 116:  9.06 117:  5.15 118:  3.22 119:  3.21 120:  9.80
 121: 11.53 122: 11.74 123: 11.67 124: 11.65 125: 10.61 126: 11.46 127: 11.18 128: 10.06
 129: 10.05 130:  9.99 131:  9.80 132: 10.41 133: 10.01 134: 10.45 135:  9.99 136:  9.93
 137: 10.46 138: 11.80 139: 11.56 140: 11.66 141: 11.57 142: 11.49 143: 11.58 144: 11.50
 145: 11.53 146: 11.58 147: 11.73 148: 12.79 149: 12.79 150: 12.79 151:  1.79 152:  1.79
 153:  1.77 154:  1.79 155:  1.78 156:  1.77 157:  1.88 158:  1.88 159:  1.81 160:  1.82
 161:  1.83 162:  1.88 163:  1.87 164:  1.86 165:  1.85 166:  1.85 167:  1.91 168:  1.91
 IR intensities (km·mol⁻¹)
   1:  0.21   2:  0.09   3:  0.18   4:  0.03   5:  0.14   6:  0.03   7:  0.51   8:  1.01
   9:  1.18  10:  1.70  11:  0.86  12:  0.28  13:  0.12  14:  2.46  15:  2.26  16:  1.05
  17: 12.93  18:  4.01  19:  2.32  20: 14.16  21:  8.23  22:  3.68  23:  5.53  24:  0.01
  25:  0.68  26:  1.96  27:  0.61  28:  7.02  29:  2.72  30:  3.78  31:  3.40  32:  3.01
  33:  0.14  34: 16.96  35:  3.98  36:  0.05  37:  0.06  38:  0.19  39:  0.00  40:  0.13
  41: 13.46  42:  0.02  43:  1.85  44:  2.48  45:  1.10  46:  0.25  47:  7.59  48:  6.31
  49:  1.72  50:  4.83  51:  3.90  52:  5.83  53:  3.66  54: 12.76  55: 13.35  56:  0.13
  57:  1.59  58:  1.18  59: 11.75  60:  2.47  61:  0.64  62:  5.80  63:  8.93  64:  0.61
  65:  0.87  66:  3.44  67:  0.33  68:  0.23  69: 14.08  70: 10.47  71: 32.98  72: 53.66
  73:  2.12  74: 15.78  75: 21.13  76: 34.99  77: 24.84  78:  2.01  79:  0.93  80:  0.19
  81:  1.52  82:  1.17  83:  0.71  84:  2.91  85:  3.91  86:  1.65  87:  8.71  88:  0.31
  89: 12.78  90: 35.94  91:  4.78  92:  2.58  93:  0.58  94:  5.35  95:  0.98  96:  0.75
  97:  8.36  98:  1.42  99: 10.49 100:  4.68 101: 52.45 102:  1.35 103:  0.76 104:  0.10
 105:  1.44 106:  1.16 107:  1.55 108:  5.06 109:  2.52 110: 36.33 111:249.23 112: 54.33
 113:  4.78 114:  0.07 115: 27.15 116: 54.03 117: 14.73 118:  0.69 119:  0.74 120:209.24
 121:472.40 122: 41.88 123:  4.16 124:  7.04 125:261.99 126:149.48 127:396.21 128:  6.47
 129:  1.00 130:  2.00 131:  1.91 132: 29.58 133:  8.10 134:815.38 135:  6.80 136:  8.42
 137: 35.58 138: 46.17 139:134.71 140:  0.74 141:457.22 142:  5.75 143: 21.84 144: 73.38
 145: 66.26 146:  5.56 147:  7.87 148:616.70 149:798.32 150:258.63 151:  6.92 152:  4.92
 153:  9.52 154: 25.13 155: 10.03 156: 13.93 157: 44.36 158: 23.22 159: 59.08 160: 57.28
 161: 11.78 162: 32.21 163: 32.80 164:  1.68 165:  9.19 166:141.64 167: 69.41 168: 22.34
 Raman intensities (Ä⁴*amu⁻¹)
   1:  0.00   2:  0.00   3:  0.00   4:  0.00   5:  0.00   6:  0.00   7:  0.00   8:  0.00
   9:  0.00  10:  0.00  11:  0.00  12:  0.00  13:  0.00  14:  0.00  15:  0.00  16:  0.00
  17:  0.00  18:  0.00  19:  0.00  20:  0.00  21:  0.00  22:  0.00  23:  0.00  24:  0.00
  25:  0.00  26:  0.00  27:  0.00  28:  0.00  29:  0.00  30:  0.00  31:  0.00  32:  0.00
  33:  0.00  34:  0.00  35:  0.00  36:  0.00  37:  0.00  38:  0.00  39:  0.00  40:  0.00
  41:  0.00  42:  0.00  43:  0.00  44:  0.00  45:  0.00  46:  0.00  47:  0.00  48:  0.00
  49:  0.00  50:  0.00  51:  0.00  52:  0.00  53:  0.00  54:  0.00  55:  0.00  56:  0.00
  57:  0.00  58:  0.00  59:  0.00  60:  0.00  61:  0.00  62:  0.00  63:  0.00  64:  0.00
  65:  0.00  66:  0.00  67:  0.00  68:  0.00  69:  0.00  70:  0.00  71:  0.00  72:  0.00
  73:  0.00  74:  0.00  75:  0.00  76:  0.00  77:  0.00  78:  0.00  79:  0.00  80:  0.00
  81:  0.00  82:  0.00  83:  0.00  84:  0.00  85:  0.00  86:  0.00  87:  0.00  88:  0.00
  89:  0.00  90:  0.00  91:  0.00  92:  0.00  93:  0.00  94:  0.00  95:  0.00  96:  0.00
  97:  0.00  98:  0.00  99:  0.00 100:  0.00 101:  0.00 102:  0.00 103:  0.00 104:  0.00
 105:  0.00 106:  0.00 107:  0.00 108:  0.00 109:  0.00 110:  0.00 111:  0.00 112:  0.00
 113:  0.00 114:  0.00 115:  0.00 116:  0.00 117:  0.00 118:  0.00 119:  0.00 120:  0.00
 121:  0.00 122:  0.00 123:  0.00 124:  0.00 125:  0.00 126:  0.00 127:  0.00 128:  0.00
 129:  0.00 130:  0.00 131:  0.00 132:  0.00 133:  0.00 134:  0.00 135:  0.00 136:  0.00
 137:  0.00 138:  0.00 139:  0.00 140:  0.00 141:  0.00 142:  0.00 143:  0.00 144:  0.00
 145:  0.00 146:  0.00 147:  0.00 148:  0.00 149:  0.00 150:  0.00 151:  0.00 152:  0.00
 153:  0.00 154:  0.00 155:  0.00 156:  0.00 157:  0.00 158:  0.00 159:  0.00 160:  0.00
 161:  0.00 162:  0.00 163:  0.00 164:  0.00 165:  0.00 166:  0.00 167:  0.00 168:  0.00
 output can be read by thermo (or use thermo option).
 writing <g98.out> molden fake output.
 recommended (thermochemical) frequency scaling factor: 1.0
           -------------------------------------------------
          |             Thermodynamic Functions             |
           -------------------------------------------------

Molecule has the following symmetry elements: (C2) 
It seems to be the C2 point group
c2  symmetry found (for desy threshold:  0.10E+00) used in thermo

          ...................................................
          :                      SETUP                      :
          :.................................................:
          :  # frequencies                         162      :
          :  # imaginary freq.                       0      :
          :  linear?                             false      :
          :  only rotor calc.                    false      :
          :  symmetry                               c2      :
          :  rotational number                       2      :
          :  scaling factor                  1.0000000      :
          :  rotor cutoff                   50.0000000 cm⁻¹ :
          :  imag. cutoff                  -20.0000000 cm⁻¹ :
          :.................................................:

    mode    ω/cm⁻¹     T·S(HO)/kcal·mol⁻¹    T·S(FR)/kcal·mol⁻¹   T·S(vib)
   ------------------------------------------------------------------------
       1     11.23    -2.31975 (  0.25%)    -1.49890 ( 99.75%)    -1.50098
       2     18.69    -2.01804 (  1.92%)    -1.34800 ( 98.08%)    -1.36084
       3     21.36    -1.93892 (  3.23%)    -1.30842 ( 96.77%)    -1.32875
       4     27.88    -1.78142 (  8.81%)    -1.22958 ( 91.19%)    -1.27822
       5     28.88    -1.76062 ( 10.01%)    -1.21917 ( 89.99%)    -1.27337
       6     40.28    -1.56382 ( 29.64%)    -1.12055 ( 70.36%)    -1.25195
       7     49.87    -1.43781 ( 49.74%)    -1.05729 ( 50.26%)    -1.24658
       8     55.05    -1.37961 ( 59.50%)    -1.02804 ( 40.50%)    -1.23723
       9     58.26    -1.34620 ( 64.83%)    -1.01123 ( 35.17%)    -1.22841
      10     78.00    -1.17489 ( 85.55%)    -0.92481 ( 14.45%)    -1.13876
      11     99.85    -1.03077 ( 94.08%)    -0.85165 (  5.92%)    -1.02017
      12    107.68    -0.98694 ( 95.56%)    -0.82927 (  4.44%)    -0.97994
      13    119.46    -0.92698 ( 97.02%)    -0.79853 (  2.98%)    -0.92316
      14    119.52    -0.92671 ( 97.03%)    -0.79839 (  2.97%)    -0.92289
      15    139.13    -0.83953 ( 98.36%)    -0.75337 (  1.64%)    -0.83811
      16    150.00    -0.79671 ( 98.78%)    -0.73108 (  1.22%)    -0.79591
      17    151.23    -0.79208 ( 98.82%)    -0.72867 (  1.18%)    -0.79134
      18    163.92    -0.74659 ( 99.14%)    -0.70480 (  0.86%)    -0.74623
      19    199.08    -0.63853 ( 99.60%)    -0.64724 (  0.40%)    -0.63856
      20    208.98    -0.61196 ( 99.67%)    -0.63285 (  0.33%)    -0.61203
      21    244.08    -0.52859 ( 99.82%)    -0.58686 (  0.18%)    -0.52869
      22    246.97    -0.52238 ( 99.83%)    -0.58337 (  0.17%)    -0.52249
      23    255.85    -0.50385 ( 99.85%)    -0.57291 (  0.15%)    -0.50395
      24    269.48    -0.47689 ( 99.88%)    -0.55753 (  0.12%)    -0.47699
      25    276.90    -0.46295 ( 99.89%)    -0.54949 (  0.11%)    -0.46305
      26    288.28    -0.44246 ( 99.91%)    -0.53755 (  0.09%)    -0.44254
      27    290.09    -0.43931 ( 99.91%)    -0.53571 (  0.09%)    -0.43939
   ------------------------------------------------------------------------

   temp. (K)  partition function   enthalpy   heat capacity  entropy
                                   cal/mol     cal/K/mol   cal/K/mol   J/K/mol
 298.15  VIB  0.117E+15            17739.115    108.597    110.787
         ROT  0.235E+08              888.752      2.981     36.706
         INT  0.275E+22            18627.867    111.578    147.493
         TR   0.104E+29             1481.254      4.968     44.414
         TOT                       20109.1211   116.5459   191.9071   802.9394

       T/K    H(0)-H(T)+PV         H(T)/Eh          T*S/Eh         G(T)/Eh
   ------------------------------------------------------------------------
    298.15    0.320459E-01    0.435937E+00    0.911813E-01    0.344755E+00
   ------------------------------------------------------------------------

         :::::::::::::::::::::::::::::::::::::::::::::::::::::
         ::                  THERMODYNAMIC                  ::
         :::::::::::::::::::::::::::::::::::::::::::::::::::::
         :: total free energy         -95.209706779871 Eh   ::
         ::.................................................::
         :: total energy              -95.554462274513 Eh   ::
         :: zero point energy           0.403890835227 Eh   ::
         :: G(RRHO) w/o ZPVE           -0.059135340585 Eh   ::
         :: G(RRHO) contrib.            0.344755494642 Eh   ::
         :::::::::::::::::::::::::::::::::::::::::::::::::::::

optimized geometry written to: xtbopt.xyz


           -------------------------------------------------
          | TOTAL ENERGY              -95.554462274513 Eh   |
          | TOTAL ENTHALPY            -95.118525514953 Eh   |
          | TOTAL FREE ENERGY         -95.209706779871 Eh   |
          | GRADIENT NORM               0.000088580624 Eh/α |
          | HOMO-LUMO GAP               1.518621562665 eV   |
           -------------------------------------------------

------------------------------------------------------------------------
 * finished run on 2025/08/21 at 16:04:17.641     
------------------------------------------------------------------------
 total:
 * wall-time:     0 d,  0 h,  0 min,  3.484 sec
 *  cpu-time:     0 d,  0 h,  2 min, 12.517 sec
 * ratio c/w:    38.040 speedup
 SCF:
 * wall-time:     0 d,  0 h,  0 min,  0.117 sec
 *  cpu-time:     0 d,  0 h,  0 min,  4.562 sec
 * ratio c/w:    38.865 speedup
 ANC optimizer:
 * wall-time:     0 d,  0 h,  0 min,  1.661 sec
 *  cpu-time:     0 d,  0 h,  1 min,  6.415 sec
 * ratio c/w:    39.996 speedup
 analytical hessian:
 * wall-time:     0 d,  0 h,  0 min,  1.599 sec
 *  cpu-time:     0 d,  0 h,  0 min, 57.731 sec
 * ratio c/w:    36.111 speedup

