$hessian                                                                        
        0.2309459441  -0.0028440955  -0.1195783030  -0.1661930827   0.0131366905
        0.0506557621   0.0029636631   0.0135551419   0.0295319559  -0.0207621261
       -0.0340799529   0.0283191674  -0.0452645179   0.0096434784   0.0125690177
        0.0001466438   0.0029904509   0.0016275780   0.0011551296   0.0009530101
       -0.0016869410   0.0005494201   0.0003109023   0.0005253427   0.0009862513
       -0.0003778854  -0.0025051171  -0.0006246059   0.0014501531  -0.0000559376
        0.0012008572  -0.0008907742  -0.0000521132  -0.0001198008   0.0000069092
        0.0000193446  -0.0000224999   0.0001553451   0.0000878581  -0.0000999237
        0.0000983557  -0.0000289606   0.0002877482   0.0002183269  -0.0001051235
       -0.0002424174  -0.0001827830   0.0000504381   0.0000175724   0.0000266681
        0.0000193523  -0.0000482874   0.0000200427   0.0000055661  -0.0000224396
        0.0000118586  -0.0000073397  -0.0000151523   0.0000028366  -0.0000013615
       -0.0000182456   0.0000051415   0.0000004904   0.0000019487  -0.0000057123
       -0.0000039763  -0.0000026030   0.0000099464   0.0000006999  -0.0000086603
        0.0000044989  -0.0000047115  -0.0000075370   0.0000009903  -0.0000069743
       -0.0000030540   0.0000052745  -0.0000030188  -0.0000063066   0.0000001609
       -0.0000046771  -0.0000055253   0.0000054056  -0.0000009253  -0.0000044362
       -0.0000022098  -0.0000036810  -0.0000074327   0.0000066333   0.0000010735
       -0.0000087626   0.0000010998  -0.0000004146  -0.0000030557  -0.0000081966
       -0.0000048908   0.0000032214   0.0000042630   0.0000033680  -0.0000727560
       -0.0001171992   0.0000741947   0.0001536447  -0.0000917571   0.0000466689
       -0.0001345040   0.0008133058  -0.0000620567  -0.0001024573   0.0001713325
        0.0001221102  -0.0000640208  -0.0001886211   0.0000356190  -0.0000151087
        0.0000876606   0.0000290967  -0.0000134260  -0.0000033945   0.0000205392
        0.0000278010   0.0000017289  -0.0000178398   0.0000105786  -0.0000184587
       -0.0000207917   0.0000447829   0.0000994827  -0.0000029433  -0.0005153614
       -0.0007584235  -0.0001097247  -0.0002296732   0.0000654227  -0.0000429578
        0.0000568899  -0.0000087195  -0.0000326760   0.0000856067  -0.0000023337
        0.0000005034   0.0000401790  -0.0000645685   0.0000847905   0.0000144685
       -0.0001307110   0.0000949426   0.0000161728   0.0000349138  -0.0001099579
       -0.0026973985  -0.0032779265  -0.0014058767  -0.0004324677  -0.0003412235
        0.0008407292  -0.0000963907   0.0000033638  -0.0000752786  -0.0003340418
       -0.0001134494   0.0004089693   0.0000858795  -0.0000529423  -0.0000785221
        0.0000354973  -0.0000181587   0.0000037760   0.0000058722   0.0000087555
       -0.0000081910  -0.0000000032  -0.0000089953   0.0000086900   0.0000154776
       -0.0000159406  -0.0000024813   0.0000134322  -0.0000006379  -0.0000063250
        0.0000006612   0.0000078905   0.0000029410   0.0000054688  -0.0000032295
       -0.0000024859   0.0000108140  -0.0000108301  -0.0000015716   0.0000154367
        0.0000017645   0.0000105498   0.0000025534  -0.0000050601  -0.0000045633
        0.0000026633   0.0000007221  -0.0000047374   0.0000006396   0.0000014674
       -0.0000051228   0.0000012843   0.0000002510  -0.0000041805   0.0000011716
        0.0000010330  -0.0000012576   0.0000011876  -0.0000006380   0.0000001482
        0.0000044807   0.0000000231   0.0000033274   0.0000052829   0.0000034290
        0.0000054536  -0.0000298936   0.0000072546  -0.0000121343  -0.0000008410
        0.0000291456  -0.0000173336  -0.0000048074  -0.0000237798  -0.0000111310
        0.0000101930   0.0000139743  -0.0000102523  -0.0000014746   0.0000086010
       -0.0000019129  -0.0000115204   0.0000087560   0.0000056697  -0.0000024624
       -0.0000349917  -0.0000099558  -0.0000426903   0.0000052932   0.0000187894
       -0.0000066369   0.0000497250   0.0000370199   0.0000468030   0.0000711611
        0.0000056907  -0.0000424737   0.0000059872  -0.0000520890  -0.0000908679
       -0.0000006884   0.0000889875  -0.0005415728  -0.0004417411   0.0008025958
       -0.0028440955   0.0579670408   0.0027662719   0.0091910635  -0.0435687878
       -0.0033493243   0.0153124160  -0.0026814322  -0.0251370182  -0.0364142908
       -0.0147441863   0.0278214439   0.0143023409   0.0034981386  -0.0031817322
        0.0004176403  -0.0008308588  -0.0006745564  -0.0002610799  -0.0002565087
        0.0007736318  -0.0000599139   0.0000335059  -0.0000583517  -0.0004218765
        0.0001296679   0.0007331476   0.0000182846  -0.0002015026  -0.0000329893
       -0.0002089820   0.0001514825   0.0000019209   0.0000169091  -0.0000097577
       -0.0000037864  -0.0000133980  -0.0000331217  -0.0000181549   0.0000496873
       -0.0000293263   0.0000272540  -0.0001483727  -0.0001157792   0.0000365273
        0.0001523080   0.0001103742  -0.0000242382  -0.0000208770  -0.0000076816
       -0.0000107107   0.0000110667  -0.0000072289   0.0000017903   0.0000028265
       -0.0000044413  -0.0000001706  -0.0000020474  -0.0000014762  -0.0000022540
        0.0000107671   0.0000056166   0.0000007380   0.0000000711   0.0000021761
        0.0000023949  -0.0000028778  -0.0000029758  -0.0000026703  -0.0000005526
        0.0000010631  -0.0000000981   0.0000036597   0.0000034930   0.0000016124
        0.0000016828  -0.0000008008  -0.0000018258   0.0000012239   0.0000034434
        0.0000016895   0.0000046278  -0.0000008895  -0.0000009261  -0.0000018695
        0.0000014201  -0.0000009506  -0.0000001652   0.0000016435  -0.0000007983
       -0.0000005427   0.0000002115  -0.0000012130   0.0000010387   0.0000048597
        0.0000003896  -0.0000106499  -0.0000062969  -0.0000047250   0.0000306880
        0.0000542506  -0.0000300378  -0.0000469107   0.0000211927  -0.0000108880
        0.0001454190  -0.0001530727  -0.0000061384  -0.0000145817   0.0000000011
        0.0000072817   0.0000197567   0.0000479473  -0.0000123801  -0.0000017807
       -0.0000141786   0.0000201562   0.0000152921  -0.0000016664  -0.0000065855
        0.0000033463  -0.0000091748   0.0000003811  -0.0000026382   0.0000029028
        0.0000081343  -0.0000166163  -0.0000298906   0.0000066316   0.0000760956
        0.0001867022   0.0000185804  -0.0000979510   0.0000408473   0.0000106875
       -0.0000009541   0.0000358709   0.0000790700   0.0000176468   0.0000615100
        0.0000931960   0.0000934529  -0.0000146014   0.0000381390   0.0000165907
       -0.0003738795   0.0001450676  -0.0001297392  -0.0000524633  -0.0000385562
        0.0001733660   0.0003815074   0.0004204299   0.0003503859   0.0001146198
       -0.0000317162   0.0000642124  -0.0000278514   0.0000886443   0.0001071384
        0.0000557471  -0.0001146657  -0.0000387808  -0.0000227155   0.0000284976
        0.0000049583   0.0000024996  -0.0000048310  -0.0000031300  -0.0000051510
        0.0000018305   0.0000024404   0.0000048060  -0.0000018522  -0.0000055568
        0.0000068045   0.0000010419  -0.0000055880  -0.0000015174  -0.0000004014
       -0.0000012076  -0.0000030537  -0.0000002926   0.0000013145   0.0000038990
        0.0000007321  -0.0000038743   0.0000052500  -0.0000001215  -0.0000052234
       -0.0000012772  -0.0000014693  -0.0000009479   0.0000004894   0.0000013525
       -0.0000010654   0.0000017861   0.0000007161   0.0000009855  -0.0000005079
        0.0000006706   0.0000017706   0.0000012716   0.0000004890  -0.0000002959
        0.0000017527   0.0000002509   0.0000000757   0.0000026147  -0.0000003446
       -0.0000011287   0.0000029417   0.0000000377  -0.0000036438  -0.0000013166
       -0.0000019457   0.0000137844  -0.0000044310   0.0000038923  -0.0000052264
       -0.0000094034   0.0000019989  -0.0000015318   0.0000167759  -0.0000168351
       -0.0000087985  -0.0000047400   0.0000051425  -0.0000017965  -0.0000207329
       -0.0000009207   0.0000098893  -0.0000176832  -0.0000074824   0.0000060328
        0.0000064218  -0.0000027280   0.0000199520  -0.0000097392  -0.0000385561
       -0.0000021203  -0.0000052324  -0.0000289026   0.0000408695   0.0000182723
       -0.0000205306   0.0000160759  -0.0000187473  -0.0000849652   0.0000256458
        0.0000132282  -0.0000202328   0.0000578797   0.0003000299  -0.0001619900
       -0.1195783030   0.0027662719   0.1376305215   0.0640677540  -0.0062266258
       -0.0724368874   0.0319440970  -0.0236325743  -0.0529387488   0.0280139947
        0.0254693611  -0.0177711499  -0.0038922299   0.0006849273   0.0063235341
       -0.0005491467  -0.0004614314  -0.0002570824   0.0003409148  -0.0000825328
        0.0000190486  -0.0001797040   0.0001286183  -0.0001081375   0.0002326803
        0.0003120180  -0.0002412802   0.0000451871  -0.0000916513   0.0000210699
       -0.0001484226   0.0001427111  -0.0000212468  -0.0000095400  -0.0000196798
        0.0000062554   0.0000277745  -0.0000396482   0.0000446112   0.0000077122
        0.0000081367   0.0000157661  -0.0000002470  -0.0000152553  -0.0000205062
       -0.0000333894   0.0000165969   0.0000056010   0.0000355863  -0.0000225011
       -0.0000031064   0.0000103362  -0.0000024999  -0.0000040002   0.0000089745
       -0.0000016878   0.0000031602   0.0000109792  -0.0000056322   0.0000013889
       -0.0000089585   0.0000024469   0.0000046772   0.0000078257  -0.0000170672
       -0.0000045302   0.0000015618  -0.0000001899   0.0000077704   0.0000034612
       -0.0000026110  -0.0000011487  -0.0000011836  -0.0000004791   0.0000026000
        0.0000054130  -0.0000002312  -0.0000010764  -0.0000032974  -0.0000040586
        0.0000037117  -0.0000001367   0.0000019881   0.0000026557   0.0000016433
       -0.0000032624  -0.0000012530   0.0000027382   0.0000005340   0.0000033927
        0.0000056053   0.0000022112  -0.0000020744   0.0000013636  -0.0000047613
        0.0000010834   0.0000051951   0.0000093076  -0.0000008305   0.0000028498
        0.0000017395   0.0000139284  -0.0000076146   0.0000140889  -0.0000092050
        0.0000262361  -0.0000458981   0.0000273559  -0.0000232109  -0.0000115490
       -0.0000143647  -0.0000010873   0.0000177557   0.0000084549   0.0000103507
       -0.0000106145  -0.0000098054  -0.0000078193   0.0000060280   0.0000055735
       -0.0000126716   0.0000005667   0.0000097728  -0.0000009581  -0.0000029716
        0.0000034290  -0.0000012839  -0.0000013583   0.0000050113   0.0000514470
        0.0000735734  -0.0000094990   0.0000855316  -0.0000474229   0.0000049602
       -0.0000251192  -0.0000083239   0.0000323245  -0.0000467540  -0.0000085954
        0.0000294066  -0.0000991360   0.0000251423  -0.0000059088  -0.0000204116
        0.0002074846  -0.0002155694   0.0000093332   0.0000101967  -0.0000349598
       -0.0003765078   0.0004397929   0.0000757427   0.0000862473   0.0002963326
       -0.0000405986   0.0000225905   0.0000237481   0.0000359870  -0.0000030849
       -0.0000001203   0.0000070590  -0.0000234154   0.0000230171  -0.0000512586
       -0.0000131972   0.0000091093  -0.0000176999  -0.0000029100  -0.0000006292
       -0.0000011081  -0.0000059657  -0.0000000544  -0.0000072740  -0.0000015064
        0.0000020886  -0.0000043845  -0.0000077840  -0.0000014165   0.0000017599
       -0.0000028095  -0.0000001893   0.0000008935  -0.0000021053  -0.0000021075
       -0.0000018074  -0.0000017752   0.0000003028  -0.0000005478   0.0000003696
        0.0000012463   0.0000000800  -0.0000002731  -0.0000005989  -0.0000008681
       -0.0000002687   0.0000016531   0.0000022208  -0.0000006073   0.0000016439
        0.0000045143  -0.0000027840  -0.0000005866   0.0000004730  -0.0000021939
        0.0000018029   0.0000013160  -0.0000025016  -0.0000000022  -0.0000028178
       -0.0000000794   0.0000007349  -0.0000012084  -0.0000021734   0.0000007073
       -0.0000038787  -0.0000009610   0.0000027717  -0.0000055668  -0.0000023676
       -0.0000052568  -0.0000030350  -0.0000023695  -0.0000072165  -0.0000011313
        0.0000056402  -0.0000007227  -0.0000046305   0.0000048289   0.0000072454
       -0.0000008026   0.0000004163   0.0000088543   0.0000011305   0.0000019109
        0.0000024294  -0.0000055547   0.0000150102   0.0000237741   0.0000063325
        0.0000430428   0.0000251389   0.0000183617   0.0000399823  -0.0000246493
       -0.0000327871  -0.0000428184  -0.0000431512   0.0000893014   0.0001118561
       -0.0000240056   0.0000363814  -0.0001473570   0.0001077231  -0.0002192879
       -0.1661930827   0.0091910635   0.0640677540   0.4210173509  -0.0292422118
        0.0625761386  -0.0631921705  -0.0284880614  -0.0533100111  -0.0460207875
        0.0052502984  -0.0054700324  -0.1246636591   0.0323948225  -0.0458006707
       -0.0177116822  -0.0040659137  -0.0152389225   0.0026452575  -0.0019230415
       -0.0043876360  -0.0010303267  -0.0007644594  -0.0006446544   0.0037183429
        0.0060413668  -0.0014726876   0.0012623178  -0.0037826372  -0.0004031315
       -0.0026937028   0.0020094699  -0.0000572232   0.0002685945   0.0000070146
       -0.0000093722  -0.0001345124  -0.0002397897  -0.0002109532   0.0002227131
       -0.0002141157   0.0000583490  -0.0008008237  -0.0005234638   0.0002330855
        0.0007778144   0.0004358030  -0.0001105304  -0.0001282689   0.0000003977
       -0.0000864559   0.0001068062  -0.0000342827  -0.0000025308   0.0000369147
       -0.0000272726   0.0000126154   0.0000243282   0.0000021264  -0.0000077774
        0.0000578466  -0.0000196742  -0.0000005332  -0.0000155161   0.0000312776
        0.0000150017   0.0000035562  -0.0000249397  -0.0000063520   0.0000120650
       -0.0000043866   0.0000083741   0.0000153255   0.0000002931   0.0000120404
        0.0000032625  -0.0000128741   0.0000014090   0.0000214640   0.0000008473
        0.0000105686   0.0000120699  -0.0000151357  -0.0000015464   0.0000088171
        0.0000042596   0.0000084842   0.0000151801  -0.0000172584  -0.0000028335
        0.0000123099  -0.0000070529   0.0000008871   0.0000110158   0.0000157677
        0.0000113459  -0.0000135404  -0.0000186838  -0.0000108554   0.0001527064
        0.0002478929  -0.0001539434  -0.0003650278   0.0001898146  -0.0000836656
        0.0001537643  -0.0018471531   0.0002686988   0.0003373526  -0.0004211614
       -0.0002760824   0.0001425237   0.0004092629  -0.0001066407   0.0000495006
       -0.0001872466  -0.0000737391   0.0000406911   0.0000238927  -0.0000535327
       -0.0000519506   0.0000043117   0.0000307936  -0.0000135038   0.0000674141
        0.0000413826  -0.0001183720  -0.0002167540   0.0000088888   0.0012103924
        0.0017558992   0.0004040742   0.0004087227  -0.0001719078   0.0000837837
       -0.0000402037   0.0000591793   0.0000505767  -0.0001024580   0.0000198056
       -0.0000451617  -0.0001101253   0.0001160140  -0.0001561741   0.0000717780
        0.0001719614  -0.0001466482   0.0000427904  -0.0001133475   0.0002221924
       -0.0084956690   0.0155590986  -0.0030568741  -0.0001696854  -0.0000720382
        0.0011864258  -0.0000679957   0.0001912298  -0.0001048645  -0.0005443278
       -0.0003457495   0.0008047244  -0.0000077531   0.0001099954   0.0001787938
       -0.0000774914   0.0000374839   0.0000140622  -0.0000052212  -0.0000218575
        0.0000332146   0.0000122795   0.0000202806  -0.0000043483  -0.0000319052
        0.0000288310   0.0000099859  -0.0000263267   0.0000069612   0.0000141055
        0.0000049562  -0.0000179666  -0.0000061025  -0.0000074374   0.0000100230
        0.0000076766  -0.0000199709   0.0000219078   0.0000037170  -0.0000291932
       -0.0000041616  -0.0000198383  -0.0000030998   0.0000114088   0.0000090147
       -0.0000048335  -0.0000006633   0.0000059582   0.0000012722  -0.0000070828
        0.0000063348   0.0000016139  -0.0000027452   0.0000069044   0.0000023649
       -0.0000059645   0.0000028568   0.0000036373  -0.0000011898   0.0000020327
       -0.0000042736  -0.0000019722  -0.0000037064  -0.0000067284  -0.0000084153
       -0.0000090764   0.0000854613  -0.0000312973   0.0000412197   0.0000239378
       -0.0000883823   0.0000617975  -0.0000055265   0.0000562711   0.0000353509
       -0.0000387315  -0.0000361751   0.0000316445  -0.0000052009  -0.0000318545
        0.0000044194   0.0000261366  -0.0000322653  -0.0000169425   0.0000074947
        0.0000701246   0.0000194304   0.0000546172  -0.0000169407  -0.0000080340
       -0.0000407993  -0.0001101470  -0.0000534918  -0.0001552730  -0.0000999700
        0.0000220321   0.0000366757  -0.0000103946   0.0001336901   0.0000823753
        0.0000128168  -0.0001719868  -0.0000592398  -0.0012566304   0.0010237265
        0.0131366905  -0.0435687878  -0.0062266258  -0.0292422118   0.3990756976
       -0.0119912480  -0.0160493174  -0.0819138760  -0.0554390247  -0.0125707898
       -0.1863412811   0.0521341741   0.0326315985  -0.0711974326   0.0200438127
       -0.0096296387   0.0081140275  -0.0028626454  -0.0012489048  -0.0009963543
       -0.0039837144   0.0003036463  -0.0001557182   0.0001367801   0.0019143663
       -0.0055590730  -0.0025217178   0.0007638340   0.0007643569   0.0007224043
        0.0011096091  -0.0009156368   0.0001541097  -0.0000597381   0.0000480826
        0.0000098667   0.0000238114   0.0001262170   0.0000296813  -0.0001696206
        0.0000932700  -0.0000994362   0.0005321616   0.0003986211  -0.0001285288
       -0.0004849250  -0.0003679159   0.0000823800   0.0000793122   0.0000208373
        0.0000430788  -0.0000351495   0.0000139100  -0.0000137954  -0.0000003677
        0.0000091700   0.0000022186   0.0000011795   0.0000017501   0.0000121385
       -0.0000227299  -0.0000238911   0.0000037422   0.0000017881  -0.0000034005
       -0.0000044183   0.0000053458  -0.0000004020   0.0000112715   0.0000005368
       -0.0000051207   0.0000033451  -0.0000091353  -0.0000143353  -0.0000017262
        0.0000033487  -0.0000033838   0.0000051385   0.0000067742  -0.0000133163
        0.0000025778  -0.0000044718  -0.0000015879   0.0000041165   0.0000076725
       -0.0000141068   0.0000048028   0.0000084002  -0.0000129022   0.0000059568
        0.0000058762  -0.0000045400   0.0000081290   0.0000023336  -0.0000174832
        0.0000026941   0.0000373417   0.0000116090   0.0000120145  -0.0000705187
       -0.0001928514   0.0001193353   0.0001514073  -0.0001077825   0.0000371123
       -0.0003805670   0.0006260872  -0.0001267926  -0.0000267157   0.0000261744
        0.0000335450  -0.0000777625  -0.0001890936   0.0000504830  -0.0000092923
        0.0000821809  -0.0000620806  -0.0000660500   0.0000156982   0.0000286076
       -0.0000103525   0.0000163644  -0.0000035202   0.0000164835  -0.0000183314
       -0.0000405299   0.0000809529   0.0001249641  -0.0000352724  -0.0003764637
       -0.0008219309  -0.0001615806   0.0003624223  -0.0000809245  -0.0000409968
        0.0000643192  -0.0000637035  -0.0003475215  -0.0001359861  -0.0000779238
       -0.0002791585  -0.0003510449   0.0001133001  -0.0000724786  -0.0001134984
        0.0003010149   0.0001645792   0.0002634458   0.0003196926   0.0001039461
        0.0218346294  -0.0160956552   0.0113524475  -0.0016717896  -0.0006096855
       -0.0012486186  -0.0008263836   0.0002820271  -0.0007733926  -0.0002817774
       -0.0001730515   0.0001890978   0.0001128602   0.0001169663  -0.0000564947
       -0.0000254554  -0.0000055279   0.0000181182   0.0000163373   0.0000186425
       -0.0000063577  -0.0000025813  -0.0000145186   0.0000076136   0.0000263242
       -0.0000183890  -0.0000013190   0.0000239724   0.0000066089   0.0000024365
        0.0000128008   0.0000061354   0.0000030551   0.0000077148  -0.0000118761
       -0.0000039300   0.0000201437  -0.0000163870  -0.0000006374   0.0000245813
        0.0000048028   0.0000063570   0.0000079000  -0.0000026842  -0.0000022356
        0.0000064776  -0.0000072583  -0.0000014015   0.0000034754  -0.0000084736
        0.0000023998   0.0000029614  -0.0000105343   0.0000023627   0.0000091230
       -0.0000101071   0.0000057770   0.0000091519  -0.0000118696   0.0000040682
        0.0000143508  -0.0000095212   0.0000038106   0.0000192108   0.0000039595
        0.0000058097  -0.0000296096   0.0000215338  -0.0000113507   0.0000313790
        0.0000321521  -0.0000043612   0.0000088944  -0.0000414727   0.0000534461
        0.0000199836   0.0000158630  -0.0000101200   0.0000048565   0.0000523249
        0.0000017281  -0.0000225640   0.0000494664   0.0000201500  -0.0000071269
       -0.0000146779   0.0000034622   0.0000014984  -0.0000117635   0.0000832378
       -0.0000079157  -0.0000016824   0.0000490859  -0.0000094042   0.0000034838
        0.0000551268  -0.0000055336   0.0000283154   0.0000629631  -0.0000277439
       -0.0000457634   0.0000261883   0.0003298523  -0.0011413216   0.0006322479
        0.0506557621  -0.0033493243  -0.0724368874   0.0625761386  -0.0119912480
        0.4048051797  -0.0408018125  -0.0711635556  -0.1648277327   0.0019793024
        0.0623520981  -0.0692695461  -0.0519100936   0.0222106551  -0.0877014287
       -0.0170724132   0.0009786555  -0.0146943310  -0.0045920816  -0.0035566593
        0.0015587035  -0.0003952048  -0.0006586745  -0.0005107478  -0.0031773239
        0.0001091641   0.0049069488   0.0009836667  -0.0026187110  -0.0003939614
       -0.0016908245   0.0012073353   0.0002225068   0.0000674225   0.0000137585
       -0.0000834343   0.0001995568  -0.0003008296  -0.0000740898   0.0000930196
       -0.0000994019  -0.0000003935  -0.0004895251  -0.0003200311   0.0001908743
        0.0004558416   0.0002993720  -0.0001278443  -0.0000726943   0.0000094235
       -0.0000120613   0.0000290927  -0.0000072911  -0.0000021493   0.0000019771
       -0.0000000504  -0.0000065685   0.0000132438   0.0000069749  -0.0000090604
        0.0000073748   0.0000026238  -0.0000280704  -0.0000098277  -0.0000031585
        0.0000108955   0.0000029191   0.0000013247  -0.0000112560   0.0000034188
        0.0000045819  -0.0000121297  -0.0000040901   0.0000032475  -0.0000100612
        0.0000011391   0.0000031300  -0.0000120773   0.0000048053  -0.0000022062
        0.0000009132  -0.0000013341  -0.0000014143  -0.0000021659   0.0000017232
       -0.0000004185  -0.0000036596   0.0000065325  -0.0000072043  -0.0000008367
        0.0000063929   0.0000020723  -0.0000018560   0.0000030245   0.0000041859
       -0.0000036865   0.0000031969   0.0000003458   0.0000123957   0.0000668360
        0.0001914560  -0.0001360969  -0.0002415846   0.0001540786  -0.0000912355
        0.0003271865  -0.0012879135   0.0000083307   0.0002053718  -0.0002231743
       -0.0000578638   0.0000920190   0.0002179230  -0.0001134519   0.0000008126
       -0.0000685558  -0.0000121136   0.0000403648   0.0000087667  -0.0000367849
       -0.0000009693  -0.0000082965  -0.0000144402  -0.0000005307   0.0000460730
        0.0000179415  -0.0001101997  -0.0001427820  -0.0000062708   0.0007284026
        0.0010903810   0.0003221528  -0.0000356634   0.0000155569   0.0000822182
       -0.0000076390   0.0001365692   0.0000112718   0.0000428591   0.0000808183
       -0.0000168202   0.0001343480  -0.0000712841  -0.0000232481   0.0000306551
       -0.0001411480   0.0002287405  -0.0000707310  -0.0002379193   0.0001466987
       -0.0003662054   0.0072824875   0.0009398413   0.0005705892   0.0004115164
       -0.0009687575  -0.0004276643   0.0001869659  -0.0002553314   0.0007336995
        0.0001318321  -0.0007417732  -0.0000264256  -0.0000241745   0.0002330243
        0.0000718997   0.0000658000   0.0000379857   0.0000008541   0.0000015899
        0.0000133408   0.0000070957   0.0000130787   0.0000163297  -0.0000131571
        0.0000083605   0.0000221915  -0.0000011489   0.0000160292   0.0000003219
        0.0000043134  -0.0000088943   0.0000006252  -0.0000046900   0.0000084163
        0.0000150259  -0.0000139857   0.0000092895   0.0000110661  -0.0000175429
       -0.0000065570  -0.0000002908  -0.0000078403   0.0000053047   0.0000044438
       -0.0000055078   0.0000043456  -0.0000050974  -0.0000031007   0.0000028529
       -0.0000049539  -0.0000047172   0.0000003264  -0.0000043498  -0.0000016321
       -0.0000023699   0.0000005390  -0.0000029600  -0.0000041590   0.0000023139
       -0.0000039309  -0.0000056814   0.0000068805  -0.0000075655  -0.0000041050
        0.0000085445   0.0000343808  -0.0000003841   0.0000299781  -0.0000205173
       -0.0000222684   0.0000263849  -0.0000143710   0.0000557284   0.0000078343
       -0.0000233867  -0.0000010605   0.0000212861  -0.0000087975  -0.0000271314
       -0.0000008159   0.0000182112  -0.0000361364  -0.0000163149   0.0000211430
        0.0000308679   0.0000131805   0.0000527670  -0.0001119356  -0.0000734176
       -0.0000868148  -0.0000737669  -0.0000410542  -0.0000298193   0.0000565376
        0.0000584097   0.0001173548   0.0000549785  -0.0001632633  -0.0001404107
        0.0001002263  -0.0001211303   0.0015200193  -0.0010072298  -0.0008544075
        0.0029636631   0.0153124160   0.0319440970  -0.0631921705  -0.0160493174
       -0.0408018125   0.0708935830   0.0293471367   0.0458982479   0.0027291291
       -0.0175939898  -0.0042812682  -0.0085432789  -0.0126491308  -0.0280265997
       -0.0030938942   0.0036421722  -0.0031200787  -0.0013804426  -0.0009247904
       -0.0003213350   0.0001813658  -0.0001268223   0.0000294457   0.0000505146
       -0.0015915654   0.0003380454  -0.0002389419   0.0006961565   0.0001135306
        0.0005902845  -0.0003977433   0.0000177840  -0.0000691653  -0.0000098609
        0.0000010341   0.0000489318   0.0000298250   0.0000630721  -0.0000449148
        0.0000612780  -0.0000151223   0.0001635738   0.0001037184  -0.0000582056
       -0.0001516855  -0.0000828174   0.0000245157   0.0000290421   0.0000001160
        0.0000124567  -0.0000240663   0.0000123198   0.0000029597  -0.0000102686
        0.0000054864  -0.0000020132  -0.0000014339  -0.0000020892   0.0000014820
       -0.0000196450   0.0000051163   0.0000011418   0.0000046181  -0.0000109519
       -0.0000055561   0.0000002793   0.0000069831   0.0000051726  -0.0000020903
       -0.0000013920   0.0000004971  -0.0000036054   0.0000003083   0.0000003147
       -0.0000007484   0.0000033195   0.0000006826  -0.0000066685  -0.0000002646
       -0.0000020408  -0.0000058396   0.0000066285   0.0000001951  -0.0000022603
       -0.0000000152  -0.0000010135  -0.0000065745   0.0000066141  -0.0000001868
       -0.0000024129   0.0000019769  -0.0000001137  -0.0000010271  -0.0000067253
       -0.0000050170   0.0000068591   0.0000089424   0.0000043868  -0.0000392913
       -0.0000587275   0.0000376493   0.0000810637  -0.0000368047   0.0000200401
        0.0000490383   0.0003745524  -0.0000751236  -0.0001564512   0.0000912685
        0.0000734963  -0.0000362932  -0.0000963134   0.0000222503  -0.0000100784
        0.0000471939   0.0000255551  -0.0000106038  -0.0000009599   0.0000167420
        0.0000097980  -0.0000055252  -0.0000019344   0.0000063324  -0.0000179175
       -0.0000082459   0.0000217335   0.0000436961   0.0000028941  -0.0002246754
       -0.0003330625  -0.0000711836  -0.0001080142   0.0000356482   0.0000069707
        0.0000150499   0.0000085685   0.0000455524   0.0000033242  -0.0000116387
        0.0000253182   0.0000237604  -0.0000242121   0.0000451901  -0.0000009834
       -0.0000273344   0.0000049394  -0.0000271645   0.0000007618  -0.0001070365
        0.0002573531  -0.0010661655  -0.0008872667   0.0002210210   0.0003347976
        0.0001637044  -0.0004288629   0.0001396470  -0.0002278887   0.0000692714
        0.0000669328  -0.0001218373   0.0000057645  -0.0000163864  -0.0000509993
        0.0000187526  -0.0000099155  -0.0000080680  -0.0000001051   0.0000045776
       -0.0000109012  -0.0000069913  -0.0000078761  -0.0000013093   0.0000070680
       -0.0000101405  -0.0000038486   0.0000052163  -0.0000043810  -0.0000051146
       -0.0000032905   0.0000040678   0.0000021346   0.0000001283  -0.0000038921
       -0.0000042230   0.0000041651  -0.0000058827  -0.0000015146   0.0000071934
        0.0000016317   0.0000045532  -0.0000005597  -0.0000041962  -0.0000017290
        0.0000007624   0.0000000990   0.0000011939  -0.0000021742   0.0000018672
        0.0000012221  -0.0000028303   0.0000006557  -0.0000004456  -0.0000036467
        0.0000030047  -0.0000003575  -0.0000031247   0.0000009876  -0.0000023055
        0.0000008420   0.0000011602  -0.0000014168   0.0000006632   0.0000028512
        0.0000001214  -0.0000218726   0.0000073270  -0.0000134364  -0.0000085314
        0.0000171756  -0.0000141941  -0.0000036526  -0.0000132467  -0.0000125803
        0.0000094063   0.0000095608  -0.0000079621   0.0000025670   0.0000072854
       -0.0000007714  -0.0000042690   0.0000057505   0.0000040617   0.0000050298
       -0.0000200518  -0.0000091048  -0.0000168764  -0.0000086140  -0.0000202048
        0.0000221410   0.0000420860   0.0000090592   0.0000559440   0.0000137113
       -0.0000299611  -0.0000206976  -0.0000038522  -0.0000334752   0.0000019390
       -0.0000128006   0.0000593063  -0.0006249981   0.0007299930  -0.0006562133
        0.0135551419  -0.0026814322  -0.0236325743  -0.0284880614  -0.0819138760
       -0.0711635556   0.0293471367   0.1450536281   0.1220440691  -0.0181727755
       -0.0622230163  -0.0290245942   0.0007315394   0.0018549115  -0.0016917768
        0.0005984639   0.0009013052  -0.0000893407  -0.0003300883   0.0001313188
        0.0000647994   0.0002597249  -0.0000877632   0.0001645790  -0.0001301615
        0.0000699825   0.0001801446  -0.0002052388   0.0001226664   0.0000974510
        0.0000877607  -0.0001393013  -0.0000664983   0.0000161775  -0.0000184673
        0.0000187905  -0.0000485566   0.0000702140  -0.0000173776   0.0000432024
       -0.0000049020   0.0000354710  -0.0000455136  -0.0000628884  -0.0000029793
        0.0000750697   0.0000447590  -0.0000055057  -0.0000248774   0.0000002080
       -0.0000033342   0.0000011554  -0.0000001395   0.0000088329  -0.0000015110
       -0.0000032264  -0.0000001233  -0.0000102855  -0.0000003489  -0.0000000722