$hessian                                                                        
        0.5146451190  -0.0160514397  -0.0165164675  -0.0978094646   0.0168317399
       -0.0660952733  -0.0170978914   0.0082964376  -0.0244402139  -0.0027720012
        0.0044032518   0.0010781080  -0.0001456644  -0.0000245305  -0.0005213161
        0.0009322181   0.0036397388   0.0015422491   0.0050577226  -0.0001562327
        0.0072036893   0.0001993186  -0.0002153889   0.0005596279  -0.0000078553
        0.0001083346   0.0000808471  -0.0000150254  -0.0000126712   0.0000852311
       -0.0000157757   0.0000443389  -0.0000212208   0.0000465852  -0.0000754750
       -0.0000208832  -0.0000145235   0.0000089375   0.0000333904   0.0000195519
        0.0000334381  -0.0000146844   0.0000131427   0.0000055591  -0.0000111680
       -0.0000041127   0.0000118475  -0.0000092124   0.0000105441  -0.0000082601
        0.0000047597   0.0000065049   0.0000083961   0.0000068673  -0.0000025799
        0.0001031434  -0.0000804810   0.0000440073  -0.0002090945   0.0000744970
       -0.0000589852   0.0002088447   0.0000065466   0.0001036721  -0.0000792469
        0.0000260500  -0.0000194472  -0.0000729843  -0.0000866584  -0.0000172662
        0.0000497842   0.0000639693  -0.0000474050   0.0000065449   0.0000025677
        0.0000474434   0.0000240026   0.0000293302  -0.0000302348  -0.0000100729
        0.0000059153   0.0000082124   0.0000161006  -0.0000016424  -0.0000097524
        0.0000032067  -0.0000026948   0.0000107366   0.0000000217  -0.0000037106
       -0.0000035977  -0.0000060886  -0.0000004598   0.0000205099   0.0000055812
       -0.0000006691  -0.0000533004  -0.0000001921  -0.0000273170   0.0000260425
       -0.0001650079  -0.0001518401  -0.0002145159  -0.0000450390  -0.0000027720
       -0.0000007791  -0.0001116864   0.0000883103  -0.0000629984   0.0000227386
       -0.0000394585   0.0000055086   0.0000445413   0.0000379962   0.0000153472
       -0.0000128976  -0.0000074634   0.0000433064   0.0000996284  -0.0000467266
       -0.0000156105   0.0000207839   0.0000297754  -0.0000502854  -0.0005824549
        0.0002255305   0.0000052915   0.0000193545  -0.0000085444  -0.0000072848
       -0.0000184538  -0.0000266075   0.0000055695  -0.0000099233  -0.0000066322
        0.0000092091  -0.0000011029  -0.0000074176   0.0000118885  -0.0000036065
        0.0000137673  -0.0000041311  -0.0000003481   0.0000021030  -0.0000032515
       -0.0000015161   0.0000019936   0.0000026815  -0.0000015280   0.0000064802
        0.0000264126   0.0000030864  -0.0000199934  -0.0000042849  -0.0000257619
       -0.0000042069  -0.1213638429  -0.0824427762   0.0780945853  -0.2348756062
        0.0939544049   0.0351391483  -0.0469357364  -0.0251230964  -0.0157576438
        0.0005678301  -0.0013249271  -0.0009523088  -0.0007163004   0.0002530129
       -0.0011525000   0.0004785862  -0.0013579242   0.0016065054   0.0000038733
       -0.0000044023  -0.0000107098   0.0000157169   0.0000124241  -0.0000094853
       -0.0000164464  -0.0000208311   0.0000147499  -0.0000015014  -0.0000062302
        0.0000036916  -0.0000051687  -0.0000052098   0.0000076325  -0.0000008874
       -0.0000076541  -0.0000068276  -0.0000022543  -0.0000079773   0.0000084531
       -0.0000064760  -0.0000071419   0.0000056179   0.0000105834   0.0000124887
        0.0000149681   0.0000093072  -0.0000112292  -0.0000289373   0.0000063379
       -0.0000063282   0.0000024344  -0.0000008685  -0.0000056500  -0.0000027420
       -0.0000049153  -0.0000033419  -0.0000011600   0.0000011264  -0.0000009534
        0.0000012627  -0.0000017252   0.0000000934   0.0000005309   0.0000091136
       -0.0000062061   0.0000074451   0.0000099328  -0.0000065383   0.0000027886
        0.0000028609  -0.0000042840  -0.0000087075   0.0000120389  -0.0000076415
       -0.0000033232  -0.0000053516  -0.0000013300   0.0000123617  -0.0000086974
       -0.0000210236  -0.0000098385   0.0000023355  -0.0000108764   0.0000121771
       -0.0000051107  -0.0000063665   0.0000080084   0.0000005323   0.0000079899
       -0.0000012000   0.0000011931   0.0000016760  -0.0000034106  -0.0000107376
        0.0000031264  -0.0000037879   0.0000029206   0.0000016311   0.0000017584
       -0.0000104575   0.0000058045  -0.0000022329   0.0000019309  -0.0000048165
       -0.0000028092   0.0000089704  -0.0000003956  -0.0000009699   0.0000072279
        0.0000057326  -0.0000093077   0.0000036346   0.0000006445  -0.0000067880
       -0.0000131678   0.0000025437  -0.0000042269  -0.0000015039  -0.0000034900
       -0.0000009480   0.0000021809   0.0000286899   0.0000018783
       -0.0160514397   0.4949144400   0.0106332594   0.0168848959  -0.0664671622
        0.0269916005   0.0092198066  -0.0033774164   0.0125594145   0.0042757839
        0.0028933147  -0.0007758688   0.0001075604  -0.0001596622   0.0001797041
        0.0036144464   0.0055996962  -0.0016032276  -0.0011861338   0.0045308339
       -0.0059649964  -0.0001877537  -0.0001885563  -0.0001637241  -0.0002619932
        0.0000401431   0.0001968649  -0.0000212856  -0.0000451608   0.0001135530
        0.0000402156   0.0000570620  -0.0000404232   0.0000019629  -0.0000569140
       -0.0000420018   0.0000274403   0.0000128566   0.0000592785  -0.0000031887
        0.0000146855  -0.0000012127   0.0000032011  -0.0000045529  -0.0000013953
       -0.0000014049  -0.0000025496  -0.0000011409   0.0000113034  -0.0000118452
        0.0000038910  -0.0000203252  -0.0000101117   0.0000086524   0.0000934891
       -0.0000061761  -0.0001197282  -0.0000595610  -0.0001526983   0.0001513160
        0.0001069080   0.0000779612   0.0000296389  -0.0000151874   0.0000373769
       -0.0000528927  -0.0002214289   0.0000251391  -0.0001754309   0.0001068257
        0.0000302596   0.0001434027  -0.0000958497   0.0000542848   0.0000075397
        0.0001027187  -0.0000435984   0.0000840918  -0.0000590571  -0.0000113288
       -0.0000007552   0.0000357427   0.0000041455   0.0000069241  -0.0000033302
       -0.0000029285  -0.0000045344   0.0000086435   0.0000013182   0.0000013174
       -0.0000169882  -0.0000089726   0.0000028786   0.0000320412  -0.0000121680
        0.0000153289   0.0000242618   0.0000305461  -0.0000750950   0.0001215609
       -0.0001106609  -0.0002804808  -0.0001921992  -0.0002980560  -0.0000589100
       -0.0000709262  -0.0001434676   0.0000444873  -0.0000183480   0.0000068159
       -0.0000320051   0.0000342033   0.0000647064  -0.0000024216  -0.0000209387
       -0.0000040481  -0.0000012921   0.0000916795   0.0001953941  -0.0000000209
        0.0000463736   0.0000129504   0.0000464725  -0.0006420323  -0.0008467505
       -0.0001022394   0.0000229824   0.0000126419  -0.0000653574  -0.0000102800
       -0.0000194952   0.0000156731   0.0000007454   0.0000229472   0.0000018851
       -0.0000087097  -0.0000038405   0.0000068483  -0.0000059895   0.0000017996
       -0.0000028662   0.0000041309  -0.0000065521  -0.0000020271  -0.0000039635
       -0.0000029855  -0.0000023809  -0.0000016988  -0.0000068647  -0.0000042056
       -0.0000031811   0.0000013855   0.0000059048   0.0000009784  -0.0000168053
        0.0000330700  -0.0813038849  -0.1277449145   0.0809495793   0.0940264900
       -0.0910805880  -0.0175728468  -0.0260687671  -0.2150435587  -0.1056870576
       -0.0011991356  -0.0011087271   0.0006863491   0.0003399482  -0.0002168199
        0.0006127495  -0.0015814302  -0.0015080477  -0.0006466592  -0.0000159045
        0.0000022365  -0.0000202434   0.0000077856   0.0000189887  -0.0000178205
        0.0000102991   0.0000004793  -0.0000045364   0.0000013138   0.0000017695
       -0.0000019782  -0.0000021040   0.0000041433   0.0000010492  -0.0000043580
        0.0000020709   0.0000064085  -0.0000042247   0.0000029248  -0.0000012396
        0.0000136129   0.0000213843  -0.0000030160  -0.0000102670   0.0000007147
        0.0000090887   0.0000079119   0.0000196176  -0.0000639559  -0.0000135007
        0.0000163337  -0.0000086011  -0.0000011315   0.0000054916  -0.0000021651
       -0.0000034880   0.0000041455  -0.0000027208  -0.0000055110   0.0000042142
       -0.0000035348  -0.0000039240   0.0000041282  -0.0000091739  -0.0000026387
        0.0000001592   0.0000001283  -0.0000062591   0.0000022032   0.0000006836
        0.0000066127  -0.0000004260  -0.0000140153  -0.0000049887  -0.0000014918
       -0.0000031564  -0.0000071687   0.0000022247   0.0000213819  -0.0000181986
       -0.0000386850   0.0000013078  -0.0000112423  -0.0000108765  -0.0000090505
        0.0000047262   0.0000089264   0.0000008418  -0.0000023149  -0.0000006100
       -0.0000011870  -0.0000007068   0.0000011647   0.0000011669   0.0000060515
        0.0000000631   0.0000022899  -0.0000003645   0.0000028733   0.0000001976
        0.0000051567  -0.0000020494   0.0000013909   0.0000006445   0.0000071486
        0.0000010873  -0.0000036894   0.0000027543   0.0000009591  -0.0000025845
        0.0000017710   0.0000038717  -0.0000008320  -0.0000011542   0.0000037625
        0.0000069980   0.0000000272   0.0000016179   0.0000040468   0.0000042905
       -0.0000022166   0.0000003139  -0.0000056763   0.0000029002
       -0.0165164675   0.0106332594   0.4760461806  -0.0584752550   0.0238234873
       -0.1805854071  -0.0100327020   0.0049088254  -0.0056716011   0.0003888076
       -0.0004034680   0.0039007374  -0.0011338573   0.0004235815  -0.0028265340
        0.0039264688  -0.0026327767  -0.0009203929  -0.0095760906   0.0029205050
       -0.0349002370  -0.0000543098  -0.0003441192  -0.0009910686  -0.0003855364
        0.0004871514   0.0000574168   0.0000247087  -0.0001436126   0.0000461939
       -0.0000436563   0.0001109176   0.0000195506   0.0002291054  -0.0001267120
        0.0000015441  -0.0001785076   0.0000255382  -0.0000138694   0.0000693671
        0.0000892070   0.0000061556  -0.0000394890  -0.0000073112  -0.0000315004
       -0.0000011675   0.0000007084   0.0000024473   0.0000013844  -0.0000161425
        0.0000131911   0.0001028562  -0.0000052650   0.0000553644  -0.0002757063
        0.0003537391   0.0000437700   0.0003814141  -0.0004032566  -0.0000036661
       -0.0004327731   0.0004827460  -0.0000331483   0.0003149307  -0.0002964834
        0.0000021880   0.0004686639  -0.0005419589   0.0000758270  -0.0003556418
        0.0002442637  -0.0000362205   0.0002012042  -0.0002237440   0.0000562207
       -0.0004418031   0.0000482664  -0.0000355675   0.0005154887   0.0000699611
        0.0000233607  -0.0002291011  -0.0001149853  -0.0000012123   0.0001369284
        0.0000175783   0.0000114967  -0.0000814298  -0.0000385215   0.0000050361
        0.0001396717   0.0000733529   0.0000214379  -0.0002299682   0.0000123000
       -0.0000467023   0.0001818947  -0.0000416976  -0.0000128316  -0.0004941454
        0.0007142177   0.0000363139  -0.0002335433   0.0000981907  -0.0002966334
       -0.0001669522   0.0001485102  -0.0001418125  -0.0004163202   0.0002058823
        0.0001923378  -0.0000334739  -0.0000200842  -0.0001505251   0.0004316968
       -0.0001922956  -0.0001763067   0.0000758662  -0.0001020903   0.0004048092
        0.0004976495  -0.0002850450  -0.0007586126   0.0004470193  -0.0000478703
        0.0017982986   0.0000437149  -0.0000271730  -0.0000364470  -0.0000022486
       -0.0000228650   0.0000428456  -0.0000281260   0.0000094897   0.0000184310
        0.0000586089  -0.0000153138  -0.0000505317   0.0000149909  -0.0000180956
        0.0000035711  -0.0000232386   0.0000206695   0.0000268801  -0.0000103171
       -0.0000009660   0.0000166843  -0.0000093598   0.0000064924   0.0000122131
       -0.0000290870   0.0000223096   0.0000002271   0.0000228115   0.0000166031
       -0.0000012895   0.0745972981   0.0797313078  -0.1089478549   0.0340187020
       -0.0172376174  -0.0496142811  -0.0169619854  -0.1028603633  -0.0978385377
        0.0007526202  -0.0001770293   0.0006056576   0.0001029637  -0.0000494081
       -0.0000134595  -0.0013311780   0.0009433500   0.0009173531   0.0000218355
        0.0000012602  -0.0000173340   0.0000741142   0.0000898910  -0.0000182418
       -0.0000197105  -0.0000258369  -0.0000140697   0.0000421448  -0.0000102319
        0.0000123044   0.0000271865   0.0000109347   0.0000046327   0.0000284621
        0.0000152312  -0.0000656859  -0.0000214524   0.0000015519  -0.0000031230
        0.0000021509  -0.0000720200  -0.0000217066   0.0000102198  -0.0000577438
        0.0000097008  -0.0000749671  -0.0001496989  -0.0000128217   0.0000383679
       -0.0000351136   0.0000047547  -0.0000327515  -0.0000441133   0.0000036199
       -0.0000415163  -0.0000217347  -0.0000096946  -0.0000311561   0.0000079203
       -0.0000217501   0.0000287314   0.0000224013  -0.0000077331   0.0000127334
        0.0000143386  -0.0000141380   0.0000110250  -0.0000182757   0.0000334243
        0.0000335543   0.0000142390  -0.0000190806   0.0000343375  -0.0000028287
        0.0000146342   0.0000142442  -0.0000374226  -0.0000280876  -0.0000161928
        0.0000195499  -0.0000476738  -0.0000423190   0.0000197951  -0.0000262770
        0.0000038984  -0.0000126368  -0.0000131417  -0.0000041764   0.0000162751
       -0.0000079889   0.0000066582  -0.0000038951   0.0000006127  -0.0000253270
        0.0000032746  -0.0000072608   0.0000078495  -0.0000023440  -0.0000036416
       -0.0000196564   0.0000131478  -0.0000030807  -0.0000012315  -0.0000340109
        0.0000058412   0.0000252912   0.0000121662  -0.0000014756   0.0000091611
        0.0000003714  -0.0000359427  -0.0000025088   0.0000251785   0.0000004360
       -0.0000202895  -0.0000013532   0.0000018479  -0.0000202581  -0.0000140863
        0.0000040920   0.0000181488   0.0000096794  -0.0000234417
       -0.0978094646   0.0168848959  -0.0584752550   0.5155958143  -0.1979567675
        0.0015040168  -0.2387304728   0.1023070536   0.0336203836  -0.0317325381
        0.0132961523  -0.0708679710  -0.0255938524   0.0119188011   0.0266011591
        0.0354459719  -0.0178939625   0.0272190843  -0.1235606999   0.0440808409
        0.0487430032   0.0025824898  -0.0002481713  -0.0052497327  -0.0017818095
       -0.0000882706  -0.0004744817   0.0005659574   0.0004106452  -0.0005002865
       -0.0002866503   0.0000309100   0.0001394782  -0.0001825085   0.0000074641
        0.0001908601   0.0000433074  -0.0001439933  -0.0002259815  -0.0000301559
       -0.0001150528   0.0000038869   0.0000069375   0.0000156712   0.0000656293
        0.0000251250  -0.0000154901   0.0000132954  -0.0000702597   0.0000587022
       -0.0000090409   0.0000020432   0.0000150281  -0.0001164348   0.0006827196
       -0.0003109193   0.0004774788  -0.0001372316  -0.0001863817  -0.0001600477
       -0.0001983015   0.0008129190  -0.0005873443   0.0000836201  -0.0002164417
        0.0000764795  -0.0005907117  -0.0004436429  -0.0004577462   0.0008831967
       -0.0000635585   0.0005741574  -0.0007176239   0.0003337484   0.0000091405
        0.0005319523  -0.0002169029   0.0003725083  -0.0004701237  -0.0001917269
       -0.0000065253   0.0001830904   0.0001467633  -0.0000324981  -0.0001368435
       -0.0000269671  -0.0000016412   0.0000846005   0.0000364777  -0.0000115519
       -0.0001261395  -0.0000747881  -0.0000182265   0.0002476861  -0.0000182850
        0.0000425560  -0.0000367645  -0.0004294295  -0.0003581767   0.0000487841
        0.0025639654  -0.0005425021   0.0024025267  -0.0008614604  -0.0004649214
        0.0001084584   0.0000095815   0.0001454888   0.0009086812  -0.0004147002
       -0.0006793858  -0.0000403084   0.0000300108   0.0003846742  -0.0011698449
        0.0005335692   0.0005920890  -0.0003801744   0.0001816021  -0.0016338905
       -0.0015680029   0.0009081228   0.0035964893  -0.0012444849   0.0002950568
       -0.0061797098   0.0004833676  -0.0002798198  -0.0000356330  -0.0000123767
        0.0000065408  -0.0001480411   0.0000764061  -0.0000436222  -0.0000229773
       -0.0000673182   0.0000311082   0.0000408509  -0.0000013637   0.0000148766
        0.0000090977   0.0000161746  -0.0000206635  -0.0000280869   0.0000056768
        0.0000045692  -0.0000226408   0.0000104961  -0.0000082485  -0.0000031283
        0.0001066837  -0.0000666960  -0.0000120791  -0.0000890896   0.0000103914
        0.0001151601   0.0084707398  -0.0027391758   0.0113760647  -0.0165266651
        0.0077515733  -0.0235785185  -0.0013219403  -0.0005827352  -0.0072377643
       -0.0125383826   0.0074268995   0.0026803381   0.0016160268   0.0038881361
       -0.0024573827  -0.0141212593   0.0097242841   0.0218910447   0.0001469753
       -0.0001559031   0.0000408193  -0.0000216369  -0.0000665309   0.0000617972
        0.0000259886   0.0000115140   0.0000061534  -0.0000225917   0.0000102644
       -0.0000025929  -0.0000108205  -0.0000195752  -0.0000138270  -0.0000143280
       -0.0000040767   0.0000737623   0.0000224248  -0.0000059208   0.0000051467
        0.0001205906   0.0001548017   0.0000213299  -0.0001821979  -0.0001541204
        0.0000101192   0.0000846152   0.0000789920  -0.0002519298  -0.0000206544
        0.0000152034   0.0000072123   0.0000175810   0.0000147817   0.0000103970
        0.0000227540   0.0000047448   0.0000080085   0.0000210745  -0.0000068951
        0.0000189066  -0.0000198553  -0.0000249895   0.0000145337   0.0001286076
       -0.0000481267  -0.0000152980  -0.0000579838   0.0000271035   0.0000184036
       -0.0000888821  -0.0000012036   0.0000007082  -0.0000193406  -0.0000190244
       -0.0000034071  -0.0000507214   0.0000550937   0.0000035204   0.0000005535
        0.0000254667   0.0000123814   0.0000499980  -0.0000015766   0.0000480319
       -0.0000478833  -0.0000520394   0.0000291692  -0.0000090543  -0.0000048546
        0.0000257975  -0.0000023275   0.0000129136   0.0000047952   0.0000009852
        0.0000063738   0.0000018490  -0.0000002521   0.0000046662   0.0000147351
       -0.0000032951  -0.0000169549   0.0000010421   0.0000183630   0.0000423603
        0.0000004583  -0.0000119541  -0.0000187518  -0.0000052282  -0.0000061082
        0.0000047365   0.0000408671   0.0000049941  -0.0000219555  -0.0000102791
       -0.0000030898  -0.0000124641  -0.0000085540  -0.0000066741   0.0000105621
       -0.0000211701  -0.0000110259   0.0000768975  -0.0000324703
        0.0168317399  -0.0664671622   0.0238234873  -0.1979567675   0.2536134864
        0.0296510045   0.0977727487  -0.1053528557  -0.0205753570   0.0159834451
       -0.0057117773   0.0392794327   0.0119050436  -0.0131108284  -0.0142742134
       -0.0213207357   0.0088743884  -0.0192259474   0.0481899211  -0.0763043418
       -0.0385488441   0.0018548417   0.0068827106   0.0020172931   0.0017013157
       -0.0004227789  -0.0001808901  -0.0002848186  -0.0001074195   0.0002858418
        0.0001259288  -0.0001538612  -0.0000784789   0.0000473057   0.0001207421
       -0.0001240583  -0.0000092406   0.0000848276   0.0001230881   0.0000071102
        0.0000573871  -0.0000075413  -0.0000048647  -0.0000025783  -0.0000344623
       -0.0000164295   0.0000085719  -0.0000090541   0.0000363277  -0.0000302407
        0.0000046366  -0.0000089754  -0.0000113338   0.0000611403  -0.0004886910
        0.0000439452  -0.0002553789   0.0001748931   0.0005410489   0.0001386921
        0.0001175800  -0.0008038332   0.0003774886  -0.0001946388   0.0002169963
       -0.0000520779   0.0007078596   0.0004175143   0.0003699544  -0.0006385310
       -0.0000288401  -0.0004296790   0.0005861632  -0.0002549272   0.0000150648
       -0.0004504040   0.0001938004  -0.0002944697   0.0002956517   0.0001172339
       -0.0000062653  -0.0001109753  -0.0000940785   0.0000226588   0.0000778780
        0.0000099163   0.0000020548  -0.0000552528  -0.0000275865   0.0000065823
        0.0000772890   0.0000544992   0.0000119884  -0.0001585591   0.0000270107
       -0.0000285405  -0.0000261564   0.0003003947   0.0002594192  -0.0007529320
       -0.0004708106   0.0012933501  -0.0009533321   0.0005804388  -0.0002111623
       -0.0001540455   0.0000064980  -0.0001895310  -0.0004693653   0.0002020044
        0.0003167857   0.0000110460  -0.0000217336  -0.0002105767   0.0006361179
       -0.0002920798  -0.0003214673   0.0001721049  -0.0001581376   0.0008912115
        0.0008928126  -0.0003421743  -0.0018900502   0.0005444890  -0.0000492946
        0.0030819756  -0.0001528548  -0.0000545580   0.0001230390  -0.0000137925
        0.0000973693  -0.0000318713   0.0000334740   0.0000192562   0.0000069362
       -0.0000002074  -0.0000301311  -0.0000198821   0.0000023182  -0.0000037224
       -0.0000072195  -0.0000084811   0.0000073645   0.0000106655   0.0000042196
       -0.0000013950   0.0000137926  -0.0000021620   0.0000038998   0.0000036499
       -0.0000905290   0.0000193415   0.0000229191   0.0000462401   0.0000227982
        0.0000707100   0.0070946760  -0.0034438856   0.0178058827   0.0082869865
       -0.0033844016   0.0115221865  -0.0112595460   0.0048146711  -0.0213976932
        0.0091520033  -0.0031240851  -0.0016646661   0.0037096076   0.0068396909
        0.0004349365   0.0085271209  -0.0038941405  -0.0120447757  -0.0000555242
        0.0000749639  -0.0000154797  -0.0000031052   0.0000185410  -0.0000156919
       -0.0000130182  -0.0000008120  -0.0000023057   0.0000131561  -0.0000035359
        0.0000023450   0.0000063786   0.0000126736   0.0000091652   0.0000075920
        0.0000048763  -0.0000372629  -0.0000079804   0.0000043577   0.0000004206
       -0.0000669936  -0.0000985952  -0.0000074061   0.0000993265   0.0001126140
       -0.0000010218  -0.0000534209  -0.0000408027   0.0001753165   0.0000159695
       -0.0000206410  -0.0000033002  -0.0000062613  -0.0000100406  -0.0000071406
       -0.0000077657  -0.0000047560  -0.0000059960  -0.0000066498   0.0000022450
       -0.0000104100   0.0000138694   0.0000130757  -0.0000123650  -0.0000598945
        0.0000341683   0.0000363969   0.0000223623  -0.0000108891  -0.0000085241
        0.0000453221   0.0000019227   0.0000027300   0.0000077388   0.0000134871
        0.0000037877   0.0000297452  -0.0000266206  -0.0000084676   0.0000066755
        0.0000034327  -0.0000031367  -0.0000209419   0.0000060212  -0.0000294132
        0.0000090371   0.0000093019   0.0000047571   0.0000077286  -0.0000060200
       -0.0000003720  -0.0000005294  -0.0000073858  -0.0000003056   0.0000022579
       -0.0000060463   0.0000005483  -0.0000031182  -0.0000067753  -0.0000098446
        0.0000025068   0.0000054749   0.0000004244  -0.0000134325  -0.0000259954
        0.0000027520   0.0000044579   0.0000068052   0.0000029105  -0.0000019019
       -0.0000090740  -0.0000213485  -0.0000037957   0.0000116485   0.0000053581
        0.0000047194   0.0000027446   0.0000044856  -0.0000066041  -0.0000107191
        0.0000076110   0.0000081218  -0.0000724586   0.0000070679
       -0.0660952733   0.0269916005  -0.1805854071   0.0015040168   0.0296510045
        0.6387081369  -0.0308965796   0.0141108175  -0.0885805168  -0.0212363763
        0.0128309592   0.0187942880   0.0230634580  -0.0120687966  -0.0034209221
       -0.0252796427   0.0081555131  -0.0726431905   0.1178595644  -0.0766281415
       -0.2570154535  -0.0052948462   0.0052263639  -0.0008445342   0.0019058252
       -0.0012603904   0.0006021062  -0.0005150113   0.0002114768   0.0003247426
        0.0002381352  -0.0003120052  -0.0001347256  -0.0003995978   0.0003162343
       -0.0001285800   0.0003202401  -0.0000077285   0.0001664090  -0.0001259471
       -0.0001206091  -0.0000167840   0.0000480659  -0.0000013818   0.0000233956
       -0.0000129550   0.0000039312  -0.0000136636   0.0000169797  -0.0000098145
       -0.0000178603  -0.0002142459  -0.0000001239  -0.0000480069   0.0001866712
       -0.0006688171  -0.0003902767  -0.0009236487   0.0012752034   0.0001818833
        0.0013138958  -0.0019767178   0.0005019715  -0.0007932380   0.0008514657
       -0.0001306984  -0.0007750542   0.0018017835   0.0002321731   0.0001992722
       -0.0005155366  -0.0003869153   0.0000523291   0.0002687018  -0.0001235545
        0.0006582892   0.0000127482  -0.0002540905  -0.0007777701  -0.0000179400
       -0.0000567629   0.0003730232   0.0001555780   0.0000254893  -0.0001856539
       -0.0000258923  -0.0000246026   0.0001064057   0.0000457693  -0.0000051223
       -0.0001758414  -0.0000887313  -0.0000418965   0.0003324632   0.0000451047
        0.0000334938  -0.0005104571   0.0005381339   0.0003976531   0.0009247850
       -0.0032767591   0.0008950881   0.0006725681  -0.0007130777  -0.0010574912
        0.0000434839  -0.0000852646  -0.0002151717   0.0007117991  -0.0002893140
       -0.0002844315   0.0000384666   0.0000483397   0.0001576890  -0.0005510170
        0.0002181800   0.0002176213  -0.0000863563   0.0001833432  -0.0004661644
       -0.0010090669   0.0005859309   0.0016817022  -0.0019916066   0.0008951948
       -0.0053007046   0.0000527661  -0.0000929873  -0.0000035345  -0.0000350255
        0.0000234148  -0.0000689904   0.0000390270  -0.0000291077  -0.0000340315
       -0.0000329590   0.0000143861   0.0000522715  -0.0000005608   0.0000137557
       -0.0000058970   0.0000184839  -0.0000226161  -0.0000352170   0.0000036078
        0.0000008481  -0.0000221612   0.0000047422  -0.0000059057  -0.0000230356
        0.0000533300  -0.0000322847  -0.0000069405  -0.0000684847   0.0000014311
       -0.0000044932  -0.0053316062   0.0060368027  -0.0239173661  -0.0019352098
        0.0013177005   0.0024021945  -0.0075314485  -0.0008716094  -0.0223695411
        0.0228558424  -0.0125594432  -0.0018158364  -0.0031217846   0.0007818018
       -0.0040399702   0.0024174212  -0.0012744147  -0.0012944445  -0.0000925344
       -0.0000946587  -0.0000423521  -0.0001291814  -0.0001330487   0.0000123383
        0.0000456956   0.0000467846   0.0000317031  -0.0000430174   0.0000124796
       -0.0000135156  -0.0000291799  -0.0000085945   0.0000030780  -0.0000310844
       -0.0000215258   0.0000649849   0.0000431218   0.0000043563   0.0000032094
       -0.0000578329   0.0000497253   0.0000111068   0.0001218850   0.0002114885
       -0.0000148370   0.0001206464   0.0002140006   0.0002103070  -0.0000659924
        0.0000268062   0.0000060324   0.0000434519   0.0000523804  -0.0000165612
        0.0000474312   0.0000214583   0.0000165390   0.0000454111  -0.0000194934
        0.0000363929  -0.0000443777  -0.0000355155   0.0000279263   0.0000866239
       -0.0000026857   0.0000151678  -0.0000686966   0.0000430402  -0.0000820252
       -0.0000370851  -0.0000291862   0.0000055865  -0.0000476399   0.0000043709
       -0.0000233808  -0.0000183458   0.0000493209   0.0000268550   0.0000047886
       -0.0000324632   0.0000407964   0.0000703380  -0.0000418966   0.0000280298
       -0.0000256544  -0.0000203860   0.0000174183  -0.0000046083  -0.0000045590
        0.0000020622  -0.0000026445   0.0000070573   0.0000050952   0.0000131911
       -0.0000010447   0.0000058388  -0.0000052900   0.0000072125   0.0000082552
        0.0000084708  -0.0000055706   0.0000052221   0.0000025410   0.0000250755
       -0.0000025784  -0.0000197558  -0.0000106658   0.0000019336  -0.0000048777
        0.0000020899   0.0000315173   0.0000032412  -0.0000234619   0.0000003003
        0.0000075695   0.0000038636   0.0000038859  -0.0000026375   0.0000072293
       -0.0000079238  -0.0000416645   0.0000379078   0.0000122699
       -0.0170978914   0.0092198066  -0.0100327020  -0.2387304728   0.0977727487
       -0.0308965796   0.5148895971  -0.2151596723   0.0217250581  -0.1378085085
        0.0466259337  -0.0749259442   0.0321295727  -0.0190664895  -0.0317894897
       -0.0271483639   0.0109621775  -0.0259618070  -0.0240156280   0.0180318894
        0.0657404124  -0.0007877595   0.0008982315   0.0016469003   0.0010413970
        0.0007385290   0.0003782197  -0.0003727496  -0.0003476789   0.0003801186
        0.0001543796   0.0001406507  -0.0000911167   0.0003965840  -0.0001410083
       -0.0001165318  -0.0001877608   0.0001610812   0.0001162344   0.0000649663
        0.0001507575  -0.0000173621  -0.0000264398  -0.0000110139  -0.0000733230
       -0.0000298612   0.0000177124  -0.0000131300   0.0000436314  -0.0000486198
        0.0000077299   0.0000936528  -0.0000122189   0.0001312655  -0.0007450020
        0.0006711166  -0.0002459973   0.0006703011  -0.0004754276   0.0001297022
       -0.0005333971   0.0001001507   0.0003819347   0.0004527724  -0.0003248047
        0.0000091354   0.0011315431  -0.0005360079   0.0004538085  -0.0010658208
        0.0002901024  -0.0005177728   0.0007972643  -0.0005007975   0.0000305720
       -0.0008285182   0.0003822737  -0.0003374444   0.0007260350   0.0001744781
        0.0000370699  -0.0002953124  -0.0001950968   0.0000170589   0.0001796986
        0.0000387500   0.0000109143  -0.0001240249  -0.0000336088  -0.0000024955
        0.0001802229   0.0001187102   0.0000334376  -0.0003588917   0.0000372414
       -0.0000481150   0.0000654615   0.0001073929   0.0002898309  -0.0008082591
       -0.0005444545   0.0008542769  -0.0022386900   0.0010950700  -0.0004804075
       -0.0001751454   0.0001393450  -0.0001137726  -0.0012230965   0.0005905368
        0.0005437932  -0.0000029062  -0.0000681458  -0.0004024203   0.0013923258
       -0.0006579829  -0.0007030646   0.0001194332  -0.0004263664   0.0021511276
        0.0027973767  -0.0010146348  -0.0039696515   0.0021904814   0.0022440007
        0.0137558811  -0.0010057796   0.0004146584  -0.0003284949   0.0000110161
       -0.0000646996   0.0000122289   0.0000426735   0.0000071997  -0.0000213010
        0.0000807058  -0.0000279315  -0.0000822847   0.0000073914  -0.0000106689
        0.0000182400  -0.0000159780   0.0000168122   0.0000351905   0.0000256852
       -0.0000010805   0.0000367229   0.0000254414  -0.0000059594   0.0000422097
        0.0000016124  -0.0000459371  -0.0000286047   0.0001001083   0.0000681406
       -0.0001732364  -0.0009321764   0.0002362961   0.0010676269  -0.0012549802
        0.0012597746  -0.0025666592  -0.0001472567   0.0010410637   0.0011779644
       -0.0879629440   0.0355513751   0.0939406479  -0.0144766412   0.0068740745