$hessian                                                                        
        0.4994119947  -0.0127312142   0.0236104137  -0.1074525359  -0.0724164742
        0.0094266410  -0.0187704856  -0.0227994095  -0.0002444516  -0.0004880779
       -0.0005195064  -0.0052255546  -0.0007725024  -0.0009650171  -0.0000148349
       -0.0002884105  -0.0008482174   0.0002461068  -0.0004048018   0.0008087642
        0.0004591819   0.0000515368   0.0000534234   0.0000493165   0.0001261776
       -0.0001154569  -0.0000756539  -0.0000617117  -0.0000487368   0.0000163469
        0.0001872216  -0.0001446075  -0.0000839480  -0.0001337688   0.0002002297
        0.0000418585   0.0000190000   0.0000111217  -0.0000146548  -0.0000058565
       -0.0000275159  -0.0000105324   0.0000107012   0.0000036053  -0.0000373814
        0.0000015306   0.0000386149   0.0000052031  -0.0000053022  -0.0000058613
        0.0000065002  -0.0000010779   0.0000011280   0.0000309528  -0.0000057731
       -0.0000322238   0.0000016016  -0.0000004516   0.0000033839   0.0000117793
        0.0000078518  -0.0000476925  -0.0000018314  -0.0000017116   0.0000112595
       -0.0000231876   0.0000118665  -0.0000123754  -0.0000025994  -0.0000085715
        0.0000073097  -0.0000047640  -0.0000011915  -0.0000046683   0.0000118953
       -0.0000159671   0.0000102888   0.0000121234  -0.0000404494   0.0000044204
        0.0000101235   0.0000283964  -0.0000038492   0.0000083859  -0.0000397585
       -0.0000158236   0.0000071372  -0.0000105569   0.0000029472  -0.0000029500
        0.0000107359  -0.0000078630  -0.0000025745  -0.0000150433  -0.0000592201
       -0.0000073754  -0.0000890581   0.0000164812   0.0000206462  -0.0000313953
        0.0000652812  -0.0000493455  -0.0000273302  -0.0001064355   0.0000477458
       -0.0000788902   0.0000270367   0.0000251400   0.0000379595  -0.0000615151
        0.0000219988   0.0000174707   0.0000682682  -0.0000418657   0.0001068152
       -0.0000288791  -0.0000267218  -0.0000251732   0.0000032241   0.0000126911
        0.0000007210  -0.0000000220   0.0000016806  -0.0000029643   0.0000022447
       -0.0000021588   0.0001870214  -0.0001460933  -0.0000215762  -0.0001939099
        0.0002161317   0.0001517190   0.0000115396   0.0000021700   0.0000065823
       -0.0000125788  -0.0001337136   0.0000762350  -0.0001061022   0.0000661684
        0.0000670237  -0.0000056546   0.0000262918   0.0000005028   0.0001523018
       -0.0001572855  -0.0001126862   0.0000401542   0.0001882907  -0.0001642396
        0.0000113431   0.0000002249   0.0000015889   0.0027711378  -0.0009434494
       -0.0033659596   0.0000403486   0.0002755542  -0.0000039224   0.0032648213
        0.0007960821  -0.0000798853  -0.1610269742  -0.0119624041  -0.1200415612
       -0.1277608534   0.1165860307   0.0020333418  -0.0883239411   0.0027924374
        0.0911269343  -0.0000201543   0.0000248817   0.0017703659   0.0000216572
       -0.0000845266  -0.0000491198   0.0000315677  -0.0000393017   0.0001614048
       -0.0002662309  -0.0000417517  -0.0001786752   0.0000228737  -0.0000174704
       -0.0000411747  -0.0000021590  -0.0000136942  -0.0000075678  -0.0000150595
        0.0000039059  -0.0000031745  -0.0000015956  -0.0000020831  -0.0000001762
       -0.0000017355  -0.0000010312   0.0000001819  -0.0000019531  -0.0000029314
       -0.0000009759   0.0000008464  -0.0000030978   0.0000052185   0.0000058929
       -0.0000065023  -0.0000008802  -0.0000001594   0.0000015185  -0.0000021453
        0.0000004185  -0.0000011115   0.0000018730   0.0000000871  -0.0000023657
        0.0000018456  -0.0000002823  -0.0000013293   0.0000005407  -0.0000014028
        0.0000032143   0.0000017083  -0.0000025852  -0.0000016461   0.0000014961
        0.0000015912   0.0000048256   0.0000005519  -0.0000015308  -0.0000022680
        0.0000004606   0.0000100777  -0.0000012596   0.0000065572   0.0000035242
        0.0000034863  -0.0000040112  -0.0000086221   0.0000120854   0.0000001638
       -0.0000074408   0.0000028251   0.0000026154  -0.0000001559  -0.0000006399
        0.0000025115  -0.0000006353   0.0000013152   0.0000021963  -0.0000004715
       -0.0000012241   0.0000013937   0.0000004986   0.0000016744   0.0000028796
       -0.0000001810  -0.0000005903   0.0000016198   0.0000007220  -0.0000003877
       -0.0000054101  -0.0000654483  -0.0000512453  -0.0000094832   0.0000198344
        0.0000356426   0.0000441777   0.0000064101  -0.0000240374  -0.0000016894
        0.0000002164  -0.0000092631  -0.0000021497   0.0000053422   0.0000098757
       -0.0000002702  -0.0000038932   0.0000024411  -0.0000072380  -0.0000009773
       -0.0000032107   0.0000001008  -0.0000015837  -0.0000088391   0.0000029948
       -0.0000033677  -0.0000070414  -0.0000110722  -0.0000016591  -0.0000064878
        0.0000014996   0.0000019577   0.0000024493  -0.0000024138   0.0000029168
        0.0000205778   0.0000038586   0.0000276301   0.0000578008  -0.0000620339
        0.0000168626   0.0000212031  -0.0000120066  -0.0000714594   0.0021827303
        0.0004962701
       -0.0127312142   0.4754690974   0.0003317038  -0.0687873251  -0.1695800140
        0.0213111468  -0.0117178840  -0.0104853106  -0.0029599806  -0.0015143298
        0.0036059056   0.0003472466  -0.0002026794  -0.0003187214  -0.0000111054
       -0.0009368238  -0.0012717251   0.0000432576   0.0002240229   0.0000827677
       -0.0004108380   0.0002112543   0.0000954164   0.0001378007   0.0003581772
       -0.0002135087  -0.0001862543  -0.0003941963  -0.0003737647  -0.0000691280
        0.0007007543  -0.0001569154  -0.0001507021  -0.0004007054   0.0005696797
        0.0001159444   0.0002399037   0.0001249012   0.0000764188   0.0000146014
       -0.0000722298  -0.0000481987   0.0000270224   0.0000129974  -0.0000200042
       -0.0000030440   0.0000515942  -0.0000148989  -0.0000078675  -0.0000128608
        0.0000227591  -0.0000038569  -0.0000039916   0.0000370803   0.0000009225
       -0.0000398517   0.0000251835   0.0000048174   0.0000047790  -0.0000041851
       -0.0000066006  -0.0000517048  -0.0000011964   0.0000033625   0.0000083561
       -0.0000325910   0.0000025736  -0.0000046062  -0.0000025367  -0.0000057994
        0.0000071667  -0.0000134068  -0.0000064539  -0.0000021110   0.0000153729
       -0.0000143698   0.0000025684   0.0000209679  -0.0001138993   0.0000664020
        0.0000453086   0.0000503602  -0.0000041581   0.0000165572  -0.0000874647
        0.0000017993   0.0000253287  -0.0000056605  -0.0000324750  -0.0000257570
        0.0000529174  -0.0000067204  -0.0000058152   0.0000018488  -0.0001178580
       -0.0000030053  -0.0003213825   0.0000415399   0.0000658027  -0.0000504773
        0.0002227318  -0.0001416768  -0.0001304680  -0.0003109136   0.0001693108
       -0.0001837109   0.0000766263   0.0000421179   0.0000626666  -0.0002044329
        0.0000811970   0.0000599556   0.0002393251  -0.0001556121   0.0002931411
       -0.0000925758  -0.0000736185  -0.0000349251   0.0000002680   0.0000319580
        0.0000084129   0.0000022097   0.0000004561  -0.0000034782   0.0000062842
       -0.0000145487  -0.0000369856  -0.0001323929  -0.0000060877  -0.0002266435
        0.0002903166   0.0002017700   0.0000073824   0.0000236893  -0.0000104215
       -0.0000361973  -0.0001825529   0.0001201990  -0.0001226360   0.0001041599
        0.0000547953  -0.0000108475   0.0000332888  -0.0000000611   0.0001838409
       -0.0001857113  -0.0001133240   0.0000530304   0.0002212396  -0.0002150075
        0.0000089304  -0.0000027954  -0.0000078881   0.0005793413   0.0009179860
        0.0049040896  -0.0004177714  -0.0008664233   0.0001722515  -0.0117234912
       -0.0233902444   0.0087122729  -0.0118540257  -0.0451335129  -0.0136729741
        0.1131257857  -0.1910705387  -0.0076310887   0.0045306030  -0.0380120918
       -0.0091726722   0.0014195133   0.0000280475  -0.0001616773   0.0000641882
       -0.0000380959  -0.0000385906   0.0000023748  -0.0000070542   0.0000724004
       -0.0000481332   0.0000679431  -0.0000358336   0.0000232173  -0.0000638337
       -0.0000403558  -0.0000054758  -0.0000188697  -0.0000156901  -0.0000072328
       -0.0000036278   0.0000022973  -0.0000019973  -0.0000004799   0.0000017564
       -0.0000042863  -0.0000032097  -0.0000032284  -0.0000044027  -0.0000031525
       -0.0000067459  -0.0000027751   0.0000002342  -0.0000005524  -0.0000003576
       -0.0000149377   0.0000048818   0.0000004427   0.0000026463  -0.0000048698
        0.0000016117  -0.0000019904   0.0000053893   0.0000034699  -0.0000055116
        0.0000035829   0.0000046249  -0.0000043486  -0.0000011533  -0.0000007615
        0.0000036752  -0.0000015791  -0.0000027613  -0.0000061750   0.0000017079
        0.0000006486   0.0000034695   0.0000025183  -0.0000079484  -0.0000054687
       -0.0000005094   0.0000109000   0.0000068268   0.0000177779   0.0000033065
        0.0000120644  -0.0000031988  -0.0000124124   0.0000249687   0.0000026605
       -0.0000158102   0.0000083958   0.0000071127  -0.0000029762  -0.0000006710
        0.0000019452  -0.0000023641   0.0000048073   0.0000043277  -0.0000027816
       -0.0000041375   0.0000044317   0.0000014748   0.0000065554   0.0000062355
        0.0000006364  -0.0000047192   0.0000062622  -0.0000025213  -0.0000010444
       -0.0000093633  -0.0000562123  -0.0000209251   0.0000582785   0.0000195103
        0.0000092888   0.0000389061  -0.0000006506  -0.0000451793  -0.0000163657
        0.0000049649  -0.0000156202  -0.0000115639   0.0000029989   0.0000102405
        0.0000006411  -0.0000052487   0.0000053481  -0.0000082583   0.0000036868
       -0.0000050950  -0.0000037834  -0.0000042893  -0.0000178484   0.0000049340
        0.0000196705  -0.0000236009  -0.0000230327   0.0000023626  -0.0000087608
       -0.0000003665   0.0000012715  -0.0000014526  -0.0000056390  -0.0000754697
       -0.0000075312  -0.0001508323   0.0000725301  -0.0001650010   0.0001259329
       -0.0000480088  -0.0000161032   0.0001216326  -0.0000609411   0.0003695506
       -0.0019061362
        0.0236104137   0.0003317038   0.5070815688   0.0054391306   0.0163467843
       -0.0653527610  -0.0087630425  -0.0129619146   0.0023805885  -0.0049027907
        0.0005995340   0.0007211034  -0.0005072699  -0.0007762574  -0.0000443833
        0.0001784191   0.0005789244  -0.0001812583   0.0003692310  -0.0006285758
       -0.0003277003   0.0002291873  -0.0000031490   0.0000233483  -0.0001344870
        0.0001526459   0.0000818176   0.0001533517   0.0001121113  -0.0000031831
       -0.0002091944   0.0000742535   0.0000476124   0.0001564073  -0.0001690131
       -0.0000478027  -0.0000803701  -0.0000793263  -0.0000024966  -0.0000012860
        0.0000303693   0.0000211988  -0.0000124995  -0.0000196961  -0.0000516087
        0.0000070127   0.0000082230   0.0000344786  -0.0000019770   0.0000065688
       -0.0000283540   0.0000060975   0.0000115527   0.0000120813  -0.0000099125
       -0.0000080642  -0.0000360403  -0.0000013648  -0.0000046967   0.0000326781
        0.0000163133  -0.0000137275  -0.0000034741  -0.0000083041   0.0000101826
        0.0000020395   0.0000125093  -0.0000142042   0.0000025749  -0.0000044732
        0.0000049828   0.0000098684   0.0000083983  -0.0000079769   0.0000024132
       -0.0000114550   0.0000163580  -0.0000024329   0.0000196424  -0.0000408361
       -0.0000013762   0.0000271063   0.0000153227  -0.0000239911  -0.0000109458
        0.0000007811   0.0000064885   0.0000143021   0.0000237514   0.0000067843
       -0.0000729706  -0.0000037326   0.0000215077   0.0000521611   0.0000593958
       -0.0000073888   0.0000588984  -0.0000329314  -0.0000248800   0.0000325138
       -0.0000241720   0.0000135813   0.0000312288   0.0000338496  -0.0000145292
        0.0000372737  -0.0000007737  -0.0000179203  -0.0000259261   0.0000058506
        0.0000071294  -0.0000061216  -0.0000079961   0.0000103373  -0.0000627155
       -0.0000032552   0.0000199542   0.0000020860  -0.0000018644  -0.0000116861
       -0.0000032440  -0.0000001767  -0.0000004324   0.0000052588  -0.0000008453
        0.0000062306  -0.0001074146  -0.0001244114  -0.0000429421   0.0000180846
       -0.0000393391  -0.0000359424  -0.0000213782  -0.0000070529   0.0000025511
        0.0000284124  -0.0000051754  -0.0000003187   0.0000170156  -0.0000063598
       -0.0000055674   0.0000017444  -0.0000029321  -0.0000037118   0.0000013275
       -0.0000022728   0.0000308282  -0.0000201669  -0.0000137022   0.0000343595
        0.0000108805   0.0000003819   0.0000007371  -0.0040289683   0.0038249046
        0.0003222916   0.0005607142   0.0008085944  -0.0002791937   0.0092566415
        0.0198690525  -0.0041997981  -0.1199464061  -0.0135062001  -0.1666918590
        0.0026490656  -0.0079163627  -0.0418336354   0.0931821351  -0.0051777887
       -0.2310042220   0.0008114384  -0.0015373329  -0.0000544797   0.0000002057
        0.0000203568  -0.0000423527   0.0000624835  -0.0000025810   0.0000929344
       -0.0001608500  -0.0000669410  -0.0001698833  -0.0000373053  -0.0000179284
       -0.0000187298   0.0000032495  -0.0000051686   0.0000096791   0.0000004586
        0.0000024527  -0.0000019103  -0.0000002394  -0.0000009274  -0.0000012641
        0.0000020639   0.0000029598   0.0000043135   0.0000011697  -0.0000003020
        0.0000063807   0.0000026713  -0.0000052778   0.0000072381   0.0000062603
        0.0000028537  -0.0000072726   0.0000019287  -0.0000029277   0.0000011506
       -0.0000005104   0.0000018942  -0.0000062489  -0.0000039245   0.0000043416
       -0.0000015942  -0.0000044554   0.0000026912   0.0000009404   0.0000001648
        0.0000000994   0.0000019202   0.0000003502   0.0000045405   0.0000007790
        0.0000036026   0.0000031516   0.0000013598   0.0000057649   0.0000025410
       -0.0000011191   0.0000006878   0.0000007484  -0.0000048701  -0.0000008570
       -0.0000123865   0.0000061934   0.0000045547  -0.0000106624   0.0000006783
        0.0000068369  -0.0000037804  -0.0000002574   0.0000002440   0.0000005701
        0.0000006326   0.0000019512  -0.0000054628  -0.0000018536   0.0000010498
        0.0000041820  -0.0000012107  -0.0000003605  -0.0000062810  -0.0000047147
       -0.0000004854   0.0000041440  -0.0000027248   0.0000015347   0.0000012026
        0.0000046649   0.0000191577   0.0000180123  -0.0000337064  -0.0000007957
        0.0000226039   0.0000048398   0.0000045925   0.0000089938   0.0000099208
       -0.0000042781   0.0000051189   0.0000056089   0.0000007577   0.0000033740
        0.0000021448  -0.0000032914   0.0000032329  -0.0000041279  -0.0000031749
        0.0000029057   0.0000035240   0.0000007189   0.0000030682  -0.0000042669
       -0.0000173520   0.0000040108  -0.0000007581  -0.0000018933  -0.0000018700
        0.0000020589   0.0000036714   0.0000064859   0.0000015133   0.0000688397
       -0.0000552721   0.0000996244  -0.0000735750   0.0001118385  -0.0001074999
       -0.0000176575   0.0000394352  -0.0000719914   0.0020763167   0.0001259960
       -0.0003805257
       -0.1074525359  -0.0687873251   0.0054391306   0.4487172542   0.1354942812
        0.1845329750  -0.2011866856  -0.0177334240  -0.1302242322  -0.0370382253
       -0.0540161809   0.0038881013   0.0029925211  -0.0044627464  -0.0015655557
       -0.0099489204   0.0132203037  -0.0159671292   0.0026359606  -0.0021378056
        0.0009703621  -0.0035711457  -0.0017517082  -0.0012657921  -0.0018232408
        0.0015483066   0.0015523676   0.0023449027   0.0021745498   0.0003181401
       -0.0051031071   0.0018809983   0.0010108747   0.0028973226  -0.0047030541
       -0.0013182278  -0.0011450536  -0.0000665453  -0.0003462296  -0.0000434636
        0.0004898943   0.0003424381  -0.0002533197   0.0002358201   0.0007769849
       -0.0001223997  -0.0004278307  -0.0005246412   0.0000834258  -0.0001687703
        0.0003757124  -0.0001432732  -0.0002552945  -0.0003453624   0.0001956470
        0.0002553255   0.0006079794  -0.0000496201   0.0002965234  -0.0005318340
       -0.0001717755   0.0005207810   0.0002063115   0.0000879457  -0.0002513131
        0.0002786733  -0.0003193573   0.0003521510   0.0000877548   0.0002513161
       -0.0002412714  -0.0001100318  -0.0001488638   0.0001825620  -0.0001331283
        0.0003490631  -0.0003138202  -0.0002233901   0.0015737229  -0.0016798077
       -0.0010148373  -0.0004546066  -0.0001994768  -0.0001655085   0.0007650526
       -0.0013815874  -0.0006836533  -0.0007222038   0.0016062052   0.0006317631
       -0.0004309726  -0.0000062318  -0.0001237679  -0.0007697061   0.0018720872
        0.0005715617   0.0020882570  -0.0002747990  -0.0001917864   0.0001973053
       -0.0017824968   0.0006804829   0.0006726181   0.0014819395  -0.0007916386
        0.0005815992  -0.0005097883  -0.0000676840   0.0002038658   0.0010188255
       -0.0005474683  -0.0002053318  -0.0014583116   0.0010295459  -0.0011521211
        0.0006123667   0.0002428481  -0.0000982462   0.0000213614  -0.0002393595
       -0.0000088103   0.0000216262   0.0000530706   0.0000038439   0.0000063550
        0.0000307748  -0.0004106674   0.0024737185  -0.0001379738   0.0010775678
       -0.0022171223  -0.0004749920  -0.0001228444   0.0003812653  -0.0002929808
        0.0000098167   0.0017353360  -0.0007453993   0.0003591503  -0.0011976246
        0.0001808923  -0.0001106998   0.0002234225  -0.0000265548  -0.0010897195
        0.0013715998   0.0003293837   0.0000139070  -0.0023220390   0.0010324713
       -0.0000225719   0.0000318090  -0.0000150152   0.0232129797   0.0170506590
        0.0112451078   0.0016788443  -0.0052707596  -0.0011952066  -0.0879208854
       -0.0046034899  -0.0353629281  -0.0158683473  -0.0190310728  -0.0005263743
        0.0101436670   0.0098698610  -0.0012039127  -0.0092044390  -0.0147336221
        0.0065968341  -0.0070954259   0.0007009399  -0.0061970142   0.0008524677
        0.0001925287   0.0001142957   0.0002295396   0.0002360696  -0.0000745496
       -0.0009878139   0.0000015577  -0.0007074984  -0.0002557631   0.0001835496
        0.0003405625  -0.0000221382   0.0000165305   0.0000372314  -0.0000201080
        0.0001126061   0.0000537767   0.0000020904   0.0000268558  -0.0000041320
       -0.0000135182  -0.0000023422  -0.0000049085  -0.0000127099   0.0000048595
       -0.0000140304  -0.0000079676   0.0000379734  -0.0000281393   0.0000092618
        0.0000215841   0.0000408497  -0.0000077384   0.0000096617   0.0000081260
        0.0000003716   0.0000006660   0.0000375154   0.0000162651  -0.0000113621
        0.0000045827   0.0000109500  -0.0000013977  -0.0000009993   0.0000054216
        0.0000121916  -0.0000068359   0.0000085512   0.0000372455   0.0000052114
        0.0000259624   0.0000070155   0.0000618794   0.0000486287  -0.0000122714
        0.0000827789   0.0000078651  -0.0001446174  -0.0000919153   0.0000031474
        0.0000399158  -0.0000511542  -0.0000185786   0.0000326289  -0.0000243045
       -0.0000062052   0.0000035660   0.0000019399   0.0000304626  -0.0000014635
        0.0000210718   0.0000047643   0.0000218563   0.0000020842   0.0000140333
       -0.0000146862  -0.0000057733  -0.0000136673   0.0000200805   0.0000073973
        0.0000027704  -0.0000061712  -0.0000050451   0.0000241295  -0.0000150482
       -0.0000091297   0.0005269762   0.0000286598  -0.0002582844  -0.0001922864
       -0.0003741735  -0.0002636374  -0.0000112480   0.0001353415   0.0000764529
        0.0000424356  -0.0000003603  -0.0000471027  -0.0000201074  -0.0001133864
       -0.0000131117   0.0000673484  -0.0000979739   0.0000875584   0.0000224660
       -0.0000251467  -0.0000294302  -0.0000150784   0.0000282315   0.0000086167
       -0.0001199415   0.0001021008   0.0000970258  -0.0000236528   0.0000325926
        0.0000293697   0.0000553410   0.0000352456   0.0000668938  -0.0001822658
       -0.0000519491  -0.0002754220   0.0003012874   0.0006485824  -0.0006996812
       -0.0007329451  -0.0000772728   0.0003006958  -0.0085777737   0.0137743706
       -0.0193237631
       -0.0724164742  -0.1695800140   0.0163467843   0.1354942812   0.5169028059
       -0.1596554328  -0.0625005967  -0.0815425593  -0.0334774933  -0.0203454346
       -0.0104885037  -0.0138565105  -0.0041786857  -0.0011332413   0.0025688518
        0.0132900954   0.0070362434   0.0045563578   0.0016240082  -0.0043634933
       -0.0000668067  -0.0020925182   0.0002078544  -0.0015294720  -0.0010537222
        0.0005432826   0.0005025007   0.0008438425   0.0010063535   0.0003932740
       -0.0024371237   0.0013044259   0.0009146111   0.0014221383  -0.0026371666
       -0.0005676366  -0.0002346772   0.0000867254   0.0001771072  -0.0000701997
        0.0003422820   0.0001291643  -0.0001654808  -0.0000315555   0.0000679019
       -0.0000269459  -0.0000742016  -0.0000998399   0.0000292568  -0.0000451398
        0.0000818988  -0.0000193309  -0.0000097233  -0.0000415500   0.0000200154
       -0.0000108695   0.0000608329  -0.0000120836   0.0000674303  -0.0001258774
        0.0001507385  -0.0001283783   0.0000365923  -0.0000208365   0.0000046716
        0.0000311468   0.0000746918  -0.0000648537  -0.0000712243  -0.0000604563
        0.0000498846   0.0000255745  -0.0000224397  -0.0000087048   0.0000010085
       -0.0000259539   0.0000334116   0.0000387316   0.0006100131  -0.0006832515
       -0.0003847281  -0.0001285064  -0.0001003858  -0.0001052656   0.0002490564
       -0.0004576289  -0.0002306538  -0.0002361396   0.0005873208   0.0002466716
       -0.0003287222   0.0000004762   0.0000185461  -0.0002657125   0.0005188223
        0.0001511397   0.0010070130  -0.0000866259  -0.0002140676  -0.0000035966
       -0.0007068642   0.0003134856   0.0004066426   0.0007088736  -0.0004261600
        0.0002519547  -0.0001205048  -0.0000513739   0.0000937492   0.0004789661
       -0.0002471642  -0.0001325062  -0.0006392128   0.0004649693  -0.0005961501
        0.0002248386   0.0001628124  -0.0000530109   0.0000108237  -0.0001101156
       -0.0000236978   0.0000104540   0.0000134597  -0.0000006788   0.0000034369
        0.0000484707  -0.0012258828   0.0037551144  -0.0003260512   0.0019060684
       -0.0016055005  -0.0008590475  -0.0001531780  -0.0001798169   0.0001591064
       -0.0001209195   0.0011414506  -0.0004655970   0.0007039840  -0.0009841636
       -0.0004231011  -0.0000557956   0.0001651716  -0.0000122556  -0.0013227789
        0.0015162861   0.0006271617  -0.0001409342  -0.0022349521   0.0009009183
       -0.0000796053   0.0000319277  -0.0000161626  -0.0244070600  -0.0535541137
        0.0187896238  -0.0045791226  -0.0004718582   0.0019223721   0.0510542212
       -0.1699869480   0.1399668064  -0.0057616320  -0.0040287191  -0.0018852246
       -0.0119582283  -0.0296028254   0.0061098500  -0.0051964556  -0.0049444500
        0.0070859598   0.0147627914   0.0023644889   0.0131424884  -0.0009090741
       -0.0003221190  -0.0000322598   0.0002389812  -0.0000367133   0.0003499767
       -0.0005909143  -0.0000482398   0.0002080982  -0.0002423035   0.0001010377
        0.0001357903   0.0000044478   0.0000134785  -0.0000963437   0.0000141093
        0.0001147751   0.0000432124   0.0000006744   0.0000194967  -0.0000054554
        0.0000025655   0.0000175153   0.0000152682   0.0000005481   0.0000048275
        0.0000201979  -0.0000037494  -0.0000002337   0.0000056685   0.0000068863
        0.0000340694   0.0000107800  -0.0000010567   0.0000010470   0.0000118494
       -0.0000068146   0.0000151965  -0.0000127791  -0.0000123347   0.0000322618
       -0.0000116348  -0.0000258191   0.0000268855   0.0000224468   0.0000027749
       -0.0000002571  -0.0000000217   0.0000002684   0.0000428547   0.0000111985
        0.0000265457   0.0000268875   0.0000170539   0.0000408527   0.0000088121
        0.0000215237  -0.0000024387  -0.0000559855  -0.0000365556  -0.0000105963
       -0.0000235661   0.0000071656   0.0000092220  -0.0000239739  -0.0000141671
        0.0000247401  -0.0000172475  -0.0000070132   0.0000126601  -0.0000005369
        0.0000136480   0.0000087252  -0.0000120587  -0.0000026991   0.0000143654
        0.0000121630  -0.0000110530  -0.0000054626  -0.0000198947  -0.0000104935
        0.0000029621   0.0000208264  -0.0000199675   0.0000241863  -0.0000082093
        0.0000119410   0.0002898653   0.0000046659   0.0000358570  -0.0001626530
        0.0000712865  -0.0001945261  -0.0000090130   0.0001418500   0.0000508958
        0.0000146542  -0.0000108443  -0.0000262682  -0.0000238105  -0.0001206600
       -0.0000034200   0.0000443723  -0.0000729071   0.0000601951   0.0000051215
       -0.0000164526  -0.0000062824   0.0000251259   0.0000388989   0.0000377957
        0.0000496298   0.0000450982   0.0000985227  -0.0000186873   0.0000732687
       -0.0000358155  -0.0000147586  -0.0000141084   0.0000826339  -0.0000230905
        0.0002564095  -0.0001126841   0.0002179910  -0.0014516986   0.0009385689
        0.0000796550   0.0000001831   0.0000553636  -0.0006406418   0.0025343149
       -0.0024335806
        0.0094266410   0.0213111468  -0.0653527610   0.1845329750  -0.1596554328
        0.4308824958  -0.0942902820   0.0110826381  -0.1433958270  -0.0184690576
       -0.0453902284   0.0144805737  -0.0013896909   0.0030697507   0.0027028606
       -0.0153216775   0.0043141932  -0.0227581866   0.0018560219   0.0011194411
        0.0009322258  -0.0021819123  -0.0017745333  -0.0003063520  -0.0010517416
        0.0010986564   0.0012026134   0.0018198880   0.0015520896   0.0001247650
       -0.0031928657   0.0008755345   0.0003093693   0.0018668443  -0.0027824321
       -0.0009129580  -0.0009544229  -0.0001718113  -0.0004780838   0.0000004803
        0.0002136269   0.0002223951  -0.0001367779   0.0002338252   0.0006646254
       -0.0000917799  -0.0003271864  -0.0004347288   0.0000685716  -0.0000956021
        0.0002994040  -0.0001124147  -0.0002343357  -0.0002451921   0.0001607710
        0.0001997473   0.0005070430  -0.0000342766   0.0002163591  -0.0004179688
       -0.0002705090   0.0005809942   0.0001657433   0.0001078824  -0.0002580266
        0.0002556442  -0.0003491357   0.0003834827   0.0001130883   0.0002662082
       -0.0002516256  -0.0001235057  -0.0001400057   0.0001940408  -0.0001220649
        0.0003586903  -0.0003380244  -0.0002230882   0.0010207003  -0.0011107115
       -0.0006807166  -0.0003372971  -0.0001057692  -0.0000787877   0.0005339214
       -0.0009313708  -0.0004681038  -0.0004709544   0.0010858059   0.0003963585
       -0.0002182516  -0.0000407076  -0.0001249121  -0.0005597056   0.0013103808
        0.0004376579   0.0011758262  -0.0001814021  -0.0000057681   0.0001613263
       -0.0012193179   0.0004297901   0.0003955424   0.0009899891  -0.0005199451
        0.0003616336  -0.0004074641  -0.0000217060   0.0001493334   0.0006646131
       -0.0003735952  -0.0001000636  -0.0009888120   0.0006790052  -0.0007291284
        0.0004638098   0.0001314232  -0.0000512385   0.0000133625  -0.0001502120
        0.0000103761   0.0000122150   0.0000428853  -0.0000062030   0.0000051557
        0.0000013726   0.0004513787  -0.0001369804   0.0000547068  -0.0002688458
       -0.0011235769   0.0002422442   0.0000404435   0.0006028850  -0.0004233420
        0.0000793021   0.0010587532  -0.0004925687  -0.0001994573  -0.0005237398
        0.0005639850  -0.0000637834   0.0000904322  -0.0000119118  -0.0001167997
        0.0002805719  -0.0001542521   0.0000928561  -0.0007606195   0.0004294715
        0.0000252357   0.0000154922  -0.0000057437   0.0415616973   0.0558238326
       -0.0047933788  -0.0025645003   0.0011764714   0.0042154802  -0.0774074899
        0.0871647373  -0.1827938058  -0.0126936540  -0.0173526762   0.0017441785
       -0.0004537682   0.0018132036   0.0003741208   0.0159310639   0.0237488205
       -0.0051812114  -0.0192861201  -0.0003339277  -0.0147918710  -0.0006401294
       -0.0000526159  -0.0011279975   0.0002028712  -0.0001647993   0.0002368414
        0.0004912959   0.0005499977   0.0004403090  -0.0001004288   0.0001194273
        0.0002457405  -0.0000145776  -0.0000111432   0.0000849686  -0.0000347986
        0.0000239934   0.0000259022   0.0000002728   0.0000111003   0.0000027007
       -0.0000179790  -0.0000222017  -0.0000195315  -0.0000161289   0.0000026417
       -0.0000401484  -0.0000055500   0.0000483438  -0.0000326176   0.0000006731
        0.0000073253   0.0000422024  -0.0000067310   0.0000129352  -0.0000021337
        0.0000041044  -0.0000111700   0.0000510436   0.0000293278  -0.0000404282
        0.0000149996   0.0000345836  -0.0000248736  -0.0000216310   0.0000026841
        0.0000129724  -0.0000118807   0.0000097226   0.0000028807  -0.0000036595
        0.0000030250  -0.0000198203   0.0000467440   0.0000093674  -0.0000187496
        0.0000666484   0.0000063323  -0.0000984461  -0.0000571368   0.0000141969
        0.0000547968  -0.0000548538  -0.0000277822   0.0000545178  -0.0000126085
       -0.0000270702   0.0000153413   0.0000080086   0.0000211977  -0.0000009894
        0.0000101913  -0.0000013840   0.0000340288   0.0000049024   0.0000029461
       -0.0000248536   0.0000030636  -0.0000077203   0.0000350878   0.0000159566
        0.0000017915  -0.0000204923   0.0000101925   0.0000098254  -0.0000089192
       -0.0000242391   0.0002223317  -0.0000552832  -0.0002468151  -0.0000581271
       -0.0003926229  -0.0001091989   0.0000053255   0.0000153866   0.0000310843
        0.0000396969  -0.0000039816  -0.0000382036  -0.0000025641  -0.0000269796
       -0.0000119627   0.0000384561  -0.0000513874   0.0000502995   0.0000227428
       -0.0000162051  -0.0000301791  -0.0000300005  -0.0000002123  -0.0000182926
       -0.0001393568   0.0000441591   0.0000349235  -0.0000082280  -0.0000082469
        0.0000471439   0.0000564109   0.0000407655   0.0000032746   0.0001454708
       -0.0001163243   0.0000424998   0.0003153975   0.0003149664   0.0001743904
       -0.0011853677   0.0019573896  -0.0014286735  -0.0083079261   0.0115629439
       -0.0151652455
       -0.0187704856  -0.0117178840  -0.0087630425  -0.2011866856  -0.0625005967