 Entering Gaussian System
 *********************************************
 Gaussian 98:
 frequency output generated by the xtb code
 *********************************************
                         Standard orientation:
 --------------------------------------------------------------------
  Center     Atomic     Atomic              Coordinates (Angstroms)
  Number     Number      Type              X           Y           Z
 --------------------------------------------------------------------
    1          6             0       -6.061523   -5.381873    0.471733
    2          6             0       -5.230240   -4.150684    0.273228
    3          6             0       -4.143469   -3.871689    1.083689
    4          6             0       -3.369722   -2.733039    0.911057
    5          6             0       -2.243256   -2.495133    1.874788
    6          6             0       -3.676754   -1.846431   -0.132694
    7          7             0       -2.899205   -0.691028   -0.340782
    8          6             0       -1.513008   -0.775783   -0.365023
    9          6             0       -0.855408   -1.927050   -0.803936
   10          6             0        0.522201   -1.979561   -0.814184
   11          6             0        1.281508   -0.890177   -0.390625
   12          6             0        0.634243    0.277489    0.018201
   13          6             0       -0.745981    0.314394    0.044864
   14          6             0        1.463824    1.456186    0.489492
   15          6             0        1.860159    1.271179    1.953789
   16          6             0        2.739379    2.173081    2.543900
   17          6             0        3.131568    2.022001    3.860457
   18          6             0        2.654990    0.961321    4.612370
   19          6             0        1.778183    0.060954    4.035876
   20          6             0        1.382219    0.215428    2.718151
   21          6             0        0.642891    2.714790    0.272004
   22          6             0        0.428431    3.154610   -1.030822
   23          6             0       -0.399009    4.231009   -1.286604
   24          6             0       -1.034858    4.881748   -0.242806
   25          6             0       -0.828466    4.451514    1.055105
   26          6             0        0.003620    3.374570    1.312068
   27          6             0        2.759371    1.488697   -0.303441
   28          6             0        3.433710    2.670771   -0.567492
   29          6             0        4.678991    2.645786   -1.166682
   30          6             0        5.257398    1.441443   -1.530948
   31          6             0        4.590469    0.245906   -1.324603
   32          6             0        3.341576    0.282398   -0.694678
   33          7             0        2.673263   -0.913260   -0.455808
   34          6             0        3.441071   -2.042204   -0.196570
   35          6             0        3.001749   -3.007664    0.705787
   36          6             0        3.806627   -4.085060    1.014376
   37          6             0        5.064057   -4.190926    0.446472
   38          6             0        5.507863   -3.223143   -0.439395
   39          6             0        4.708221   -2.145732   -0.784426
   40          6             0        5.086104   -1.101308   -1.818061
   41          6             0        6.582334   -1.096701   -2.130077
   42          6             0        4.319978   -1.430489   -3.117778
   43          6             0       -3.491912    0.584725   -0.469141
   44          6             0       -4.423999    1.039673    0.475378
   45          6             0       -4.852124    0.195710    1.639023
   46          6             0       -4.948838    2.315477    0.345115
   47          6             0       -4.569491    3.166571   -0.682286
   48          6             0       -5.121816    4.557321   -0.762591
   49          6             0       -3.661497    2.695508   -1.614724
   50          6             0       -3.126371    1.419057   -1.536199
   51          6             0       -2.169365    0.986644   -2.607423
   52          6             0       -4.776269   -2.114933   -0.964103
   53          6             0       -5.147911   -1.211472   -2.102088
   54          6             0       -5.533600   -3.252507   -0.739872
   55          1             0       -7.112096   -5.118868    0.587725
   56          1             0       -5.977339   -6.038725   -0.393877
   57          1             0       -5.739867   -5.930348    1.353461
   58          1             0       -3.894087   -4.550209    1.887740
   59          1             0       -1.322873   -2.954378    1.511180
   60          1             0       -2.483835   -2.939175    2.839070
   61          1             0       -2.048278   -1.434634    2.017008
   62          1             0       -1.431449   -2.774221   -1.146294
   63          1             0        1.024169   -2.869109   -1.165757
   64          1             0       -1.249839    1.198781    0.403950
   65          1             0        3.120383    3.002710    1.968059
   66          1             0        3.813938    2.734613    4.300678
   67          1             0        2.964385    0.839588    5.639977
   68          1             0        1.396379   -0.769012    4.612849
   69          1             0        0.689917   -0.494072    2.290103
   70          1             0        0.918059    2.644309   -1.849034
   71          1             0       -0.553157    4.558829   -2.304375
   72          1             0       -1.689409    5.717219   -0.441784
   73          1             0       -1.323172    4.950091    1.876082
   74          1             0        0.145263    3.039766    2.329377
   75          1             0        2.986779    3.616307   -0.296963
   76          1             0        5.203927    3.570672   -1.353091
   77          1             0        6.229469    1.453405   -1.995990
   78          1             0        2.034442   -2.896611    1.172271
   79          1             0        3.457991   -4.833356    1.710651
   80          1             0        5.702035   -5.026982    0.690664
   81          1             0        6.491903   -3.329073   -0.866679
   82          1             0        7.163683   -0.863997   -1.240629
   83          1             0        6.890524   -2.066170   -2.512964
   84          1             0        6.804552   -0.363660   -2.901169
   85          1             0        4.617492   -2.409740   -3.487568
   86          1             0        4.539719   -0.684687   -3.879116
   87          1             0        3.246424   -1.439044   -2.945370
   88          1             0       -5.485869   -0.629416    1.314898
   89          1             0       -3.990345   -0.227648    2.149342
   90          1             0       -5.412617    0.797735    2.350545
   91          1             0       -5.662702    2.663397    1.078928
   92          1             0       -6.204425    4.550044   -0.647381
   93          1             0       -4.705721    5.170739    0.036854
   94          1             0       -4.873151    5.019433   -1.714666
   95          1             0       -3.362003    3.333202   -2.434249
   96          1             0       -1.153708    1.286163   -2.348103
   97          1             0       -2.170454   -0.091874   -2.744778
   98          1             0       -2.431848    1.461980   -3.550754
   99          1             0       -5.867203   -1.705868   -2.751067
  100          1             0       -4.273110   -0.949173   -2.691864
  101          1             0       -5.594356   -0.285717   -1.739707
  102          1             0       -6.379829   -3.452286   -1.382553
 --------------------------------------------------------------------
     1 basis functions        1 primitive gaussians
     1 alpha electrons        1 beta electrons
 
 Harmonic frequencies (cm**-1), IR intensities (km*mol⁻¹),
 Raman scattering activities (A**4/amu), Raman depolarization ratios,
 reduced masses (AMU), force constants (mDyne/A) and normal coordinates:
                      1                      2                      3
                        a                      a                      a 
 Frequencies --    -8.1877                11.4363                19.4150
 Red. masses --     1.1140                10.4053                10.5865
 Frc consts  --     0.0000                 0.0000                 0.0000
 IR Inten    --     0.3380                 0.0116                 0.0360
 Raman Activ --     0.0000                 0.0000                 0.0000
 Depolar     --     0.0000                 0.0000                 0.0000
 Atom AN      X      Y      Z        X      Y      Z        X      Y      Z
   1   6    -0.06   0.05   0.04     0.04  -0.04  -0.11    -0.05   0.07   0.21
   2   6     0.02  -0.02  -0.02     0.03  -0.03  -0.08    -0.03   0.05   0.15
   3   6     0.01  -0.01  -0.01     0.04  -0.06  -0.08    -0.01   0.05   0.12
   4   6     0.00  -0.00  -0.00     0.03  -0.05  -0.05     0.01   0.03   0.07
   5   6     0.00  -0.00  -0.00     0.04  -0.08  -0.06     0.04   0.04   0.04
   6   6     0.00  -0.00  -0.00     0.01  -0.01  -0.01     0.01   0.00   0.05
   7   7     0.00  -0.00  -0.00     0.00   0.00   0.02     0.02  -0.01   0.00
   8   6     0.00  -0.00  -0.00     0.00   0.01  -0.01     0.02  -0.02   0.01
   9   6     0.00  -0.00  -0.00    -0.00   0.02  -0.05     0.02  -0.01  -0.01
  10   6     0.00  -0.00   0.00    -0.01   0.01  -0.06     0.02  -0.01  -0.02
  11   6     0.00   0.00   0.00     0.00   0.00  -0.04     0.02  -0.01  -0.01
  12   6     0.00  -0.00   0.00     0.01   0.00  -0.02     0.02  -0.02   0.02
  13   6     0.00  -0.00  -0.00     0.01  -0.00  -0.00     0.02  -0.03   0.02
  14   6    -0.00   0.00   0.00     0.00   0.01  -0.04    -0.00  -0.02   0.05
  15   6    -0.00   0.00   0.00    -0.04   0.06  -0.02    -0.07  -0.01   0.07
  16   6    -0.00   0.00   0.00    -0.16   0.16   0.01    -0.16   0.05   0.13
  17   6    -0.00   0.00   0.00    -0.19   0.21   0.02    -0.23   0.06   0.15
  18   6    -0.00   0.00   0.00    -0.10   0.16   0.01    -0.20   0.02   0.11
  19   6    -0.00   0.00   0.00     0.03   0.06  -0.02    -0.09  -0.04   0.05
  20   6    -0.00   0.00   0.00     0.06   0.01  -0.03    -0.03  -0.06   0.03
  21   6    -0.00  -0.00  -0.00     0.01   0.00  -0.11    -0.00  -0.03   0.01
  22   6    -0.00  -0.00  -0.00     0.09  -0.02  -0.13     0.05  -0.04  -0.01
  23   6    -0.00  -0.00  -0.00     0.10  -0.03  -0.20     0.05  -0.05  -0.05
  24   6    -0.00  -0.00  -0.00     0.03  -0.02  -0.25    -0.01  -0.05  -0.09
  25   6    -0.00  -0.00  -0.00    -0.05   0.00  -0.23    -0.07  -0.05  -0.08
  26   6    -0.00  -0.00  -0.00    -0.06   0.01  -0.16    -0.07  -0.03  -0.03
  27   6     0.00   0.00   0.00     0.03  -0.02   0.01     0.02  -0.01   0.10
  28   6    -0.00   0.00   0.00     0.06  -0.02   0.04     0.04   0.00   0.17
  29   6    -0.00   0.00   0.00     0.08  -0.04   0.07     0.04   0.03   0.18
  30   6     0.00   0.00   0.00     0.07  -0.04   0.08     0.03   0.04   0.12
  31   6     0.00   0.00   0.00     0.04  -0.03   0.05     0.02   0.04   0.04
  32   6     0.00   0.00   0.00     0.03  -0.02   0.01     0.02   0.01   0.04
  33   7     0.00   0.00   0.00     0.00  -0.02  -0.03     0.02  -0.00  -0.02
  34   6     0.00   0.00   0.00    -0.02  -0.03  -0.02     0.02  -0.02  -0.09
  35   6     0.00   0.00   0.00    -0.06  -0.03  -0.04     0.03  -0.07  -0.14
  36   6     0.00   0.00   0.00    -0.08  -0.05  -0.03     0.03  -0.10  -0.22
  37   6     0.00   0.00   0.00    -0.07  -0.06   0.00     0.01  -0.08  -0.26
  38   6     0.00   0.00   0.00    -0.03  -0.06   0.02     0.00  -0.03  -0.21
  39   6     0.00   0.00   0.00    -0.01  -0.04   0.02     0.01   0.00  -0.12
  40   6     0.00   0.00   0.00     0.04  -0.03   0.04     0.00   0.07  -0.06
  41   6     0.00   0.00   0.00     0.04  -0.05   0.08    -0.00   0.07  -0.08
  42   6     0.00   0.00   0.00     0.06  -0.00   0.02    -0.02   0.16  -0.07
  43   6     0.00  -0.00  -0.00    -0.01   0.01   0.08     0.04  -0.01  -0.03
  44   6    -0.00  -0.00  -0.00     0.01  -0.04   0.12     0.04   0.03  -0.04
  45   6    -0.00  -0.00  -0.00     0.04  -0.09   0.10     0.03   0.07  -0.02
  46   6    -0.00  -0.00  -0.00     0.00  -0.03   0.19     0.06   0.04  -0.08
  47   6    -0.00  -0.00  -0.00    -0.02   0.01   0.21     0.08   0.00  -0.10
  48   6    -0.00  -0.00  -0.00    -0.01   0.02   0.29     0.09   0.00  -0.15
  49   6     0.00  -0.00  -0.00    -0.04   0.05   0.17     0.07  -0.04  -0.09
  50   6     0.00  -0.00  -0.00    -0.03   0.05   0.11     0.05  -0.04  -0.05
  51   6     0.00  -0.00  -0.00    -0.06   0.10   0.07     0.05  -0.09  -0.04
  52   6     0.00  -0.01  -0.01    -0.00   0.02  -0.00    -0.01  -0.01   0.08
  53   6     0.01  -0.01  -0.01    -0.03   0.06   0.04    -0.01  -0.04   0.05
  54   6     0.01  -0.01  -0.01     0.01   0.01  -0.04    -0.03   0.02   0.13
  55   1     0.06   0.09   0.58     0.01  -0.02  -0.03    -0.01   0.03   0.06
  56   1    -0.50   0.26  -0.22     0.01  -0.00  -0.04    -0.02   0.01   0.07
  57   1     0.33  -0.28  -0.30     0.01  -0.02  -0.04    -0.02   0.03   0.07
  58   1     0.01  -0.00  -0.00     0.02  -0.03  -0.03    -0.00   0.02   0.04
  59   1     0.00  -0.00  -0.00     0.01  -0.02  -0.02     0.01   0.01   0.01
  60   1     0.00  -0.00  -0.00     0.02  -0.03  -0.02     0.02   0.01   0.01
  61   1     0.00  -0.00  -0.00     0.02  -0.02  -0.01     0.01   0.01   0.01
  62   1     0.00  -0.00  -0.00    -0.00   0.01  -0.02     0.01  -0.00  -0.00
  63   1     0.00   0.00   0.00    -0.00   0.01  -0.02     0.01   0.00  -0.01
  64   1    -0.00  -0.00  -0.00     0.00  -0.00   0.00     0.00  -0.01   0.01
  65   1    -0.00   0.00   0.00    -0.07   0.06   0.01    -0.06   0.02   0.05
  66   1    -0.00   0.00   0.00    -0.08   0.08   0.01    -0.09   0.03   0.06
  67   1    -0.00   0.00   0.00    -0.03   0.06   0.01    -0.07   0.01   0.04
  68   1    -0.00   0.00   0.00     0.03   0.00  -0.01    -0.02  -0.02   0.01
  69   1     0.00  -0.00   0.00     0.05  -0.02  -0.02     0.02  -0.03  -0.00
  70   1     0.00  -0.00  -0.00     0.04  -0.01  -0.03     0.03  -0.01   0.01
  71   1    -0.00  -0.00  -0.00     0.05  -0.01  -0.06     0.03  -0.02  -0.02
  72   1    -0.00  -0.00  -0.00     0.01  -0.01  -0.09    -0.00  -0.02  -0.04
  73   1    -0.00  -0.00  -0.00    -0.03   0.00  -0.08    -0.04  -0.01  -0.03
  74   1    -0.00  -0.00  -0.00    -0.04   0.01  -0.04    -0.03  -0.01  -0.01
  75   1    -0.00   0.00   0.00     0.02  -0.01   0.01     0.01  -0.00   0.06
  76   1    -0.00   0.00   0.00     0.03  -0.01   0.03     0.02   0.01   0.07
  77   1     0.00   0.00   0.00     0.02  -0.02   0.03     0.01   0.02   0.03
  78   1     0.00   0.00   0.00    -0.02  -0.01  -0.02     0.01  -0.03  -0.03
  79   1     0.00   0.00   0.00    -0.03  -0.02  -0.01     0.01  -0.04  -0.07
  80   1     0.00   0.00   0.00    -0.02  -0.02   0.00     0.00  -0.03  -0.09
  81   1     0.00   0.00   0.00    -0.01  -0.02   0.01    -0.00  -0.00  -0.07
  82   1     0.00   0.00   0.00     0.01  -0.02   0.03     0.00   0.00  -0.02
  83   1     0.00   0.00   0.00     0.01  -0.02   0.02    -0.01   0.03  -0.04
  84   1     0.00   0.00   0.00     0.02  -0.01   0.03    -0.00   0.04  -0.01
  85   1     0.00   0.00   0.00     0.02  -0.00   0.00    -0.01   0.05  -0.04
  86   1     0.00   0.00   0.00     0.03   0.00   0.01    -0.01   0.06  -0.01
  87   1     0.00   0.00   0.00     0.02   0.00  -0.00    -0.01   0.05  -0.02
  88   1     0.00  -0.00  -0.00     0.01  -0.02   0.02     0.00   0.02   0.00
  89   1    -0.00  -0.00  -0.00     0.02  -0.03   0.02     0.01   0.02  -0.00
  90   1    -0.00  -0.00  -0.00     0.02  -0.03   0.04     0.01   0.03  -0.01
  91   1    -0.00  -0.00  -0.00     0.01  -0.02   0.06     0.02   0.02  -0.03
  92   1    -0.00  -0.00  -0.00     0.00   0.01   0.17     0.02  -0.00  -0.09
  93   1    -0.00  -0.00  -0.00     0.06   0.01   0.04    -0.01  -0.00  -0.02
  94   1    -0.00  -0.00  -0.00    -0.07  -0.01   0.06     0.06   0.01  -0.03
  95   1     0.00  -0.00  -0.00    -0.02   0.03   0.06     0.02  -0.02  -0.03
  96   1     0.00  -0.00  -0.00    -0.02   0.03   0.02     0.02  -0.03  -0.01
  97   1     0.00  -0.00  -0.00    -0.01   0.03   0.01     0.01  -0.03  -0.01
  98   1     0.00  -0.00  -0.00    -0.03   0.04   0.03     0.02  -0.03  -0.01
  99   1     0.00  -0.00  -0.00    -0.01   0.02   0.01    -0.01  -0.01   0.02
 100   1     0.00  -0.00  -0.00    -0.01   0.03   0.01    -0.00  -0.02   0.01
 101   1     0.00  -0.00  -0.00    -0.01   0.01   0.02    -0.00  -0.01   0.01
 102   1     0.01  -0.01  -0.01    -0.00   0.01  -0.01    -0.01   0.00   0.04
                      4                      5                      6
                        a                      a                      a 
 Frequencies --    21.8942                26.0381                27.1040
 Red. masses --     9.8153                10.2228                 9.9929
 Frc consts  --     0.0000                 0.0000                 0.0000
 IR Inten    --     0.0437                 0.0157                 0.0482
 Raman Activ --     0.0000                 0.0000                 0.0000
 Depolar     --     0.0000                 0.0000                 0.0000
 Atom AN      X      Y      Z        X      Y      Z        X      Y      Z
   1   6    -0.16   0.06  -0.10     0.04  -0.07  -0.23     0.18  -0.07   0.01
   2   6    -0.12   0.04  -0.07     0.02  -0.05  -0.14     0.13  -0.03   0.02
   3   6    -0.12  -0.01  -0.05    -0.04  -0.04  -0.06     0.08   0.04   0.05
   4   6    -0.08  -0.03  -0.02    -0.05  -0.02   0.01     0.03   0.07   0.05
   5   6    -0.09  -0.08   0.00    -0.12  -0.01   0.09    -0.00   0.14   0.08
   6   6    -0.03  -0.01  -0.02     0.00  -0.01   0.01     0.02   0.04   0.03
   7   7    -0.00  -0.02   0.02     0.01  -0.00   0.08    -0.01   0.07   0.03
   8   6    -0.00  -0.04   0.06     0.01  -0.01   0.11    -0.01   0.07   0.02
   9   6     0.00  -0.04   0.06     0.01  -0.02   0.15    -0.03   0.06   0.01
  10   6     0.00  -0.03   0.06     0.01  -0.03   0.15    -0.03   0.04   0.00
  11   6    -0.00  -0.02   0.05     0.01  -0.02   0.12    -0.02   0.03   0.01
  12   6    -0.01  -0.03   0.06     0.02  -0.01   0.10     0.00   0.04   0.02
  13   6    -0.01  -0.04   0.07     0.01  -0.01   0.10    -0.00   0.06   0.02
  14   6    -0.01  -0.01   0.02     0.02   0.00   0.06     0.02   0.02   0.03
  15   6     0.05   0.03   0.01     0.01   0.06   0.07     0.05   0.01   0.02
  16   6    -0.12   0.20   0.01     0.07   0.03   0.02    -0.06   0.09   0.04
  17   6    -0.03   0.24  -0.01     0.03   0.10   0.04    -0.00   0.07   0.03
  18   6     0.23   0.10  -0.04    -0.07   0.19   0.11     0.16  -0.03  -0.02
  19   6     0.40  -0.07  -0.03    -0.13   0.22   0.16     0.26  -0.12  -0.05
  20   6     0.31  -0.10  -0.01    -0.09   0.15   0.14     0.20  -0.10  -0.03
  21   6    -0.05  -0.03   0.02     0.03   0.00   0.02     0.04   0.03   0.03
  22   6    -0.02   0.00   0.03     0.03  -0.03   0.01     0.07   0.06   0.04
  23   6    -0.06  -0.03   0.04     0.05  -0.03  -0.02     0.08   0.07   0.04
  24   6    -0.13  -0.10   0.03     0.07   0.02  -0.04     0.06   0.05   0.04
  25   6    -0.17  -0.14   0.03     0.06   0.05  -0.03     0.03   0.02   0.03
  26   6    -0.13  -0.10   0.02     0.04   0.05   0.00     0.02   0.01   0.03
  27   6    -0.02  -0.01   0.00     0.01  -0.02   0.04     0.03  -0.00   0.03
  28   6    -0.04  -0.00  -0.01     0.01  -0.02   0.00     0.06  -0.01   0.05
  29   6    -0.04   0.00  -0.03    -0.02  -0.03  -0.06     0.06  -0.04   0.06
  30   6    -0.04   0.01  -0.03    -0.05  -0.03  -0.09     0.04  -0.05   0.05
  31   6    -0.03   0.00  -0.01    -0.05  -0.03  -0.06     0.01  -0.03   0.03
  32   6    -0.02  -0.00   0.01    -0.01  -0.02   0.02     0.01  -0.01   0.03
  33   7    -0.00  -0.01   0.03     0.01  -0.02   0.09    -0.02   0.00   0.02
  34   6     0.01   0.00   0.02     0.02  -0.02   0.02    -0.05  -0.02  -0.01
  35   6     0.04   0.00   0.04     0.08  -0.02   0.05    -0.07  -0.03  -0.03
  36   6     0.06   0.01   0.04     0.10  -0.03  -0.02    -0.11  -0.07  -0.06
  37   6     0.05   0.03   0.02     0.05  -0.04  -0.13    -0.12  -0.10  -0.08
  38   6     0.03   0.03   0.01    -0.01  -0.04  -0.16    -0.09  -0.09  -0.05
  39   6     0.01   0.01   0.01    -0.03  -0.03  -0.09    -0.05  -0.05  -0.02
  40   6    -0.02   0.00  -0.01    -0.10  -0.03  -0.11    -0.02  -0.04   0.01
  41   6    -0.03   0.02  -0.04    -0.13  -0.04  -0.24    -0.02  -0.07   0.01
  42   6    -0.05  -0.02   0.01    -0.22  -0.01  -0.05    -0.03   0.01  -0.00
  43   6     0.03  -0.01   0.00     0.01  -0.00   0.04    -0.05   0.04  -0.01
  44   6     0.03   0.01  -0.01    -0.04  -0.01  -0.00    -0.13  -0.00  -0.06
  45   6    -0.01   0.02  -0.02    -0.10  -0.02  -0.03    -0.14  -0.01  -0.07
  46   6     0.06   0.03  -0.02    -0.04  -0.01  -0.03    -0.21  -0.04  -0.12
  47   6     0.09   0.01  -0.02     0.01  -0.01  -0.00    -0.21  -0.03  -0.11
  48   6     0.10   0.02  -0.04     0.02  -0.00  -0.02    -0.28  -0.07  -0.17
  49   6     0.09  -0.01  -0.01     0.05  -0.00   0.04    -0.12   0.01  -0.05
  50   6     0.06  -0.02   0.01     0.06  -0.00   0.06    -0.04   0.05   0.00
  51   6     0.08  -0.04   0.03     0.10   0.00   0.10     0.03   0.09   0.05
  52   6    -0.03   0.04  -0.04     0.06  -0.01  -0.07     0.06  -0.03  -0.00
  53   6     0.02   0.06  -0.04     0.12   0.00  -0.07     0.07  -0.07  -0.03
  54   6    -0.07   0.06  -0.07     0.07  -0.03  -0.14     0.11  -0.07  -0.01
  55   1    -0.05   0.03  -0.04     0.01  -0.03  -0.06     0.05  -0.03   0.01
  56   1    -0.04   0.02  -0.03     0.02  -0.00  -0.08     0.05  -0.01  -0.00
  57   1    -0.06   0.02  -0.03     0.01  -0.04  -0.08     0.07  -0.02  -0.00
  58   1    -0.05  -0.01  -0.01    -0.02  -0.01  -0.02     0.03   0.02   0.02
  59   1    -0.03  -0.03   0.00    -0.03  -0.00   0.04     0.01   0.05   0.03
  60   1    -0.04  -0.02  -0.00    -0.05  -0.00   0.02    -0.00   0.05   0.02
  61   1    -0.02  -0.02   0.01    -0.04  -0.00   0.03    -0.01   0.04   0.01
  62   1     0.00  -0.01   0.02     0.00  -0.01   0.05    -0.01   0.02   0.00
  63   1     0.00  -0.01   0.02     0.00  -0.01   0.05    -0.01   0.01  -0.00
  64   1    -0.00  -0.01   0.02     0.00   0.00   0.02     0.00   0.02   0.01
  65   1    -0.09   0.09   0.01     0.04  -0.01  -0.01    -0.05   0.05   0.02
  66   1    -0.05   0.11  -0.00     0.02   0.02   0.00    -0.03   0.04   0.01
  67   1     0.09   0.04  -0.02    -0.03   0.07   0.04     0.06  -0.01  -0.01
  68   1     0.18  -0.05  -0.01    -0.06   0.09   0.06     0.11  -0.06  -0.02
  69   1     0.13  -0.07  -0.00    -0.04   0.05   0.05     0.08  -0.05  -0.01
  70   1     0.01   0.02   0.01     0.01  -0.02   0.01     0.02   0.02   0.01
  71   1    -0.01   0.00   0.01     0.02  -0.02  -0.01     0.03   0.02   0.01
  72   1    -0.05  -0.04   0.01     0.02   0.01  -0.02     0.02   0.02   0.01
  73   1    -0.07  -0.06   0.01     0.02   0.03  -0.01     0.01   0.00   0.01
  74   1    -0.05  -0.04   0.00     0.01   0.02   0.00    -0.00  -0.00   0.01
  75   1    -0.01  -0.00  -0.00     0.01  -0.00   0.00     0.02  -0.00   0.02
  76   1    -0.02   0.00  -0.01    -0.01  -0.01  -0.02     0.03  -0.01   0.02
  77   1    -0.01   0.00  -0.01    -0.02  -0.01  -0.04     0.01  -0.02   0.02
  78   1     0.01  -0.00   0.01     0.04  -0.00   0.04    -0.02  -0.00  -0.01
  79   1     0.02   0.00   0.01     0.04  -0.01   0.00    -0.04  -0.02  -0.02
  80   1     0.02   0.01   0.01     0.02  -0.01  -0.05    -0.04  -0.04  -0.03
  81   1     0.01   0.01  -0.00    -0.01  -0.01  -0.07    -0.03  -0.03  -0.02
  82   1    -0.00   0.01  -0.02    -0.01  -0.02  -0.08    -0.01  -0.03   0.01
  83   1    -0.01   0.00  -0.01    -0.05  -0.01  -0.08    -0.01  -0.02  -0.00
  84   1    -0.02   0.00  -0.02    -0.06  -0.01  -0.07    -0.00  -0.02   0.01
  85   1    -0.01  -0.00   0.00    -0.08  -0.00  -0.02    -0.02   0.00  -0.01
  86   1    -0.02  -0.01  -0.00    -0.08  -0.00  -0.02    -0.00   0.01   0.00
  87   1    -0.01  -0.01   0.01    -0.06  -0.00   0.01    -0.01   0.01  -0.00
  88   1    -0.01   0.01  -0.01    -0.02  -0.01  -0.02    -0.03  -0.01  -0.02
  89   1    -0.01   0.00  -0.00    -0.03  -0.00   0.00    -0.04   0.01  -0.01
  90   1    -0.00   0.01  -0.01    -0.04  -0.01  -0.02    -0.05  -0.00  -0.03
  91   1     0.02   0.01  -0.01    -0.02  -0.01  -0.02    -0.08  -0.02  -0.05
  92   1     0.01  -0.01  -0.15     0.01   0.01   0.06    -0.07  -0.02   0.07
  93   1    -0.08  -0.03   0.07     0.06   0.02  -0.05     0.00   0.03  -0.13
  94   1     0.14   0.05   0.04    -0.05  -0.03  -0.03    -0.19  -0.07  -0.10
  95   1     0.03  -0.01  -0.00     0.03  -0.00   0.01    -0.03   0.01  -0.01
  96   1     0.02  -0.01   0.01     0.02   0.01   0.04     0.00   0.03   0.03
  97   1     0.02  -0.01   0.01     0.03   0.00   0.03     0.02   0.03   0.01
  98   1     0.03  -0.01   0.01     0.04  -0.00   0.02     0.02   0.03   0.01
  99   1     0.01   0.02  -0.02     0.04   0.00  -0.03     0.03  -0.03  -0.02
 100   1     0.01   0.01  -0.01     0.04   0.00  -0.01     0.02  -0.01  -0.00
 101   1     0.01   0.02  -0.01     0.03   0.00  -0.02     0.00  -0.02  -0.02
 102   1    -0.02   0.03  -0.03     0.03  -0.01  -0.06     0.04  -0.04  -0.01
                      7                      8                      9
                        a                      a                      a 
 Frequencies --    32.2194                36.9091                43.5065
 Red. masses --     3.3877                 9.6215                 9.9256
 Frc consts  --     0.0000                 0.0000                 0.0000
 IR Inten    --     0.1872                 0.1758                 0.1962
 Raman Activ --     0.0000                 0.0000                 0.0000
 Depolar     --     0.0000                 0.0000                 0.0000
 Atom AN      X      Y      Z        X      Y      Z        X      Y      Z
   1   6    -0.21   0.12   0.07    -0.29   0.24   0.07     0.04  -0.06  -0.14
   2   6    -0.13   0.06   0.03    -0.17   0.14   0.02     0.01  -0.03  -0.07
   3   6    -0.11   0.02   0.01    -0.13   0.06  -0.00     0.03  -0.07  -0.09
   4   6    -0.05  -0.03  -0.01    -0.03  -0.01  -0.02     0.02  -0.05  -0.04
   5   6    -0.02  -0.07  -0.03    -0.00  -0.09  -0.04     0.03  -0.10  -0.05
   6   6    -0.01  -0.02  -0.02     0.02   0.01  -0.02    -0.01   0.01   0.02
   7   7     0.01  -0.04  -0.02     0.05  -0.00   0.01     0.01   0.00   0.05
   8   6     0.01  -0.04  -0.00     0.05  -0.00   0.01     0.01  -0.00   0.04
   9   6     0.02  -0.03   0.01     0.05  -0.00   0.00     0.01   0.01   0.00
  10   6     0.02  -0.02   0.01     0.05  -0.00   0.00     0.01   0.02  -0.00
  11   6     0.01  -0.01   0.00     0.05  -0.00   0.00     0.01   0.01   0.03
  12   6     0.00  -0.02   0.00     0.05  -0.00   0.00     0.00  -0.00   0.06
  13   6     0.00  -0.03   0.00     0.05  -0.00   0.01     0.00  -0.01   0.06
  14   6    -0.01  -0.01   0.01     0.05  -0.00  -0.00     0.00   0.01   0.03
  15   6    -0.00  -0.02   0.00     0.04   0.01   0.01     0.05   0.05   0.02
  16   6    -0.03   0.00   0.01     0.08  -0.03  -0.01     0.12   0.03  -0.05
  17   6    -0.01  -0.01   0.00     0.06  -0.01   0.00     0.15   0.08  -0.06
  18   6     0.03  -0.04  -0.01    -0.02   0.04   0.03     0.10   0.15   0.01
  19   6     0.06  -0.06  -0.02    -0.06   0.07   0.04     0.03   0.18   0.09
  20   6     0.04  -0.05  -0.01    -0.03   0.06   0.03    -0.00   0.13   0.09
  21   6    -0.01  -0.02   0.01     0.05  -0.00  -0.01    -0.02  -0.01   0.03
  22   6    -0.01  -0.02   0.01     0.05  -0.01  -0.01    -0.11  -0.06   0.03
  23   6     0.01  -0.00   0.00     0.03  -0.03  -0.02    -0.15  -0.09   0.04
  24   6     0.04   0.02   0.01     0.00  -0.05  -0.03    -0.11  -0.07   0.05
  25   6     0.03   0.02   0.01     0.01  -0.03  -0.02    -0.03  -0.02   0.05
  26   6     0.00   0.00   0.01     0.04  -0.01  -0.01     0.02   0.02   0.04
  27   6    -0.01   0.00   0.01     0.05  -0.00   0.00    -0.02   0.01  -0.00
  28   6    -0.03   0.01   0.01     0.05  -0.00   0.00    -0.05   0.02  -0.05
  29   6    -0.03   0.03   0.01     0.05  -0.00   0.00    -0.05   0.02  -0.04
  30   6    -0.02   0.04  -0.00     0.05  -0.00   0.00    -0.01   0.02   0.02
  31   6    -0.00   0.03  -0.01     0.05  -0.00  -0.00     0.02   0.01   0.06
  32   6    -0.00   0.01  -0.00     0.05  -0.00  -0.00     0.01   0.00   0.04
  33   7     0.01   0.00  -0.01     0.06  -0.00  -0.00     0.01   0.01   0.05
  34   6     0.03   0.02   0.00     0.05  -0.00  -0.01    -0.02  -0.02  -0.01
  35   6     0.05   0.02   0.01     0.06  -0.01  -0.01    -0.07  -0.07  -0.08
  36   6     0.08   0.04   0.02     0.05  -0.01  -0.02    -0.13  -0.14  -0.16
  37   6     0.08   0.06   0.03     0.05  -0.01  -0.02    -0.14  -0.16  -0.17
  38   6     0.06   0.06   0.02     0.05  -0.01  -0.02    -0.08  -0.11  -0.07
  39   6     0.04   0.04   0.00     0.05  -0.00  -0.01    -0.01  -0.03   0.01
  40   6     0.01   0.04  -0.01     0.05   0.00  -0.01     0.07   0.02   0.08
  41   6     0.01   0.06  -0.02     0.05   0.00  -0.00     0.10   0.03   0.22
  42   6     0.01   0.02   0.00     0.06   0.01  -0.01     0.18   0.05   0.01
  43   6     0.01  -0.03  -0.01     0.02  -0.01   0.04     0.03   0.01   0.02
  44   6     0.02  -0.03  -0.01    -0.02  -0.08   0.04     0.08   0.06   0.04
  45   6     0.03  -0.03  -0.00     0.07  -0.09   0.06     0.16   0.11   0.10
  46   6     0.00  -0.04  -0.02    -0.14  -0.13   0.02     0.05   0.04  -0.02
  47   6    -0.01  -0.05  -0.02    -0.22  -0.12  -0.00    -0.01  -0.02  -0.09
  48   6     0.06  -0.02  -0.01    -0.42  -0.19  -0.05    -0.05  -0.04  -0.17
  49   6    -0.00  -0.04  -0.02    -0.15  -0.03   0.03    -0.03  -0.06  -0.10
  50   6     0.01  -0.03  -0.01    -0.03   0.02   0.05    -0.01  -0.04  -0.04
  51   6     0.01  -0.03  -0.01     0.03   0.10   0.07    -0.02  -0.10  -0.03
  52   6    -0.03   0.02  -0.01     0.02   0.07  -0.04    -0.06   0.07   0.05
  53   6     0.01   0.01  -0.03     0.11   0.05  -0.08    -0.13   0.13   0.13
  54   6    -0.09   0.06   0.01    -0.08   0.14  -0.01    -0.04   0.05   0.01
  55   1    -0.06   0.05   0.00    -0.08   0.10  -0.01     0.01  -0.03  -0.03
  56   1    -0.06   0.02   0.03    -0.09   0.05   0.04     0.02  -0.00  -0.05
  57   1    -0.08   0.04   0.03    -0.12   0.08   0.04     0.02  -0.03  -0.05
  58   1    -0.04   0.00   0.00    -0.05   0.01   0.00     0.02  -0.03  -0.04
  59   1    -0.01  -0.03  -0.01    -0.01  -0.04  -0.02     0.01  -0.03  -0.02
  60   1    -0.01  -0.02  -0.01     0.00  -0.03  -0.01     0.01  -0.04  -0.02
  61   1     0.00  -0.02  -0.01     0.02  -0.03  -0.01     0.01  -0.03   0.00
  62   1     0.01  -0.01   0.00     0.01   0.00   0.00     0.00   0.01  -0.01
  63   1     0.01  -0.01   0.00     0.01  -0.00  -0.00     0.00   0.01  -0.01
  64   1    -0.00  -0.01   0.00     0.01  -0.00   0.00    -0.00  -0.00   0.02
  65   1    -0.02   0.01   0.01     0.04  -0.02  -0.01     0.05  -0.01  -0.03
  66   1    -0.01   0.00   0.00     0.03  -0.01  -0.00     0.06   0.02  -0.03
  67   1     0.01  -0.01  -0.00    -0.01   0.01   0.01     0.04   0.05   0.00
  68   1     0.03  -0.02  -0.01    -0.03   0.03   0.02    -0.00   0.07   0.04
  69   1     0.02  -0.02  -0.00    -0.02   0.02   0.01    -0.02   0.04   0.04
  70   1    -0.01  -0.01   0.00     0.02  -0.00  -0.00    -0.04  -0.02   0.01
  71   1     0.00  -0.00   0.00     0.01  -0.01  -0.01    -0.06  -0.04   0.01
  72   1     0.02   0.01   0.00    -0.01  -0.02  -0.01    -0.04  -0.03   0.02
  73   1     0.01   0.01   0.00    -0.00  -0.01  -0.01     0.00   0.00   0.02
  74   1    -0.00   0.00   0.00     0.01  -0.00  -0.00     0.02   0.02   0.01
  75   1    -0.01   0.00   0.01     0.02  -0.00   0.00    -0.02   0.00  -0.03
  76   1    -0.01   0.01   0.00     0.02  -0.00   0.00    -0.02   0.01  -0.02
  77   1    -0.00   0.01  -0.00     0.02  -0.00   0.00    -0.00   0.01   0.01
  78   1     0.01  -0.00   0.00     0.02  -0.00  -0.00    -0.02  -0.02  -0.02
  79   1     0.03   0.01   0.01     0.02  -0.00  -0.01    -0.05  -0.05  -0.07
  80   1     0.03   0.02   0.01     0.02  -0.00  -0.01    -0.05  -0.06  -0.07
  81   1     0.02   0.02   0.01     0.01  -0.00  -0.01    -0.02  -0.04  -0.02
  82   1     0.00   0.02  -0.01     0.02  -0.00  -0.00     0.00   0.00   0.08
  83   1     0.01   0.02  -0.00     0.02   0.00  -0.00     0.04   0.01   0.06
  84   1    -0.00   0.02  -0.01     0.02   0.00  -0.00     0.05   0.02   0.08
  85   1     0.01   0.01   0.00     0.02   0.00  -0.00     0.06   0.02   0.00
  86   1    -0.00   0.01  -0.00     0.02   0.00  -0.00     0.07   0.02   0.01
  87   1     0.00   0.00   0.00     0.02   0.00  -0.00     0.05   0.01  -0.02
  88   1     0.00  -0.00   0.00     0.02  -0.03   0.03     0.04   0.03   0.05
  89   1     0.01  -0.01  -0.01     0.03  -0.02   0.01     0.06   0.04   0.02
  90   1     0.01  -0.00   0.00     0.02  -0.03   0.03     0.06   0.04   0.03
  91   1    -0.00  -0.01  -0.00    -0.05  -0.06   0.00     0.02   0.02  -0.00
  92   1     0.07   0.07   0.49    -0.13  -0.11  -0.14    -0.00  -0.01   0.03
  93   1     0.42   0.11  -0.30    -0.24  -0.06   0.05     0.04   0.03  -0.11
  94   1    -0.38  -0.18  -0.19    -0.04  -0.01   0.03    -0.08  -0.05  -0.09
  95   1    -0.00  -0.01  -0.01    -0.06  -0.00   0.01    -0.02  -0.03  -0.04
  96   1     0.00  -0.01  -0.00     0.00   0.05   0.03    -0.00  -0.04  -0.01
  97   1     0.00  -0.01  -0.00     0.03   0.03   0.01    -0.02  -0.03  -0.00
  98   1     0.01  -0.01  -0.00     0.01   0.03   0.02    -0.00  -0.03  -0.01
  99   1     0.00   0.00  -0.01     0.04   0.01  -0.03    -0.05   0.05   0.04
 100   1     0.01  -0.01  -0.01     0.04   0.01  -0.01    -0.05   0.05   0.02
 101   1     0.01   0.01  -0.02     0.03   0.02  -0.04    -0.03   0.03   0.06
 102   1    -0.03   0.03   0.01    -0.03   0.05  -0.00    -0.02   0.03   0.01
                     10                     11                     12
                        a                      a                      a 
 Frequencies --    46.5570                49.6346                57.2849
 Red. masses --     9.8299                10.0330                10.5174
 Frc consts  --     0.0000                 0.0000                 0.0000
 IR Inten    --     0.0953                 0.0283                 0.0103
 Raman Activ --     0.0000                 0.0000                 0.0000
 Depolar     --     0.0000                 0.0000                 0.0000
 Atom AN      X      Y      Z        X      Y      Z        X      Y      Z
   1   6    -0.10   0.08   0.17     0.11   0.02   0.03     0.05  -0.03  -0.12
   2   6    -0.04   0.02   0.08     0.08   0.04   0.02     0.01   0.00  -0.04
   3   6    -0.07   0.06   0.11     0.09   0.06   0.00    -0.06   0.04   0.04
   4   6    -0.03   0.03   0.05     0.06   0.07  -0.01    -0.08   0.06   0.10
   5   6    -0.05   0.08   0.06     0.07   0.09  -0.02    -0.14   0.10   0.15
   6   6     0.02  -0.04  -0.02     0.04   0.06  -0.01    -0.03   0.05   0.07
   7   7    -0.00  -0.03  -0.04     0.03   0.06  -0.05    -0.02   0.05   0.12
   8   6     0.00  -0.01  -0.02     0.03   0.04  -0.06    -0.02   0.01   0.09
   9   6     0.01  -0.01  -0.01     0.01   0.03  -0.05    -0.03   0.00   0.10
  10   6     0.01   0.00  -0.01     0.01   0.00  -0.04    -0.03   0.00   0.05
  11   6     0.00   0.00  -0.01     0.02  -0.01  -0.03    -0.00   0.01  -0.00
  12   6    -0.00  -0.00  -0.00     0.04   0.00  -0.03     0.00   0.01   0.01
  13   6    -0.01  -0.01  -0.01     0.04   0.02  -0.05     0.00   0.01   0.06
  14   6    -0.01   0.01  -0.03     0.05  -0.01  -0.02     0.00   0.01   0.00
  15   6     0.02   0.04  -0.03     0.03  -0.01  -0.02    -0.01  -0.02   0.00
  16   6     0.08   0.02  -0.08     0.03  -0.01  -0.01     0.11  -0.12  -0.00
  17   6     0.09   0.06  -0.08    -0.05   0.03   0.02     0.19  -0.24  -0.04
  18   6     0.04   0.12  -0.03    -0.14   0.09   0.04     0.15  -0.24  -0.07
  19   6    -0.02   0.14   0.03    -0.13   0.09   0.03     0.01  -0.12  -0.05
  20   6    -0.03   0.10   0.02    -0.05   0.04   0.00    -0.07  -0.00  -0.01
  21   6    -0.03   0.00  -0.00     0.01  -0.03   0.02    -0.01  -0.02  -0.06
  22   6    -0.03   0.05   0.01     0.07   0.10   0.05     0.00  -0.10  -0.10
  23   6    -0.04   0.05   0.05    -0.06   0.01   0.11    -0.08  -0.19  -0.19
  24   6    -0.06  -0.01   0.07    -0.27  -0.22   0.13    -0.18  -0.20  -0.25
  25   6    -0.07  -0.06   0.05    -0.33  -0.35   0.09    -0.18  -0.09  -0.21
  26   6    -0.05  -0.05   0.02    -0.19  -0.25   0.04    -0.09  -0.00  -0.12
  27   6    -0.02   0.01  -0.04     0.05  -0.02  -0.03     0.01   0.01   0.02
  28   6    -0.04   0.01  -0.07     0.07  -0.03  -0.04     0.01   0.02   0.07
  29   6    -0.03   0.02  -0.06     0.06  -0.06  -0.05     0.03   0.03   0.10
  30   6    -0.01   0.02  -0.01     0.03  -0.07  -0.06     0.03   0.04   0.08
  31   6     0.02   0.01   0.02     0.02  -0.05  -0.05     0.02   0.04   0.03
  32   6     0.00   0.01  -0.00     0.03  -0.03  -0.03     0.00   0.02  -0.00
  33   7     0.01   0.01   0.00     0.02  -0.03  -0.02    -0.00   0.01  -0.05
  34   6    -0.01  -0.01  -0.02     0.01  -0.02   0.00     0.01   0.02  -0.03
  35   6    -0.06  -0.04  -0.07     0.02   0.00   0.03     0.01   0.02  -0.03
  36   6    -0.11  -0.09  -0.13     0.02   0.02   0.07     0.03   0.03  -0.02
  37   6    -0.11  -0.12  -0.13     0.03   0.01   0.07     0.03   0.05  -0.00
  38   6    -0.06  -0.08  -0.06     0.02  -0.02   0.03     0.03   0.05   0.00
  39   6    -0.00  -0.02  -0.00     0.01  -0.04  -0.00     0.02   0.04  -0.01
  40   6     0.07   0.01   0.06    -0.01  -0.07  -0.04     0.04   0.05   0.01
  41   6     0.10   0.03   0.19    -0.02  -0.10  -0.09     0.04   0.07   0.04
  42   6     0.18   0.03  -0.01    -0.06  -0.09  -0.01     0.07   0.07  -0.02
  43   6    -0.02  -0.04  -0.02     0.03   0.06  -0.02    -0.00   0.05   0.08
  44   6    -0.09  -0.08  -0.06     0.04   0.05  -0.00    -0.03   0.06   0.04
  45   6    -0.23  -0.14  -0.16     0.07   0.04   0.01    -0.08   0.07   0.03
  46   6    -0.03  -0.05  -0.01     0.01   0.03   0.00    -0.03   0.06   0.01
  47   6     0.08   0.02   0.09    -0.03   0.04  -0.00    -0.00   0.04   0.01
  48   6     0.18   0.06   0.19    -0.06   0.03  -0.00    -0.00   0.04  -0.03
  49   6     0.10   0.04   0.10    -0.02   0.06  -0.01     0.02   0.03   0.04
  50   6     0.04   0.02   0.04     0.01   0.08  -0.01     0.02   0.03   0.07
  51   6     0.07   0.06   0.04     0.03   0.11  -0.01     0.04   0.02   0.10
  52   6     0.08  -0.10  -0.08     0.03   0.04   0.01     0.03   0.03   0.00
  53   6     0.19  -0.19  -0.18     0.01   0.04   0.01     0.08   0.03  -0.01
  54   6     0.04  -0.07  -0.03     0.05   0.03   0.02     0.05   0.00  -0.05
  55   1    -0.03   0.04   0.04     0.03  -0.00   0.01     0.01  -0.02  -0.03
  56   1    -0.04   0.00   0.07     0.03   0.01   0.01     0.02   0.01  -0.05
  57   1    -0.04   0.04   0.07     0.04   0.01   0.01     0.02  -0.02  -0.04
  58   1    -0.04   0.04   0.05     0.03   0.02   0.00    -0.03   0.01   0.02
  59   1    -0.01   0.03   0.02     0.02   0.02  -0.01    -0.03   0.03   0.06
  60   1    -0.02   0.03   0.02     0.02   0.03  -0.00    -0.05   0.03   0.04
  61   1    -0.02   0.03   0.01     0.02   0.03  -0.01    -0.05   0.03   0.04
  62   1     0.00  -0.00  -0.00     0.00   0.01  -0.02    -0.01  -0.00   0.04
  63   1     0.00   0.00  -0.00     0.00  -0.00  -0.01    -0.01  -0.00   0.01
  64   1    -0.00  -0.00  -0.00     0.01   0.01  -0.01     0.00   0.00   0.02
  65   1     0.03  -0.01  -0.04     0.03  -0.02  -0.01     0.04  -0.04   0.01
  66   1     0.04   0.01  -0.04    -0.01   0.01   0.01     0.08  -0.10  -0.01
  67   1     0.01   0.04  -0.01    -0.06   0.04   0.02     0.07  -0.10  -0.03
  68   1    -0.02   0.05   0.02    -0.06   0.04   0.01    -0.01  -0.03  -0.02
  69   1    -0.02   0.03   0.02    -0.01   0.01  -0.00    -0.05   0.02  -0.00
  70   1    -0.00   0.03  -0.00     0.06   0.07   0.01     0.02  -0.03  -0.01
  71   1    -0.01   0.03   0.02    -0.00   0.03   0.04    -0.02  -0.08  -0.06
  72   1    -0.02  -0.00   0.03    -0.11  -0.09   0.05    -0.08  -0.08  -0.09
  73   1    -0.03  -0.03   0.02    -0.14  -0.15   0.03    -0.07  -0.03  -0.07
  74   1    -0.02  -0.03   0.00    -0.07  -0.10   0.00    -0.02   0.02  -0.03
  75   1    -0.02   0.00  -0.03     0.03  -0.01  -0.01     0.00   0.00   0.02
  76   1    -0.01   0.01  -0.02     0.02  -0.02  -0.02     0.01   0.01   0.04
  77   1     0.00   0.01   0.00     0.01  -0.02  -0.02     0.01   0.01   0.03
  78   1    -0.02  -0.01  -0.02     0.00   0.00   0.01     0.00   0.00  -0.01
  79   1    -0.04  -0.03  -0.05     0.01   0.01   0.03     0.01   0.01  -0.01
  80   1    -0.04  -0.05  -0.05     0.01   0.01   0.03     0.01   0.02   0.00
  81   1    -0.02  -0.03  -0.01     0.00  -0.01   0.01     0.01   0.02   0.00
  82   1     0.00   0.01   0.07     0.00  -0.02  -0.04     0.01   0.02   0.02
  83   1     0.04   0.01   0.06    -0.01  -0.03  -0.02     0.02   0.02   0.01
  84   1     0.05   0.01   0.06    -0.01  -0.03  -0.04     0.02   0.02   0.02
  85   1     0.06   0.01  -0.00    -0.02  -0.03   0.00     0.02   0.02  -0.01
  86   1     0.07   0.01   0.01    -0.02  -0.03  -0.01     0.02   0.03   0.00
  87   1     0.05   0.01  -0.03    -0.02  -0.02   0.01     0.02   0.02  -0.01
  88   1    -0.06  -0.03  -0.08     0.02   0.01   0.01    -0.02   0.02   0.00
  89   1    -0.09  -0.06  -0.02     0.03   0.02  -0.00    -0.03   0.03   0.02
  90   1    -0.08  -0.05  -0.05     0.02   0.01   0.01    -0.04   0.02  -0.00
  91   1    -0.02  -0.02  -0.01     0.00   0.00   0.00    -0.02   0.02  -0.01
  92   1     0.05   0.04   0.07    -0.01   0.01   0.11     0.00   0.02   0.02
  93   1     0.08  -0.00   0.06     0.07   0.04  -0.07     0.02   0.03  -0.03
  94   1     0.05   0.03   0.06    -0.12  -0.03  -0.05    -0.02  -0.01  -0.02
  95   1     0.05   0.02   0.05    -0.01   0.02  -0.00     0.01   0.00   0.01
  96   1     0.02   0.02   0.02     0.01   0.03   0.00     0.01   0.01   0.03
  97   1     0.02   0.02   0.00     0.01   0.03  -0.01     0.02   0.01   0.03
  98   1     0.02   0.02   0.02     0.01   0.04  -0.00     0.02   0.00   0.02
  99   1     0.07  -0.07  -0.06     0.00   0.01   0.00     0.03   0.01  -0.01
 100   1     0.07  -0.07  -0.04    -0.00   0.02   0.00     0.03   0.00   0.00
 101   1     0.05  -0.04  -0.09    -0.00   0.01   0.01     0.02   0.01  -0.01
 102   1     0.02  -0.03  -0.02     0.01   0.00   0.01     0.03  -0.01  -0.03
                     13                     14                     15
                        a                      a                      a 
 Frequencies --    63.3032                68.7306                71.0487
 Red. masses --    10.5006                 9.6264                10.2043
 Frc consts  --     0.0000                 0.0000                 0.0000
 IR Inten    --     0.0578                 0.2073                 0.0395
 Raman Activ --     0.0000                 0.0000                 0.0000
 Depolar     --     0.0000                 0.0000                 0.0000
 Atom AN      X      Y      Z        X      Y      Z        X      Y      Z
   1   6    -0.01   0.08   0.14     0.02   0.00  -0.07     0.07   0.03   0.04
   2   6     0.03   0.03   0.03     0.02   0.01  -0.04     0.05   0.05   0.01
   3   6     0.07   0.05  -0.03    -0.09   0.08   0.07     0.05   0.07  -0.00
   4   6     0.08   0.02  -0.10    -0.08   0.08   0.08     0.03   0.08  -0.02
   5   6     0.12   0.03  -0.14    -0.15   0.13   0.14     0.03   0.11  -0.03
   6   6     0.05  -0.01  -0.12     0.00   0.02   0.01     0.00   0.06  -0.02
   7   7     0.03   0.00  -0.18     0.01   0.02   0.01    -0.01   0.07  -0.05
   8   6     0.03   0.04  -0.11     0.00   0.00   0.01    -0.00   0.03  -0.04
   9   6     0.05   0.04  -0.08    -0.00  -0.03   0.08    -0.02   0.04  -0.09
  10   6     0.05   0.03   0.04    -0.00  -0.03   0.06    -0.02  -0.00  -0.08
  11   6     0.01   0.03   0.11     0.00  -0.01   0.01     0.00  -0.05  -0.01
  12   6    -0.01   0.04   0.05     0.00   0.01  -0.04     0.02  -0.06   0.05
  13   6    -0.01   0.04  -0.06     0.01   0.02  -0.04     0.02  -0.02   0.04
  14   6    -0.02   0.04   0.07    -0.00  -0.00  -0.02     0.03  -0.08   0.07
  15   6    -0.00   0.04   0.06    -0.02  -0.03  -0.02     0.03  -0.06   0.07
  16   6     0.05   0.01   0.04    -0.11   0.02   0.03    -0.05   0.01   0.09
  17   6     0.15  -0.05   0.00    -0.17   0.03   0.05    -0.11   0.07   0.11
  18   6     0.18  -0.06  -0.00    -0.13  -0.02   0.01    -0.09   0.06   0.12
  19   6     0.10  -0.01   0.04    -0.03  -0.08  -0.05     0.03  -0.03   0.09
  20   6     0.01   0.04   0.07     0.02  -0.09  -0.07     0.08  -0.09   0.06
  21   6    -0.02   0.03   0.02    -0.00   0.00   0.00     0.02  -0.08   0.06
  22   6    -0.09  -0.10  -0.01    -0.07  -0.02   0.01    -0.15  -0.26   0.02
  23   6    -0.14  -0.16  -0.08    -0.08  -0.02   0.03    -0.20  -0.32  -0.03
  24   6    -0.13  -0.09  -0.11    -0.01   0.01   0.06    -0.05  -0.16  -0.03
  25   6    -0.04   0.05  -0.08     0.06   0.04   0.05     0.15   0.05   0.00
  26   6     0.01   0.10  -0.01     0.06   0.03   0.03     0.18   0.08   0.05
  27   6    -0.00   0.03   0.09    -0.01  -0.00  -0.03    -0.00  -0.06   0.02
  28   6    -0.01   0.02   0.05    -0.03   0.00  -0.07    -0.07  -0.04  -0.04
  29   6     0.00   0.00   0.06    -0.05   0.01  -0.11    -0.12   0.00  -0.15
  30   6    -0.01  -0.01   0.07    -0.04   0.00  -0.09    -0.10   0.01  -0.15
  31   6    -0.02  -0.00   0.09    -0.01  -0.00  -0.03    -0.03  -0.01  -0.07
  32   6     0.00   0.02   0.13    -0.00  -0.01  -0.02    -0.01  -0.04  -0.02
  33   7     0.01   0.03   0.21     0.00  -0.01   0.01     0.01  -0.06  -0.03
  34   6    -0.00   0.01   0.12     0.01  -0.00   0.00     0.03  -0.04  -0.03
  35   6     0.02  -0.00   0.12     0.01  -0.01   0.00     0.03  -0.08  -0.07
  36   6    -0.01  -0.05   0.03    -0.01  -0.02  -0.02     0.08  -0.03  -0.03
  37   6    -0.06  -0.09  -0.07    -0.02  -0.04  -0.04     0.12   0.04   0.05
  38   6    -0.07  -0.07  -0.07    -0.01  -0.03  -0.02     0.10   0.06   0.06
  39   6    -0.05  -0.02   0.03     0.00  -0.01  -0.00     0.06   0.01   0.01
  40   6    -0.10  -0.01   0.03     0.02  -0.01   0.01     0.04  -0.00  -0.01
  41   6    -0.13  -0.06  -0.11     0.04   0.01   0.07     0.05   0.06   0.04
  42   6    -0.24   0.05   0.09     0.08  -0.03  -0.02     0.10  -0.09  -0.02
  43   6    -0.00  -0.00  -0.10     0.01   0.02   0.03    -0.01   0.06  -0.02
  44   6     0.06  -0.03  -0.03     0.13   0.07   0.12    -0.07   0.02  -0.05
  45   6     0.14  -0.05  -0.01     0.31   0.14   0.23    -0.14  -0.02  -0.11
  46   6     0.07  -0.02   0.05     0.12   0.07   0.13    -0.07   0.02  -0.03
  47   6     0.00   0.01   0.05    -0.01   0.01   0.03    -0.04   0.06   0.02
  48   6     0.02   0.02   0.15    -0.05  -0.00   0.01    -0.05   0.06   0.05
  49   6    -0.07   0.03  -0.03    -0.10  -0.02  -0.04     0.00   0.10   0.04
  50   6    -0.07   0.02  -0.10    -0.08  -0.01  -0.03     0.01   0.10   0.02
  51   6    -0.11   0.04  -0.15    -0.12  -0.03  -0.07     0.02   0.12   0.02
  52   6     0.04  -0.04  -0.08     0.11  -0.06  -0.11    -0.01   0.05  -0.00
  53   6     0.03  -0.09  -0.12     0.25  -0.14  -0.22    -0.05   0.05   0.01
  54   6     0.02  -0.01  -0.01     0.12  -0.07  -0.14     0.01   0.04   0.02
  55   1     0.00   0.03   0.04     0.00  -0.00  -0.02     0.02   0.00   0.02
  56   1    -0.01  -0.00   0.06     0.01   0.00  -0.02     0.02   0.01   0.01
  57   1    -0.00   0.04   0.05     0.00  -0.00  -0.02     0.03   0.01   0.01
  58   1     0.02   0.02  -0.00    -0.05   0.04   0.04     0.02   0.02  -0.00
  59   1     0.03  -0.00  -0.04    -0.05   0.00   0.08     0.01   0.04  -0.01
  60   1     0.04   0.02  -0.03    -0.07   0.08   0.05     0.02   0.03  -0.01
  61   1     0.04   0.01  -0.05    -0.02   0.04   0.01    -0.00   0.03  -0.01
  62   1     0.02   0.01  -0.04    -0.00  -0.01   0.04    -0.01   0.02  -0.04
  63   1     0.02   0.01   0.02    -0.00  -0.01   0.03    -0.01  -0.00  -0.03
  64   1    -0.01   0.01  -0.03     0.00   0.01  -0.02     0.01  -0.01   0.03
  65   1     0.01   0.00   0.01    -0.04   0.01   0.02    -0.02   0.00   0.02
  66   1     0.06  -0.02  -0.01    -0.07   0.02   0.03    -0.06   0.04   0.04
  67   1     0.08  -0.03  -0.01    -0.05  -0.00   0.01    -0.04   0.03   0.04
  68   1     0.03  -0.01   0.01     0.00  -0.04  -0.03     0.02  -0.01   0.03
  69   1    -0.01   0.02   0.03     0.03  -0.04  -0.03     0.05  -0.04   0.01
  70   1    -0.03  -0.04   0.01    -0.03  -0.01  -0.00    -0.07  -0.11   0.01
  71   1    -0.06  -0.08  -0.03    -0.04  -0.01   0.01    -0.10  -0.14  -0.02
  72   1    -0.05  -0.04  -0.05    -0.01   0.00   0.02    -0.03  -0.06  -0.02
  73   1    -0.01   0.03  -0.03     0.03   0.02   0.02     0.08   0.05  -0.00
  74   1     0.02   0.06   0.00     0.03   0.01   0.01     0.09   0.07   0.02
  75   1    -0.00   0.01   0.00    -0.01   0.00  -0.02    -0.02  -0.01  -0.00
  76   1     0.00  -0.00   0.01    -0.02   0.00  -0.04    -0.05   0.01  -0.06
  77   1    -0.00  -0.01   0.02    -0.01   0.00  -0.03    -0.04   0.01  -0.06
  78   1     0.01   0.01   0.05     0.00   0.00   0.00     0.00  -0.04  -0.04
  79   1     0.00  -0.02   0.01    -0.00  -0.01  -0.01     0.02  -0.02  -0.01
  80   1    -0.02  -0.04  -0.04    -0.01  -0.02  -0.02     0.05   0.03   0.03
  81   1    -0.03  -0.03  -0.04    -0.01  -0.01  -0.01     0.04   0.03   0.03
  82   1    -0.01  -0.03  -0.05    -0.00   0.01   0.03     0.00   0.04   0.01
  83   1    -0.06  -0.02  -0.05     0.02   0.00   0.03     0.03   0.02   0.03
  84   1    -0.05  -0.01  -0.03     0.02   0.00   0.02     0.01   0.01   0.00
  85   1    -0.09   0.02   0.01     0.03  -0.01   0.00     0.05  -0.03   0.01
  86   1    -0.08   0.02   0.03     0.03  -0.01  -0.01     0.03  -0.03  -0.01
  87   1    -0.06   0.03   0.05     0.02  -0.01  -0.02     0.03  -0.04  -0.02
  88   1     0.05  -0.02   0.00     0.12   0.00   0.10    -0.05   0.00  -0.05
  89   1     0.05  -0.01  -0.02     0.12   0.10   0.07    -0.05  -0.02  -0.03
  90   1     0.05  -0.02   0.00     0.07   0.04   0.06    -0.04  -0.01  -0.03
  91   1     0.04  -0.01   0.03     0.06   0.03   0.06    -0.03  -0.01  -0.02
  92   1     0.01   0.01   0.05    -0.01  -0.01   0.01    -0.01   0.01   0.02
  93   1     0.02  -0.01   0.05    -0.01   0.01  -0.00    -0.01   0.01   0.01
  94   1    -0.00   0.02   0.05    -0.03  -0.01  -0.00    -0.02   0.02   0.01
  95   1    -0.04   0.01  -0.01    -0.05  -0.02  -0.03     0.00   0.03   0.02
  96   1    -0.03   0.01  -0.05    -0.04   0.03  -0.04     0.01  -0.00   0.03
  97   1    -0.04   0.01  -0.05    -0.01  -0.01   0.01    -0.02   0.04  -0.02
  98   1    -0.04   0.02  -0.04    -0.07  -0.04  -0.03     0.03   0.07   0.02
  99   1     0.00  -0.03  -0.02     0.06  -0.04  -0.06    -0.01   0.01   0.00
 100   1     0.01  -0.04  -0.04     0.09  -0.09  -0.06    -0.02   0.03   0.00
 101   1     0.02  -0.02  -0.05     0.11  -0.01  -0.10    -0.02   0.01   0.01
 102   1     0.00  -0.01   0.01     0.06  -0.04  -0.07    -0.00   0.01   0.01
                     16                     17                     18
                        a                      a                      a 
 Frequencies --    83.4249                89.7347                98.0781
 Red. masses --    10.4702                10.3846                10.1983
 Frc consts  --     0.0000                 0.0000                 0.0000
 IR Inten    --     0.0724                 0.0688                 0.1840
 Raman Activ --     0.0000                 0.0000                 0.0000
 Depolar     --     0.0000                 0.0000                 0.0000
 Atom AN      X      Y      Z        X      Y      Z        X      Y      Z
   1   6    -0.02  -0.03  -0.00     0.09  -0.05   0.03    -0.06   0.04   0.07
   2   6    -0.02  -0.02  -0.00     0.01  -0.01   0.01     0.01  -0.02   0.01
   3   6    -0.05   0.01   0.03    -0.01   0.07   0.02     0.04  -0.05  -0.01
   4   6    -0.06   0.01   0.02    -0.05   0.09  -0.02     0.06  -0.07  -0.02
   5   6    -0.06   0.03   0.02    -0.07   0.16  -0.00     0.13  -0.14  -0.08
   6   6    -0.04  -0.01  -0.00    -0.06   0.03  -0.06     0.04  -0.04   0.02
   7   7    -0.04  -0.00   0.01    -0.05   0.01  -0.14     0.00  -0.00   0.08
   8   6    -0.04  -0.01  -0.01    -0.05  -0.03  -0.08    -0.00   0.03   0.03
   9   6    -0.06   0.01  -0.10    -0.05  -0.04  -0.04    -0.03   0.09  -0.17
  10   6    -0.06   0.01  -0.16    -0.05  -0.08   0.02    -0.03   0.11  -0.22
  11   6    -0.04  -0.01  -0.13    -0.03  -0.10   0.06    -0.05   0.06  -0.07
  12   6    -0.01  -0.04  -0.01    -0.03  -0.10   0.06    -0.02   0.01   0.09
  13   6    -0.02  -0.03   0.03    -0.04  -0.06  -0.02    -0.02  -0.01   0.15
  14   6     0.01  -0.05  -0.02    -0.06  -0.08   0.06     0.01  -0.00   0.10
  15   6     0.05   0.00  -0.02    -0.03  -0.02   0.06     0.01   0.01   0.10
  16   6     0.08   0.02  -0.09     0.04  -0.02  -0.04     0.04  -0.02   0.10
  17   6     0.09   0.12  -0.09     0.14   0.01  -0.07     0.07  -0.04   0.09
  18   6     0.05   0.20  -0.00     0.15   0.06   0.01     0.06  -0.04   0.09
  19   6     0.04   0.17   0.07     0.06   0.08   0.11     0.02  -0.00   0.10
  20   6     0.04   0.07   0.05    -0.03   0.04   0.14    -0.00   0.01   0.11
  21   6     0.01  -0.04   0.01    -0.05  -0.08   0.01     0.01  -0.01   0.06
  22   6    -0.09  -0.08   0.02     0.14   0.01   0.01     0.11  -0.02   0.04
  23   6    -0.11  -0.09   0.05     0.28   0.11  -0.02     0.15  -0.01  -0.04
  24   6    -0.02  -0.05   0.09     0.20   0.09  -0.06     0.06  -0.01  -0.10
  25   6     0.10   0.00   0.09    -0.05  -0.05  -0.06    -0.06  -0.01  -0.08
  26   6     0.11  -0.00   0.05    -0.16  -0.13  -0.03    -0.08  -0.01   0.00
  27   6     0.01  -0.04  -0.01    -0.07  -0.07   0.05    -0.02   0.01   0.06
  28   6     0.08  -0.05   0.13    -0.12  -0.05   0.05    -0.03   0.02   0.04
  29   6     0.17  -0.05   0.32    -0.13   0.01   0.02    -0.10   0.03  -0.12
  30   6     0.16  -0.04   0.28    -0.11   0.02   0.00    -0.12   0.04  -0.18
  31   6     0.05  -0.02   0.05    -0.06   0.00   0.02    -0.08   0.03  -0.09
  32   6    -0.01  -0.03  -0.06    -0.05  -0.06   0.04    -0.05   0.03  -0.03
  33   7    -0.05  -0.04  -0.22    -0.02  -0.09   0.05    -0.06   0.04  -0.09
  34   6    -0.05  -0.03  -0.13     0.03  -0.07  -0.01    -0.10   0.02  -0.06
  35   6    -0.07  -0.03  -0.14     0.07  -0.15  -0.07    -0.19   0.01  -0.12
  36   6    -0.02   0.06  -0.01     0.14  -0.10  -0.08    -0.19   0.03  -0.04
  37   6     0.06   0.13   0.14     0.18   0.02  -0.01    -0.12   0.09   0.11
  38   6     0.06   0.10   0.11     0.14   0.08   0.03    -0.06   0.09   0.14
  39   6     0.00   0.01  -0.04     0.06   0.02   0.02    -0.06   0.05   0.03
  40   6    -0.00  -0.01  -0.04     0.02   0.03   0.02    -0.07   0.00  -0.02
  41   6    -0.03  -0.05  -0.13     0.03   0.13   0.05    -0.06   0.01  -0.00
  42   6    -0.08   0.07  -0.02     0.06  -0.01   0.01    -0.05  -0.10  -0.00
  43   6    -0.04  -0.00   0.01    -0.03   0.03  -0.06     0.02  -0.00   0.04
  44   6    -0.01   0.02   0.03     0.02   0.03  -0.00     0.04   0.04   0.04
  45   6     0.01   0.04   0.05     0.11   0.05   0.04     0.10   0.06   0.08
  46   6     0.02   0.03   0.03     0.01   0.03   0.03     0.04   0.04   0.01
  47   6    -0.00   0.01  -0.00    -0.05   0.04   0.01     0.04  -0.00  -0.03
  48   6     0.03   0.02   0.00    -0.08   0.03   0.05     0.02  -0.02  -0.11
  49   6    -0.05  -0.02  -0.03    -0.09   0.05  -0.03     0.06  -0.03  -0.00
  50   6    -0.06  -0.03  -0.02    -0.08   0.05  -0.06     0.05  -0.02   0.03
  51   6    -0.10  -0.06  -0.04    -0.09   0.07  -0.08     0.10  -0.02   0.07
  52   6     0.00  -0.05  -0.04    -0.07  -0.02  -0.03     0.08  -0.06  -0.03
  53   6     0.05  -0.09  -0.09    -0.11  -0.03  -0.03     0.19  -0.11  -0.10
  54   6     0.01  -0.06  -0.04    -0.03  -0.04  -0.00     0.06  -0.05  -0.03
  55   1    -0.01  -0.01  -0.00     0.02  -0.03   0.02    -0.01   0.03   0.01
  56   1    -0.00  -0.01   0.00     0.03  -0.01   0.01    -0.02  -0.01   0.03
  57   1    -0.01  -0.01   0.00     0.04  -0.01   0.00    -0.03   0.02   0.03
  58   1    -0.02   0.01   0.01     0.00   0.03   0.01     0.01  -0.02  -0.01
  59   1    -0.02   0.01   0.01    -0.02   0.03   0.02     0.04  -0.01  -0.07
  60   1    -0.01   0.01   0.01    -0.04   0.08   0.01     0.07  -0.08  -0.03
  61   1    -0.02   0.01   0.01    -0.01   0.05  -0.03     0.02  -0.04   0.02
  62   1    -0.02   0.01  -0.03    -0.01  -0.01  -0.02    -0.01   0.04  -0.08
  63   1    -0.02   0.01  -0.07    -0.02  -0.03   0.01    -0.01   0.05  -0.10
  64   1    -0.00  -0.01   0.02    -0.01  -0.01  -0.01    -0.01  -0.02   0.08
  65   1     0.03  -0.01  -0.04     0.01  -0.02  -0.03     0.02  -0.01   0.03
  66   1     0.03   0.04  -0.04     0.06  -0.00  -0.04     0.03  -0.02   0.02
  67   1     0.01   0.08   0.00     0.07   0.02  -0.00     0.02  -0.02   0.02
  68   1     0.00   0.07   0.04     0.02   0.04   0.05     0.00   0.00   0.03
  69   1     0.01   0.01   0.03    -0.02   0.01   0.06    -0.01   0.01   0.03
  70   1    -0.04  -0.03  -0.00     0.06   0.01   0.01     0.05  -0.01   0.02
  71   1    -0.06  -0.03   0.02     0.13   0.06  -0.00     0.07  -0.00  -0.02
  72   1    -0.01  -0.02   0.03     0.09   0.05  -0.02     0.03  -0.00  -0.04
  73   1     0.05   0.01   0.03    -0.04  -0.02  -0.03    -0.04  -0.00  -0.04
  74   1     0.06   0.01   0.01    -0.09  -0.06  -0.01    -0.05  -0.00   0.00
  75   1     0.02  -0.01   0.04    -0.04  -0.02   0.02     0.00   0.00   0.03
  76   1     0.07  -0.02   0.14    -0.05   0.01   0.00    -0.04   0.01  -0.05
  77   1     0.07  -0.02   0.12    -0.04   0.02  -0.01    -0.05   0.01  -0.08
  78   1    -0.04  -0.02  -0.07     0.01  -0.07  -0.03    -0.07  -0.01  -0.07
  79   1    -0.01   0.02  -0.00     0.05  -0.05  -0.04    -0.07   0.00  -0.03
  80   1     0.03   0.06   0.08     0.07   0.02  -0.00    -0.03   0.03   0.06
  81   1     0.03   0.05   0.06     0.05   0.05   0.02    -0.00   0.03   0.07
  82   1     0.01  -0.03  -0.05    -0.00   0.05   0.02    -0.02   0.03  -0.01
  83   1    -0.03  -0.02  -0.05     0.03   0.04   0.02    -0.01  -0.01   0.02
  84   1    -0.02  -0.01  -0.04    -0.00   0.04   0.01    -0.02  -0.02  -0.02
  85   1    -0.04   0.02  -0.02     0.04   0.00   0.01    -0.01  -0.04   0.02
  86   1    -0.02   0.03  -0.00     0.01  -0.00   0.00    -0.01  -0.05  -0.02
  87   1    -0.02   0.03   0.01     0.02  -0.02  -0.00    -0.02  -0.02  -0.00
  88   1     0.01   0.00   0.02     0.04  -0.00   0.03     0.03   0.01   0.04
  89   1     0.01   0.03   0.02     0.04   0.04   0.01     0.04   0.03   0.02
  90   1    -0.00   0.01   0.01     0.03   0.01   0.01     0.03   0.02   0.02
  91   1     0.01   0.02   0.01     0.02   0.01   0.02     0.02   0.02   0.00
  92   1     0.01   0.01   0.00    -0.03  -0.00   0.01     0.00  -0.01  -0.04
  93   1     0.01   0.00  -0.00    -0.04   0.00   0.02    -0.00   0.01  -0.04
  94   1     0.01   0.00  -0.00    -0.02   0.02   0.02     0.01  -0.02  -0.04
  95   1    -0.02  -0.01  -0.01    -0.03   0.02  -0.01     0.02  -0.01  -0.00
  96   1    -0.03  -0.02  -0.02    -0.02   0.01  -0.02     0.03  -0.01   0.04
  97   1    -0.03  -0.02  -0.00    -0.03   0.02  -0.03     0.03  -0.01   0.02
  98   1    -0.03  -0.02  -0.01    -0.02   0.03  -0.02     0.04  -0.00   0.02
  99   1     0.01  -0.03  -0.02    -0.04  -0.01   0.00     0.06  -0.03  -0.03
 100   1     0.02  -0.05  -0.03    -0.04  -0.01  -0.02     0.07  -0.06  -0.02
 101   1     0.03  -0.01  -0.04    -0.03  -0.01  -0.01     0.06  -0.02  -0.05
 102   1     0.01  -0.03  -0.02    -0.01  -0.02   0.00     0.02  -0.01  -0.01
                     19                     20                     21
                        a                      a                      a 
 Frequencies --   114.9094               120.7360               138.4663
 Red. masses --    10.0692                 9.7635                 9.8763
 Frc consts  --     0.0000                 0.0000                 0.0000
 IR Inten    --     0.0381                 0.6366                 0.3837
 Raman Activ --     0.0000                 0.0000                 0.0000
 Depolar     --     0.0000                 0.0000                 0.0000
 Atom AN      X      Y      Z        X      Y      Z        X      Y      Z
   1   6     0.03   0.01   0.00    -0.05   0.03  -0.07    -0.04   0.06   0.07
   2   6     0.02   0.01   0.01    -0.02   0.01  -0.02     0.05  -0.01  -0.01
   3   6     0.02   0.01   0.02    -0.02  -0.02  -0.01     0.14  -0.10  -0.10
   4   6     0.02   0.01   0.02    -0.00  -0.03   0.02     0.13  -0.09  -0.06
   5   6     0.03   0.01   0.02    -0.01  -0.04   0.03     0.25  -0.25  -0.16
   6   6     0.02   0.01   0.02     0.02   0.00   0.04     0.02   0.02   0.06
   7   7     0.03  -0.01   0.00     0.01   0.03   0.11    -0.06   0.09   0.14
   8   6     0.02  -0.05  -0.02     0.02   0.08   0.04    -0.06   0.06   0.04
   9   6     0.02  -0.05  -0.03     0.02   0.07   0.06    -0.09   0.04   0.05
  10   6     0.02  -0.04  -0.02     0.02   0.07   0.04    -0.09  -0.04   0.09
  11   6     0.01  -0.04  -0.00     0.05   0.06   0.04    -0.04  -0.06   0.06
  12   6    -0.01  -0.03  -0.05     0.04   0.08  -0.01    -0.03  -0.02  -0.01
  13   6     0.00  -0.05  -0.03     0.03   0.10  -0.03    -0.02   0.04   0.00
  14   6    -0.07   0.02  -0.08     0.07   0.06   0.00    -0.05  -0.01  -0.04
  15   6    -0.08   0.02  -0.08     0.04   0.04   0.01    -0.05  -0.00  -0.04
  16   6    -0.07   0.02  -0.09     0.03   0.02   0.05    -0.05   0.01  -0.05
  17   6    -0.04  -0.01  -0.10    -0.00  -0.02   0.06    -0.02   0.00  -0.06
  18   6    -0.02  -0.03  -0.12    -0.03  -0.03   0.02     0.00  -0.01  -0.06
  19   6    -0.04  -0.02  -0.11    -0.01  -0.02  -0.02    -0.01  -0.00  -0.04
  20   6    -0.07   0.01  -0.09     0.02   0.02  -0.03    -0.05   0.00  -0.03
  21   6    -0.10   0.01  -0.07     0.08   0.07   0.00    -0.04  -0.01  -0.04
  22   6    -0.15   0.03  -0.05     0.09   0.08   0.01    -0.06   0.02  -0.03
  23   6    -0.13   0.06   0.00     0.03   0.03   0.00    -0.04   0.04   0.01
  24   6    -0.04   0.10   0.04    -0.05  -0.03  -0.00    -0.01   0.04   0.02
  25   6     0.02   0.08   0.02    -0.05  -0.03  -0.00    -0.00   0.01   0.01
  26   6    -0.02   0.04  -0.03     0.02   0.02  -0.00    -0.02  -0.01  -0.02
  27   6    -0.06   0.00  -0.04     0.08   0.03   0.02    -0.05  -0.06  -0.02
  28   6    -0.09   0.01  -0.09     0.07   0.02  -0.03    -0.05  -0.06  -0.01
  29   6    -0.05   0.01   0.01     0.05   0.01  -0.09    -0.02  -0.05   0.05
  30   6     0.01   0.01   0.11     0.03   0.00  -0.08    -0.02  -0.05   0.08
  31   6     0.01   0.01   0.11     0.04   0.01   0.00    -0.03  -0.05   0.04
  32   6    -0.01  -0.01   0.07     0.06   0.01   0.05    -0.04  -0.07   0.02
  33   7     0.02  -0.03   0.09     0.06   0.02   0.09    -0.03  -0.09   0.05
  34   6     0.00  -0.05   0.04     0.03  -0.02   0.01     0.02  -0.07   0.01
  35   6    -0.06  -0.20  -0.15    -0.04  -0.18  -0.19     0.12  -0.08   0.06
  36   6    -0.04  -0.21  -0.20    -0.03  -0.19  -0.24     0.19  -0.03   0.06
  37   6     0.07  -0.04  -0.00     0.09  -0.02  -0.01     0.15  -0.02  -0.02
  38   6     0.12   0.08   0.16     0.15   0.11   0.16     0.05  -0.03  -0.08
  39   6     0.06   0.03   0.14     0.09   0.05   0.12     0.00  -0.05  -0.04
  40   6    -0.02   0.01   0.10     0.04  -0.00   0.05     0.01  -0.02  -0.00
  41   6    -0.07   0.00  -0.11     0.00  -0.00  -0.09     0.02   0.03   0.06
  42   6    -0.20  -0.03   0.21    -0.07  -0.14   0.14     0.07   0.03  -0.05
  43   6     0.09   0.02   0.03    -0.08  -0.02   0.02    -0.07   0.08   0.08
  44   6     0.07   0.01   0.02    -0.09  -0.01   0.00    -0.08   0.15   0.05
  45   6     0.09   0.02   0.03    -0.18  -0.02  -0.04    -0.14   0.15   0.03
  46   6     0.03  -0.01  -0.00    -0.05   0.01  -0.00    -0.05   0.16   0.01
  47   6     0.04  -0.00   0.01    -0.03  -0.01  -0.01    -0.04   0.13  -0.02
  48   6    -0.08  -0.05  -0.08     0.11   0.05   0.06    -0.00   0.14  -0.11
  49   6     0.14   0.05   0.08    -0.14  -0.08  -0.08    -0.05   0.06  -0.00
  50   6     0.16   0.06   0.09    -0.17  -0.09  -0.06    -0.07   0.05   0.05
  51   6     0.25   0.13   0.14    -0.29  -0.18  -0.13    -0.09   0.03   0.05
  52   6     0.03   0.01   0.02     0.02   0.03   0.02     0.07  -0.01   0.01
  53   6     0.06   0.03   0.02     0.01   0.03   0.02     0.22  -0.09  -0.10
  54   6     0.02   0.01   0.01     0.01   0.04  -0.00     0.05   0.00   0.00
  55   1     0.01  -0.00   0.00    -0.01   0.02  -0.03    -0.01   0.04   0.01
  56   1     0.01   0.00  -0.00    -0.01   0.01  -0.02    -0.02  -0.01   0.04
  57   1     0.01   0.00  -0.00    -0.03   0.00  -0.02    -0.03   0.03   0.04
  58   1     0.00   0.00   0.01    -0.01  -0.01  -0.01     0.06  -0.05  -0.05
  59   1     0.01  -0.00   0.00     0.00   0.00   0.00     0.07  -0.02  -0.12
  60   1     0.01   0.01   0.01     0.00  -0.03   0.00     0.13  -0.15  -0.07
  61   1     0.01   0.00   0.00    -0.02  -0.01   0.02     0.05  -0.08   0.02
  62   1     0.01  -0.01  -0.01     0.01   0.02   0.02    -0.03   0.02   0.01
  63   1     0.01  -0.01  -0.01     0.00   0.02   0.01    -0.04  -0.02   0.04
  64   1     0.00  -0.02  -0.01     0.01   0.04  -0.03     0.00   0.02  -0.00
  65   1    -0.03   0.01  -0.03     0.02   0.01   0.02    -0.02   0.00  -0.02
  66   1    -0.01  -0.01  -0.03    -0.00  -0.01   0.03    -0.00   0.00  -0.02
  67   1     0.01  -0.02  -0.04    -0.02  -0.02   0.01     0.01  -0.00  -0.02
  68   1    -0.01  -0.01  -0.03    -0.01  -0.01  -0.02     0.00  -0.00  -0.01
  69   1    -0.02   0.00  -0.02     0.01   0.01  -0.02    -0.02   0.00  -0.00
  70   1    -0.06   0.01  -0.02     0.03   0.03   0.00    -0.02   0.01  -0.01
  71   1    -0.05   0.02   0.00     0.01   0.01   0.00    -0.01   0.02   0.00
  72   1    -0.00   0.04   0.02    -0.03  -0.02  -0.00     0.00   0.02   0.01
  73   1     0.03   0.03   0.02    -0.03  -0.02  -0.00     0.01   0.00   0.01
  74   1     0.01   0.01  -0.01     0.01   0.00  -0.00    -0.01  -0.01  -0.01
  75   1    -0.04   0.00  -0.05     0.02   0.01  -0.01    -0.02  -0.02  -0.01
  76   1    -0.02   0.01  -0.00     0.01   0.00  -0.04    -0.00  -0.02   0.02
  77   1     0.01  -0.00   0.05     0.00  -0.01  -0.04     0.00  -0.02   0.04
  78   1    -0.03  -0.09  -0.07    -0.03  -0.09  -0.08     0.04  -0.03   0.03
  79   1    -0.03  -0.10  -0.11    -0.03  -0.09  -0.12     0.08  -0.00   0.03
  80   1     0.03  -0.01   0.00     0.03   0.00   0.00     0.06   0.00  -0.01
  81   1     0.05   0.06   0.08     0.06   0.07   0.09     0.01  -0.00  -0.04
  82   1     0.02   0.01  -0.06     0.03   0.03  -0.05    -0.01  -0.00   0.03
  83   1    -0.04  -0.01  -0.03    -0.00  -0.01  -0.01     0.02   0.02   0.01
  84   1    -0.05  -0.01  -0.05    -0.03  -0.02  -0.05     0.01   0.02   0.03
  85   1    -0.07  -0.01   0.06    -0.03  -0.05   0.07     0.04   0.02  -0.03
  86   1    -0.08  -0.02   0.04    -0.04  -0.07   0.01     0.02   0.03   0.00
  87   1    -0.05  -0.01   0.10    -0.02  -0.03   0.06     0.02  -0.01  -0.03
  88   1     0.03   0.00   0.02    -0.06   0.01  -0.03    -0.08   0.08  -0.00
  89   1     0.03   0.01   0.01    -0.07  -0.03  -0.00    -0.05  -0.01  -0.02
  90   1     0.03   0.01   0.01    -0.06  -0.01  -0.01     0.00   0.06   0.03
  91   1    -0.01  -0.01  -0.01    -0.01   0.01   0.00    -0.01   0.06   0.00
  92   1    -0.02  -0.04  -0.02     0.03   0.05   0.01    -0.00   0.05  -0.04
  93   1    -0.03   0.01  -0.04     0.04  -0.01   0.03    -0.00   0.05  -0.04
  94   1    -0.04  -0.03  -0.03     0.05   0.02   0.03     0.01   0.02  -0.04
  95   1     0.05   0.02   0.03    -0.05  -0.04  -0.04    -0.01   0.00  -0.01
  96   1     0.07   0.00   0.09    -0.08   0.02  -0.11    -0.03   0.05  -0.01
  97   1     0.05   0.04  -0.00    -0.03  -0.06   0.03     0.01   0.00   0.05
  98   1     0.12   0.08   0.05    -0.16  -0.13  -0.06    -0.06  -0.03   0.00
  99   1     0.03   0.01  -0.01    -0.01   0.01   0.02     0.05  -0.02  -0.02
 100   1     0.03   0.02   0.02    -0.00  -0.00  -0.01     0.08  -0.09  -0.03
 101   1     0.01   0.00   0.01     0.02   0.01   0.00     0.10   0.01  -0.07
 102   1     0.01   0.00   0.00     0.00   0.02  -0.00     0.01   0.01   0.00
                     22                     23                     24
                        a                      a                      a 
 Frequencies --   156.2340               164.9663               170.0791
 Red. masses --     9.3513                 5.1608                 7.7318
 Frc consts  --     0.0000                 0.0000                 0.0000
 IR Inten    --     0.4488                 0.1877                 0.1777
 Raman Activ --     0.0000                 0.0000                 0.0000
 Depolar     --     0.0000                 0.0000                 0.0000
 Atom AN      X      Y      Z        X      Y      Z        X      Y      Z
   1   6    -0.06  -0.01   0.14     0.12  -0.06  -0.10    -0.06  -0.03   0.06
   2   6     0.00  -0.08  -0.02    -0.03   0.07   0.05    -0.02  -0.06  -0.02
   3   6     0.04  -0.07  -0.08    -0.01   0.05   0.03    -0.05  -0.02  -0.01
   4   6     0.02  -0.05  -0.09    -0.01   0.05   0.04    -0.06  -0.01  -0.05
   5   6    -0.01  -0.08  -0.05     0.05  -0.04   0.00    -0.10   0.12  -0.04
   6   6    -0.01  -0.04  -0.07    -0.01   0.04   0.03    -0.04  -0.03  -0.07
   7   7    -0.04  -0.01  -0.07     0.03  -0.01  -0.08    -0.03  -0.02   0.01
   8   6    -0.04   0.03   0.08     0.02  -0.03  -0.01    -0.01   0.02  -0.05
   9   6    -0.04  -0.04   0.26     0.01  -0.06   0.07     0.02   0.10  -0.22
  10   6    -0.04  -0.04   0.27     0.01  -0.04   0.08     0.03   0.10  -0.18
  11   6    -0.04   0.02   0.10    -0.01  -0.01   0.02     0.03   0.04  -0.02
  12   6    -0.03   0.06   0.04    -0.00   0.00   0.00     0.01   0.02   0.01
  13   6    -0.04   0.06   0.01    -0.00  -0.01  -0.02     0.00  -0.02   0.05
  14   6     0.01   0.06   0.00    -0.02   0.01   0.01    -0.00   0.05  -0.00
  15   6    -0.01   0.07   0.02    -0.04   0.03   0.02    -0.04   0.08   0.02
  16   6    -0.01   0.05   0.05    -0.03   0.03   0.02    -0.04   0.07   0.04
  17   6     0.01  -0.00   0.04     0.01   0.00   0.00     0.00  -0.00   0.02
  18   6     0.03  -0.04   0.00     0.05  -0.02  -0.01     0.05  -0.05  -0.02
  19   6     0.00   0.00  -0.02     0.01   0.01   0.01    -0.01   0.00  -0.03
  20   6    -0.02   0.06  -0.00    -0.04   0.04   0.03    -0.05   0.08  -0.00
  21   6     0.04   0.10  -0.01    -0.02   0.02  -0.00    -0.00   0.06  -0.03
  22   6     0.01   0.09  -0.00    -0.03   0.02   0.00    -0.03   0.08  -0.02
  23   6    -0.09   0.03   0.00    -0.03   0.02   0.00    -0.06   0.07   0.01
  24   6    -0.12  -0.01   0.00    -0.02   0.03   0.01    -0.07   0.05   0.02
  25   6    -0.01   0.06   0.01    -0.01   0.03   0.00    -0.02   0.04   0.01
  26   6     0.06   0.11  -0.00    -0.01   0.03   0.00     0.00   0.06  -0.02
  27   6     0.02  -0.00   0.01    -0.01   0.00   0.02     0.04   0.01   0.03
  28   6     0.12  -0.03   0.15     0.05  -0.01   0.13     0.09  -0.01   0.08
  29   6     0.11  -0.05   0.14     0.04  -0.01   0.12     0.08  -0.03   0.06
  30   6    -0.00  -0.05  -0.05    -0.03  -0.00  -0.02     0.02  -0.03  -0.05
  31   6    -0.07  -0.03  -0.15    -0.06   0.00  -0.10    -0.01  -0.02  -0.06
  32   6    -0.05  -0.01  -0.09    -0.04   0.01  -0.06     0.03   0.00   0.01
  33   7    -0.05  -0.00  -0.06    -0.02   0.01  -0.05     0.04   0.01   0.08
  34   6    -0.03   0.00  -0.07    -0.01   0.02  -0.02     0.07   0.02   0.07
  35   6    -0.04  -0.04  -0.11    -0.03   0.03  -0.03     0.13   0.01   0.09
  36   6    -0.02  -0.02  -0.10    -0.05   0.01  -0.04     0.12  -0.02   0.02
  37   6     0.03   0.05  -0.00    -0.05   0.01  -0.02     0.07  -0.07  -0.10
  38   6     0.03   0.08   0.04    -0.02   0.02   0.01     0.04  -0.05  -0.09
  39   6    -0.01   0.03  -0.02    -0.00   0.03   0.00     0.05  -0.00   0.03
  40   6    -0.01  -0.03  -0.08    -0.02  -0.01  -0.04     0.03  -0.04  -0.01
  41   6     0.02   0.05   0.02    -0.01   0.06  -0.00     0.03   0.03  -0.01
  42   6     0.13  -0.27  -0.10     0.05  -0.21  -0.03     0.06  -0.25   0.02
  43   6    -0.04  -0.00  -0.10     0.07   0.01  -0.02    -0.01  -0.00   0.09
  44   6    -0.02  -0.01  -0.08     0.11  -0.01   0.02    -0.00   0.03   0.10
  45   6     0.17   0.02   0.01    -0.06  -0.10  -0.11    -0.11   0.05   0.07
  46   6    -0.04  -0.02  -0.05     0.13   0.00   0.07     0.05   0.05   0.07
  47   6    -0.02   0.01  -0.03     0.05  -0.01   0.03     0.05   0.02   0.05
  48   6     0.03   0.04   0.06    -0.10  -0.07  -0.01    -0.06  -0.03  -0.11
  49   6     0.00   0.05  -0.02     0.02   0.01  -0.01     0.07   0.00   0.08
  50   6     0.01   0.04  -0.05     0.05   0.02  -0.02     0.03  -0.01   0.10
  51   6     0.13   0.13   0.03    -0.02  -0.02  -0.06    -0.04  -0.13   0.09
  52   6    -0.02  -0.09  -0.05    -0.05   0.08   0.07    -0.04  -0.07  -0.07
  53   6    -0.13  -0.06  -0.00     0.12  -0.03  -0.07    -0.14  -0.06  -0.03
  54   6    -0.01  -0.10  -0.03    -0.09   0.11   0.11    -0.01  -0.10  -0.06
  55   1    -0.01   0.02   0.04     0.02  -0.06  -0.02    -0.01   0.00   0.02
  56   1    -0.03  -0.04   0.06     0.06   0.02  -0.05    -0.03  -0.03   0.03
  57   1    -0.02   0.02   0.06     0.06  -0.04  -0.05    -0.02   0.01   0.03
  58   1     0.02  -0.02  -0.02     0.01   0.00  -0.00    -0.02   0.01   0.01
  59   1    -0.01  -0.07   0.02    -0.02  -0.10   0.03     0.01   0.14  -0.05
  60   1    -0.04   0.02  -0.00    -0.02   0.06   0.02     0.02  -0.04  -0.04
  61   1     0.04  -0.03  -0.04     0.10  -0.02  -0.05    -0.13   0.04   0.05
  62   1    -0.01  -0.02   0.10     0.00  -0.02   0.03     0.01   0.04  -0.10
  63   1    -0.01  -0.02   0.10     0.01  -0.01   0.03     0.01   0.04  -0.07
  64   1    -0.01   0.03  -0.02    -0.00  -0.00  -0.02     0.00  -0.01   0.04
  65   1    -0.00   0.02   0.02    -0.01   0.01   0.01    -0.02   0.03   0.02
  66   1     0.01  -0.01   0.02     0.01  -0.00  -0.00     0.01  -0.01   0.01
  67   1     0.02  -0.03  -0.00     0.03  -0.01  -0.01     0.03  -0.04  -0.01
  68   1    -0.00  -0.00  -0.01     0.00   0.00   0.00    -0.00  -0.01  -0.02
  69   1    -0.01   0.02  -0.00    -0.02   0.01   0.01    -0.02   0.03  -0.00
  70   1     0.01   0.04  -0.00    -0.01   0.01  -0.00    -0.01   0.03  -0.01
  71   1    -0.04  -0.00  -0.00    -0.01   0.00   0.00    -0.02   0.02   0.00
  72   1    -0.06  -0.02   0.00    -0.01   0.01   0.00    -0.03   0.01   0.01
  73   1    -0.00   0.01   0.01     0.00   0.01   0.00    -0.00   0.01   0.01
  74   1     0.03   0.04   0.00    -0.00   0.01   0.00     0.01   0.02  -0.01
  75   1     0.06  -0.01   0.08     0.03  -0.00   0.06     0.04  -0.00   0.03
  76   1     0.06  -0.02   0.08     0.03  -0.01   0.06     0.03  -0.01   0.03
  77   1    -0.01  -0.02  -0.02    -0.01   0.00  -0.01    -0.00  -0.01  -0.03
  78   1    -0.01  -0.02  -0.04    -0.01   0.01  -0.01     0.04   0.00   0.04
  79   1    -0.01  -0.02  -0.04    -0.02   0.00  -0.02     0.04  -0.01   0.01
  80   1     0.02   0.02   0.01    -0.02  -0.00  -0.01     0.01  -0.03  -0.05
  81   1     0.02   0.04   0.03    -0.00   0.01   0.01    -0.00  -0.02  -0.05
  82   1    -0.02   0.06   0.01    -0.02   0.05  -0.00     0.00   0.03  -0.01
  83   1     0.04   0.01   0.04     0.02   0.01   0.03     0.03   0.01   0.01
  84   1     0.00  -0.01  -0.02    -0.01  -0.00  -0.02    -0.00  -0.00  -0.01
  85   1     0.06  -0.09   0.03     0.03  -0.07   0.04     0.02  -0.09   0.06
  86   1     0.05  -0.11  -0.06     0.02  -0.09  -0.04     0.02  -0.11  -0.03
  87   1     0.03  -0.09  -0.06     0.01  -0.06  -0.02     0.02  -0.07  -0.00
  88   1     0.11  -0.05   0.04    -0.27   0.17  -0.06     0.07  -0.05  -0.01
  89   1     0.09   0.09   0.01    -0.07  -0.31  -0.19    -0.04   0.10   0.11
  90   1     0.01  -0.01  -0.01     0.22   0.03   0.11    -0.14  -0.01  -0.05
  91   1    -0.01  -0.01  -0.01     0.04  -0.00   0.03     0.01   0.02   0.01
  92   1     0.01   0.02   0.02    -0.03  -0.06   0.01    -0.02  -0.03  -0.03
  93   1     0.02  -0.01   0.03    -0.04   0.01  -0.02    -0.03   0.03  -0.06
  94   1     0.01   0.03   0.02    -0.05  -0.03  -0.01    -0.03  -0.04  -0.05
  95   1     0.02   0.03   0.01    -0.01   0.00  -0.01     0.02  -0.01   0.02
  96   1     0.03   0.03   0.05     0.01  -0.05  -0.02     0.02  -0.21   0.09
  97   1     0.05   0.04  -0.02    -0.05  -0.00  -0.04    -0.17  -0.03  -0.07
  98   1     0.07   0.06   0.01     0.01   0.02  -0.01     0.09   0.08   0.06
  99   1     0.04  -0.06  -0.06    -0.13   0.07   0.10    -0.16   0.04   0.08
 100   1    -0.04   0.10   0.05     0.03  -0.25  -0.14    -0.08  -0.13  -0.11
 101   1    -0.15  -0.08   0.02     0.27   0.12  -0.07     0.10   0.04   0.01
 102   1    -0.01  -0.03  -0.00    -0.03   0.04   0.04    -0.00  -0.04  -0.02
                     25                     26                     27
                        a                      a                      a 
 Frequencies --   171.6406               176.2838               176.9135
 Red. masses --     8.9116                 8.8716                 9.3143
 Frc consts  --     0.0000                 0.0000                 0.0000
 IR Inten    --     0.6625                 1.9104                 1.7992
 Raman Activ --     0.0000                 0.0000                 0.0000
 Depolar     --     0.0000                 0.0000                 0.0000
 Atom AN      X      Y      Z        X      Y      Z        X      Y      Z
   1   6    -0.05  -0.13   0.13     0.06  -0.07  -0.09     0.08  -0.18  -0.17
   2   6    -0.06  -0.14   0.00    -0.06   0.03   0.05    -0.14   0.01   0.11
   3   6    -0.04  -0.09  -0.06    -0.06   0.03   0.05    -0.15   0.03   0.12
   4   6    -0.08  -0.06  -0.08    -0.05   0.02   0.04    -0.11   0.00   0.11
   5   6    -0.08  -0.09  -0.07    -0.00  -0.03  -0.00     0.05  -0.17  -0.03
   6   6    -0.09  -0.04  -0.07    -0.02   0.01   0.02    -0.07   0.01   0.10
   7   7    -0.09  -0.01  -0.06     0.00  -0.01  -0.02    -0.04  -0.01   0.01
   8   6    -0.05   0.02   0.04     0.00   0.03   0.01    -0.03   0.01  -0.05
   9   6    -0.01   0.01   0.12     0.00   0.05  -0.04    -0.00   0.05  -0.13
  10   6    -0.01   0.01   0.12    -0.00   0.06  -0.02     0.00   0.05  -0.12
  11   6     0.01   0.03   0.04    -0.00   0.04   0.04     0.01   0.01  -0.04
  12   6    -0.01   0.03   0.00     0.01   0.05   0.04    -0.01   0.00  -0.03
  13   6    -0.02   0.03   0.01    -0.00   0.03   0.04    -0.01  -0.00  -0.02
  14   6     0.08  -0.00  -0.01     0.01   0.07   0.03     0.01  -0.01  -0.01
  15   6     0.14  -0.07  -0.04    -0.06   0.11   0.05     0.04  -0.04  -0.03
  16   6     0.14  -0.08  -0.02    -0.06   0.09   0.10     0.04  -0.03  -0.03
  17   6    -0.01  -0.01   0.04     0.00  -0.02   0.07     0.00   0.01  -0.02
  18   6    -0.12   0.05   0.05     0.06  -0.09   0.00    -0.04   0.04   0.00
  19   6    -0.00  -0.02  -0.01    -0.01  -0.01  -0.01     0.00   0.01  -0.00
  20   6     0.14  -0.08  -0.06    -0.07   0.10   0.02     0.04  -0.03  -0.02
  21   6     0.11   0.01   0.02     0.02   0.10  -0.02     0.02  -0.01   0.01
  22   6     0.13  -0.01   0.01    -0.00   0.12  -0.01     0.03  -0.02   0.00
  23   6     0.09  -0.06  -0.01    -0.07   0.08   0.01     0.02  -0.03  -0.00
  24   6     0.02  -0.11  -0.02    -0.11   0.05   0.01     0.01  -0.04  -0.01
  25   6     0.02  -0.07  -0.02    -0.05   0.06   0.00     0.02  -0.02  -0.00
  26   6     0.08  -0.02   0.02     0.01   0.10  -0.02     0.03  -0.01   0.01
  27   6     0.04   0.04  -0.06     0.04  -0.03   0.05     0.01   0.02  -0.02
  28   6     0.00   0.05  -0.15     0.04  -0.06  -0.06     0.02   0.03   0.02
  29   6     0.01   0.05  -0.13    -0.00  -0.08  -0.15     0.03   0.03   0.05
[...]
  68   1    -0.02  -0.03   0.02     0.01   0.02  -0.02    -0.04  -0.09   0.06
  69   1     0.03   0.03   0.02    -0.01  -0.01  -0.00    -0.14  -0.15  -0.09
  70   1     0.02  -0.02  -0.04     0.00  -0.00  -0.00    -0.05   0.05   0.09
  71   1    -0.01   0.02  -0.06    -0.00   0.00  -0.01     0.05  -0.10   0.31
  72   1    -0.02   0.02  -0.01    -0.02   0.02  -0.01     0.37  -0.47   0.11
  73   1     0.02  -0.02  -0.03    -0.01   0.01   0.02     0.20  -0.20  -0.33
  74   1    -0.01   0.03  -0.10     0.01  -0.01   0.04    -0.05   0.12  -0.36
  75   1    -0.23   0.49   0.14    -0.00   0.00   0.00     0.01  -0.01  -0.00
  76   1     0.35   0.62  -0.12    -0.00  -0.01   0.00    -0.01  -0.02   0.00
  77   1    -0.19  -0.00   0.09     0.00  -0.00  -0.00     0.01   0.00  -0.01
  78   1     0.03  -0.00  -0.02    -0.03   0.00   0.02     0.03  -0.00  -0.01
  79   1     0.00   0.00  -0.00    -0.03  -0.07   0.07     0.01   0.03  -0.03
  80   1     0.01  -0.01   0.00     0.06  -0.08   0.02    -0.02   0.02  -0.01
  81   1    -0.01   0.00   0.00    -0.04   0.00   0.02     0.02  -0.00  -0.01
  82   1    -0.00  -0.00  -0.00     0.00  -0.00  -0.00     0.00   0.00   0.00
  83   1     0.00   0.00  -0.00    -0.00   0.01   0.00     0.00  -0.00   0.00
  84   1    -0.00  -0.01   0.01     0.00   0.00  -0.00     0.00  -0.00   0.00
  85   1     0.00  -0.00  -0.00    -0.00   0.00   0.00    -0.00   0.00   0.00
  86   1    -0.00  -0.00   0.00     0.00   0.00  -0.00     0.00  -0.00   0.00
  87   1    -0.00   0.00   0.00    -0.01  -0.00   0.00    -0.00  -0.00   0.00
  88   1    -0.00  -0.00  -0.00     0.00   0.00   0.00    -0.00  -0.00   0.00
  89   1    -0.00   0.00  -0.00    -0.00  -0.00  -0.00    -0.00   0.00  -0.00
  90   1    -0.00   0.00   0.00     0.00  -0.00  -0.00     0.00  -0.00  -0.00
  91   1    -0.00   0.00   0.00     0.00  -0.00  -0.00     0.00  -0.00  -0.00
  92   1     0.00  -0.00   0.00     0.00   0.00  -0.00    -0.00  -0.00   0.00
  93   1     0.00   0.00   0.00    -0.00   0.00   0.00    -0.00  -0.00  -0.00
  94   1     0.00   0.00  -0.00    -0.00  -0.00   0.00    -0.00  -0.00   0.00
  95   1     0.00   0.01  -0.01    -0.00  -0.00   0.00    -0.01  -0.01   0.02
  96   1    -0.00  -0.00  -0.00     0.00   0.00   0.00     0.00   0.00   0.00
  97   1     0.00   0.00   0.00    -0.00  -0.01  -0.00    -0.00  -0.01  -0.00
  98   1    -0.00   0.00  -0.00     0.00   0.00   0.00     0.00  -0.00   0.00
  99   1    -0.00  -0.00  -0.00     0.00   0.00   0.00     0.00   0.00   0.00
 100   1     0.00  -0.00   0.00    -0.00  -0.00   0.00    -0.00  -0.00   0.00
 101   1    -0.00   0.00   0.00    -0.00   0.00   0.00     0.00  -0.00  -0.00
 102   1    -0.00  -0.00  -0.00    -0.00  -0.00  -0.00     0.00   0.00   0.00
                    295                    296                    297
                        a                      a                      a 
 Frequencies --  3093.0736              3094.5791              3099.4560
 Red. masses --     1.8792                 1.8810                 1.8609
 Frc consts  --     0.0000                 0.0000                 0.0000
 IR Inten    --     4.9929                77.5582                23.4685
 Raman Activ --     0.0000                 0.0000                 0.0000
 Depolar     --     0.0000                 0.0000                 0.0000
 Atom AN      X      Y      Z        X      Y      Z        X      Y      Z
   1   6     0.00  -0.00  -0.00     0.00  -0.00   0.00    -0.00  -0.00  -0.00
   2   6    -0.00  -0.00  -0.00    -0.00  -0.00   0.00    -0.00  -0.00  -0.00
   3   6     0.00  -0.00   0.00     0.00  -0.00   0.00     0.00  -0.00   0.00
   4   6     0.00   0.00   0.00     0.00  -0.00   0.00    -0.00  -0.00  -0.00
   5   6     0.00   0.00  -0.00    -0.00  -0.00  -0.00    -0.00  -0.00   0.00
   6   6     0.00   0.00  -0.00    -0.00  -0.00  -0.00    -0.00  -0.00   0.00
   7   7     0.00  -0.00   0.00     0.00   0.00  -0.00     0.00  -0.00  -0.00
   8   6    -0.00   0.00   0.00    -0.00   0.00   0.00    -0.00   0.00   0.00
   9   6    -0.01  -0.01  -0.00    -0.01  -0.01  -0.01    -0.00  -0.00  -0.00
  10   6     0.01  -0.01  -0.01     0.01  -0.02  -0.01     0.00  -0.00  -0.00
  11   6     0.00   0.00   0.00     0.00   0.00  -0.00     0.00  -0.00  -0.00
  12   6    -0.00  -0.00   0.00     0.00  -0.00  -0.00     0.00   0.00   0.00
  13   6    -0.00   0.01   0.00     0.00  -0.01  -0.00    -0.00   0.00   0.00
  14   6     0.00   0.00   0.00    -0.00  -0.00  -0.00     0.00   0.00  -0.00
  15   6     0.00   0.00   0.00    -0.00  -0.00  -0.00    -0.00   0.00  -0.01
  16   6     0.02   0.04  -0.03    -0.01  -0.02   0.01     0.09   0.19  -0.13
  17   6    -0.01  -0.01  -0.01     0.00   0.00   0.00     0.06   0.06   0.04
  18   6    -0.02   0.01  -0.07     0.01  -0.00   0.04     0.01  -0.01   0.05
  19   6     0.04   0.08  -0.05    -0.02  -0.04   0.03    -0.01  -0.02   0.01
  20   6     0.12   0.12   0.07    -0.07  -0.07  -0.04    -0.02  -0.02  -0.01
  21   6    -0.00   0.00  -0.00     0.00  -0.00   0.00     0.00  -0.00   0.00
  22   6    -0.01   0.01   0.01     0.00  -0.00  -0.00     0.00  -0.00  -0.00
  23   6     0.00  -0.01   0.03    -0.00   0.00  -0.01    -0.00   0.00  -0.00
  24   6     0.03  -0.04   0.01    -0.01   0.01  -0.00    -0.00   0.00  -0.00
  25   6     0.02  -0.02  -0.03    -0.00   0.00   0.01    -0.00   0.00   0.01
  26   6    -0.00   0.01  -0.02     0.00  -0.00   0.01     0.00  -0.01   0.02
  27   6    -0.00  -0.00   0.00    -0.00   0.00   0.00    -0.00  -0.00   0.00
  28   6    -0.01   0.01   0.00     0.00  -0.00   0.00    -0.00   0.01   0.00
  29   6     0.00   0.00  -0.00     0.00   0.00  -0.00     0.00  -0.00  -0.00
  30   6    -0.00  -0.00   0.00    -0.00  -0.00   0.00    -0.00  -0.00   0.00
  31   6    -0.00   0.00   0.00    -0.00   0.00   0.00    -0.00  -0.00  -0.00
  32   6     0.00   0.00  -0.00    -0.00  -0.00   0.00     0.00   0.00  -0.00
  33   7     0.00  -0.00   0.00     0.00  -0.00  -0.00    -0.00  -0.00   0.00
  34   6    -0.00   0.00  -0.00    -0.00   0.01  -0.00     0.00  -0.00   0.00
  35   6    -0.08   0.01   0.04    -0.16   0.02   0.08     0.00  -0.00  -0.00
  36   6    -0.03  -0.05   0.05    -0.04  -0.10   0.09     0.00   0.00  -0.00
  37   6     0.03  -0.04   0.01     0.05  -0.06   0.02    -0.00   0.00  -0.00
  38   6    -0.02   0.00   0.01    -0.04   0.00   0.02    -0.00   0.00   0.00
  39   6     0.00  -0.00   0.00     0.00  -0.00   0.00    -0.00  -0.00   0.00
  40   6    -0.00   0.00  -0.00    -0.00   0.00  -0.00     0.00  -0.00  -0.00
  41   6    -0.00   0.00   0.00    -0.00   0.00   0.00     0.00   0.00   0.00
  42   6     0.00   0.00  -0.00     0.00   0.00  -0.00    -0.00   0.00  -0.00
  43   6     0.00  -0.00  -0.00     0.00   0.00  -0.00    -0.00   0.00  -0.00
  44   6     0.00   0.00  -0.00    -0.00  -0.00   0.00     0.00  -0.00   0.00
  45   6     0.00  -0.00  -0.00     0.00   0.00   0.00    -0.00   0.00   0.00
  46   6     0.00  -0.00  -0.00    -0.00   0.00   0.00    -0.00   0.00   0.00
  47   6     0.00  -0.00   0.00    -0.00   0.00   0.00    -0.00   0.00  -0.00
  48   6    -0.00  -0.00   0.00    -0.00  -0.00   0.00     0.00   0.00  -0.00
  49   6    -0.00  -0.00   0.00    -0.00  -0.00   0.00     0.00   0.00  -0.00
  50   6     0.00   0.00  -0.00    -0.00   0.00   0.00     0.00  -0.00  -0.00
  51   6     0.00  -0.00   0.00    -0.00   0.00  -0.00    -0.00   0.00  -0.00
  52   6     0.00   0.00   0.00     0.00   0.00   0.00    -0.00   0.00  -0.00
  53   6     0.00   0.00  -0.00    -0.00  -0.00   0.00    -0.00  -0.00  -0.00
  54   6    -0.00  -0.00  -0.00     0.00   0.00   0.00    -0.00  -0.00  -0.00
  55   1    -0.00   0.00   0.00    -0.00   0.00   0.00     0.00  -0.00  -0.00
  56   1    -0.00   0.00   0.00     0.00   0.00   0.00    -0.00   0.00   0.00
  57   1    -0.00   0.00  -0.00    -0.00   0.00  -0.00    -0.00   0.00  -0.00
  58   1    -0.00   0.00  -0.00    -0.00   0.00  -0.00    -0.00   0.00  -0.00
  59   1    -0.00   0.00   0.00     0.00  -0.00  -0.00     0.00  -0.00  -0.00
  60   1    -0.00  -0.00   0.00    -0.00  -0.00   0.00    -0.00  -0.00   0.00
  61   1    -0.00  -0.01  -0.00     0.00   0.01   0.00     0.00   0.00   0.00
  62   1     0.02   0.03   0.01     0.03   0.04   0.02     0.00   0.01   0.00
  63   1    -0.03   0.05   0.02    -0.04   0.08   0.03    -0.00   0.00   0.00
  64   1     0.01  -0.02  -0.01    -0.02   0.03   0.01     0.01  -0.02  -0.01
  65   1    -0.07  -0.15   0.10     0.03   0.07  -0.05    -0.31  -0.68   0.47
  66   1     0.03   0.03   0.02    -0.01  -0.01  -0.01    -0.19  -0.20  -0.12
  67   1     0.08  -0.03   0.25    -0.04   0.01  -0.12    -0.05   0.02  -0.17
  68   1    -0.12  -0.26   0.18     0.06   0.14  -0.10     0.03   0.06  -0.04
  69   1    -0.42  -0.43  -0.26     0.24   0.25   0.15     0.06   0.07   0.04
  70   1     0.02  -0.02  -0.03    -0.00   0.00   0.01    -0.00   0.00   0.00
  71   1    -0.02   0.03  -0.10     0.00  -0.01   0.02     0.00  -0.00   0.01
  72   1    -0.12   0.15  -0.04     0.03  -0.04   0.01     0.01  -0.01   0.00
  73   1    -0.06   0.06   0.10     0.02  -0.02  -0.03     0.01  -0.01  -0.02
  74   1     0.01  -0.03   0.08    -0.00   0.01  -0.02    -0.01   0.02  -0.05
  75   1     0.02  -0.04  -0.01    -0.00   0.00   0.00     0.01  -0.02  -0.01
  76   1    -0.01  -0.02   0.00    -0.01  -0.01   0.00     0.00   0.00  -0.00
  77   1     0.00   0.00  -0.00     0.01   0.00  -0.00     0.00   0.00  -0.00
  78   1     0.27  -0.03  -0.13     0.56  -0.06  -0.27    -0.01   0.00   0.00
  79   1     0.08   0.18  -0.17     0.15   0.32  -0.30    -0.00  -0.00   0.00
  80   1    -0.10   0.14  -0.04    -0.16   0.21  -0.06     0.00  -0.00   0.00
  81   1     0.08  -0.01  -0.04     0.14  -0.01  -0.06     0.01  -0.00  -0.00
  82   1     0.00   0.00   0.00     0.00   0.00   0.00    -0.00  -0.00  -0.00
  83   1     0.00  -0.01  -0.00     0.00  -0.01  -0.00     0.00  -0.00  -0.00
  84   1    -0.00  -0.00   0.00    -0.00  -0.00   0.00    -0.00  -0.00   0.00
  85   1     0.00  -0.00  -0.00     0.00  -0.00  -0.00    -0.00   0.00  -0.00
  86   1    -0.00  -0.00   0.00    -0.00  -0.00   0.00    -0.00  -0.00   0.00
  87   1    -0.00   0.00   0.00    -0.00   0.00   0.00     0.00   0.00  -0.00
  88   1     0.00   0.00   0.00    -0.00  -0.00  -0.00    -0.00   0.00   0.00
  89   1     0.00  -0.00  -0.00    -0.00   0.00  -0.00     0.00   0.00   0.00
  90   1    -0.00   0.00   0.00     0.00  -0.00  -0.00     0.00  -0.00  -0.00
  91   1    -0.00   0.00   0.00     0.00  -0.00  -0.00     0.00  -0.00  -0.00
  92   1     0.00   0.00  -0.00     0.00   0.00  -0.00     0.00   0.00  -0.00
  93   1     0.00   0.00   0.00    -0.00  -0.00  -0.00    -0.00  -0.00  -0.00
  94   1     0.00   0.00  -0.00     0.00   0.00  -0.00    -0.00  -0.00   0.00
  95   1     0.00   0.00  -0.00     0.00   0.00  -0.00    -0.00  -0.00   0.00
  96   1    -0.00  -0.00  -0.00     0.00   0.00   0.00     0.00   0.00   0.00
  97   1     0.00   0.00   0.00    -0.00  -0.00  -0.00    -0.00  -0.00  -0.00
  98   1    -0.00   0.00  -0.00    -0.00   0.00   0.00     0.00  -0.00   0.00
  99   1     0.00   0.00   0.00    -0.00  -0.00  -0.00     0.00   0.00   0.00
 100   1    -0.00  -0.00   0.00     0.00   0.00  -0.00    -0.00   0.00  -0.00
 101   1    -0.00   0.00   0.00    -0.00   0.00   0.00     0.00  -0.00  -0.00
 102   1     0.00   0.00   0.00    -0.00  -0.00  -0.00     0.00   0.00   0.00
                    298                    299                    300
                        a                      a                      a 
 Frequencies --  3100.3867              3109.3911              3112.4740
 Red. masses --     1.8107                 1.8500                 1.8456
 Frc consts  --     0.0000                 0.0000                 0.0000
 IR Inten    --    13.9014                51.9748                59.4487
 Raman Activ --     0.0000                 0.0000                 0.0000
 Depolar     --     0.0000                 0.0000                 0.0000
 Atom AN      X      Y      Z        X      Y      Z        X      Y      Z
   1   6     0.00   0.00  -0.00    -0.00  -0.00   0.00    -0.00  -0.00   0.00
   2   6     0.00   0.00   0.00    -0.00  -0.00   0.00    -0.00  -0.00   0.00
   3   6     0.00  -0.00   0.00     0.00  -0.00   0.00     0.00  -0.00   0.00
   4   6     0.00   0.00  -0.00    -0.00   0.00  -0.00    -0.00   0.00  -0.00
   5   6     0.00   0.00   0.00    -0.00  -0.00   0.00    -0.00  -0.00   0.00
   6   6    -0.00  -0.00  -0.00    -0.00  -0.00  -0.00    -0.00  -0.00  -0.00
   7   7    -0.00  -0.00   0.00     0.00  -0.00  -0.00     0.00   0.00  -0.00
   8   6     0.01  -0.00  -0.00    -0.00   0.00   0.00    -0.00   0.00   0.00
   9   6     0.00   0.01   0.00    -0.00  -0.00  -0.00    -0.00  -0.00  -0.00
  10   6    -0.00   0.00   0.00    -0.00   0.00   0.00     0.00  -0.00  -0.00
  11   6    -0.00   0.00   0.00    -0.00  -0.00  -0.00    -0.00   0.00  -0.00
  12   6    -0.00  -0.01  -0.00     0.00   0.00   0.00     0.00  -0.00  -0.00
  13   6     0.13  -0.22  -0.09    -0.00   0.00   0.00    -0.00   0.00   0.00
  14   6     0.00  -0.00  -0.00     0.00  -0.00  -0.00     0.00   0.00   0.00
  15   6     0.00   0.00   0.00     0.00   0.00  -0.00    -0.00  -0.00   0.00
  16   6     0.00   0.01  -0.00     0.00   0.00  -0.00    -0.00  -0.00   0.00
  17   6     0.00   0.00   0.00     0.00   0.00   0.00     0.00   0.00   0.00
  18   6    -0.00  -0.00  -0.00     0.00  -0.00   0.00     0.00  -0.00   0.00
  19   6     0.00   0.00  -0.00    -0.00  -0.00   0.00    -0.00  -0.00   0.00
  20   6     0.01   0.01   0.01     0.00   0.00   0.00    -0.00  -0.00  -0.00
  21   6    -0.00   0.00   0.00    -0.00   0.00  -0.00    -0.00   0.00   0.00
  22   6    -0.00   0.00   0.00     0.00  -0.00  -0.00     0.00  -0.00  -0.00
  23   6    -0.00   0.00  -0.00    -0.00   0.00  -0.00    -0.00   0.00  -0.00
  24   6    -0.00   0.00  -0.00    -0.00   0.00  -0.00    -0.00   0.00  -0.00
  25   6    -0.00   0.00   0.00    -0.00   0.00   0.00    -0.00   0.00   0.00
  26   6     0.00  -0.00   0.00     0.00  -0.00   0.00     0.00  -0.00   0.00
  27   6     0.00   0.00  -0.00    -0.00  -0.00   0.00    -0.00  -0.00   0.00
  28   6     0.00  -0.00  -0.00     0.00  -0.00  -0.00    -0.01   0.02   0.01
  29   6    -0.00  -0.00   0.00    -0.00  -0.00   0.00     0.03   0.06  -0.01
  30   6     0.00   0.00  -0.00    -0.02  -0.00   0.01     0.24   0.00  -0.11
  31   6     0.00  -0.00  -0.00    -0.00   0.00   0.00     0.00  -0.01  -0.00
  32   6    -0.00  -0.00   0.00     0.00   0.00  -0.00    -0.00   0.00   0.00
  33   7     0.00  -0.00  -0.00     0.00  -0.00  -0.00     0.00   0.00  -0.00
  34   6    -0.00   0.00  -0.00    -0.00   0.00   0.00     0.00  -0.00   0.00
  35   6     0.00  -0.00  -0.00    -0.01   0.00   0.00    -0.00   0.00   0.00
  36   6     0.00   0.00  -0.00    -0.01  -0.02   0.02    -0.00  -0.00   0.00
  37   6    -0.00   0.00  -0.00     0.05  -0.06   0.02     0.00  -0.01   0.00
  38   6     0.00  -0.00  -0.00     0.24  -0.03  -0.10     0.02  -0.00  -0.01
  39   6     0.00   0.00  -0.00     0.00   0.01  -0.01     0.00   0.00  -0.00
  40   6    -0.00   0.00   0.00     0.00  -0.00  -0.00     0.00   0.00  -0.00
  41   6    -0.00   0.00  -0.00     0.00  -0.01  -0.00     0.00   0.01  -0.01
  42   6    -0.00  -0.00   0.00     0.00  -0.00  -0.00     0.00   0.00  -0.00
  43   6     0.00   0.00  -0.00    -0.00   0.00   0.00    -0.00   0.00   0.00
  44   6     0.00   0.00   0.00    -0.00  -0.00   0.00    -0.00  -0.00   0.00
  45   6    -0.00   0.00   0.00    -0.00   0.00   0.00    -0.00   0.00   0.00
  46   6    -0.00   0.00   0.00    -0.00   0.00   0.00    -0.00   0.00   0.00
  47   6     0.00   0.00  -0.00    -0.00   0.00  -0.00    -0.00   0.00  -0.00
  48   6     0.00   0.00   0.00    -0.00   0.00  -0.00    -0.00   0.00  -0.00
  49   6     0.00   0.00  -0.00     0.00   0.00  -0.00     0.00   0.00  -0.00
  50   6     0.00   0.00   0.00    -0.00  -0.00  -0.00    -0.00  -0.00  -0.00
  51   6    -0.00   0.00  -0.00    -0.00   0.00  -0.00    -0.00   0.00  -0.00
  52   6     0.00  -0.00   0.00    -0.00   0.00  -0.00    -0.00   0.00  -0.00
  53   6    -0.00  -0.00  -0.00    -0.00  -0.00  -0.00    -0.00  -0.00  -0.00
  54   6    -0.00  -0.00  -0.00    -0.00  -0.00  -0.00    -0.00  -0.00  -0.00
  55   1    -0.00   0.00   0.00     0.00  -0.00  -0.00     0.00  -0.00  -0.00
  56   1     0.00   0.00   0.00    -0.00   0.00   0.00    -0.00   0.00   0.00
  57   1     0.00  -0.00   0.00    -0.00   0.00  -0.00    -0.00   0.00  -0.00
  58   1    -0.00   0.00  -0.00    -0.00   0.00  -0.00    -0.00   0.00  -0.00
  59   1    -0.00   0.00   0.00     0.00  -0.00  -0.00     0.00  -0.00  -0.00
  60   1     0.00   0.00  -0.00     0.00   0.00  -0.00     0.00   0.00  -0.00
  61   1    -0.00  -0.01  -0.00     0.00   0.00   0.00     0.00   0.00   0.00
  62   1    -0.02  -0.03  -0.01     0.00   0.00   0.00     0.00   0.00   0.00
  63   1     0.00  -0.01  -0.00     0.00  -0.00  -0.00    -0.00   0.00   0.00
  64   1    -0.44   0.79   0.32     0.00  -0.01  -0.00     0.00  -0.01  -0.00
  65   1    -0.01  -0.02   0.01    -0.00  -0.00   0.00     0.00   0.00  -0.00
  66   1    -0.00  -0.00  -0.00    -0.00  -0.00  -0.00    -0.00  -0.00  -0.00
  67   1     0.00  -0.00   0.00    -0.00   0.00  -0.00    -0.00   0.00  -0.00
  68   1    -0.00  -0.01   0.01     0.00   0.00  -0.00     0.00   0.00  -0.00
  69   1    -0.03  -0.03  -0.02    -0.00  -0.00  -0.00     0.00   0.00   0.00
  70   1     0.01  -0.01  -0.01     0.00  -0.00  -0.00    -0.00   0.00   0.00
  71   1     0.00  -0.00   0.00     0.00  -0.00   0.00     0.00  -0.00   0.00
  72   1     0.01  -0.01   0.00     0.00  -0.00   0.00     0.00  -0.00   0.00
  73   1     0.01  -0.01  -0.02     0.00  -0.00  -0.00     0.00  -0.00  -0.00
  74   1    -0.00   0.00  -0.01    -0.00   0.00  -0.00    -0.00   0.00  -0.00
  75   1    -0.00   0.01   0.00    -0.00   0.00   0.00     0.03  -0.05  -0.02
  76   1     0.00   0.00  -0.00     0.01   0.01  -0.00    -0.10  -0.18   0.04
  77   1    -0.01   0.00   0.00     0.07  -0.00  -0.03    -0.84  -0.00   0.40
  78   1    -0.00   0.00   0.00     0.03  -0.00  -0.02     0.00  -0.00  -0.00
  79   1    -0.00  -0.00   0.00     0.03   0.07  -0.06     0.00   0.01  -0.01
  80   1     0.00  -0.00   0.00    -0.15   0.20  -0.06    -0.01   0.02  -0.01
  81   1    -0.01   0.00   0.00    -0.83   0.08   0.37    -0.07   0.01   0.03
  82   1     0.00   0.00   0.00    -0.00  -0.00  -0.01    -0.00  -0.00  -0.01
  83   1     0.00  -0.00  -0.00    -0.01   0.05   0.02    -0.00   0.00  -0.00
  84   1     0.00   0.00  -0.00     0.00   0.00  -0.00    -0.01  -0.04   0.04
  85   1     0.00  -0.00  -0.00    -0.00   0.01   0.00     0.00   0.00  -0.00
  86   1     0.00   0.00  -0.00     0.00  -0.00  -0.00    -0.00  -0.00   0.01
  87   1    -0.00  -0.00   0.00    -0.01   0.00   0.00    -0.01  -0.00   0.00
  88   1     0.00   0.00   0.00     0.00   0.00   0.00     0.00   0.00   0.00
  89   1     0.00  -0.00   0.00     0.00  -0.00   0.00     0.00  -0.00   0.00
  90   1     0.00  -0.00  -0.00     0.00  -0.00  -0.00     0.00  -0.00  -0.00
  91   1     0.00  -0.00  -0.00     0.00  -0.00  -0.00     0.00  -0.00  -0.00
  92   1     0.00   0.00  -0.00     0.00   0.00  -0.00     0.00   0.00  -0.00
  93   1    -0.00  -0.00  -0.00    -0.00  -0.00  -0.00    -0.00  -0.00  -0.00
  94   1    -0.00  -0.00   0.00    -0.00  -0.00   0.00    -0.00  -0.00   0.00
  95   1    -0.00  -0.00   0.00    -0.00  -0.00   0.00    -0.00  -0.00   0.00
  96   1     0.00   0.00  -0.00     0.00   0.00   0.00     0.00   0.00   0.00
  97   1     0.00  -0.00  -0.00    -0.00  -0.00  -0.00    -0.00  -0.00  -0.00
  98   1     0.00  -0.00   0.01     0.00  -0.00   0.00     0.00  -0.00   0.00
  99   1     0.00   0.00   0.00     0.00   0.00   0.00     0.00   0.00   0.00
 100   1     0.00   0.00  -0.00     0.00   0.00  -0.00     0.00   0.00  -0.00
 101   1    -0.00   0.00   0.00     0.00  -0.00  -0.00     0.00  -0.00  -0.00
 102   1     0.00   0.00   0.00     0.00   0.00   0.00     0.00   0.00   0.00
