$hessian                                                                        
        0.5035310044  -0.0041274169   0.0344859985  -0.0862868307  -0.0143745457
        0.0514362445  -0.0075662140  -0.0072931584   0.0110491116   0.0057495765
        0.0023221352  -0.0133950423  -0.0193266270   0.0022952255   0.0202522682
       -0.0004329476  -0.0006296474   0.0008392502  -0.0001220630  -0.0001166838
       -0.0005900330   0.0000252515  -0.0004111988  -0.0001288786  -0.0010373261
        0.0004231462  -0.0010145666  -0.0005857515   0.0019225422   0.0005729955
       -0.0000340700   0.0000755510  -0.0000856034   0.0001244662   0.0000127631
       -0.0000295395  -0.0000974470   0.0000189202   0.0000010540   0.0000192001
       -0.0000000936   0.0000058022   0.0000094420  -0.0000006085  -0.0000074702
        0.0000260118   0.0000000305  -0.0000050848   0.0000069195  -0.0000004279
       -0.0000047454  -0.0000485174  -0.0000063109   0.0000126419  -0.0000304821
        0.0000256623   0.0000317640   0.0000032705   0.0001347245   0.0000802551
       -0.0003170162   0.0001125816   0.0001263180   0.0000134329  -0.0001507841
        0.0000101081   0.0000264130   0.0000232861  -0.0000238769   0.0000087525
       -0.0000322208   0.0000047318   0.0000053043   0.0000275338  -0.0000100354
       -0.0001093774  -0.0000449321   0.0000217151   0.0000680592   0.0000564645
       -0.0000209692   0.0000711159  -0.0000857856  -0.0000212893  -0.0000430682
        0.0000838363   0.0000165754  -0.0000008861   0.0000161651   0.0000067138
       -0.0000001679  -0.0000126707  -0.0000144558   0.0000005533  -0.0000034267
       -0.0000129805   0.0000044669   0.0000013265  -0.0000038949   0.0000075435
        0.0000081115   0.0000026472  -0.0000036332  -0.0000043063   0.0000110820
       -0.0000092468  -0.0000114588  -0.0000185199  -0.0000056366  -0.0000081571
       -0.0000110974  -0.0000044774  -0.0000015412  -0.0000433426   0.0000089267
        0.0000033759   0.0000053925   0.0000031380  -0.0000032099   0.0000050676
        0.0000021018  -0.0000109464  -0.0000008769  -0.0000017630  -0.0000059537
       -0.0000016065   0.0000064746  -0.0000009148   0.0000539567   0.0000081523
        0.0000172994  -0.0000327555   0.0000149027   0.0000161521   0.0000323978
       -0.0000054467   0.0000009503  -0.0000556810   0.0000035686  -0.0000002836
        0.0000459961   0.0000076205   0.0000026810  -0.0000063977   0.0000023705
       -0.0000118204   0.0000009611  -0.0000014317  -0.0000081935  -0.0000000351
        0.0000029324  -0.0000031385  -0.0000058611  -0.0000051130  -0.0000127824
        0.0000117488  -0.0000032742  -0.0000132871   0.0000222340  -0.0000061048
       -0.0000028087  -0.0000118226  -0.0000005423   0.0000002496   0.0000135743
       -0.0000110106  -0.0000042048   0.0000024237   0.0000075842  -0.0000152135
        0.0000086916  -0.0000352532   0.0000245128  -0.0000004105  -0.1767153104
        0.1163596211   0.0206850387  -0.1393874401  -0.0108475680  -0.1175682966
       -0.0777289947  -0.0845972103  -0.0033361178   0.0005686775   0.0008842687
       -0.0003319558  -0.0006605421  -0.0023584045   0.0003473922   0.0002499319
        0.0002371931   0.0007264784   0.0008711369  -0.0001579350  -0.0006663737
       -0.0013111582  -0.0000640685  -0.0038130745   0.0006336443   0.0003684946
       -0.0004654224  -0.0001702792  -0.0001562699   0.0003248386   0.0000098682
       -0.0000156364   0.0000787905   0.0001340406   0.0000523973   0.0003547962
        0.0000019714   0.0000158044   0.0000215399   0.0000016419   0.0000011318
        0.0000010278  -0.0000087951  -0.0000032059   0.0000039082  -0.0000063856
        0.0000035897   0.0000048264  -0.0000029876   0.0000036568  -0.0000017808
       -0.0000078005   0.0000027430   0.0000044802  -0.0000081185  -0.0000052485
        0.0000007460  -0.0000072701   0.0000030992  -0.0000019614  -0.0000016741
        0.0000011246   0.0000006047  -0.0000092831  -0.0000025932  -0.0000003343
       -0.0000136471   0.0000083664  -0.0000002277  -0.0000231626   0.0000162736
       -0.0000144566  -0.0000056399  -0.0000030934   0.0000102214  -0.0000048125
        0.0000128984  -0.0000022618  -0.0000003817   0.0000055930   0.0000035111
       -0.0000033806  -0.0000029513   0.0000046264   0.0000020045   0.0000038953
        0.0000003334   0.0000025436   0.0000016397   0.0000065697  -0.0000008529
        0.0000001303  -0.0000020687  -0.0000017788  -0.0000039890   0.0000051023
        0.0000015317   0.0000020360  -0.0000010467  -0.0000014473   0.0000017214
       -0.0000007002  -0.0000032534  -0.0000017735   0.0000065531   0.0000017285
        0.0000012393  -0.0000005961   0.0000001895  -0.0000035500   0.0000056887
       -0.0000001239   0.0000022153  -0.0000013019   0.0000001507   0.0000020138
       -0.0000016262  -0.0000019895  -0.0000032981  -0.0000025492  -0.0000015428
       -0.0000030264   0.0000032086  -0.0000067813  -0.0000026188  -0.0000047665
        0.0000001022   0.0000019267   0.0000012948  -0.0000018912   0.0000008787
        0.0000019891  -0.0000026932   0.0000032114   0.0000020378  -0.0000033187
       -0.0000043757  -0.0000054284  -0.0000033001   0.0000011977   0.0000041848
       -0.0000049011  -0.0000048139  -0.0000039741  -0.0000002422  -0.0000004055
        0.0000031386   0.0000004042   0.0000018052   0.0000031697  -0.0000017812
        0.0000033132  -0.0000077038   0.0000012490   0.0000046019   0.0000004913
       -0.0000045226  -0.0000010602   0.0000009006   0.0000028846   0.0000061692
        0.0000011633  -0.0000044952   0.0000118798   0.0000017350   0.0000014474
       -0.0000001291   0.0000007887
       -0.0041274169   0.5256372495   0.0113654248  -0.0102930904  -0.0675548788
        0.0178439015  -0.0158209682  -0.0136734754   0.0229608935   0.0002610484
        0.0007359353  -0.0010844792   0.0090054588   0.0035647959  -0.0129052412
        0.0004458501  -0.0019728879  -0.0003173122  -0.0010472944   0.0005389844
        0.0003514692   0.0007697505  -0.0001365147  -0.0000622491   0.0004701399
        0.0001466009   0.0007297118   0.0015833547  -0.0012534217  -0.0004592803
        0.0002149138  -0.0001154337   0.0000336139  -0.0001520693  -0.0001104676
        0.0000098659   0.0001698867  -0.0001865307   0.0000025854   0.0000238029
       -0.0000184343  -0.0000129759  -0.0000138018   0.0000192706   0.0000179830
       -0.0000139869   0.0000174292   0.0000013400  -0.0000198782   0.0000181744
       -0.0000130284   0.0000743652   0.0002945761  -0.0000066725  -0.0002540456
       -0.0000866269  -0.0000141363   0.0003258372   0.0001416154  -0.0000404126
       -0.0003715176   0.0001523034  -0.0000201729   0.0000025163   0.0000463517
       -0.0000033804  -0.0000530470  -0.0000376782   0.0000425794  -0.0000497112
        0.0000899684  -0.0000288869  -0.0000183281  -0.0000997274   0.0000643395
        0.0003028410   0.0000933156  -0.0000485411  -0.0001827624  -0.0000858116
        0.0000516674  -0.0001964533   0.0001478451   0.0000207125   0.0001000732
       -0.0001238897  -0.0000332928   0.0000325577  -0.0000424070  -0.0000254999
       -0.0000256165   0.0000365727   0.0000723148  -0.0000035506   0.0000160671
        0.0000661934  -0.0000579287  -0.0000626382   0.0000179020  -0.0000425471
       -0.0000693754  -0.0000081449   0.0000211603   0.0000677193  -0.0001158999
        0.0000473127   0.0000560351   0.0001205935   0.0000290211   0.0000460012
        0.0000548892   0.0000213553   0.0000033225   0.0002693887  -0.0000137690
       -0.0000225324  -0.0000441956   0.0000015054   0.0000074496  -0.0000308515
        0.0000027179   0.0000468876  -0.0000059906   0.0000290595   0.0000231074
       -0.0000105555  -0.0000322416   0.0000108048  -0.0003310830  -0.0000565560
       -0.0001291669   0.0002029725  -0.0001039817  -0.0001158043  -0.0001946809
        0.0000367960  -0.0000070780   0.0003314541  -0.0000263332   0.0000138740
       -0.0002668280  -0.0000102076  -0.0000220052   0.0000431497   0.0000023962
        0.0000427202   0.0000057721   0.0000327245   0.0000228793   0.0000070537
        0.0000073447   0.0000061689   0.0000308877   0.0000221383   0.0000454580
       -0.0000573244   0.0000161530   0.0000602344  -0.0001241117   0.0000688158
        0.0000527752   0.0001141626   0.0000113608  -0.0000022773  -0.0000943137
        0.0000249780  -0.0000220315  -0.0000284295  -0.0000566072   0.0000529227
       -0.0000340903   0.0000438173  -0.0000158204  -0.0000064301   0.1165932948
       -0.1459544995  -0.0196662340  -0.0107796554  -0.0456256087  -0.0136173095
       -0.0844271028  -0.2503997029  -0.0061956081  -0.0010421454   0.0005469580
        0.0010036818  -0.0027086204  -0.0057955333   0.0012634913   0.0002191650
        0.0006552202   0.0008552980  -0.0002534122   0.0000831553   0.0003570878
       -0.0003419300   0.0003938718  -0.0004179928   0.0003234191   0.0005157125
       -0.0007916023   0.0009934876  -0.0005600784  -0.0009762631   0.0000254006
        0.0000318253  -0.0000403402   0.0000857284  -0.0000562480  -0.0001760526
        0.0000116573   0.0000038676  -0.0000125728   0.0000047121  -0.0000049992
       -0.0000070047   0.0000100789  -0.0000081534  -0.0000060193  -0.0000006895
        0.0000101855   0.0000015195   0.0000122705  -0.0000043060  -0.0000112356
        0.0000121941  -0.0000046456   0.0000096528   0.0000002905  -0.0000056431
        0.0000008559  -0.0000005899   0.0000088549   0.0000012115   0.0000062548
       -0.0000074335   0.0000065160   0.0000103023  -0.0000067779   0.0000026362
       -0.0000017309  -0.0000024793  -0.0000012668   0.0000250060  -0.0000046618
        0.0000203884   0.0000269019   0.0000103940   0.0000161087   0.0000054565
       -0.0000204487  -0.0000078426  -0.0000047570  -0.0000142863  -0.0000091765
        0.0000007797   0.0000198585  -0.0000139689  -0.0000012846  -0.0000156567
        0.0000022062  -0.0000050952  -0.0000086902  -0.0000216729  -0.0000102652
       -0.0000055694   0.0000079805   0.0000068607   0.0000075528  -0.0000117164
        0.0000011775  -0.0000113932   0.0000100118  -0.0000064129  -0.0000041273
        0.0000054495   0.0000133860   0.0000012825  -0.0000170147  -0.0000038605
       -0.0000019772   0.0000117668  -0.0000013083   0.0000107205  -0.0000144178
        0.0000023336  -0.0000061592   0.0000072588   0.0000058281  -0.0000064756
        0.0000105602   0.0000061220   0.0000018647   0.0000120065   0.0000046417
        0.0000044039  -0.0000097643   0.0000156492   0.0000014172   0.0000146765
       -0.0000063499  -0.0000008330  -0.0000095466  -0.0000061239  -0.0000039760
       -0.0000038219   0.0000027078  -0.0000058678  -0.0000109672   0.0000001889
        0.0000110484   0.0000174155  -0.0000008769  -0.0000055924  -0.0000080873
        0.0000086811   0.0000072229   0.0000112904  -0.0000108527  -0.0000046730
       -0.0000056116  -0.0000009717  -0.0000109730  -0.0000101547  -0.0000005314
       -0.0000130867   0.0000224804  -0.0000087859  -0.0000113191  -0.0000006909
        0.0000166159   0.0000060362   0.0000089727  -0.0000097993  -0.0000209194
        0.0000045680   0.0000077180  -0.0000087183   0.0000010595   0.0000174989
        0.0000015600  -0.0000165258
        0.0344859985   0.0113654248   0.4590048342   0.0456095783   0.0228321528
       -0.1447833073   0.0037248293   0.0046152875  -0.0042901931   0.0074218677
        0.0053282180  -0.0298364296   0.0105749465  -0.0038534764  -0.0066092972
       -0.0002351423   0.0010203362   0.0001861380   0.0005499057   0.0000185932
        0.0001552026  -0.0002223129   0.0002408983   0.0000992635   0.0005048889
       -0.0004894779   0.0002147508  -0.0013341521  -0.0002201916  -0.0007524175
       -0.0001417074   0.0000135664   0.0001167522   0.0000156380   0.0000407657
       -0.0000227589  -0.0000272936   0.0000743840  -0.0000095647  -0.0000177629
        0.0000045080   0.0000032009   0.0000001587  -0.0000066667  -0.0000168030
       -0.0000041946  -0.0000038153  -0.0000145970   0.0000113203  -0.0000044824
       -0.0000049380  -0.0000077632  -0.0001294765   0.0000002492   0.0001312010
        0.0000308054  -0.0000033059  -0.0001654629  -0.0001656547  -0.0000402913
        0.0003504554  -0.0000775434  -0.0000510852  -0.0000071879   0.0000764234
        0.0000037692   0.0000009281  -0.0000014422  -0.0000232065   0.0000161401
       -0.0000333551   0.0000149407   0.0000082599   0.0000406106  -0.0000266982
       -0.0001045526  -0.0000372273   0.0000226258   0.0000661988   0.0000232233
       -0.0000125531   0.0000609292  -0.0000269434  -0.0000032605  -0.0000280737
        0.0000116587   0.0000101783  -0.0000181310   0.0000120826   0.0000064513
        0.0000145977  -0.0000138514  -0.0000289806   0.0000010873  -0.0000083145
       -0.0000248841   0.0000197001   0.0000214434  -0.0000071713   0.0000175828
        0.0000257169   0.0000061683  -0.0000092470  -0.0000200662   0.0000446565
       -0.0000207720  -0.0000232343  -0.0000510993  -0.0000140519  -0.0000220774
       -0.0000229718  -0.0000062863   0.0000007386  -0.0001066940  -0.0000009220
        0.0000104786   0.0000144109  -0.0000030809  -0.0000037294   0.0000091815
       -0.0000041690  -0.0000186168   0.0000006160  -0.0000173328  -0.0000103963
        0.0000035574   0.0000140082  -0.0000030259   0.0001237871   0.0000237465
        0.0000466799  -0.0000758523   0.0000393620   0.0000433872   0.0000699495
       -0.0000127426   0.0000007410  -0.0001177149   0.0000071352  -0.0000078972
        0.0000916592   0.0000073909   0.0000061472  -0.0000182830   0.0000030711
       -0.0000144210  -0.0000031995  -0.0000054221  -0.0000085674  -0.0000052038
        0.0000002322  -0.0000022342  -0.0000124292  -0.0000047099  -0.0000149296
        0.0000194302  -0.0000046632  -0.0000219312   0.0000357195  -0.0000267934
       -0.0000219070  -0.0000403963  -0.0000075062   0.0000001872   0.0000344338
       -0.0000075962   0.0000118812   0.0000096934   0.0000218067  -0.0000177074
        0.0000113749   0.0000009392   0.0000003453  -0.0000003858   0.0202796095
       -0.0194480222  -0.0460101565  -0.1171958321  -0.0134871861  -0.1827944068
       -0.0035014516  -0.0064790737  -0.0424689995  -0.0002444422  -0.0006990234
        0.0002345335   0.0001198131   0.0001415170   0.0005115942  -0.0003412079
       -0.0008581765   0.0007520418   0.0009763134  -0.0001432812   0.0007412113
       -0.0027427513  -0.0001445117  -0.0047765612   0.0010464511   0.0005475551
        0.0008814347   0.0003151569  -0.0000228682  -0.0003102163  -0.0000019727
        0.0000164802  -0.0000556859   0.0000454931  -0.0000817093  -0.0000461186
        0.0000023554  -0.0000159018   0.0000048164  -0.0000010175  -0.0000004875
        0.0000134407   0.0000002874   0.0000044389   0.0000041283   0.0000000278
       -0.0000029612   0.0000013689   0.0000037022  -0.0000059464   0.0000087301
       -0.0000034489   0.0000010218   0.0000028092   0.0000047255   0.0000045276
        0.0000036441   0.0000013273  -0.0000045735   0.0000020177  -0.0000032127
        0.0000007760   0.0000043942   0.0000008694   0.0000043529   0.0000019622
        0.0000083742   0.0000016926   0.0000017504   0.0000035659  -0.0000035265
       -0.0000089586  -0.0000005142   0.0000047778  -0.0000051968   0.0000001384
       -0.0000006751   0.0000083854   0.0000013322   0.0000039307   0.0000020849
       -0.0000015257  -0.0000056417   0.0000028975   0.0000004229   0.0000064141
       -0.0000003908  -0.0000001991   0.0000047162   0.0000088111   0.0000065613
        0.0000028784  -0.0000029065  -0.0000050326  -0.0000023690   0.0000028464
       -0.0000019734   0.0000045097  -0.0000038004   0.0000043017  -0.0000001561
       -0.0000033666  -0.0000058149   0.0000006067   0.0000048343  -0.0000008633
        0.0000010896  -0.0000054148   0.0000022234  -0.0000034121   0.0000044543
       -0.0000014046   0.0000021959  -0.0000026134  -0.0000025224   0.0000031895
       -0.0000031699  -0.0000014210   0.0000008533  -0.0000032000  -0.0000012376
       -0.0000022505   0.0000029702  -0.0000034166  -0.0000009682  -0.0000057925
        0.0000032688  -0.0000003385   0.0000020220   0.0000013254   0.0000023761
       -0.0000001507  -0.0000008178   0.0000007857   0.0000035189   0.0000013609
       -0.0000036017  -0.0000058380   0.0000004181   0.0000012449   0.0000032505
       -0.0000016300  -0.0000033953  -0.0000050062   0.0000026129   0.0000012568
        0.0000015920   0.0000013964   0.0000025195   0.0000031191   0.0000010412
        0.0000041844  -0.0000059393   0.0000028669   0.0000047640   0.0000014403
       -0.0000058046  -0.0000002575  -0.0000039261   0.0000036620   0.0000105730
       -0.0000021180  -0.0000037237   0.0000005955  -0.0000007850  -0.0000126377
        0.0000004657   0.0000115927
       -0.0862868307  -0.0102930904   0.0456095783   0.4615826364  -0.0002124204
       -0.0001081649  -0.0758490376  -0.0371430489  -0.0015679305  -0.1047102007
       -0.0050438073  -0.0543466461  -0.1268057494   0.0520799658   0.0095606445
        0.0033942438   0.0086517438   0.0003437456   0.0028879167  -0.0030526680
        0.0000344352  -0.0028343053   0.0014471865   0.0003328138  -0.0032190235
       -0.0032994005   0.0007375619  -0.0277405209   0.0145059954   0.0034189181
       -0.0007635970   0.0011252332   0.0001351592   0.0000246587  -0.0000535463
        0.0000005448  -0.0001024094   0.0002939283   0.0000150735  -0.0000836833
       -0.0000352595  -0.0000012215   0.0000362914  -0.0000157408  -0.0000290819
        0.0000776631  -0.0000106682  -0.0000047273   0.0000420003  -0.0000219912
        0.0000266850  -0.0000630642  -0.0005854991  -0.0000250629   0.0005555539
        0.0002894602  -0.0000291825  -0.0009378904  -0.0007450729  -0.0000488297
        0.0021114328  -0.0008686401  -0.0002719406   0.0000168818   0.0002956292
        0.0000092884  -0.0000142835  -0.0000013610  -0.0000153874   0.0000826579
       -0.0001112064   0.0000184547   0.0000245106   0.0001335396  -0.0001023299
       -0.0005274753  -0.0002311620   0.0001190840   0.0003404863   0.0002043363
       -0.0001153954   0.0003503707  -0.0002657560  -0.0000370862  -0.0001750966
        0.0002804329   0.0000472534  -0.0000744207   0.0000591371   0.0000266790
        0.0000233891  -0.0000609509  -0.0000816710   0.0000019627  -0.0000292235
       -0.0000672870   0.0000559593   0.0000637099  -0.0000227537   0.0000647574
        0.0000781848   0.0000026110  -0.0000242411  -0.0000620834   0.0001177039
       -0.0000393902  -0.0000533197  -0.0001232846  -0.0000288029  -0.0000490629
       -0.0000496447  -0.0000265818  -0.0000050314  -0.0002559159   0.0000189237
        0.0000186338   0.0000386948   0.0000060284  -0.0000115363   0.0000274645
        0.0000051322  -0.0000536057  -0.0000028114  -0.0000187867  -0.0000262815
        0.0000023375   0.0000314250  -0.0000195577   0.0003307812   0.0000584588
        0.0001188382  -0.0002001669   0.0001007624   0.0001102562   0.0001882054
       -0.0000375004   0.0000001657  -0.0003311350   0.0000201346  -0.0000126916
        0.0002559943   0.0000138595   0.0000177818  -0.0000368738   0.0000048488
       -0.0000509390   0.0000004893  -0.0000271021  -0.0000286213  -0.0000034682
        0.0000006476  -0.0000114593  -0.0000302421  -0.0000207628  -0.0000507178
        0.0000545658  -0.0000098820  -0.0000606496   0.0001289150  -0.0000703420
       -0.0000495987  -0.0001176364  -0.0000200087  -0.0000362860   0.0001070635
       -0.0000337414   0.0000145350   0.0000287430   0.0000662422  -0.0000724854
        0.0000553962   0.0000052803  -0.0000681945  -0.0000030454  -0.0147231535
       -0.0021425495   0.0210118499   0.0077490635   0.0031971925  -0.0140772108
       -0.0069129906  -0.0048104715   0.0097797948   0.0049459988   0.0225135341
        0.0012137502  -0.0055545009  -0.0146727007   0.0011775379  -0.0073719028
       -0.0184791701  -0.0028567388  -0.0189411097   0.0008903754  -0.0187924979
        0.0076115253   0.0011140892   0.0087523143  -0.0089498992  -0.0038591439
       -0.0094656635  -0.0002708842  -0.0009602232  -0.0002061950   0.0002592121
       -0.0006582112  -0.0000641632   0.0010103983   0.0005736832  -0.0002576897
       -0.0000533154   0.0000321812   0.0000183218  -0.0000126165   0.0000041965
        0.0000078951  -0.0000070338   0.0000208199   0.0000113646  -0.0000077118
       -0.0000115952   0.0000070913  -0.0000355035   0.0000023406   0.0000078141
       -0.0000375169   0.0000033872  -0.0000025728   0.0000026979   0.0000180906
       -0.0000013216  -0.0000128167  -0.0000108119  -0.0000085709  -0.0000157188
        0.0000096693  -0.0000054398  -0.0000086449   0.0000185755  -0.0000031328
        0.0000187677  -0.0000034262   0.0000076675  -0.0000355070   0.0000016934
        0.0000073311  -0.0000314857   0.0000147708  -0.0000423404  -0.0000018240
        0.0000279080   0.0000161576   0.0000082682   0.0000264775   0.0000117627
       -0.0000086442  -0.0000182457   0.0000192797  -0.0000011311   0.0000189934
       -0.0000017014   0.0000099022   0.0000151375   0.0000332808   0.0000059087
        0.0000057502  -0.0000080653  -0.0000098549  -0.0000082522   0.0000142692
        0.0000003822   0.0000122486  -0.0000126786   0.0000032737   0.0000091749
       -0.0000041248  -0.0000163296  -0.0000017357   0.0000209903   0.0000041790
        0.0000058721  -0.0000061385  -0.0000012591  -0.0000089380   0.0000177625
       -0.0000046507   0.0000053362  -0.0000091623  -0.0000071348   0.0000101600
       -0.0000053170  -0.0000079793  -0.0000013411  -0.0000244548  -0.0000064030
       -0.0000043742   0.0000082322  -0.0000189469  -0.0000033156  -0.0000177545
        0.0000054349   0.0000054791   0.0000044107   0.0000017753   0.0000065082
        0.0000041577  -0.0000040784   0.0000099339   0.0000067127  -0.0000042900
       -0.0000105122  -0.0000208240  -0.0000019790   0.0000043540   0.0000113247
       -0.0000146289  -0.0000084847  -0.0000132652   0.0000061480   0.0000069008
        0.0000080683   0.0000026504   0.0000116984   0.0000122022  -0.0000000553
        0.0000349119  -0.0000370504   0.0000085871   0.0000154647  -0.0000006916
       -0.0000160972  -0.0000060706  -0.0000123403   0.0000134149   0.0000274854
        0.0000187797   0.0000029319   0.0000069576  -0.0000142467  -0.0000233077
        0.0000121628   0.0000152672
       -0.0143745457  -0.0675548788   0.0228321528  -0.0002124204   0.4939038838
        0.0026285680  -0.0352864002  -0.1730234619  -0.0049603530  -0.0090562193
       -0.0635102362  -0.0103687016   0.0591845106  -0.1139630820  -0.0090344196
        0.0196521729  -0.0255454117  -0.0031719230  -0.0016069508  -0.0040388626
       -0.0006232666   0.0000150351  -0.0006914910  -0.0000602833  -0.0023113850
       -0.0000260490  -0.0002832060  -0.0000146906   0.0060993448   0.0001400700
       -0.0004580894   0.0001955140   0.0000310476   0.0001855477   0.0001440198
       -0.0000083705  -0.0001826202   0.0000939722   0.0000075955   0.0000276823
        0.0000003387   0.0000028497   0.0000121327  -0.0000211081  -0.0000120249
        0.0000327940  -0.0000358928  -0.0000046241   0.0000143017  -0.0000216802
        0.0000087915  -0.0000433939  -0.0001373503   0.0000031054   0.0000868597
        0.0000420992  -0.0000006752  -0.0003125199   0.0000039965   0.0000607874
       -0.0002912228   0.0001693218   0.0000996842  -0.0000143303  -0.0001354209
        0.0000161552   0.0000291813   0.0000654237  -0.0000070290   0.0000146036
       -0.0000686681   0.0000220235   0.0000198942   0.0000885765  -0.0000359649
       -0.0002514656  -0.0001157780   0.0000520191   0.0001747132   0.0001115223
       -0.0000533809   0.0001584881  -0.0001150504  -0.0000240093  -0.0000764926
        0.0000771772   0.0000240916  -0.0000251585   0.0000376835   0.0000248443
        0.0000137014  -0.0000324905  -0.0000512081  -0.0000011731  -0.0000062385
       -0.0000404710   0.0000373602   0.0000294512  -0.0000083764   0.0000205189
        0.0000551637   0.0000059035  -0.0000182404  -0.0000455465   0.0000830365
       -0.0000344224  -0.0000394812  -0.0000722462  -0.0000222781  -0.0000311381
       -0.0000379505  -0.0000132617  -0.0000035708  -0.0001747714   0.0000080142
        0.0000100433   0.0000308000  -0.0000036186  -0.0000099197   0.0000185432
       -0.0000049399  -0.0000304974   0.0000060292  -0.0000225992  -0.0000202893
        0.0000085127   0.0000198022  -0.0000032830   0.0002070447   0.0000410114
        0.0000844116  -0.0001307791   0.0000677922   0.0000772325   0.0001244164
       -0.0000217879   0.0000054939  -0.0002063486   0.0000139703  -0.0000074962
        0.0001728240   0.0000051551   0.0000098377  -0.0000310523  -0.0000035435
       -0.0000277635  -0.0000052466  -0.0000231770  -0.0000198281  -0.0000049814
       -0.0000062240  -0.0000084097  -0.0000165931  -0.0000164152  -0.0000350039
        0.0000376773  -0.0000149246  -0.0000404612   0.0000746136  -0.0000433859
       -0.0000372064  -0.0000797981  -0.0000087096   0.0000219332   0.0000603956
       -0.0000261450   0.0000166253   0.0000237656   0.0000372599  -0.0000553539
        0.0000181417  -0.0000502605   0.0000563529   0.0000128724   0.0099835068
        0.0023790103  -0.0157014229   0.0008284836   0.0002900741  -0.0013801118
       -0.0142472399  -0.0088762606   0.0228688391  -0.0021441626  -0.0235799506
       -0.0015231081  -0.0046609904  -0.0101015526   0.0027306084  -0.0039559127
       -0.0063165349  -0.0028393499   0.0133123070   0.0000902457   0.0144698913
        0.0030439135   0.0002154373   0.0046552133  -0.0177295706  -0.0053384906
       -0.0208172537   0.0006943347   0.0005501057   0.0001521095   0.0008176738
       -0.0009235431  -0.0001099839  -0.0008499056  -0.0004844750   0.0002059700
       -0.0000313399  -0.0000142165  -0.0000006298   0.0000023837   0.0000104124
        0.0000104729  -0.0000153107  -0.0000038059  -0.0000002175  -0.0000046651
        0.0000050049   0.0000040172  -0.0000149520   0.0000168797   0.0000148480
       -0.0000170196   0.0000180196  -0.0000112022  -0.0000092373   0.0000044944
        0.0000012374  -0.0000045881   0.0000062333  -0.0000058500   0.0000001312
        0.0000108233  -0.0000103414  -0.0000148819  -0.0000017417  -0.0000007156
       -0.0000143399   0.0000222941   0.0000019499  -0.0000294889   0.0000248486
       -0.0000088764   0.0000123058  -0.0000124880  -0.0000353707   0.0000003199
        0.0000057593   0.0000039209   0.0000056614   0.0000042114   0.0000021620
        0.0000032557  -0.0000137660   0.0000071164   0.0000072343   0.0000151410
       -0.0000003040   0.0000029362   0.0000043476   0.0000097297   0.0000075362
        0.0000028736  -0.0000040871  -0.0000028597  -0.0000028816   0.0000090338
        0.0000000025   0.0000082637  -0.0000049953   0.0000047671   0.0000032528
       -0.0000040130  -0.0000075293  -0.0000012353   0.0000112708   0.0000026401
        0.0000032383  -0.0000072124   0.0000004159  -0.0000063150   0.0000099523
        0.0000003735   0.0000070883  -0.0000059939   0.0000001726   0.0000068998
       -0.0000069550  -0.0000045153  -0.0000017161  -0.0000016849  -0.0000020980
       -0.0000023396   0.0000076852  -0.0000085159  -0.0000010071  -0.0000092165
        0.0000039377   0.0000038486   0.0000073342   0.0000045138   0.0000045919
        0.0000042139   0.0000003434   0.0000053475   0.0000078068  -0.0000003747
       -0.0000056654  -0.0000102187   0.0000009475   0.0000070855   0.0000056780
       -0.0000032718  -0.0000028506  -0.0000084670   0.0000069916   0.0000041305
        0.0000035940   0.0000009286   0.0000081642   0.0000047267   0.0000018263
       -0.0000014371  -0.0000084793   0.0000087676   0.0000128186   0.0000016669
       -0.0000107301  -0.0000048240  -0.0000053908   0.0000129110   0.0000136306
       -0.0000208369  -0.0000022921   0.0000033876  -0.0000033433  -0.0000052220
       -0.0000118864   0.0000042759
        0.0514362445   0.0178439015  -0.1447833073  -0.0001081649   0.0026285680
        0.4524442554  -0.0014107263  -0.0048034398  -0.0631542131  -0.0606735118
       -0.0060404059  -0.1308114079   0.0103235226  -0.0086353178  -0.0558042405
        0.0009582328  -0.0023638066  -0.0008031722   0.0000340820  -0.0003945856
        0.0052314517   0.0002324820  -0.0001552095   0.0001552618   0.0006548343
       -0.0000322924   0.0065047796   0.0024285190  -0.0009741598   0.0023701503
        0.0000563271  -0.0000800974   0.0000872589  -0.0000396336   0.0000080717
        0.0000601894   0.0000490167  -0.0000290462   0.0001087257   0.0000011029
        0.0000061156  -0.0000684156   0.0000045209   0.0000085428   0.0000032325
       -0.0000059680  -0.0000007714   0.0000020403  -0.0000067533  -0.0000108986
        0.0000030767   0.0000050777   0.0000389213  -0.0000612941  -0.0000489132
        0.0000076929  -0.0001195122  -0.0000162214   0.0000425335  -0.0001694194
       -0.0002109969   0.0002568396  -0.0009252443  -0.0000701728  -0.0001348860
       -0.0000609852   0.0000431829  -0.0000022858  -0.0000121025  -0.0000455197
       -0.0000118344  -0.0000438101   0.0000069079   0.0000382765   0.0000286803
        0.0001703807   0.0000124787  -0.0000189236  -0.0000757421   0.0000033808
        0.0000250928  -0.0000808956   0.0000068681  -0.0000227384   0.0000402086
       -0.0000529785   0.0000008881   0.0000057673  -0.0000069245   0.0000042262
       -0.0000009664   0.0000138077  -0.0000061631   0.0000010192  -0.0000030207
       -0.0000000330  -0.0000053779  -0.0000007389   0.0000022823  -0.0000071510
       -0.0000093372   0.0000021198   0.0000022673   0.0000061661  -0.0000082583
       -0.0000023104   0.0000006714   0.0000037885  -0.0000003431   0.0000016850
        0.0000001894   0.0000030315   0.0000006982   0.0000106107  -0.0000042990
        0.0000011840  -0.0000039075  -0.0000029307  -0.0000003023  -0.0000028423
       -0.0000030873   0.0000024800  -0.0000003291  -0.0000063190   0.0000011220
       -0.0000020558   0.0000001294   0.0000035932  -0.0000188624  -0.0000027875
       -0.0000068246   0.0000098928  -0.0000072751  -0.0000075043  -0.0000096025