$hessian                                                                        
        0.5079192456   0.0278972284  -0.0179144345  -0.0834400543   0.0563157209
        0.0168364765   0.0076439671  -0.0207332055  -0.0051132170  -0.0014264879
       -0.0007592647   0.0024669131   0.0000385785  -0.0010455181   0.0009309424
        0.0003773782   0.0003941875  -0.0002484049   0.0014587620  -0.0002576484
       -0.0004213475  -0.0012294371  -0.0020537434  -0.0003170300  -0.0003792192
        0.0001477450   0.0003074601   0.0003218134  -0.0000782917  -0.0002438407
       -0.0001004175  -0.0000310025   0.0000388170   0.0000806436  -0.0000831293
       -0.0000409646  -0.0002293562   0.0000411337   0.0001628965   0.0003175969
       -0.0000797247  -0.0002070377  -0.0005219392  -0.0002581325   0.0001936868
       -0.0000538604   0.0001348005   0.0000221916   0.0000805594  -0.0001674445
        0.0000326724   0.0001523023   0.0002445475  -0.0000043223  -0.0000177006
        0.0000282373   0.0000394864  -0.0000240177   0.0000240565  -0.0000051260
        0.0000172881  -0.0000159705   0.0000035544  -0.0000288036   0.0000080976
       -0.0000037708   0.0000252008  -0.0000338142  -0.0000241855   0.0000029188
        0.0000319891   0.0000552880   0.0000051074  -0.0000406128  -0.0000717617
       -0.0000367371   0.0000667185   0.0000614674   0.0000107921  -0.0000600746
       -0.0000789010  -0.0000434738   0.0000957950   0.0000811876   0.0000418370
       -0.0000623427  -0.0000575057   0.0000062482   0.0000005555   0.0000109728
        0.0000376628  -0.0000251264  -0.0000026466   0.0000040585   0.0000359870
        0.0000628123   0.0000253722  -0.0000420647  -0.0000540466   0.0001035370
       -0.0004366126   0.0000325152  -0.0000391442   0.0005037047  -0.0000253833
        0.0000161124  -0.0002834747   0.0000356182  -0.0002628712   0.0001789624
       -0.0001384260   0.0000769023   0.0000548273   0.0000080128   0.0000429274
       -0.0000105110  -0.0000059514  -0.0000177654  -0.0000165288   0.0000116329
        0.0000133851   0.0000002809  -0.0000020084  -0.0000288146   0.0000013755
        0.0000123629   0.0000150783  -0.0000115792  -0.0000211519  -0.0000414195
        0.0000104096   0.0000326340   0.0000412728  -0.0000120231  -0.0000469618
       -0.0000440667   0.0000161513   0.0000287019   0.0000252895  -0.0000207095
       -0.0000246283  -0.0000120812   0.0000022374   0.0000082188  -0.0000041660
       -0.0000050384  -0.0000036518  -0.0000310442  -0.0000066826   0.0000122472
        0.0000219167  -0.0000200943  -0.0000414700  -0.0000382870   0.0000306383
        0.0000260611  -0.0000429879  -0.0001240734   0.0000277460  -0.1679942863
       -0.0757764652   0.0903377732  -0.2191977462   0.0203520932  -0.0851611073
       -0.0429027497  -0.0022913235  -0.0020075741   0.0001269493  -0.0000069609
       -0.0000906847  -0.0001933963  -0.0002401680  -0.0001169452  -0.0007084449
       -0.0014960679   0.0005535144  -0.0000179750  -0.0000480965   0.0000607323
        0.0000124858  -0.0000141820   0.0000147942   0.0000044268  -0.0000230095
       -0.0000026838   0.0000051357  -0.0000087442  -0.0000075601  -0.0000137327
        0.0000152743   0.0000107388   0.0000008588  -0.0000057901  -0.0000084809
        0.0000077029  -0.0000024933  -0.0000192326  -0.0000035828   0.0000011767
       -0.0000047149  -0.0000032502   0.0000035190  -0.0000089187  -0.0000062101
        0.0000076057  -0.0000023499  -0.0000107112   0.0000075620  -0.0000030477
        0.0000019174   0.0000017685  -0.0000001006   0.0000003225   0.0000027617
        0.0000019358   0.0000105454   0.0000102135   0.0000034189  -0.0000008125
        0.0000020068  -0.0000043405   0.0000238816   0.0000036256   0.0000052088
        0.0000109805   0.0000015748   0.0000076613   0.0000053751   0.0000100135
       -0.0000056599   0.0000044213  -0.0000075432   0.0000020652   0.0000136084
        0.0000061063   0.0000085649   0.0000075307   0.0000027011   0.0000029375
        0.0000037863   0.0000082706   0.0000014116   0.0000088629   0.0000046272
        0.0000075773   0.0000054881  -0.0000031696   0.0000016989   0.0000022862
       -0.0000026617   0.0000065061  -0.0000332700  -0.0000051737  -0.0000075387
        0.0278972284   0.4138818436  -0.0087229588   0.0442405513  -0.1886398910
       -0.0101343140  -0.0087557807  -0.0372858383   0.0099729942  -0.0024221711
       -0.0012604574   0.0020911480   0.0004649913  -0.0017993940   0.0000467039
        0.0002040583   0.0002766538  -0.0002184555  -0.0004761008  -0.0013194698
        0.0006243415   0.0024041351   0.0019584045  -0.0021345987   0.0003589275
       -0.0002004848  -0.0001797538  -0.0003011933   0.0000797482   0.0001899605
        0.0001111754   0.0000394608  -0.0000851022   0.0001423058  -0.0001789495
       -0.0000600228  -0.0002379585   0.0000751186   0.0001310764   0.0002798154
        0.0000281562  -0.0002206997  -0.0002328022   0.0000292041   0.0001300146
       -0.0000034902  -0.0001118608  -0.0000013765  -0.0000383351   0.0001416436
        0.0001331866   0.0002173532   0.0000167255   0.0000370205   0.0000392468
       -0.0003711851  -0.0003612981   0.0001203951   0.0000241890   0.0001260038
       -0.0001585413   0.0000245581  -0.0001260322   0.0001389541  -0.0000031775
        0.0001502092  -0.0001262553   0.0001958026   0.0001596967   0.0000351394
       -0.0002054450  -0.0002854858   0.0000615683   0.0001361503   0.0002836458
        0.0004011986  -0.0003735974  -0.0001059583  -0.0000287047   0.0003493822
        0.0005340468   0.0003965885  -0.0006758415  -0.0005743912  -0.0003894218
        0.0005356489   0.0004089875   0.0000507344  -0.0000348999  -0.0000132762
       -0.0003271963   0.0001497446  -0.0001381899  -0.0000364088  -0.0002206399
       -0.0003512984  -0.0003708652   0.0004401972   0.0002512883   0.0000837627
       -0.0002774253  -0.0001245067  -0.0000250376  -0.0001287997   0.0001034588
        0.0000218802   0.0000166105  -0.0000409478  -0.0002484173  -0.0000289903
       -0.0000280489  -0.0002128303   0.0000509273   0.0002907431  -0.0000403804
       -0.0000573449  -0.0000791034   0.0000921974   0.0001580037   0.0000765976
       -0.0000393383  -0.0001455367  -0.0001202810   0.0002382821  -0.0000188551
       -0.0001540506  -0.0002018386   0.0001235232   0.0002313029   0.0000698493
       -0.0001869138  -0.0002046394  -0.0004289707  -0.0001157586   0.0001090488
        0.0003031278  -0.0002559622  -0.0003827892  -0.0007074635   0.0001109853
        0.0004407649   0.0006061503  -0.0000153264  -0.0003090451  -0.0000518128
       -0.0000252654   0.0000000557   0.0002542869   0.0002174663   0.0001011065
       -0.0001382072   0.0001672452   0.0002569610   0.0004541812   0.0000656974
       -0.0002109137   0.0000450499   0.0001442640   0.0000412857  -0.0812029642
       -0.0864183567   0.0581903328   0.0209625812  -0.0412013673   0.0117564107
       -0.0023859593  -0.0571606863  -0.0621996947  -0.0004057557   0.0000894045
        0.0002897317  -0.0003091835  -0.0002843055   0.0002224022  -0.0002829805
       -0.0005291607   0.0002322344   0.0000718452   0.0000343052  -0.0000473943
       -0.0000291470   0.0000209355   0.0000067313  -0.0000254639   0.0000274664
        0.0000260880  -0.0000319393   0.0000201047   0.0000283389  -0.0000047089
       -0.0000183640  -0.0000411593   0.0000335444   0.0000110238   0.0000139088
       -0.0000091261  -0.0000133059   0.0000127202  -0.0000030843   0.0000000734
       -0.0000145392  -0.0000047905   0.0000135300   0.0000169718  -0.0000012519
       -0.0000044764  -0.0000034934   0.0000270030  -0.0000075218  -0.0000241098
       -0.0000008378   0.0000082603   0.0000034064  -0.0000125892  -0.0000235753
       -0.0000152203  -0.0000125664  -0.0000018937   0.0000087390   0.0000397731
       -0.0000043399   0.0000298195  -0.0000828263  -0.0000101362  -0.0000163964
       -0.0000457089   0.0000066978  -0.0000031198  -0.0000096558  -0.0000062208
        0.0000213704   0.0000171102   0.0000172915  -0.0000055324  -0.0000172919
       -0.0000188274  -0.0000143647  -0.0000178808  -0.0000061407   0.0000129041
       -0.0000196366  -0.0000067295   0.0000029631  -0.0000199299  -0.0000221432
       -0.0000227224   0.0000015280  -0.0000138217  -0.0000158704  -0.0000255071
       -0.0000091340  -0.0000323985   0.0000737881   0.0000113694   0.0000268306
       -0.0179144345  -0.0087229588   0.4988798290   0.0184657810  -0.0180357460
       -0.0557995898  -0.0066580538   0.0178350360  -0.0021860199   0.0026155520
        0.0008826495   0.0002245502   0.0007529240   0.0010958244   0.0007031273
       -0.0002086420  -0.0003076791   0.0002717614  -0.0003760472   0.0004875353
        0.0009378534  -0.0009142897   0.0008428614  -0.0016060498   0.0002836198
       -0.0000641771  -0.0000547478  -0.0002344616   0.0000317334   0.0000663508
        0.0000382116   0.0000042984  -0.0000565182  -0.0000598785   0.0000758934
        0.0000290300   0.0001781570  -0.0000296540  -0.0001059651  -0.0002545840
        0.0000424639   0.0001452410   0.0002159887   0.0001455860  -0.0004304293
       -0.0000037194  -0.0000925941  -0.0000065926   0.0000242718   0.0000774458
       -0.0000637913  -0.0001988237  -0.0002349426  -0.0000217898   0.0000309256
        0.0000052090   0.0000218908   0.0000094821  -0.0000264556  -0.0000122615
        0.0000067043   0.0000015471   0.0000201396   0.0000024696  -0.0000130717
       -0.0000178832  -0.0000092069   0.0000019132  -0.0000072633  -0.0000152234
        0.0000006049  -0.0000154493  -0.0000154457   0.0000186725   0.0000272604
       -0.0000170553  -0.0000045894  -0.0000424993  -0.0000139485   0.0000040490
       -0.0000046383  -0.0000168788   0.0000169503   0.0000042932   0.0000182391
       -0.0000186655  -0.0000088836  -0.0000140183   0.0000053817  -0.0000092202
        0.0000143016  -0.0000014626   0.0000204595   0.0000060136   0.0000006790
       -0.0000043858   0.0000325531  -0.0000050486   0.0000085911   0.0000348472
        0.0003750886   0.0000037340   0.0000336462  -0.0003690358   0.0000450270
       -0.0000179478   0.0002223913  -0.0000335954   0.0001490446  -0.0001282350
        0.0000645152   0.0000408043  -0.0000038899  -0.0000372100  -0.0000215820
        0.0000036272   0.0000082136  -0.0000000042  -0.0000098923  -0.0000197089
       -0.0000024101   0.0000217225   0.0000175879  -0.0000170375   0.0000073550
        0.0000105100   0.0000176036  -0.0000050563  -0.0000213238   0.0000199358
        0.0000155880   0.0000018744   0.0000403113   0.0000389031   0.0000257830
       -0.0000185547   0.0000294433   0.0000375620   0.0000947037  -0.0000039644
       -0.0000451926  -0.0000823050   0.0000019471   0.0000411230   0.0000103988
        0.0000077089   0.0000042299  -0.0000243485  -0.0000344415  -0.0000219012
        0.0000114744  -0.0000135609  -0.0000186864  -0.0000832011  -0.0000241274
        0.0000204048   0.0000410174   0.0001225999   0.0000033983   0.0910513619
        0.0546759254  -0.1103042100  -0.0859334291   0.0112413042  -0.0851289482
       -0.0013461941  -0.0613237143  -0.2447670916  -0.0000718806  -0.0000060589
       -0.0000045030  -0.0001112703   0.0000942447  -0.0003117778   0.0003851765
        0.0010030158  -0.0005460887   0.0000280879   0.0000333385   0.0000151195
        0.0000129304   0.0000113715   0.0000154775   0.0000047114   0.0000123437
        0.0000032615  -0.0000060744   0.0000060088  -0.0000072643   0.0000072801
        0.0000089260   0.0000161838   0.0000030895   0.0000072209   0.0000069457
       -0.0000018552   0.0000070438   0.0000000363   0.0000020675   0.0000022179
        0.0000012498   0.0000029798   0.0000011471   0.0000028998   0.0000025015
       -0.0000035953   0.0000003481   0.0000034436  -0.0000021769   0.0000028719
       -0.0000007286  -0.0000021896  -0.0000010404   0.0000012150   0.0000006701
        0.0000004792  -0.0000041821  -0.0000058253  -0.0000037628  -0.0000037845
       -0.0000021336   0.0000019020  -0.0000049223  -0.0000026046   0.0000002976
       -0.0000010735  -0.0000040077  -0.0000047764  -0.0000027299  -0.0000111358
        0.0000027101  -0.0000050854   0.0000005017   0.0000006545  -0.0000063161
       -0.0000061548  -0.0000006692  -0.0000026474  -0.0000013510  -0.0000046825
        0.0000001746  -0.0000078621   0.0000014545  -0.0000018222  -0.0000010974
        0.0000001600  -0.0000027067   0.0000030770   0.0000021880   0.0000008637
        0.0000019115   0.0000008612   0.0000039389  -0.0000038213   0.0000169693
       -0.0834400543   0.0442405513   0.0184657810   0.2470605737   0.0096891323
       -0.1232142330  -0.1341010126  -0.0457230962   0.0717673789   0.0089647134
       -0.0088016020  -0.0029175172   0.0033953873   0.0030015601  -0.0003574695
       -0.0019584877  -0.0038342128   0.0022391919  -0.0045921030   0.0069876689
        0.0059602076  -0.0327668002  -0.0247623182   0.0286915202   0.0001514160
       -0.0005644488   0.0000312361   0.0002235967   0.0000982788  -0.0001854028
       -0.0001335512   0.0000150024   0.0001708848  -0.0011623993   0.0009684802
        0.0005252334   0.0018949498  -0.0007635044  -0.0011582952  -0.0027532566
       -0.0005024793   0.0016168559   0.0024472987   0.0002871631  -0.0019623169
       -0.0000115434   0.0004368773  -0.0001347796   0.0001078621   0.0000542778
       -0.0009103161  -0.0018012690  -0.0011008307  -0.0001465422  -0.0000057820
        0.0017675013   0.0015594577  -0.0005342553  -0.0004421686  -0.0006155901
        0.0006749380  -0.0000139216   0.0004922382  -0.0006107148   0.0000378283
       -0.0007991162   0.0005807398  -0.0008094667  -0.0007449811  -0.0001051733
        0.0009305930   0.0011576498  -0.0003828144  -0.0005136823  -0.0011667528
       -0.0018394172   0.0015559932   0.0002395179   0.0001026526  -0.0014770831
       -0.0024535186  -0.0019601663   0.0032007993   0.0027810819   0.0021612156
       -0.0027054239  -0.0018871446  -0.0003988858   0.0002012618  -0.0001785611
        0.0015487997  -0.0006187732   0.0008225017   0.0001409246   0.0010126457
        0.0014839873   0.0018149615  -0.0019876116  -0.0010079812  -0.0005852598
        0.0033202077   0.0004850274   0.0002831093  -0.0017269274  -0.0002421734
       -0.0001004761   0.0010942290   0.0000125876   0.0020482636  -0.0006177167
        0.0005664052   0.0008882674  -0.0006920504  -0.0014317970  -0.0001686432
        0.0007013685   0.0004665617  -0.0005306381  -0.0002227348  -0.0004385155
        0.0001894992   0.0007551013   0.0005892226  -0.0010610875   0.0001839429
        0.0006460545   0.0008966409  -0.0005732415  -0.0010327990  -0.0001972756
        0.0009234000   0.0009516335   0.0020123762   0.0006786973  -0.0002967011
       -0.0013123325   0.0012450655   0.0019163733   0.0037434217  -0.0004496765
       -0.0022578721  -0.0033385304  -0.0000084052   0.0016368599   0.0003848747
        0.0002852602   0.0001363251  -0.0011261543  -0.0010539725  -0.0005353169
        0.0007036825  -0.0007833895  -0.0011766362  -0.0021750223  -0.0005106737
        0.0009602257   0.0001130212   0.0002111923  -0.0001302447   0.0059419764
       -0.0220948654  -0.0004619808  -0.0096732199   0.0349648527   0.0006998293
       -0.0000299042   0.0064237999   0.0032050759  -0.0002937599  -0.0006069527
       -0.0015232222   0.0003715842   0.0005361264  -0.0000066530   0.0009427624
       -0.0006347375  -0.0015940275  -0.0000874746   0.0000369693  -0.0001044517
       -0.0002216536  -0.0000047888   0.0001089560  -0.0000786162  -0.0000245732
        0.0001069032  -0.0001178586  -0.0001160583   0.0001425160   0.0003314013
       -0.0001288524   0.0003488427  -0.0000714920   0.0000695283   0.0000854854
       -0.0001103606   0.0000728628   0.0003366474   0.0000910911   0.0000301925
        0.0000903972   0.0001171567  -0.0000551683   0.0000726288   0.0001004718
       -0.0001331994   0.0000117625   0.0001440708  -0.0000148581   0.0001321724
       -0.0000661828   0.0000613977  -0.0000438793   0.0000723622   0.0001042749
        0.0000722848  -0.0001402434  -0.0001645715  -0.0001003473  -0.0001771608
       -0.0000082136   0.0000260421  -0.0000705096   0.0000019935  -0.0000176519
        0.0000039259  -0.0000589778  -0.0001967868  -0.0000315718  -0.0001968145
       -0.0000162336  -0.0000984753  -0.0000006952  -0.0000156276  -0.0001988301
       -0.0001880259  -0.0001006514  -0.0000547366  -0.0001087726  -0.0001936075
       -0.0000054871  -0.0002821553  -0.0000844360  -0.0000835223  -0.0000661384
       -0.0000560551  -0.0001255098   0.0000091936   0.0000533672   0.0000793672
       -0.0000022859  -0.0000752405   0.0001603195  -0.0000451544   0.0001085144
        0.0563157209  -0.1886398910  -0.0180357460   0.0096891323   0.4596767572
       -0.0584188196  -0.0657455739  -0.1340173643   0.0561708553  -0.0210056449
       -0.0527652414   0.0208858765   0.0066523848  -0.0035777674  -0.0037770295
       -0.0029079956  -0.0026802280   0.0027534226   0.0002149492   0.0024084225
        0.0001157670  -0.0108312434   0.0037295845   0.0073940713   0.0005492958
        0.0007080004  -0.0004558929   0.0006925799   0.0001047306  -0.0005243642
       -0.0003811848  -0.0002220602   0.0003344303  -0.0012980139   0.0013240363
        0.0005682759   0.0021302823  -0.0007055198  -0.0012318254  -0.0023487473
       -0.0006385500   0.0015250442   0.0024519777  -0.0002934338  -0.0017111107
       -0.0000371635   0.0008753678  -0.0000335899   0.0001139220  -0.0001340954
       -0.0008534815  -0.0016341830  -0.0006846825  -0.0001914434  -0.0000606412
        0.0018329531   0.0017104188  -0.0005733572  -0.0003671822  -0.0006471129
        0.0007174075  -0.0000483379   0.0005351914  -0.0006668117   0.0000512100
       -0.0008190989   0.0006389112  -0.0009003594  -0.0007965989  -0.0000968692
        0.0010050406   0.0013063754  -0.0003904622  -0.0006012730  -0.0013189273
       -0.0019614241   0.0017286235   0.0003578424   0.0001342551  -0.0016503273
       -0.0026545463  -0.0020802215   0.0034554221   0.0029804805   0.0022444328
       -0.0028677369  -0.0020454886  -0.0003608057   0.0002016875  -0.0001339012
        0.0016586505  -0.0007001493   0.0008342986   0.0001392766   0.0010922280
        0.0016390454   0.0019154017  -0.0021162871  -0.0011545219  -0.0005482664
        0.0027912846   0.0005569692   0.0002407646  -0.0010243736  -0.0003321594
       -0.0000913730   0.0007029634   0.0000753437   0.0018635263  -0.0003174630
        0.0004341988   0.0010659870  -0.0006517939  -0.0015487224  -0.0000877980
        0.0006574477   0.0004403211  -0.0005559486  -0.0003219237  -0.0004462511
        0.0002300142   0.0007998311   0.0006127087  -0.0012050938   0.0001803836
        0.0007251569   0.0009819679  -0.0006652552  -0.0011727999  -0.0002875652
        0.0010225668   0.0010929505   0.0022539805   0.0006922208  -0.0004295645
       -0.0015348074   0.0013524726   0.0021035317   0.0040412880  -0.0005278685
       -0.0024613404  -0.0035766890   0.0000167857   0.0017700240   0.0003772810
        0.0002644496   0.0001166760  -0.0012709670  -0.0011344389  -0.0005397965
        0.0008054540  -0.0008599781  -0.0013225588  -0.0024315469  -0.0004756579
        0.0011157382   0.0001098100   0.0000743851  -0.0000666060   0.0005964210
       -0.0286726580   0.0034105011   0.0186223277  -0.0242654366   0.0041313393
        0.0085776415  -0.0323129890  -0.0138412061  -0.0007671153   0.0015088375
       -0.0001401131  -0.0005250574  -0.0012702201   0.0006612157  -0.0002374715
       -0.0011096227   0.0001669704  -0.0001420876  -0.0000012430   0.0000006627
       -0.0001828750  -0.0000291414   0.0001093575  -0.0000655301  -0.0000477038
        0.0000821720  -0.0000734503  -0.0001157671   0.0000827826   0.0002680568
       -0.0000908475   0.0002967062  -0.0000742326   0.0000523866   0.0000495317
       -0.0000913724   0.0000699096   0.0002815177   0.0000818072   0.0000304285
        0.0000822144   0.0001047876  -0.0000517570   0.0000476062   0.0000883208
       -0.0001092130   0.0000073974   0.0001089439  -0.0000020573   0.0001352860
       -0.0000607864   0.0000576870  -0.0000490689   0.0000734353   0.0001163554
        0.0000758396  -0.0001160002  -0.0001342198  -0.0000936856  -0.0001788835
        0.0000164277   0.0000040825   0.0000012412   0.0000226857   0.0000000138
        0.0000381177  -0.0000470944  -0.0001723396  -0.0000178442  -0.0001666645
       -0.0000316394  -0.0000928402  -0.0000132377  -0.0000107773  -0.0001611304
       -0.0001573246  -0.0000810949  -0.0000334600  -0.0000962141  -0.0001880809
        0.0000092436  -0.0002505903  -0.0000818205  -0.0000605614  -0.0000465762
       -0.0000355900  -0.0001126829   0.0000132384   0.0000586846   0.0000913495
        0.0000015645  -0.0000543316   0.0000734317  -0.0000585580   0.0000641499
        0.0168364765  -0.0101343140  -0.0557995898  -0.1232142330  -0.0584188196
        0.1491047287   0.0743065533   0.0429312332  -0.0885210417  -0.0011470256
        0.0126594880   0.0022836770  -0.0008419169  -0.0011880070   0.0041488195
        0.0017268851   0.0026513990  -0.0017820219   0.0069911218  -0.0039206853
        0.0025033430   0.0267101123   0.0165898913  -0.0140350550  -0.0000311213
        0.0003143556   0.0001766604  -0.0001702532  -0.0000076141   0.0002309294
        0.0001469630   0.0000108455  -0.0000465323   0.0008416071  -0.0007287940
       -0.0003914995  -0.0014411068   0.0005355625   0.0007099382   0.0018368983
        0.0003394402  -0.0016260310  -0.0021880191  -0.0003496406   0.0010330636
       -0.0001230880  -0.0003587699  -0.0000181370  -0.0001568905   0.0000041869
        0.0006543939   0.0012615179   0.0007587136   0.0000972405   0.0000131486
       -0.0013305313  -0.0011793963   0.0003824455   0.0003375832   0.0004663642
       -0.0005159661   0.0000201323  -0.0003853915   0.0004603695  -0.0000183598
        0.0006075370  -0.0004302987   0.0006168590   0.0005672593   0.0000941804
       -0.0007063564  -0.0008675731   0.0002937281   0.0003818764   0.0008823478
        0.0013919411  -0.0011760880  -0.0001755358  -0.0000586685   0.0011151934
        0.0018697580   0.0015095874  -0.0024563162  -0.0021245512  -0.0016531236
        0.0020763996   0.0014553601   0.0003023941  -0.0001572429   0.0001368866
       -0.0011903633   0.0004725944  -0.0006326728  -0.0001197420  -0.0007695142
       -0.0011363063  -0.0013852049   0.0014987279   0.0007679514   0.0004636192
       -0.0023621715  -0.0003750639  -0.0002054697   0.0011572093   0.0002026686
        0.0000745904  -0.0007276240  -0.0000179001  -0.0014719287   0.0004254795
       -0.0003962859  -0.0007022770   0.0005106317   0.0011136314   0.0001263562
       -0.0005397707  -0.0003770675   0.0004216459   0.0001758920   0.0003480704
       -0.0001347341  -0.0005840265  -0.0004579392   0.0008164936  -0.0001449346
       -0.0005028652  -0.0007042817   0.0004304704   0.0007932089   0.0001524009
       -0.0007080850  -0.0007299192  -0.0015460897  -0.0005336053   0.0002275534
        0.0009975310  -0.0009750937  -0.0014775546  -0.0028991463   0.0003556850
        0.0017452771   0.0025939297   0.0000108123  -0.0012617393  -0.0003098372
       -0.0002290269  -0.0001094188   0.0008699983   0.0008254243   0.0004234122
       -0.0005273430   0.0006094270   0.0009159592   0.0016832663   0.0004093289
       -0.0007414436   0.0000077327  -0.0000743729   0.0001505010  -0.0033675449
        0.0182206669   0.0006962367  -0.0028038273   0.0129453945   0.0024133879
        0.0085734286  -0.0318475428   0.0009162256  -0.0013474035  -0.0000486933
       -0.0013365571   0.0000187149  -0.0001100579   0.0001510391  -0.0016837685
        0.0003293026  -0.0007044716   0.0000230905  -0.0000371534  -0.0000076102
        0.0001603766   0.0000002195  -0.0001099659   0.0000574682   0.0000255557
       -0.0000933894   0.0001334118   0.0000972392  -0.0000554925  -0.0002446346
        0.0000809212  -0.0002599009   0.0000529482  -0.0000591190  -0.0000645621
        0.0000821713  -0.0000570115  -0.0002492904  -0.0000669979  -0.0000262300
       -0.0000651989  -0.0000907311   0.0000429658  -0.0000514700  -0.0000753164
        0.0000948686  -0.0000068458  -0.0001088525   0.0000070821  -0.0000995361
        0.0000503658  -0.0000463921   0.0000386959  -0.0000538641  -0.0000816652
       -0.0000563223   0.0001048564   0.0001277833   0.0000804886   0.0001430302
        0.0000017766  -0.0000151942   0.0000362557  -0.0000070595   0.0000074539
       -0.0000120946   0.0000485616   0.0001545722   0.0000239542   0.0001508125
        0.0000197398   0.0000799202   0.0000047455   0.0000115323   0.0001526517
        0.0001479283   0.0000753064   0.0000396751   0.0000832891   0.0001509553
        0.0000023152   0.0002161373   0.0000659263   0.0000635700   0.0000501339
        0.0000387891   0.0000958853  -0.0000106981  -0.0000475801  -0.0000685646
       -0.0000091953   0.0000507332  -0.0001158553   0.0000403559  -0.0000957030
        0.0076439671  -0.0087557807  -0.0066580538  -0.1341010126  -0.0657455739
        0.0743065533   0.4787565843  -0.0464856781  -0.2269630769  -0.0963856508
        0.0348951240   0.0275539107   0.0279081753   0.0039747264  -0.0203927946
       -0.0171036712   0.0169407084   0.0051415291  -0.0441477060  -0.0470195963
        0.0341418607  -0.2162926292   0.0831619853   0.0995459694   0.0126816811
       -0.0046648150  -0.0030893797  -0.0039566619   0.0024791021   0.0023203286
        0.0005619996  -0.0010168801  -0.0004973323  -0.0007349105   0.0024220637
        0.0003401812   0.0023514051  -0.0004747765  -0.0016103606  -0.0028412531
       -0.0004530930   0.0013436003   0.0006033560  -0.0018511604  -0.0005530479
       -0.0001072698   0.0008654162   0.0000842242  -0.0010332983   0.0013173868
        0.0004071729  -0.0000879616  -0.0014060692  -0.0001139081   0.0001077091
       -0.0023189860  -0.0018078768   0.0009167053   0.0004429172   0.0008435247
       -0.0008982196   0.0000961493  -0.0004841874   0.0008596984  -0.0001417854
        0.0009430331  -0.0008458746   0.0011376200   0.0010251031   0.0000781262
       -0.0012902591  -0.0016445478   0.0003395440   0.0009450972   0.0017932041
        0.0022343024  -0.0021156046  -0.0007344784  -0.0001797486   0.0020258146
        0.0032787345   0.0025314070  -0.0042567797  -0.0037895233  -0.0029127816
        0.0036114036   0.0024952571   0.0005203205  -0.0002829517   0.0002752101
       -0.0019570834   0.0008130732  -0.0009815544  -0.0001897402  -0.0013664922
       -0.0019903188  -0.0020709677   0.0024341518   0.0013564362   0.0001704990
        0.0011177391  -0.0008757424   0.0001369859  -0.0032920723   0.0006894585
       -0.0001308735   0.0020053594  -0.0004549925   0.0000642112  -0.0013032525
        0.0005215047  -0.0014052550   0.0006450618   0.0016813616  -0.0000602115
       -0.0010068155  -0.0006130035   0.0007679993   0.0001944161   0.0004940469
       -0.0003790234  -0.0009749044  -0.0006838784   0.0015272163  -0.0002275168
       -0.0008577758  -0.0011876223   0.0008496744   0.0014347544   0.0006494972
       -0.0012642964  -0.0015435443  -0.0027406784  -0.0005866293   0.0008199879
        0.0019693612  -0.0016794973  -0.0026550295  -0.0050348986   0.0007491228
        0.0031612541   0.0045616175   0.0000130492  -0.0022140040  -0.0005097047
       -0.0003942739  -0.0001932186   0.0015545916   0.0012629898   0.0005365807
       -0.0010488484   0.0010880347   0.0017419459   0.0026854958   0.0003940512
       -0.0013578763   0.0005666272   0.0011507131   0.0004683434   0.0000449606
        0.0010313479   0.0002863014  -0.0001153688   0.0019968088  -0.0011178824
        0.0005630008   0.0007636078   0.0012542215  -0.0099991607   0.0244276777
        0.0046646088   0.0019645214  -0.0023268555   0.0050708164  -0.0073691835
        0.0056158996   0.0047464662   0.0001282202   0.0000862676   0.0001289632
        0.0001920829   0.0000341706  -0.0001188755   0.0000177233   0.0000742990
       -0.0001137627  -0.0000113022  -0.0000026116  -0.0000557195  -0.0005023501
        0.0001322495  -0.0005901589   0.0001042680  -0.0000912599  -0.0001014981
        0.0001463081  -0.0000953471  -0.0004678086  -0.0001377408  -0.0000401821
       -0.0001488777  -0.0001884851   0.0000814393  -0.0001000092  -0.0001627010
        0.0001866180  -0.0000408091  -0.0001873568   0.0000168850  -0.0001855771
        0.0000867314  -0.0000814353   0.0000559030  -0.0000970862  -0.0001486004
       -0.0001002056   0.0001763392   0.0002175559   0.0001507195   0.0002427341
        0.0000184685  -0.0000741800   0.0001072762   0.0000033169   0.0000090067
       -0.0000059549   0.0000780037   0.0002667060   0.0000514610   0.0002847679
        0.0000428791   0.0001439328   0.0000323018   0.0000083586   0.0002734174
        0.0002658796   0.0001293777   0.0000746915   0.0001489597   0.0002587212
        0.0000087257   0.0003694675   0.0001180690   0.0001118925   0.0000928823
        0.0000713768   0.0001786823   0.0000144550  -0.0000916338  -0.0001339141
        0.0000314799   0.0001237232  -0.0001118926   0.0001240712  -0.0000647851
       -0.0207332055  -0.0372858383   0.0178350360  -0.0457230962  -0.1340173643
        0.0429312332  -0.0464856781   0.5733135261  -0.0253158199   0.0871828795
       -0.2286983233  -0.0377525858  -0.0420347894  -0.0576379963   0.0349579670
        0.0273405583  -0.0037401724  -0.0195411275  -0.0010775876   0.0248163814
       -0.0027292258   0.0276173283  -0.1079864640  -0.0091396599  -0.0098431922
       -0.0002357002   0.0070486541   0.0021690326  -0.0026745927  -0.0009690027
        0.0003239625   0.0025407882  -0.0009166355   0.0037544340  -0.0064135094
       -0.0014683402  -0.0079040740   0.0018818205   0.0047057754   0.0095126723
       -0.0022174300  -0.0047703920  -0.0118436933   0.0008516939   0.0082985461
        0.0000976928  -0.0026363549  -0.0002347224   0.0002517454  -0.0009268075
        0.0017786252   0.0041568986   0.0034437863   0.0005346256  -0.0001934280
       -0.0017394207  -0.0018959177   0.0003609224   0.0005666827   0.0006829897