$hessian                                                                        
        0.4686671147   0.0340966156  -0.0060738462  -0.1437508504   0.0581781023
       -0.0079340405  -0.0022795220   0.0037863738  -0.0026907682  -0.0065860080
        0.0074180394   0.0028404750  -0.0271465529   0.0104407169  -0.0028357072
       -0.0029906890  -0.0027664077  -0.0004175985  -0.0013826063   0.0004915973
       -0.0001649574  -0.0001142452   0.0002512207  -0.0000196020  -0.0000266432
        0.0009444824  -0.0000401925  -0.0006515966  -0.0002260063   0.0000424954
        0.0001047446   0.0000063622   0.0000151148  -0.0000754422   0.0000468715
       -0.0000065499  -0.0000316790  -0.0000029630  -0.0000054313  -0.0000204551
        0.0000136865  -0.0000042693  -0.0000029006  -0.0000168329  -0.0000056243
       -0.0000039686  -0.0000157410   0.0000074368   0.0000154654  -0.0000042180
        0.0000015917   0.0000388229  -0.0000463161   0.0000053968  -0.0000198467
        0.0000113452  -0.0000036905   0.0000125389  -0.0000374436   0.0000093655
       -0.0001353966  -0.0000175559  -0.0000209483   0.0000330533  -0.0000230640
        0.0000054361  -0.0000308823  -0.0000019272   0.0000022738  -0.0000058629
        0.0000033252  -0.0000071037  -0.0000338851  -0.0000007403   0.0000052551
        0.0000652224  -0.0000081993   0.0000114637  -0.0000182144   0.0000129355
       -0.0000066289  -0.0000165908  -0.0000054147  -0.0000001858  -0.0000021956
        0.0000059042  -0.0000015008  -0.0000055397   0.0000003386   0.0000020987
        0.0000070985   0.0000059051  -0.0000015289  -0.0000059347  -0.0000022647
        0.0000025768  -0.0000015231  -0.0000004521   0.0000008322   0.0000006872
        0.0000013026   0.0000000797   0.0000006068   0.0000008390  -0.0000000165
       -0.0000000875  -0.0000017313  -0.0000002827   0.0000001662  -0.0000014117
       -0.0000004120   0.0000004977  -0.0000017641  -0.0000007066  -0.0000020170
       -0.0000051363   0.0000003083   0.0000077750  -0.0000042291  -0.0000015172
        0.0000088254  -0.0000064385   0.0000103529  -0.0000088900   0.0000232131
       -0.0000421321  -0.0435011143  -0.0091264647   0.0125342406  -0.0449562701
        0.0130948136   0.0195497448  -0.1954348952  -0.1134972909  -0.0153316555
        0.0004612392  -0.0003026632   0.0001168570   0.0007681043  -0.0008827231
        0.0008435057   0.0001732557  -0.0004200633   0.0003843255   0.0001982969
        0.0004848170   0.0007688016   0.0007468777  -0.0008750240  -0.0007845229
        0.0001170911  -0.0002561334  -0.0005136999   0.0000408202  -0.0000530370
        0.0000153482  -0.0003241278  -0.0001652426  -0.0000383977  -0.0019349168
       -0.0005428832  -0.0002513174   0.0000081219   0.0000203287  -0.0000040093
        0.0000028573  -0.0000121805   0.0000053989  -0.0000006440   0.0000091622
       -0.0000005421   0.0000003764   0.0000014539  -0.0000064072   0.0000041722
       -0.0000129077  -0.0000040192   0.0000055945   0.0000018742   0.0000040739
       -0.0000019877   0.0000093528  -0.0000022570   0.0000018259  -0.0000101822
        0.0000010027   0.0000046146   0.0000045143  -0.0000030908   0.0000040294
        0.0000048297   0.0000046564  -0.0000049204  -0.0000023673   0.0000014301
        0.0000024923  -0.0000065467   0.0000000661  -0.0000008891   0.0000029959
       -0.0000036158  -0.0000039286  -0.0000022361   0.0000047636   0.0000041318
        0.0000027226   0.0000013199   0.0000000939  -0.0000026148   0.0000004786
       -0.0000001297  -0.0000007674   0.0000001931  -0.0000009994  -0.0000000787
        0.0000003928  -0.0000005997   0.0000010430   0.0000002381   0.0000013420
        0.0000003770  -0.0000005568   0.0000005619   0.0000015551  -0.0000003366
        0.0000014995  -0.0000002798  -0.0000011274   0.0000054306  -0.0000110728
        0.0000314064
        0.0340966156   0.5046790261   0.0033292037   0.0561254697  -0.1049810937
        0.0055564988   0.0158397690  -0.0162611674   0.0074795199   0.0167713219
       -0.0158467150  -0.0042255256  -0.0099183792   0.0079552207  -0.0009950209
       -0.0023332630  -0.0015822821  -0.0002871524  -0.0006956619   0.0001179870
       -0.0000790770   0.0001372810   0.0002133201  -0.0000090410  -0.0003211012
        0.0006429333  -0.0000494658  -0.0011532408  -0.0011029622  -0.0000565438
        0.0000429776   0.0000422316  -0.0000017167  -0.0000379467   0.0000883113
       -0.0000089556  -0.0000543643   0.0000068639  -0.0000074719  -0.0000110204
        0.0000044292  -0.0000007117   0.0000075206  -0.0000161979  -0.0000007167
        0.0000072826  -0.0000153626   0.0000030238   0.0000165153  -0.0000026172
        0.0000023607   0.0000217002  -0.0000352434   0.0000001928   0.0000193866
        0.0000375384   0.0000021327  -0.0000523411   0.0000533212   0.0000275722
       -0.0004002006  -0.0001675341  -0.0000503571   0.0002652290  -0.0000909037
        0.0000301048  -0.0000834162  -0.0000045672  -0.0000088918   0.0000511177
       -0.0000414207   0.0000181751  -0.0001102451   0.0000165538  -0.0000120357
        0.0001310676  -0.0000409839   0.0000274825  -0.0000442118   0.0000507844
       -0.0000312068  -0.0000282981  -0.0000153391   0.0000067946  -0.0000016426
        0.0000135380  -0.0000051034  -0.0000115990  -0.0000000302   0.0000043270
        0.0000167153   0.0000169752  -0.0000023980  -0.0000131554  -0.0000047414
        0.0000025631  -0.0000008144  -0.0000037666  -0.0000002939   0.0000006338
        0.0000031166  -0.0000000616   0.0000004577  -0.0000008757  -0.0000003914
       -0.0000004622  -0.0000012554  -0.0000000052  -0.0000005540  -0.0000030333
       -0.0000002467   0.0000010617   0.0000004549  -0.0000009255  -0.0000027722
       -0.0000128070  -0.0000016446   0.0000127293  -0.0000064673   0.0000005622
        0.0000694358   0.0000153569   0.0000021512  -0.0000673309   0.0000343428
       -0.0000168563  -0.0087145436  -0.1220805176   0.1116186051   0.0134432120
       -0.1212663976  -0.1107709964  -0.1139130403  -0.1263479554  -0.0116115175
        0.0003779680  -0.0026074511   0.0035124240   0.0010997846   0.0001821309
       -0.0002326536  -0.0000095907   0.0006025593  -0.0008606034   0.0010911265
       -0.0024862057  -0.0033308633   0.0009975742   0.0001907709   0.0004530571
       -0.0002202930   0.0005978900   0.0008393671   0.0000130837   0.0000853612
        0.0000007561  -0.0002462844  -0.0000492681  -0.0000283491  -0.0022165397
       -0.0005393295  -0.0002525448   0.0000242870  -0.0000154496   0.0000036036
        0.0000023701  -0.0000086143   0.0000071621   0.0000069426   0.0000057930
       -0.0000017596  -0.0000046318  -0.0000024074  -0.0000038926   0.0000039632
       -0.0000087641  -0.0000056844  -0.0000048309  -0.0000022273   0.0000038559
        0.0000063645   0.0000061620   0.0000034876   0.0000049434  -0.0000105651
        0.0000012896  -0.0000021650   0.0000042699  -0.0000059175  -0.0000026930
        0.0000044612   0.0000056670  -0.0000067936  -0.0000013257  -0.0000009645
       -0.0000114853  -0.0000073141  -0.0000020121   0.0000028464  -0.0000015956
        0.0000019498  -0.0000086909   0.0000021937   0.0000047479  -0.0000013708
        0.0000046447   0.0000039557   0.0000009129  -0.0000009013   0.0000005783
       -0.0000002183  -0.0000006030  -0.0000002261  -0.0000017080   0.0000001700
        0.0000002635  -0.0000012582   0.0000008802   0.0000003801   0.0000001807
       -0.0000007980  -0.0000001446   0.0000009627  -0.0000005469  -0.0000007633
       -0.0000076209  -0.0000019822  -0.0000042069   0.0000049691  -0.0000020056
        0.0000111014
       -0.0060738462   0.0033292037   0.5311265448  -0.0079406291   0.0057720962
       -0.0637531653  -0.0176213633   0.0179877972  -0.0067719754   0.0179887039
       -0.0169420573  -0.0027916961  -0.0030500063   0.0011407496   0.0002608093
       -0.0004696496  -0.0003028274   0.0007544737  -0.0001371898   0.0000357328
        0.0000534889  -0.0000478221   0.0000320455   0.0000773311  -0.0000385287
        0.0001014448   0.0001624592  -0.0000117594  -0.0000537534  -0.0008445168
        0.0000146378   0.0000007392  -0.0000355593   0.0000050750   0.0000075870
       -0.0000444180  -0.0000068677  -0.0000061795   0.0000038243  -0.0000020560
       -0.0000012098   0.0000188051   0.0000043880   0.0000074656  -0.0000076819
       -0.0000010519  -0.0000119122  -0.0000100684   0.0000011070  -0.0000008503
       -0.0000049145  -0.0000021822  -0.0000030641  -0.0000033032   0.0000044148
        0.0000054626  -0.0000016742  -0.0000091049   0.0000098221   0.0000112603
        0.0000100013   0.0000058745  -0.0000441248   0.0000138500  -0.0000139526
        0.0000086999  -0.0000044602  -0.0000006855  -0.0000024140   0.0000062719
       -0.0000058490   0.0000049772  -0.0000105419   0.0000021322  -0.0000028152
        0.0000087210  -0.0000100786   0.0000039832  -0.0000046975   0.0000090589
       -0.0000042934  -0.0000012482  -0.0000006673   0.0000002318  -0.0000014815
        0.0000020847   0.0000001233  -0.0000005810   0.0000000997  -0.0000000048
        0.0000007354   0.0000014652   0.0000005082  -0.0000012441  -0.0000005059
        0.0000008177   0.0000004846  -0.0000006165   0.0000006672  -0.0000001756
       -0.0000002269   0.0000006618  -0.0000006751  -0.0000000955   0.0000009217
       -0.0000004559   0.0000007703   0.0000006349   0.0000008304  -0.0000000452
       -0.0000001656   0.0000003242   0.0000001112   0.0000002061   0.0000000134
       -0.0000009356   0.0000001029   0.0000010647  -0.0000012643  -0.0000004713
       -0.0000010319   0.0000020699  -0.0000007162   0.0000056759   0.0000003238
       -0.0000055173   0.0122803780   0.1117476751  -0.2037347565   0.0197898817
       -0.1110313056  -0.2031316561  -0.0153466098  -0.0115770337  -0.0462351865
       -0.0005471459   0.0037802838  -0.0039424245  -0.0008476017  -0.0002345013
        0.0004279387  -0.0008009430   0.0007184916   0.0006477929   0.0014530179
       -0.0037291379  -0.0037913922   0.0009137743   0.0000494221   0.0004634461
        0.0006976596  -0.0008007214   0.0006993237   0.0000179042  -0.0000060732
       -0.0001015622  -0.0000311727  -0.0000131635  -0.0000713385  -0.0002021502
       -0.0000137029   0.0005567321  -0.0000043970   0.0000022554   0.0000434914
       -0.0000009334  -0.0000028071   0.0000003320  -0.0000105364   0.0000028624
        0.0000134701   0.0000101657   0.0000048020  -0.0000124801  -0.0000002705
        0.0000030696   0.0000000539  -0.0000070469  -0.0000046792  -0.0000116504
        0.0000062090  -0.0000010157   0.0000170228  -0.0000001769  -0.0000001014
        0.0000019114   0.0000078576   0.0000037115  -0.0000047809  -0.0000051376
       -0.0000025033  -0.0000048407   0.0000006073  -0.0000010762   0.0000033783
       -0.0000011377  -0.0000016553   0.0000032969   0.0000000801   0.0000015894
        0.0000001110  -0.0000014406   0.0000004557   0.0000005561   0.0000008417
       -0.0000001134   0.0000000633  -0.0000002761  -0.0000005788   0.0000008108
       -0.0000001828  -0.0000003930   0.0000011509  -0.0000002250   0.0000000407
        0.0000010064  -0.0000000451   0.0000000435   0.0000005510  -0.0000000308
       -0.0000001487   0.0000001975  -0.0000002268   0.0000002121   0.0000001138
        0.0000000589   0.0000014820  -0.0000013959   0.0000016017   0.0000069543
       -0.0000013233
       -0.1437508504   0.0561254697  -0.0079406291   0.4933195440  -0.0076995550
        0.0037089043  -0.0636735876  -0.0049573743   0.0079502886  -0.0625132719
        0.0072662636   0.0085317505  -0.1471129977  -0.0533361712  -0.0105108062
       -0.0307538120  -0.0092210596  -0.0034507852  -0.0022543641   0.0031400418
       -0.0007006773  -0.0009787661  -0.0004180552  -0.0001129266   0.0013637385
        0.0009544603  -0.0006314781  -0.0012890714  -0.0087307433  -0.0001747895
        0.0000160942   0.0000806450  -0.0000463042   0.0001769897  -0.0000625067
        0.0000327677   0.0001030642   0.0000185841   0.0000180558   0.0000191024
       -0.0000081603  -0.0000026171  -0.0000081668   0.0000443901  -0.0000005093
       -0.0000074215   0.0000442067   0.0000007003  -0.0000236819   0.0000204107
       -0.0000045963  -0.0000557893   0.0000762269  -0.0000034061  -0.0000849958
       -0.0001171435  -0.0000027925   0.0001607270   0.0000674671  -0.0000110111
        0.0006992915   0.0004610248   0.0001749953  -0.0005036581   0.0001788229
       -0.0000616249   0.0001493733   0.0000220163   0.0000180943  -0.0001214951
        0.0000995271  -0.0000477714   0.0002179003  -0.0000387788   0.0000394736
       -0.0002603559   0.0000488359  -0.0000461821   0.0000968997  -0.0000809330
        0.0000707914   0.0000620923   0.0000410859  -0.0000180540   0.0000051808
       -0.0000367252   0.0000111647   0.0000254265   0.0000002675  -0.0000085012
       -0.0000445595  -0.0000445567   0.0000048656   0.0000357738   0.0000143137
       -0.0000066258   0.0000003644   0.0000094023   0.0000012881  -0.0000008069
       -0.0000107001  -0.0000013589  -0.0000052976  -0.0000006169   0.0000008387
       -0.0000012387   0.0000040445  -0.0000001985   0.0000001379   0.0000055955
       -0.0000001218  -0.0000032014  -0.0000050939   0.0000004659   0.0000037976
        0.0000316040   0.0000043635  -0.0000325747   0.0000105823  -0.0000027102
       -0.0001299733  -0.0000514205   0.0000121239   0.0001281638  -0.0000789921
       -0.0000172008   0.0001922578   0.0015946482  -0.0019775723  -0.0042565341
        0.0046003355   0.0021098696  -0.0272851929   0.0119771586  -0.0027245390
        0.0006680133   0.0140560042  -0.0179315707  -0.0060827703  -0.0165852333
        0.0202136442  -0.0003502490  -0.0005504973   0.0021643099  -0.0035836465
        0.0142711867   0.0182960068  -0.0012459332  -0.0153485004  -0.0206461157
       -0.0002354527   0.0020608421   0.0033423579   0.0005677562  -0.0009240625
        0.0002934695  -0.0009234918  -0.0004657725  -0.0001320107  -0.0003563328
        0.0014179252   0.0002285105  -0.0000741916   0.0000286802  -0.0000128388
       -0.0000223586   0.0000243429  -0.0000130847   0.0000016652  -0.0000119591
        0.0000001356   0.0000002650  -0.0000073307   0.0000029475  -0.0000244411
        0.0000233413   0.0000083267   0.0000116988  -0.0000068017  -0.0000098247
       -0.0000007448  -0.0000129115   0.0000008261  -0.0000150290   0.0000247622
       -0.0000014517   0.0000067145  -0.0000110049   0.0000165939   0.0000089938
       -0.0000105852  -0.0000140258  -0.0000040634   0.0000057943   0.0000013438
        0.0000332674   0.0000080583   0.0000102548  -0.0000147107   0.0000093805
       -0.0000089385   0.0000150855  -0.0000077749  -0.0000080240   0.0000029200
       -0.0000079478  -0.0000080881  -0.0000020108   0.0000029244  -0.0000017939
        0.0000008645   0.0000019257  -0.0000009933   0.0000048710  -0.0000017814
       -0.0000031992   0.0000016610  -0.0000053960  -0.0000030639  -0.0000033566
       -0.0000009015  -0.0000011080  -0.0000045012  -0.0000012353   0.0000001438
        0.0000122083   0.0000047572   0.0000066694  -0.0000169549  -0.0000190737
        0.0000255787
        0.0581781023  -0.1049810937   0.0057720962  -0.0076995550   0.4693575963
       -0.0008565069  -0.0079827509  -0.1004656536   0.0539060906   0.0034987727
       -0.0983167383  -0.0536170313  -0.0485404918  -0.0961080935  -0.0055563189
        0.0039299856   0.0086599929   0.0005868675   0.0038118727  -0.0003309903
        0.0004110355  -0.0000640530  -0.0011120594  -0.0000483812   0.0006634790
       -0.0046441061   0.0001813088  -0.0229492427  -0.0196338648  -0.0027336304
       -0.0009385277  -0.0001327792  -0.0001234077  -0.0000675808  -0.0000912207
       -0.0000034465   0.0000881850   0.0000329445   0.0000128665  -0.0000249135
        0.0000101180  -0.0000044329  -0.0000097603  -0.0000139388  -0.0000026167
       -0.0000095712  -0.0000146446   0.0000016354   0.0000071218   0.0000089441
       -0.0000002531  -0.0000547886   0.0000814857  -0.0000046205  -0.0000723560
       -0.0000742011  -0.0000107191  -0.0001808311  -0.0001955014  -0.0000222860
        0.0002113941  -0.0000941531   0.0000582629  -0.0000543165   0.0000299283
       -0.0000127002  -0.0000029996  -0.0000264236   0.0000204016  -0.0000236981
        0.0000287960  -0.0000180825   0.0000349424  -0.0000081603   0.0000042965
       -0.0000373632   0.0000045553  -0.0000062224   0.0000275627  -0.0000153270
        0.0000195463   0.0000106010   0.0000066492  -0.0000045438   0.0000015461
       -0.0000039202   0.0000034956   0.0000032541  -0.0000014391  -0.0000015246
       -0.0000084574  -0.0000067434   0.0000001851   0.0000067476   0.0000012283
       -0.0000004144  -0.0000005342   0.0000029097   0.0000008068   0.0000014248
       -0.0000030893  -0.0000011314  -0.0000011900   0.0000006091  -0.0000000554
        0.0000002551   0.0000013154  -0.0000005285   0.0000014061   0.0000010201
       -0.0000008145  -0.0000007984  -0.0000019918  -0.0000003848   0.0000013780
        0.0000054080   0.0000006097  -0.0000060879   0.0000010449  -0.0000015056
       -0.0000222368  -0.0000153953   0.0000010517   0.0000128997   0.0000321574
       -0.0000010364   0.0150204764  -0.0128217224   0.0044512962   0.0155054354
       -0.0127043345  -0.0014107294  -0.0125486551   0.0083076047  -0.0012281241
        0.0008005245  -0.0140146471   0.0159681086  -0.0052411663  -0.0124756448
        0.0140735636   0.0017623704   0.0084709762  -0.0116732357   0.0041153760
       -0.0136869221  -0.0156857072  -0.0021152353  -0.0121218391  -0.0150341409
       -0.0007679427   0.0084570226   0.0124195482   0.0008197237  -0.0003424783
        0.0001135331   0.0009554331   0.0001955715   0.0001062722  -0.0000516669
        0.0007864453  -0.0000219031  -0.0000093403  -0.0000048419  -0.0000023558
       -0.0000017783  -0.0000020431   0.0000008137  -0.0000008540   0.0000102070
        0.0000012844   0.0000021662  -0.0000003083  -0.0000121106  -0.0000014202
       -0.0000022999  -0.0000002501   0.0000040029  -0.0000005471   0.0000050886
       -0.0000001135   0.0000102922   0.0000002037   0.0000002403  -0.0000048370
        0.0000001761   0.0000080791   0.0000026032   0.0000026356   0.0000061764
        0.0000025236  -0.0000019054  -0.0000073820  -0.0000059618   0.0000024081
       -0.0000059925  -0.0000280603  -0.0000013800  -0.0000002417   0.0000079116
       -0.0000105972   0.0000077345  -0.0000025214   0.0000025465   0.0000035344
       -0.0000043330  -0.0000023711  -0.0000005874  -0.0000015581  -0.0000008958
        0.0000000813  -0.0000001164  -0.0000006271   0.0000007906  -0.0000005551
       -0.0000010132   0.0000005454  -0.0000015021  -0.0000011804  -0.0000011813
       -0.0000010505  -0.0000005957  -0.0000013655   0.0000001368  -0.0000004437
        0.0000066712   0.0000052191   0.0000000693  -0.0000032648  -0.0000035641
       -0.0000059423
       -0.0079340405   0.0055564988  -0.0637531653   0.0037089043  -0.0008565069
        0.4594225076   0.0133140658   0.0579938320  -0.1377885425   0.0029684802
       -0.0570010339  -0.1409736608  -0.0101926118  -0.0059231445  -0.0564650613
       -0.0033900287  -0.0009955637  -0.0015567169  -0.0007878926   0.0003344577
        0.0051513298  -0.0001816337  -0.0000864955   0.0003055403  -0.0007735803
        0.0002034367   0.0072940740  -0.0001980483  -0.0010349819   0.0009654171
       -0.0000417069  -0.0000134893   0.0004622620   0.0000145299   0.0000112164
       -0.0000442056  -0.0000001080  -0.0000086789  -0.0000305743  -0.0000038757
       -0.0000005964   0.0000331248  -0.0000021747   0.0000087127  -0.0000018076
       -0.0000011227   0.0000039771  -0.0000004230  -0.0000029560   0.0000033618
        0.0000019390   0.0000081929   0.0000010447   0.0000338908  -0.0000026901
        0.0000030909  -0.0000579312   0.0000483996  -0.0000405989  -0.0004152102
        0.0000324694   0.0001029288  -0.0008755181   0.0001116062  -0.0001019463
       -0.0000827512  -0.0000288464  -0.0000373491   0.0000286919   0.0000483993
       -0.0000076771   0.0000242040   0.0000136498   0.0000287308  -0.0000447756
       -0.0000011383  -0.0000149416   0.0000035643   0.0000041022   0.0000070298
       -0.0000125460   0.0000038769   0.0000048633   0.0000024736  -0.0000044120
       -0.0000000118   0.0000009707   0.0000017707   0.0000007563  -0.0000020023
       -0.0000033689  -0.0000021790   0.0000018232   0.0000025813   0.0000010636
       -0.0000006524  -0.0000002124   0.0000013565   0.0000013610   0.0000004247
       -0.0000011242  -0.0000004532  -0.0000006379   0.0000000948   0.0000001819
       -0.0000007003   0.0000013474  -0.0000003052   0.0000006648   0.0000016918
       -0.0000011948   0.0000001373  -0.0000012724  -0.0000001986   0.0000006218
        0.0000013997  -0.0000001802  -0.0000016676  -0.0000001139  -0.0000017459
       -0.0000354679   0.0000087843   0.0000276414   0.0000143407   0.0000320413
        0.0000232231  -0.0194466188   0.0152410548  -0.0045840695   0.0196226967
       -0.0146997697  -0.0002845684  -0.0027966200   0.0012306141  -0.0003532686
       -0.0016619857   0.0040858091  -0.0039640638   0.0019331812   0.0023319443
       -0.0006896330   0.0038409900   0.0126428926  -0.0256285397   0.0018228571
       -0.0012943800  -0.0000438844  -0.0020939114  -0.0059286301  -0.0059133851
        0.0016142478  -0.0118190235  -0.0257471323   0.0003294056  -0.0000707881
       -0.0021510369  -0.0001478862  -0.0000745752   0.0001978771   0.0002677134
        0.0001355075  -0.0024531118  -0.0000117918   0.0000064271   0.0000119368
       -0.0000021752   0.0000005365  -0.0000020022  -0.0000081651  -0.0000036035
        0.0000041002   0.0000070891   0.0000042500  -0.0000088218  -0.0000034017
        0.0000053957   0.0000005334  -0.0000030203  -0.0000063163  -0.0000118671
        0.0000081566   0.0000009035   0.0000051941  -0.0000019833   0.0000028394
        0.0000010953   0.0000061945   0.0000014395  -0.0000012048  -0.0000034628
       -0.0000049040  -0.0000062202  -0.0000022360   0.0000003763   0.0000091638
        0.0000040410   0.0000030316  -0.0000416468   0.0000042665   0.0000175447
       -0.0000090516   0.0000103978   0.0000031216  -0.0000022591   0.0000027216
       -0.0000017954   0.0000004183  -0.0000002838  -0.0000009591   0.0000012808
        0.0000000242  -0.0000001729   0.0000012171   0.0000005989  -0.0000000008
        0.0000006676   0.0000007814  -0.0000006985   0.0000001942  -0.0000002488
       -0.0000008214   0.0000007415   0.0000004703  -0.0000009136   0.0000010873
       -0.0000025738   0.0000076814   0.0000012587   0.0000022346   0.0000019704
       -0.0000155978
       -0.0022795220   0.0158397690  -0.0176213633  -0.0636735876  -0.0079827509
        0.0133140658   0.5251223218  -0.0104205091   0.0113901243   0.0005241118
       -0.0007365593   0.0032690507  -0.0069797559  -0.0176723257   0.0171947523
       -0.0009586564  -0.0004519974   0.0004108016   0.0005606588  -0.0000526814
       -0.0003480553   0.0005856915  -0.0000871132  -0.0000265029  -0.0006056614
       -0.0007972247  -0.0013136962  -0.0021569143  -0.0001437684   0.0005648374
       -0.0000707230   0.0001642739  -0.0001715400  -0.0000601495  -0.0000584729
       -0.0000010406   0.0000075089   0.0000291959   0.0000124230  -0.0000213196
        0.0000267954  -0.0000056843   0.0000019307  -0.0000188419  -0.0000055055
        0.0000002789  -0.0000192620   0.0000068994   0.0000161684  -0.0000046960
        0.0000020146  -0.0000135074   0.0000070302  -0.0000110175   0.0000239621
       -0.0000298215   0.0000189019  -0.0001935505   0.0000550680   0.0000983804
       -0.0004680402  -0.0004063311   0.0000327786   0.0003094644  -0.0000860245
        0.0000491516  -0.0001101091  -0.0000201441   0.0000021711   0.0000453751
       -0.0000374076   0.0000057911  -0.0001290825   0.0000207242  -0.0000141649
        0.0001602342  -0.0000777848   0.0000406879  -0.0000464493   0.0000829833
       -0.0000368901  -0.0000298727  -0.0000118595   0.0000047812  -0.0000022561
        0.0000156780  -0.0000051161  -0.0000103643  -0.0000021226   0.0000022134
        0.0000175801   0.0000157857  -0.0000030434  -0.0000156467  -0.0000063252
        0.0000037943  -0.0000008808  -0.0000044584  -0.0000004287  -0.0000011633
        0.0000027367   0.0000004330   0.0000004035   0.0000011846  -0.0000003510
        0.0000001422  -0.0000032813  -0.0000008361  -0.0000011571  -0.0000054262
       -0.0000007326   0.0000010950   0.0000002347  -0.0000010741  -0.0000037857
       -0.0000109866  -0.0000006803   0.0000173903  -0.0000105074  -0.0000023138
        0.0000781536   0.0000040039   0.0000126008  -0.0000882454   0.0000691481
       -0.0000247845  -0.0036483093   0.0037412706  -0.0016535625   0.0004526596
       -0.0001151619  -0.0006571329   0.0006691097   0.0011335504  -0.0009642167
       -0.1861056334   0.1181722483  -0.0160175047  -0.2155046402  -0.1052151965
       -0.0166653011  -0.0449793574   0.0057263987   0.0076571506   0.0001644148
       -0.0004147710   0.0004998990   0.0002445609   0.0002285179  -0.0006580148
        0.0003803858   0.0003394312   0.0004242821  -0.0010850237  -0.0007295510
        0.0008842878   0.0000107683   0.0000085021   0.0000088579  -0.0001266827
       -0.0000172621   0.0002988829  -0.0000025173   0.0000048666  -0.0000053067
        0.0000111641  -0.0000139794   0.0000058549  -0.0000108859   0.0000081058
       -0.0000038067  -0.0000002679   0.0000050536  -0.0000046812   0.0000129963
       -0.0000138381  -0.0000037647  -0.0000026877   0.0000043894   0.0000046336
       -0.0000104396   0.0000077340   0.0000008014   0.0000068641  -0.0000166084
        0.0000007264  -0.0000000512   0.0000057278  -0.0000028965  -0.0000013841
        0.0000054342   0.0000026692  -0.0000087393  -0.0000119256  -0.0000015971
       -0.0000151680  -0.0000123258   0.0000062108   0.0000059208   0.0000039228
       -0.0000083141  -0.0000070403   0.0000000987   0.0000068614   0.0000006428
        0.0000031332   0.0000042205  -0.0000003234  -0.0000015353   0.0000009822
       -0.0000000714  -0.0000003377  -0.0000003029  -0.0000020505   0.0000001871
        0.0000002969  -0.0000020134   0.0000017652   0.0000005115   0.0000014977
        0.0000004534  -0.0000004878  -0.0000004049   0.0000018048  -0.0000002153
       -0.0000090825  -0.0000013037  -0.0000111394   0.0000097185  -0.0000147269
        0.0000092826
        0.0037863738  -0.0162611674   0.0179877972  -0.0049573743  -0.1004656536
        0.0579938320  -0.0104205091   0.4992390423   0.0368236641   0.0015916636
        0.0065388942  -0.0105713457  -0.0105050039  -0.0152455891   0.0130275807
        0.0006372634  -0.0004847643   0.0008954829   0.0000973247  -0.0001788058
       -0.0004750330   0.0002696706  -0.0000381993  -0.0000642328  -0.0004357811
       -0.0007424888  -0.0009903813  -0.0016006934   0.0002904257   0.0003412683
       -0.0000789354   0.0000790111  -0.0001173789   0.0000077182  -0.0000561766
       -0.0000076209   0.0000126458   0.0000222238   0.0000097655  -0.0000075446
        0.0000095945   0.0000040191   0.0000018748   0.0000003731  -0.0000064722
        0.0000012883  -0.0000051529   0.0000025459   0.0000072455   0.0000016385
       -0.0000008677  -0.0000114639   0.0000003973  -0.0000080529  -0.0000121219
       -0.0000248179   0.0000058887  -0.0000707164  -0.0000207639   0.0000644608
       -0.0000850553  -0.0001404012   0.0000597387   0.0000092940   0.0000051079
        0.0000221243  -0.0000139235  -0.0000001632   0.0000013942  -0.0000125310
        0.0000081444  -0.0000119360  -0.0000088468  -0.0000016387   0.0000034444
        0.0000250795  -0.0000053998   0.0000065693  -0.0000061989   0.0000046019
       -0.0000024463  -0.0000051667  -0.0000005777  -0.0000022618  -0.0000009202
        0.0000028873  -0.0000002728  -0.0000027459  -0.0000001130   0.0000004888
        0.0000005067   0.0000018749   0.0000002972  -0.0000012146  -0.0000002938
        0.0000011245  -0.0000003895  -0.0000006532   0.0000006241   0.0000008546
        0.0000001395  -0.0000000313  -0.0000001557  -0.0000002332   0.0000001834
        0.0000000077   0.0000000896  -0.0000001631  -0.0000000462  -0.0000003950
       -0.0000003684   0.0000004705  -0.0000008673  -0.0000003416  -0.0000009227
       -0.0000017984   0.0000005404   0.0000014713  -0.0000020731  -0.0000011751
       -0.0000028343  -0.0000076255   0.0000025180  -0.0000085940  -0.0000008067
       -0.0000174046   0.0032672412  -0.0027217854   0.0011847943  -0.0004968363
        0.0003083880   0.0007837897  -0.0010149684   0.0005718205  -0.0002032460
        0.1181199984  -0.1409112917   0.0120331361  -0.1049021190  -0.1079681483
       -0.0113265782   0.0059045635  -0.1221470420  -0.1131677205  -0.0000862769
        0.0006750443  -0.0007301516   0.0003790774   0.0006085436  -0.0005685983
        0.0002865268  -0.0009285962  -0.0034846146   0.0003487075  -0.0000892005
        0.0001085270   0.0000229405  -0.0000103421   0.0000352978  -0.0000183328
        0.0000869349   0.0003353333  -0.0000044211   0.0000131024   0.0000077366
       -0.0000007774  -0.0000047677   0.0000007763  -0.0000029102   0.0000069171
        0.0000008598   0.0000012705   0.0000014704  -0.0000073206   0.0000002389
       -0.0000026574  -0.0000013546  -0.0000034039  -0.0000045499  -0.0000054274
        0.0000018834   0.0000047996   0.0000098018   0.0000013904  -0.0000046452
        0.0000013721   0.0000040797   0.0000028150  -0.0000006437  -0.0000018532
       -0.0000006614  -0.0000029993  -0.0000073305  -0.0000040325   0.0000007490
       -0.0000039514  -0.0000074114   0.0000077291   0.0000033358   0.0000055272
       -0.0000064851  -0.0000016231  -0.0000003701   0.0000025482   0.0000035072
       -0.0000004126   0.0000001671   0.0000003822  -0.0000018854   0.0000004430
       -0.0000000517  -0.0000005769   0.0000005684  -0.0000003492  -0.0000001052
        0.0000004231  -0.0000002794   0.0000000671   0.0000000223   0.0000000849
       -0.0000002413  -0.0000002961  -0.0000005439   0.0000006983  -0.0000001164