$hessian                                                                        
        0.0631961118  -0.0132584093   0.0319045379  -0.0446293713   0.0046700138
       -0.0087038822  -0.0251868617   0.0086345261  -0.0476232130   0.0065475069
        0.0009340255   0.0000848510   0.0023550760  -0.0030121589   0.0207987489
       -0.0011978695   0.0026396029   0.0016641139  -0.0006580810  -0.0007783734
        0.0003029936   0.0002389444   0.0004800092  -0.0005514994  -0.0001736223
       -0.0014541815   0.0003732762  -0.0002040705   0.0004691704  -0.0000612825
       -0.0000093029  -0.0001505640   0.0000967672  -0.0002670363   0.0000401545
       -0.0000010772   0.0001052109  -0.0001615015   0.0000942170  -0.0001791488
       -0.0001017025  -0.0000658987   0.0004069319   0.0000052438  -0.0000028181
       -0.0003733421  -0.0000120366   0.0000258420   0.0002275289  -0.0000127313
       -0.0000320820  -0.0001910906  -0.0000854408  -0.0000103853   0.0002860266
       -0.0000015780  -0.0000000727  -0.0002625602  -0.0000192819   0.0000071968
        0.0001453793  -0.0000310228   0.0000014676  -0.0001234356  -0.0000502361
       -0.0000026211   0.0001878809  -0.0000083556  -0.0000001539  -0.0001797338
        0.0000123514   0.0000071837   0.0000216223   0.0000567814  -0.0000042989
        0.0000127468  -0.0000209790   0.0000122747  -0.0000344107  -0.0000143346
        0.0000035802   0.0000225108  -0.0000577135   0.0000010527   0.0000266373
        0.0000572769  -0.0000036821  -0.0000608477   0.0000100091  -0.0000044488
        0.0000700365   0.0000174049  -0.0000092999   0.0000023085  -0.0001065512
       -0.0000030356   0.0000160596   0.0000690201  -0.0000052810  -0.0000106129
       -0.0000181865   0.0000067550  -0.0000015013   0.0000056295  -0.0000074785
       -0.0000042174  -0.0000000682  -0.0000048612  -0.0000037787   0.0000053850
        0.0000010426  -0.0000050744  -0.0000212645  -0.0000002036  -0.0001269368
        0.0000411037   0.0000064175   0.0001374630   0.0000540949   0.0000047828
       -0.0001805767   0.0000487749   0.0000125091   0.0001822940   0.0000695333
       -0.0000302293  -0.0002157089   0.0001092825  -0.0000590266   0.0001543071
        0.0000886433  -0.0000429342   0.0000912580   0.0001175035   0.0000285580
       -0.0000894139  -0.0000312484  -0.0000269655   0.0000556083  -0.0000176068
       -0.0000029554  -0.0000207040   0.0000298340  -0.0000064825   0.0000302475
        0.0000092986   0.0000020258  -0.0000148690  -0.0000231323   0.0000056005
       -0.0000044480   0.0000260083  -0.0000009410  -0.0000416842  -0.0000509606
        0.0000057731   0.0000432621   0.0000479941   0.0000095921  -0.0000472577
       -0.0000307425   0.0000088674   0.0000003033   0.0000516918  -0.0000020165
        0.0000041542  -0.0000078992  -0.0000003072   0.0000519600  -0.0000078571
        0.0000143597  -0.0000984363  -0.0000657663  -0.0000141501   0.0003113869
       -0.0001371771  -0.0000787253   0.0000651818   0.0000909167   0.0010226413
        0.0000366130   0.0001990087  -0.0000743506  -0.0002023380   0.0000814960
        0.0001604665   0.0000655535   0.0000611773   0.0000809922  -0.0000626072
        0.0000050610  -0.0000078538   0.0000223340   0.0000233972   0.0000518791
        0.0000140133   0.0000064190   0.0000536306   0.0000372655  -0.0000040908
        0.0000014623   0.0000011943  -0.0000105378  -0.0000089688   0.0000135285
       -0.0000051905  -0.0000096049  -0.0000009617   0.0000040888   0.0000018281
        0.0000049811   0.0000018382  -0.0000001450   0.0000052644  -0.0000020117
        0.0000011508   0.0000022316  -0.0000078497   0.0000002283   0.0000016245
        0.0000024186  -0.0000060270   0.0000003674   0.0000003979   0.0000031072
        0.0000019603  -0.0000040800  -0.0000007743   0.0000026228  -0.0000020242
       -0.0000032287   0.0000004563   0.0000031667   0.0000010645   0.0000004566
        0.0000001907   0.0000050181  -0.0000078092   0.0000065137   0.0000034420
        0.0000040895   0.0000027498   0.0000071753  -0.0000076973   0.0000014753
       -0.0000009692   0.0000090395   0.0000169872   0.0000088140   0.0000025189
       -0.0000006839   0.0000018346   0.0000017810   0.0000007346   0.0000010114
       -0.0000005020   0.0000060006   0.0000009834  -0.0000026075   0.0000044969
        0.0000000041   0.0000026000  -0.0000025295  -0.0000000018  -0.0000088799
        0.0000085830  -0.0000042631  -0.0000115291   0.0000041506  -0.0000025248
        0.0000171224   0.0000126939  -0.0000080205   0.0000059829   0.0000126411
       -0.0000330192  -0.0003486099   0.0004310892   0.0006309402
       -0.0132584093   0.0938517585  -0.0869559241   0.0010359307  -0.0577802117
        0.0475088527   0.0069481746   0.0068710671   0.0038257329   0.0013704708
       -0.0466691959   0.0450137209   0.0014811645   0.0045488718  -0.0046393053
        0.0012582310   0.0000636940  -0.0011800236  -0.0001919834   0.0004192086
       -0.0001581616   0.0001800393  -0.0000672799  -0.0002589039  -0.0005130750
        0.0004305741   0.0002168865   0.0001991199  -0.0002904513   0.0000447081
        0.0002564685   0.0001325272   0.0000437928  -0.0001637481   0.0000644491
       -0.0000437671   0.0000445236  -0.0000863342  -0.0000122017   0.0000940559
        0.0000345292  -0.0000382980   0.0000850488  -0.0000252624   0.0000301974
        0.0000316061  -0.0000043191   0.0000140682   0.0000103829   0.0000549940
       -0.0000210365   0.0000193576   0.0000151233  -0.0000008168  -0.0000313450
        0.0000023575   0.0000024587   0.0000369718   0.0000022000   0.0000029868
       -0.0000415177   0.0000231587   0.0000161816   0.0000441349   0.0000335352
        0.0000060830  -0.0000897143   0.0000035708  -0.0000081950   0.0000938284
       -0.0000239073  -0.0000009578   0.0000238169  -0.0000542912   0.0000151752
       -0.0000886527   0.0000457664  -0.0000143731   0.0000636291   0.0000085278
       -0.0000090614  -0.0000502827   0.0000855220  -0.0000025342  -0.0000416078
       -0.0000800655   0.0000067181   0.0000557254  -0.0000016655   0.0000076952
       -0.0000880006  -0.0000567819   0.0000092859   0.0000206044   0.0000814576
       -0.0000026541  -0.0000086867  -0.0000392789   0.0000059165   0.0000056517
        0.0000129194  -0.0000102035   0.0000019429  -0.0000032473   0.0000039777
        0.0000005330  -0.0000003860   0.0000019902   0.0000018610  -0.0000034877
       -0.0000006469   0.0000001018   0.0000146592  -0.0000005622   0.0000470734
       -0.0000273955  -0.0000162086  -0.0000488476  -0.0000306379  -0.0000191878
        0.0000051485  -0.0000270539  -0.0000037382  -0.0000014445  -0.0000263749
       -0.0000112124  -0.0000608194   0.0000172454  -0.0000233785   0.0001120689
        0.0000824626  -0.0000624108   0.0000023055   0.0000971217  -0.0000776131
       -0.0000565303  -0.0001326735   0.0000370391  -0.0000543999   0.0000283689
       -0.0000089989   0.0000014934  -0.0000043826  -0.0000013606   0.0000194779
        0.0000035787  -0.0000100497  -0.0000175452  -0.0000233738   0.0000020108
       -0.0000280956   0.0000348096  -0.0000071089   0.0000262190  -0.0000502871
        0.0000106718  -0.0000189314   0.0000655929  -0.0000238155  -0.0000235763
       -0.0000203185  -0.0000049668  -0.0000396195   0.0000251735   0.0000037121
        0.0000486402  -0.0000385807   0.0000054075  -0.0000435604  -0.0000317831
       -0.0000037042   0.0000398103   0.0000037730  -0.0000005136  -0.0004360527
        0.0002744192   0.0000166296   0.0007925223  -0.0012512930  -0.0018469625
        0.0001174656  -0.0000545384  -0.0002639260   0.0000707814  -0.0000406705
       -0.0000763578   0.0000525966   0.0000376210  -0.0000305475  -0.0000106450
       -0.0000202524   0.0000888566   0.0000051836  -0.0000244638   0.0000231141
        0.0000204698  -0.0000507283   0.0000223265  -0.0000065616  -0.0000127751
        0.0000055192   0.0000048764  -0.0000099164  -0.0000032741  -0.0000042363
       -0.0000022592   0.0000013878   0.0000008536  -0.0000019838  -0.0000027183
       -0.0000032301  -0.0000012118   0.0000006234  -0.0000033513   0.0000000901
       -0.0000017647   0.0000001895   0.0000042414   0.0000007694   0.0000022464
        0.0000065067   0.0000072796   0.0000001163  -0.0000017546   0.0000019848
       -0.0000004666   0.0000004737   0.0000039459  -0.0000011964  -0.0000007514
        0.0000047081   0.0000006647  -0.0000067471   0.0000011906   0.0000004073
        0.0000003737   0.0000031065   0.0000017213   0.0000053359   0.0000079870
       -0.0000031271   0.0000020783  -0.0000004958  -0.0000035496   0.0000143654
        0.0000021771  -0.0000069731  -0.0000057613   0.0000171687  -0.0000099526
       -0.0000011008   0.0000198261  -0.0000032441   0.0000064279   0.0000004878
        0.0000015635  -0.0000141166   0.0000009387   0.0000124715  -0.0000108291
        0.0000002616   0.0000150903  -0.0000004935  -0.0000001975   0.0000170408
       -0.0000068166   0.0000031737   0.0000240675   0.0000020174   0.0000041719
        0.0000143539   0.0000122681  -0.0000013447  -0.0000341676  -0.0000379776
        0.0000112804   0.0006668530  -0.0003693482  -0.0012247016
        0.0319045379  -0.0869559241   0.2939772174   0.0067987825   0.0311961707
       -0.2033174352  -0.0449607933   0.0052767873  -0.0347470467  -0.0001521198
        0.0414324094  -0.0109709364   0.0032882854   0.0125380984  -0.0419633007
        0.0033188323  -0.0070793292  -0.0028655812   0.0010854845   0.0021162814
       -0.0011671222  -0.0007970008  -0.0011524022   0.0016786237   0.0000950117
        0.0029643207  -0.0011246082   0.0004540924  -0.0009262285   0.0003879983
       -0.0002660710   0.0001951189  -0.0003481925   0.0006326798  -0.0000983993
        0.0000622212  -0.0003597179   0.0002152141  -0.0001771586   0.0003359477
        0.0003096065  -0.0000505614  -0.0008998538   0.0000381974   0.0000224641
        0.0008417908   0.0000068138  -0.0000651461  -0.0004298846   0.0002810196
       -0.0000187340   0.0003944493   0.0002057301   0.0000195575  -0.0006832112
       -0.0000225939   0.0000152179   0.0006238213   0.0000206873  -0.0000188324
       -0.0003082086   0.0001527812   0.0000409258   0.0002608871   0.0001195394
        0.0000131753  -0.0004292628   0.0000095736  -0.0000026382   0.0004069319
        0.0000233509  -0.0000142399  -0.0001054282  -0.0001484875  -0.0000007513
        0.0000146240   0.0000093181  -0.0000195204   0.0000508235   0.0000166060
        0.0000012565  -0.0000427960   0.0000896887   0.0000039964  -0.0000605265
       -0.0001022104   0.0000028227   0.0001036230  -0.0000107572   0.0000041063
       -0.0000956877   0.0000053020   0.0000136884  -0.0000379073   0.0001719944
        0.0000143394  -0.0000262029  -0.0001120959   0.0000075023   0.0000040107
        0.0000300230  -0.0000064192  -0.0000111513  -0.0000143253  -0.0000035339
       -0.0000072051   0.0000045421   0.0000048325  -0.0000055242  -0.0000177431
       -0.0000071099   0.0000020355   0.0000307759  -0.0000057020   0.0002607262
       -0.0001217724  -0.0000181009  -0.0003066484  -0.0001710322  -0.0000134726
        0.0004162007  -0.0002056700  -0.0000260729  -0.0004276896  -0.0002691377
        0.0000973577   0.0005443251  -0.0003055351   0.0001615789  -0.0004512810
       -0.0002476339   0.0001581472  -0.0000859213  -0.0002407733   0.0000098962
        0.0001697166   0.0002896477  -0.0000374676  -0.0000757295  -0.0000329770
        0.0000268168   0.0000553483   0.0000478093   0.0000027136  -0.0000795127
        0.0000052331   0.0000112060   0.0000549102   0.0001378237  -0.0000168802
        0.0000324238  -0.0001697088   0.0000320913   0.0000106396   0.0002323451
       -0.0000276916  -0.0000330290  -0.0002073656   0.0000119252   0.0000583413
        0.0001978123  -0.0000174347   0.0000904957  -0.0002055736   0.0000076742
       -0.0001751749  -0.0000018934   0.0000140285   0.0001648466  -0.0000481292
        0.0001296284  -0.0000252287   0.0000905665   0.0000214262  -0.0004131922
       -0.0000365324   0.0000981406  -0.0002481196   0.0021466903   0.0005552076
       -0.0004608730  -0.0003519736   0.0005041243   0.0004638270  -0.0002506369
       -0.0005072414  -0.0001770356  -0.0001515451  -0.0001469990  -0.0000233512
        0.0000885737  -0.0000792636   0.0000391360   0.0000746353  -0.0000067243
        0.0000228727   0.0000546310  -0.0000363412  -0.0000021229   0.0000249628
       -0.0000056171   0.0000120822   0.0000113743  -0.0000014909  -0.0000197782
        0.0000109998   0.0000147797  -0.0000001114  -0.0000086309   0.0000018443
       -0.0000156945  -0.0000073515   0.0000033730  -0.0000154002   0.0000014697
       -0.0000027205  -0.0000048052   0.0000087274  -0.0000041392   0.0000001552
       -0.0000189188   0.0000005915   0.0000044550  -0.0000023612  -0.0000096389
        0.0000016648   0.0000027701  -0.0000117936  -0.0000054970   0.0000072343
       -0.0000030163  -0.0000069330  -0.0000012202  -0.0000030336  -0.0000125891
       -0.0000042336  -0.0000151431   0.0000117017  -0.0000122685  -0.0000087087
       -0.0000186753  -0.0000179028  -0.0000110510   0.0000047498  -0.0000237800
        0.0000045784  -0.0000166855  -0.0000272622  -0.0000192752   0.0000119408
       -0.0000142517  -0.0000040127  -0.0000103351  -0.0000012401  -0.0000017234
        0.0000019391  -0.0000124214   0.0000011383   0.0000103354  -0.0000049806
       -0.0000000892   0.0000116991   0.0000075916  -0.0000072136   0.0000163992
       -0.0000024603  -0.0000042054   0.0000117900   0.0000143831  -0.0000148046
        0.0000030886   0.0000371733  -0.0000241036  -0.0000503434   0.0000200406
       -0.0000904863  -0.0002621517  -0.0011547753  -0.0000676861
       -0.0446293713   0.0010359307   0.0067987825   0.3860488534  -0.0360396505
       -0.0522876328  -0.1868161777  -0.0176472086  -0.0235490689  -0.0445722953
        0.0087988162   0.0034801515  -0.0990578125   0.0333700510   0.0418622505
       -0.0084050402  -0.0057734347   0.0172857067   0.0037277509   0.0018312076
        0.0031970009  -0.0020536198  -0.0042829438   0.0051880930   0.0058252873
        0.0088791645  -0.0042762183   0.0013618624  -0.0027406301   0.0003925073
       -0.0006393980   0.0005894782  -0.0006535053   0.0019721294  -0.0003316997
        0.0000163605  -0.0008878658   0.0008816376  -0.0002927565   0.0009939560
        0.0007733157   0.0004009017  -0.0025780426   0.0001971989  -0.0001039828
        0.0024797473   0.0001309470  -0.0001861321  -0.0013269306   0.0004523715
        0.0000432950   0.0012407543   0.0006456952   0.0000453486  -0.0018961889
        0.0000291629   0.0000271705   0.0017464830   0.0000803926  -0.0000526219
       -0.0008668243   0.0003718529   0.0000436270   0.0007866771   0.0003725694
        0.0000408411  -0.0012178229   0.0000442048   0.0000006462   0.0011637951
        0.0000083741  -0.0000358852  -0.0002242220  -0.0004232601   0.0000014866
       -0.0000178595   0.0000744331  -0.0000575934   0.0001814512   0.0000639080
       -0.0000205582  -0.0001363214   0.0003114545  -0.0000050753  -0.0001769088
       -0.0003181914   0.0000150764   0.0003443239  -0.0000303991   0.0000209461
       -0.0003496890  -0.0000424878   0.0000567143  -0.0000614876   0.0005962367
        0.0000190533  -0.0000807900  -0.0003613685   0.0000292219   0.0000538097
        0.0001047630  -0.0000324585   0.0000016871  -0.0000307200   0.0000463835
        0.0000249705   0.0000085778   0.0000188357   0.0000116188  -0.0000217623
       -0.0000048671   0.0000205376   0.0001132118  -0.0000033784   0.0007860960
       -0.0003295915  -0.0000704235  -0.0008622791  -0.0004123644  -0.0000464629
        0.0011560232  -0.0004534865  -0.0000968638  -0.0011370297  -0.0005640397
        0.0002043227   0.0015399109  -0.0007748734   0.0003624366  -0.0011938358
       -0.0005548633   0.0002513710  -0.0003109446  -0.0006360373  -0.0001745287
        0.0003742853   0.0004994567   0.0000644958  -0.0002310557  -0.0000434637
        0.0000379425   0.0001442240   0.0000292941  -0.0000062352  -0.0001977399
       -0.0000345229  -0.0000073460   0.0001314242   0.0002822165  -0.0000491147
        0.0000792851  -0.0003735922   0.0000434459   0.0001168621   0.0005491783
       -0.0000385135  -0.0001371019  -0.0005426317  -0.0000016700   0.0002295433
        0.0004056304  -0.0000621610   0.0001730407  -0.0004890872   0.0000317481
       -0.0003440610   0.0000522354   0.0000152045   0.0001916610  -0.0000146926
        0.0000191259   0.0001649063   0.0002939629   0.0000685624  -0.0012837104
        0.0002457061   0.0004822308  -0.0089738711   0.0137039038   0.0049693913
       -0.0006594902  -0.0002466015  -0.0013652720   0.0000238650   0.0000974223
       -0.0001064360  -0.0008880419  -0.0005679801  -0.0007395860   0.0003713422
       -0.0000654075  -0.0001880972  -0.0001798600  -0.0001119953  -0.0002093176
       -0.0000785886  -0.0000825935  -0.0001771504  -0.0001718569  -0.0000048912
        0.0000188171  -0.0000051953   0.0000213868   0.0000477628  -0.0000682196
        0.0000191030   0.0000586803   0.0000041688  -0.0000267132  -0.0000074375
       -0.0000322513  -0.0000117220   0.0000020201  -0.0000313489   0.0000122074
       -0.0000047559  -0.0000104624   0.0000434189   0.0000012448  -0.0000004815
       -0.0000243218   0.0000276455   0.0000058155   0.0000016531  -0.0000190923
       -0.0000058747   0.0000279630   0.0000097986  -0.0000109145   0.0000149050
        0.0000257685  -0.0000052693  -0.0000197738   0.0000041555  -0.0000183531
       -0.0000097991  -0.0000345085   0.0000365813  -0.0000490463  -0.0000259255
       -0.0000350976  -0.0000530453  -0.0000326916   0.0000287367  -0.0000597062
        0.0000256506  -0.0000185541  -0.0000914481  -0.0000296643   0.0000155866
       -0.0000157268   0.0000073167  -0.0000232583  -0.0000187087   0.0000017975
        0.0000031784  -0.0000375912  -0.0000036023   0.0000230808  -0.0000236972
       -0.0000009137   0.0000174940   0.0000111218  -0.0000034159   0.0000467880
       -0.0000325305   0.0000187857   0.0000485673  -0.0000074005   0.0000010626
       -0.0000492766  -0.0000088988   0.0000399106   0.0000507757   0.0000085547
        0.0001511073  -0.0007902452  -0.0012476748  -0.0009592818
        0.0046700138  -0.0577802117   0.0311961707  -0.0360396505   0.4039072627
        0.0226680561  -0.0103315943  -0.0443600117  -0.0027470096  -0.0064599786
       -0.2079389801  -0.0151268312   0.0333574763  -0.0780763610  -0.0302276998
       -0.0070063578   0.0085868092   0.0005697666   0.0013507551  -0.0009691148
        0.0039110444   0.0007166088   0.0015593664  -0.0018708194   0.0032422623
       -0.0056746167   0.0045415693   0.0000687522   0.0006575692  -0.0006554753
        0.0003911534  -0.0003656196   0.0001470957  -0.0003990274  -0.0000262140
        0.0000712218   0.0004387198  -0.0001586127   0.0004402042  -0.0007049123
       -0.0003734032   0.0001947960   0.0010270665  -0.0001803462   0.0000069808
       -0.0012366490   0.0000245856   0.0000464978   0.0005880902  -0.0004778782
        0.0001698542  -0.0006293159  -0.0002135902  -0.0000213436   0.0010286123
        0.0000284744  -0.0000411879  -0.0009577344  -0.0000175656   0.0000205613
        0.0004996312  -0.0002047808  -0.0000314515  -0.0004287090  -0.0001545812
        0.0000150931   0.0007332388  -0.0000138008   0.0000138506  -0.0007539990
        0.0000849722   0.0000201904   0.0000973316   0.0002379250  -0.0000103528
        0.0001070346  -0.0000946546   0.0000461167  -0.0001837159  -0.0000739093
        0.0000213356   0.0001343369  -0.0002936807   0.0000042304   0.0001454301
        0.0002984806  -0.0000123868  -0.0002589583   0.0000461472  -0.0000152916
        0.0002976174   0.0000818855  -0.0000464796   0.0000260216  -0.0004387241
        0.0000035016   0.0000659780   0.0003077365  -0.0000334271  -0.0000179954
       -0.0000797368   0.0000344300   0.0000227274   0.0000306488  -0.0000225621
        0.0000051175   0.0000070343  -0.0000137513   0.0000023700   0.0000324183
        0.0000161615  -0.0000064482  -0.0000882014   0.0000177046  -0.0004347724
        0.0001539782   0.0000289743   0.0005163147   0.0002349272   0.0000288014
       -0.0005714118   0.0002719217   0.0000639564   0.0006194745   0.0003403228
       -0.0000999006  -0.0006137537   0.0003570869  -0.0001005064   0.0004396684
        0.0002209462  -0.0000501947  -0.0000158724   0.0002107131   0.0002071760
       -0.0000460540  -0.0003926631   0.0000104655   0.0000489354   0.0001327879
       -0.0000102056  -0.0000677491  -0.0001037819   0.0000237837   0.0000426803
       -0.0000160763   0.0000058434  -0.0000578033  -0.0001983905   0.0000335792
       -0.0000359931   0.0002876830  -0.0000435394   0.0000067068  -0.0003021386
        0.0000202160   0.0000164509   0.0002821791   0.0000073661  -0.0000750569
       -0.0003044774   0.0000353795  -0.0001429433   0.0002615225  -0.0000193490
        0.0002905904   0.0000830280  -0.0000326016  -0.0002845082   0.0000123189
       -0.0000949864   0.0000604655  -0.0001212215  -0.0000221585   0.0007997009
       -0.0002803730  -0.0003516197   0.0184186495  -0.0176229193  -0.0140663127
       -0.0012550359  -0.0006702706   0.0015950270  -0.0005859049   0.0003500523
        0.0008611141  -0.0004539083  -0.0002224722  -0.0001110053   0.0001667566
        0.0000953004  -0.0001869688  -0.0001126485   0.0000608882  -0.0001526291
       -0.0001721465   0.0001080266  -0.0000885538   0.0000521760  -0.0000154103
       -0.0000191280  -0.0000512831   0.0000015757  -0.0000178642   0.0000443937
       -0.0000248963  -0.0000438591  -0.0000035201   0.0000279183   0.0000034623
        0.0000400968   0.0000186055  -0.0000038644   0.0000398870  -0.0000063671
        0.0000060510   0.0000092621  -0.0000345437   0.0000013916  -0.0000038418
        0.0000211447  -0.0000264399  -0.0000094133   0.0000122191   0.0000133771
        0.0000019190  -0.0000147876  -0.0000001178   0.0000123519  -0.0000091340
       -0.0000180359   0.0000050204   0.0000194398  -0.0000022253   0.0000254388
        0.0000193993   0.0000214994  -0.0000342162   0.0000168375   0.0000030138
        0.0000446942   0.0000428483   0.0000081529  -0.0000168667   0.0000212118
       -0.0000234723   0.0000187424   0.0000493975  -0.0000506875   0.0000045811
        0.0000417658  -0.0000728365   0.0000233817  -0.0000163762  -0.0000035230
        0.0000064124   0.0000340100  -0.0000022973  -0.0000283747   0.0000261476
       -0.0000006489  -0.0000389881  -0.0000033821   0.0000051525  -0.0000344109
        0.0000213782  -0.0000070936  -0.0000563964   0.0000009129   0.0000041950
       -0.0000569985  -0.0000411650   0.0000083586   0.0000805381   0.0000893993
        0.0000142181  -0.0001767175  -0.0013637684  -0.0005882934
       -0.0087038822   0.0475088527  -0.2033174352  -0.0522876328   0.0226680561
        0.4288255690  -0.0124327084  -0.0025797245  -0.0464110819   0.0014152474
       -0.0313829140  -0.0515489177   0.0514486085  -0.0339488112  -0.1036568302
        0.0167832434  -0.0012990503  -0.0248141682   0.0043623224   0.0020806594
       -0.0024977020   0.0011867582   0.0035758848  -0.0036152975   0.0023018778
       -0.0020355757   0.0057996665  -0.0015731806   0.0027926400  -0.0003656727
        0.0005042128  -0.0004464997   0.0007883304  -0.0011817633   0.0001096970
       -0.0000551467   0.0006731442  -0.0005534467   0.0006102430  -0.0008208092
       -0.0007327933   0.0001698029   0.0020388942  -0.0000785460  -0.0000709454
       -0.0020040667   0.0000221711   0.0001152938   0.0010223717  -0.0006245780
        0.0000168582  -0.0009628043  -0.0004737270  -0.0000691998   0.0016451965
        0.0000481179  -0.0000371111  -0.0015060808  -0.0000517576   0.0000488966
        0.0007600661  -0.0003284746  -0.0000844304  -0.0006482201  -0.0002869516
       -0.0000281102   0.0010455294  -0.0000108876   0.0000070375  -0.0009916906
       -0.0000269943   0.0000454162   0.0002372388   0.0003807845  -0.0000190757
       -0.0000077343  -0.0000511754   0.0000396191  -0.0001351678  -0.0000509609
        0.0000024960   0.0001167993  -0.0002451944  -0.0000007769   0.0001538184
        0.0002740064  -0.0000212392  -0.0002704693   0.0000308515  -0.0000206014
        0.0002622220   0.0000093170  -0.0000299350   0.0000903373  -0.0004562552
       -0.0000299972   0.0000673156   0.0002899727  -0.0000218487  -0.0000130459
       -0.0000721707   0.0000294081   0.0000129634   0.0000314607   0.0000048560
        0.0000158164  -0.0000062900  -0.0000024211   0.0000044857   0.0000403516
        0.0000216779  -0.0000062116  -0.0000857590   0.0000253091  -0.0006478978
        0.0002710628   0.0000499535   0.0007556303   0.0003925197   0.0000322776
       -0.0009913930   0.0004681357   0.0000783005   0.0010288618   0.0005693963
       -0.0001966894  -0.0011508464   0.0006552129  -0.0003164640   0.0009011281
        0.0005087900  -0.0003129054   0.0001143128   0.0005803911  -0.0000710090
       -0.0003323016  -0.0005200872   0.0000293567   0.0001236492   0.0001528226
       -0.0000878257  -0.0001362084  -0.0001242854  -0.0000125965   0.0001578536
       -0.0000002016   0.0000012370  -0.0001224296  -0.0003208599   0.0000349975
       -0.0000688019   0.0004098832  -0.0000680136  -0.0000250089  -0.0005316860
        0.0000175791   0.0000770619   0.0004845402   0.0000329713  -0.0001546741
       -0.0004364197   0.0000617977  -0.0002135537   0.0004043496  -0.0000374757
        0.0003856029   0.0000110380  -0.0000420820  -0.0003471235   0.0000204458
       -0.0002578022  -0.0000616125  -0.0002428127  -0.0000555528   0.0011319303
        0.0001029535  -0.0002530178  -0.0009140590  -0.0076581341   0.0028182402
       -0.0004046462  -0.0004512988  -0.0005689863   0.0004046574  -0.0003438522
       -0.0004967452  -0.0005726385  -0.0000229125  -0.0002381220   0.0002093257
       -0.0000194313  -0.0000692138  -0.0001737790  -0.0000848443  -0.0000331406
       -0.0000774314  -0.0000714037   0.0001362033   0.0000320146  -0.0000537427
        0.0000139656  -0.0000304238  -0.0000297840  -0.0000019785   0.0000524566
       -0.0000293951  -0.0000414954   0.0000001928   0.0000295135  -0.0000049515
        0.0000401576   0.0000185702  -0.0000093354   0.0000391467  -0.0000065976
        0.0000062407   0.0000077298  -0.0000317525   0.0000113094  -0.0000074561
        0.0000074526  -0.0000158379  -0.0000102815   0.0000075900   0.0000216666
       -0.0000047196  -0.0000074851   0.0000260394   0.0000139377  -0.0000186994
        0.0000021580   0.0000135421   0.0000235696   0.0000022332   0.0000225210
        0.0000193725   0.0000266738  -0.0000334038   0.0000235937   0.0000178027
        0.0000499500   0.0000573044   0.0000216113  -0.0000231732   0.0000730662
       -0.0000181190   0.0000532700   0.0001116113  -0.0000042417  -0.0000248300
        0.0000906270  -0.0000386078   0.0000307086   0.0000085122   0.0000011747
       -0.0000000589   0.0000356384  -0.0000066268  -0.0000250702   0.0000186975
       -0.0000055401  -0.0000357894  -0.0000117325   0.0000133739  -0.0000427057
        0.0000181517   0.0000047301  -0.0000477769  -0.0000078111   0.0000330468
       -0.0000169641  -0.0000488618   0.0000482016   0.0000902169   0.0000302261
        0.0001401346  -0.0016418016   0.0014347671  -0.0002514368
       -0.0251868617   0.0069481746  -0.0449607933  -0.1868161777  -0.0103315943
       -0.0124327084   0.2830060837   0.0449812220   0.0626431570  -0.0239010373
       -0.0443846637  -0.0101812671  -0.0462576673   0.0009984924   0.0051929749
       -0.0007920705   0.0042422826  -0.0034373961   0.0017684774   0.0004185310
        0.0013670391   0.0009645601   0.0017153037  -0.0024732644   0.0011274444
       -0.0012102585   0.0039049123  -0.0006949145   0.0011739819   0.0000730878
        0.0002984378  -0.0004200558   0.0002988111  -0.0009718257   0.0000791996
        0.0000289862   0.0004304008  -0.0004056958   0.0001388137  -0.0003780702
       -0.0004466468  -0.0002278574   0.0010951192  -0.0000693866   0.0000454998
       -0.0010479806  -0.0000719786   0.0000852355   0.0005747216  -0.0002393655
       -0.0000369213  -0.0005385917  -0.0002829001  -0.0000209886   0.0008091509
       -0.0000332065  -0.0000090009  -0.0007398653  -0.0000291249   0.0000233961
        0.0003492967  -0.0001644927  -0.0000121559  -0.0003309285  -0.0001493826
       -0.0000152210   0.0005029993  -0.0000225503  -0.0000056484  -0.0004812157
       -0.0000092458   0.0000170675   0.0000985662   0.0001707910   0.0000034058
       -0.0000103144  -0.0000218619   0.0000215425  -0.0000782452  -0.0000322355
        0.0000085006   0.0000517949  -0.0001212095   0.0000035743   0.0000676680
        0.0001201666  -0.0000070526  -0.0001492414   0.0000169876  -0.0000078678
        0.0001242625   0.0000032382  -0.0000224602   0.0000328278  -0.0002334090
       -0.0000065754   0.0000331134   0.0001488003  -0.0000115510  -0.0000262904
       -0.0000429565   0.0000117429  -0.0000056092   0.0000129170  -0.0000227050
       -0.0000156317  -0.0000028727  -0.0000092163  -0.0000094456   0.0000047208
        0.0000008733  -0.0000116041  -0.0000471903  -0.0000011996  -0.0003201118
        0.0001281026   0.0000253622   0.0003511444   0.0001572943   0.0000123356
       -0.0004759336   0.0001877007   0.0000405253   0.0004661749   0.0002464639
       -0.0000871835  -0.0006480902   0.0003318124  -0.0001504469   0.0005806841
        0.0002954474  -0.0001374888   0.0000449929   0.0004253140   0.0000230407
       -0.0001389975  -0.0002170406  -0.0000620197   0.0001152013   0.0000211938
       -0.0000239191  -0.0000730675  -0.0000195365   0.0000003925   0.0000780180
        0.0000197059   0.0000064012  -0.0000555425  -0.0001234894   0.0000220460
       -0.0000438633   0.0001797612  -0.0000221605  -0.0000429464  -0.0002448874
        0.0000136068   0.0000545076   0.0002216271   0.0000077705  -0.0000950332
       -0.0002030579   0.0000282904  -0.0001043797   0.0002492389  -0.0000208260
        0.0001470804   0.0000047634  -0.0000299250  -0.0001671154   0.0000614309