65
 energy: -105.612667569616 gnorm: 0.000094440646 xtb: 6.7.1 (edcfbbe)
C           -6.77456405843697        0.91077571734312        2.04542663745153
C           -5.42391285282259        0.75363500082782        1.34646116896065
C           -4.33320484529540        0.65443183865929        2.43311968822737
C           -5.10684248795397        1.92169673970779        0.42709002390203
C           -5.79322919018763        3.12654879718898        0.42277204371772
C           -5.45416167536079        4.13547645023221       -0.46385052443474
C           -4.43906198547099        3.94353633307459       -1.38442989471550
C           -3.74676062426658        2.74665180356577       -1.40314162441833
C           -4.05696082273723        1.75449309640485       -0.48155903668049
N           -3.39787285240185        0.50430956546023       -0.50391609502023
C           -2.03934633671028        0.36054830683956       -0.39490676338689
C           -1.19133855118685        1.48388770017327       -0.31453841106754
C            0.16218723441960        1.32015683490510       -0.21557443869858
C            0.74989009156846        0.04672801221964       -0.17499039672345
C           -0.08421902205137       -1.09446203030803       -0.18128962030278
C           -1.45689469889506       -0.90724324111443       -0.27817899455411
C            0.51028239351129       -2.42384779872397       -0.08603424160423
C           -0.25479613847320       -3.59530756497917       -0.07497499603909
C            0.33345336178650       -4.83981064039650        0.01087487492335
C            1.71589356861153       -4.96371937852580        0.08837031954202
C            2.49514087813419       -3.82991672886687        0.07912250847407
C            1.91138061575184       -2.56137475307773       -0.00636610982033
C            2.76207711705592       -1.39285266843476       -0.01177562583140
N            4.06664376778623       -1.55236320912618        0.06204166308960
C            4.84056180082218       -0.45168438892123        0.06151195672554
C            6.23739864200936       -0.58717305084117        0.14125691595626
C            7.03853807271419        0.53347040130768        0.14442143098034
C            8.44251073884058        0.40632119112279        0.22596657286594
N            9.58218896030825        0.29172385175351        0.29256972622431
C            6.45627942157089        1.83424340097400        0.06699514830507
C            7.29823416386103        2.96951120818964        0.07338995771115
N            7.97169916052444        3.89798773555431        0.07681161548828
C            5.09122116602477        1.98448572817693       -0.01211189231140
C            4.25616780530070        0.84875158754899       -0.01655385689094
N            2.92768351038217        1.00492573352456       -0.09436007741839
C            2.17166673619621       -0.08387604507040       -0.09377275422133
C           -4.30952823404156       -0.57403030868001       -0.44395022891435
C           -4.22312277680693       -1.63871592698141       -1.33271505555065
C           -5.15137777086305       -2.66206477563265       -1.27310269438136
C           -6.17770154953006       -2.60499892482640       -0.34660999620438
C           -6.29125460779975       -1.51742374969746        0.50380079640702
C           -5.36589055096668       -0.48513243307382        0.46812577812181
H           -6.95828729862267        0.06219397210640        2.69940902071077
H           -7.58355694695682        0.98468710027187        1.32208970888346
H           -6.77167265402020        1.80184576496826        2.66781904071909
H           -3.34124799045525        0.53906656755344        2.00504761710672
H           -4.33850196487546        1.55560775140712        3.04267493221277
H           -4.52997028619607       -0.20195638090129        3.07471431175644
H           -6.60384042439151        3.29398025151040        1.11270563954971
H           -5.99737719560113        5.06844946251398       -0.44460304831271
H           -4.19278815206436        4.71733329669722       -2.09602984292447
H           -2.97810479609366        2.57219139599134       -2.14115647043150
H           -1.60779318279085        2.47764211522644       -0.30548767795067
H            0.81552163152195        2.17667754878244       -0.15978437750257
H           -2.10902750031445       -1.76155725562003       -0.24110412362005
H           -1.32966170332553       -3.54298423201490       -0.13232935644142
H           -0.28726179838617       -5.72353533292411        0.01786490313148
H            2.17319438709056       -5.93918039395791        0.15502863858125
H            3.57081154144500       -3.88725736870525        0.13746095820031
H            6.66485802639160       -1.57671522447763        0.20010211767280
H            4.64065290287350        2.96365075137347       -0.07116591806561
H           -3.44182624195213       -1.65252513961344       -2.07821442913536
H           -5.07907247050869       -3.49284253060349       -1.95893875379683
H           -6.90435527098173       -3.40196141661567       -0.29473310220727
H           -7.11489569481011       -1.48571670207541        1.19774409418062
