$hessian                                                                        
        0.4695948779   0.0065442272   0.0350891049  -0.1608969733   0.0110729847
        0.0496662279  -0.0307288083   0.0034745426   0.0048232805  -0.0085408462
       -0.0030115052   0.0075475969  -0.0000052513   0.0007833833  -0.0002903358
        0.0000452207   0.0001117095   0.0000923966  -0.0000569178   0.0000451168
        0.0000633725  -0.0003139426   0.0000249005   0.0004727796   0.0001520839
       -0.0010646316   0.0002373694   0.0006607142   0.0000166561  -0.0002196889
       -0.0004652498   0.0000648360  -0.0000331201   0.0001934910   0.0000480677
        0.0000259196  -0.0000794434   0.0000257231  -0.0000008336   0.0001177497
       -0.0000179327   0.0000084087  -0.0000818820  -0.0000108341  -0.0000022908
        0.0001742692  -0.0001066059   0.0000377585   0.0000107627  -0.0000104555
        0.0000024535   0.0000278229  -0.0000023010   0.0000048764   0.0000023021
       -0.0000122026  -0.0000001190  -0.0000060053   0.0000002352   0.0000024578
       -0.0000099616   0.0000099598  -0.0000003712  -0.0000062220  -0.0000082344
        0.0000027949   0.0000042588   0.0000497790  -0.0000054180  -0.0000485670
       -0.0000335208   0.0000048995   0.0000485894   0.0000349330   0.0000000134
       -0.0000427163  -0.0000137811   0.0000026739   0.0000180607   0.0000276797
        0.0000008560   0.0000000787   0.0000008162   0.0000032421  -0.0000062759
       -0.0000003970   0.0000049110   0.0000074220  -0.0000163328   0.0000055259
        0.0000075195   0.0000068585   0.0000018932  -0.0000093359  -0.0000100826
        0.0000031561   0.0000033331  -0.0000044986   0.0000010749  -0.0000059439
       -0.0000127144   0.0000006327   0.0000303102   0.0000651821   0.0000053516
       -0.0000871197  -0.0000759815  -0.0000055224   0.0002110230   0.0001518241
       -0.0002620758  -0.0001740442   0.0000677779   0.0002335832  -0.0000381222
       -0.0000403741   0.0000317661   0.0001194929   0.0000417722   0.0000543376
       -0.0002048968  -0.0009936661  -0.0001957852  -0.0034366934   0.0040808351
        0.0048497132  -0.0484098675  -0.0301628541   0.0217812279  -0.1723822115
        0.0115946877  -0.1194117229  -0.0424497391  -0.0027939056  -0.0032271979
       -0.0042084441   0.0004451799  -0.0031776526   0.0004962025   0.0003766569
        0.0011861688   0.0005485088  -0.0003729356   0.0011558958  -0.0000068920
       -0.0001319473   0.0000555579  -0.0000107188   0.0000158773  -0.0000327234
        0.0000153929   0.0000048602  -0.0000623359   0.0000064097  -0.0000897992
        0.0000087956  -0.0000046723   0.0000439210  -0.0000023139  -0.0000076785
        0.0000052794   0.0000024892  -0.0000282577  -0.0000248324  -0.0000079125
       -0.0000098823  -0.0000117028  -0.0000065002  -0.0000006890   0.0000083359
       -0.0000006220  -0.0000078481   0.0000085520   0.0000002633  -0.0000070644
        0.0000063631   0.0000005428  -0.0000013568   0.0000018446   0.0000022411
        0.0000031536   0.0000000474   0.0000011869   0.0000517807   0.0000335339
       -0.0000581518   0.0000418259  -0.0000258408  -0.0000767636  -0.0000125308
       -0.0000075171  -0.0000345216   0.0002004155  -0.0002275524  -0.0003608182
        0.0065442272   0.5238213369  -0.0039921158   0.0110864980  -0.0673212395
       -0.0056696735   0.0031066187   0.0003516789  -0.0004376632  -0.0192126794
        0.0007786905   0.0110782319  -0.0000850470  -0.0011293377  -0.0002812645
       -0.0002974069   0.0007893139   0.0001517259  -0.0001332740  -0.0000313670
        0.0001611808  -0.0005731222   0.0002497552   0.0010481444  -0.0000775101
       -0.0039073732   0.0022642142   0.0000004071   0.0008171673   0.0000144588
        0.0000740998   0.0000378917   0.0000084551  -0.0000100265  -0.0000554447
       -0.0000398634   0.0000544556   0.0000026529  -0.0000020068  -0.0000096770
        0.0000367397  -0.0000004798  -0.0000354782   0.0000293751   0.0000004484
       -0.0000453368  -0.0000286530   0.0000352706  -0.0000040251  -0.0000131950
       -0.0000018982  -0.0000299937   0.0000112157   0.0000110234   0.0000075505
       -0.0000021598  -0.0000008472   0.0000057528  -0.0000021464   0.0000009561
        0.0000093081  -0.0000073770  -0.0000014067   0.0000011085   0.0000180389
        0.0000016061  -0.0000094578  -0.0000244111  -0.0000023273   0.0000080267
        0.0000080063   0.0000034259  -0.0000002654  -0.0000005884  -0.0000030027
       -0.0000019839   0.0000004207  -0.0000001484   0.0000010385   0.0000012517
       -0.0000024158  -0.0000007830  -0.0000011738  -0.0000006379   0.0000031785
        0.0000023217  -0.0000002237   0.0000107204   0.0000038289   0.0000006127
       -0.0000045423  -0.0000088812   0.0000001105  -0.0000017046   0.0000082065
       -0.0000009087  -0.0000118944  -0.0000081963  -0.0000014851   0.0000205903
        0.0000038030   0.0000045517  -0.0000149126  -0.0000021268  -0.0000056866
        0.0000116632   0.0000274462   0.0000024446  -0.0008157582  -0.0041517181
       -0.0021661494   0.0006631167   0.0000485080  -0.0011664054   0.0001439276
       -0.0000362718  -0.0001647547   0.0004645692   0.0007281219  -0.0002007802
       -0.0001171100  -0.0009982697   0.0003472422   0.0206548775  -0.0049360536
       -0.0127379421  -0.0299289445  -0.1917188295   0.1142172491   0.0115933176
       -0.0449794552   0.0108969724  -0.0030377454  -0.2061125659  -0.1135368010
        0.0004334354   0.0004243621   0.0003013392  -0.0007101092   0.0004022993
        0.0001145824   0.0006564366   0.0003143214  -0.0003570723  -0.0011799576
       -0.0013626345   0.0019679268  -0.0000041123   0.0000178778   0.0000144490
       -0.0001414847  -0.0000482645   0.0000758254  -0.0001516913  -0.0002139916
        0.0003061808   0.0000711813   0.0000417077   0.0000199235   0.0000088468
        0.0000044870   0.0000014248  -0.0000629120   0.0000628585  -0.0000217291
       -0.0000049470   0.0000124744  -0.0000053798  -0.0000010329   0.0000031261
        0.0000007659   0.0000051123   0.0000005690   0.0000015849   0.0000039514
       -0.0000038113   0.0000003286  -0.0000009049   0.0000013964   0.0000002418
        0.0000013118  -0.0000000327  -0.0000003427   0.0000972853  -0.0002629067
       -0.0003017172   0.0001222587  -0.0000771329  -0.0000611811   0.0000106235
        0.0000239758  -0.0000050172   0.0008403351  -0.0016396186  -0.0018835706
        0.0350891049  -0.0039921158   0.5141239874   0.0513825345  -0.0058713790
       -0.0862113329  -0.0163130680   0.0018359049   0.0045356910   0.0171417177
        0.0029782954  -0.0114514957   0.0001384650   0.0002447471  -0.0007527222
        0.0002867427  -0.0004180835  -0.0000673007   0.0001904724  -0.0000957921
       -0.0001346386   0.0005942928   0.0000495009  -0.0008400223   0.0006102557
        0.0030240878  -0.0009965910   0.0000177402  -0.0000025740   0.0003878884
       -0.0004365212   0.0000692170  -0.0000115455   0.0001244088   0.0000943912
        0.0000451756  -0.0000597947   0.0000483846  -0.0000049182   0.0001575450
       -0.0000288742   0.0000110962  -0.0000726954  -0.0000191899  -0.0000107051
        0.0001061449  -0.0001519651   0.0000596240   0.0000147204  -0.0000019170
       -0.0000000976  -0.0000103095  -0.0000014165   0.0000034568   0.0000065334
        0.0000089138  -0.0000013966  -0.0000029580   0.0000017879   0.0000073279
       -0.0000046083   0.0000003959   0.0000009314  -0.0000059422  -0.0000059863
        0.0000034249   0.0000219277  -0.0000068613  -0.0000051266  -0.0000218122
       -0.0000420065   0.0000067499   0.0000564254   0.0000264069  -0.0000071081
       -0.0000576979  -0.0000147723   0.0000027629   0.0000506901   0.0000282439
       -0.0000052168  -0.0000668185   0.0000087123  -0.0000036194   0.0000360981
       -0.0000041921   0.0000006481   0.0000139734   0.0000057902   0.0000037805
       -0.0000228270  -0.0000347246  -0.0000050906   0.0000132879   0.0000204741
       -0.0000019865   0.0000032891  -0.0000046832  -0.0000061536  -0.0000321708
        0.0000030585  -0.0000048680   0.0000664715   0.0000628578   0.0000055602
       -0.0001395092  -0.0000337969  -0.0000104536  -0.0000242714  -0.0029857672
       -0.0008104658   0.0005434070  -0.0002073429  -0.0007985311   0.0002033395
        0.0000514518  -0.0001308005   0.0003510065   0.0003199874  -0.0000702304
        0.0000843815  -0.0002372683  -0.0007562414   0.0154292931  -0.0068113127
       -0.0108853591   0.0215082558   0.1140616526  -0.1291984743  -0.1191303556
        0.0108638875  -0.1537072765  -0.0034596064  -0.1133288213  -0.1208277007
       -0.0039215113   0.0003839043  -0.0020157107  -0.0008067894   0.0005134369
        0.0006566175  -0.0009384417  -0.0003170909   0.0006652351   0.0006744311
        0.0003499624  -0.0001785177   0.0000034617  -0.0000130134   0.0000165034
        0.0000372689   0.0000140432  -0.0000408145   0.0000434260   0.0001553446
       -0.0002222694  -0.0000380850  -0.0000143719  -0.0000173294   0.0000091182
        0.0000023817  -0.0000021883  -0.0000372888   0.0000195672  -0.0000177162
       -0.0000077155   0.0000065895  -0.0000048302  -0.0000028076  -0.0000031788
        0.0000011655   0.0000042726  -0.0000059085   0.0000008632   0.0000040337
       -0.0000014346   0.0000000070   0.0000022834  -0.0000014879  -0.0000017568
       -0.0000012429   0.0000017312  -0.0000025311   0.0000152674  -0.0001602034
       -0.0002079054   0.0000289372  -0.0000200440  -0.0000356692   0.0000063879
        0.0000118527   0.0000193142   0.0005434355  -0.0004293876  -0.0000931031
       -0.1608969733   0.0110864980   0.0513825345   0.4677669695  -0.0033245465
       -0.0449574163  -0.1145064387   0.0054679403  -0.0583488355  -0.0656344950
       -0.0183350400   0.0224130153   0.0039825825   0.0078956725  -0.0078871135
        0.0015965588   0.0039671894   0.0028206880  -0.0005058773   0.0004271369
        0.0000036943  -0.0007508817   0.0016193316   0.0052683573  -0.0068014992
       -0.0143930237   0.0157211861   0.0018018900  -0.0005986573  -0.0020257301
       -0.0011997708   0.0002365893   0.0004892938   0.0003748124   0.0001671516
       -0.0001143823  -0.0002077650   0.0001481178  -0.0000282664   0.0004094123
       -0.0000670059   0.0000103810  -0.0002693179  -0.0000601287  -0.0000147045
        0.0003751883  -0.0003132079  -0.0000854565   0.0000342194  -0.0000206312
        0.0000098002   0.0000080231  -0.0000205985  -0.0000112131   0.0000156086
        0.0000069397   0.0000001903   0.0000037516   0.0000037552   0.0000029261
       -0.0000113530  -0.0000088841   0.0000002416  -0.0000070984  -0.0000110492
        0.0000011826   0.0000768408  -0.0000197324   0.0000077225  -0.0001013104
       -0.0000953355   0.0000033468   0.0001281060   0.0000734177   0.0000039939
       -0.0001185458  -0.0000360501  -0.0000042471   0.0000846239   0.0000710204
        0.0000006632  -0.0000873398   0.0000116226  -0.0000049538   0.0000483531
       -0.0000055880   0.0000058738   0.0000358766  -0.0000123020   0.0000031780
       -0.0000248624  -0.0000349688  -0.0000004652   0.0000131187   0.0000178784
        0.0000013416   0.0000024634  -0.0000016802  -0.0000018285  -0.0000437617
       -0.0000100673   0.0000037735   0.0001470521   0.0001698664  -0.0000010829
       -0.0003506364  -0.0000860890  -0.0000209252  -0.0015639178   0.0153403090
        0.0133285801  -0.0014243273  -0.0008252771   0.0051637621  -0.0005380313
       -0.0004424099  -0.0000957481  -0.0002790786  -0.0040613785   0.0028820152
        0.0013433400  -0.0138760266  -0.0106127772  -0.0616546579   0.0042376717
        0.0102327528  -0.0078815430  -0.0017848216   0.0058573408  -0.0244920511
        0.0027449373   0.0083175256  -0.0026755094   0.0027170690   0.0030254498
       -0.0222106351   0.0020521814  -0.0176541332  -0.0021404699  -0.0012515130
       -0.0033807158   0.0014923793   0.0009870422   0.0004245707  -0.0011092717
       -0.0004312061  -0.0009935737   0.0000675095   0.0007202415  -0.0004508261
       -0.0005841640  -0.0002936430  -0.0005879583  -0.0003911101  -0.0007772912
        0.0008563593   0.0000105667  -0.0000505138   0.0000520512   0.0000273005
       -0.0000008603   0.0000184704   0.0000245400   0.0000593629   0.0000512693
        0.0000052851   0.0000194873   0.0000107199  -0.0000031198   0.0000004520
        0.0000002986   0.0000017973  -0.0000018507   0.0000015198   0.0000020623
        0.0000039534   0.0000000195  -0.0000011320   0.0000005853   0.0000012134
       -0.0000034566  -0.0000043080   0.0000000562  -0.0002345267   0.0008732475
        0.0008714259  -0.0004314595   0.0003333617  -0.0004905725  -0.0000624975
       -0.0009030756  -0.0005463841  -0.0006813455   0.0006987319  -0.0009294752
        0.0110729847  -0.0673212395  -0.0058713790  -0.0033245465   0.4448318663
        0.0052883407   0.0056495538  -0.0548421148   0.0053007609  -0.0141968011
       -0.1271804910   0.0534700551  -0.0015641482  -0.0244719330   0.0159332111
        0.0046930192  -0.0011626722   0.0001124452  -0.0003478307  -0.0004950590
        0.0005753275   0.0023889463   0.0013998770   0.0002369016  -0.0084892122
        0.0008676247   0.0066899673  -0.0006071217  -0.0032848908   0.0002671770
        0.0001821002   0.0004676007  -0.0000539082  -0.0000300413  -0.0000261113
       -0.0001223466   0.0000450603  -0.0000145796  -0.0000136571  -0.0000437786
        0.0000150237  -0.0000046731   0.0000144388   0.0000227022   0.0000187083
       -0.0000641596   0.0000330523   0.0001423032  -0.0000063194  -0.0000045807
       -0.0000116511  -0.0000146551   0.0000114348   0.0000118783  -0.0000013530
       -0.0000063869  -0.0000018849  -0.0000031007  -0.0000019083  -0.0000021280
        0.0000029803   0.0000000360  -0.0000020959   0.0000043694   0.0000083086
       -0.0000017517  -0.0000119264  -0.0000073326   0.0000016974   0.0000141736
        0.0000146554  -0.0000004787  -0.0000122384  -0.0000097685  -0.0000007708
        0.0000105073   0.0000027868  -0.0000003645  -0.0000078882  -0.0000077952
       -0.0000011409   0.0000113697  -0.0000027747   0.0000011527  -0.0000047643
        0.0000022130  -0.0000001346  -0.0000002416   0.0000024631   0.0000011030
        0.0000019196   0.0000015613   0.0000021361  -0.0000051737   0.0000003775
        0.0000010769  -0.0000045770  -0.0000026398   0.0000001582   0.0000098543
        0.0000023373   0.0000044958  -0.0000165291  -0.0000156714  -0.0000093874
        0.0000380214   0.0000145958   0.0000078883   0.0092504414  -0.0050428520
       -0.0103431936  -0.0016402000   0.0020419818  -0.0013811412   0.0003652378
       -0.0005108992  -0.0005744079  -0.0047812904   0.0006937040  -0.0005617749
       -0.0042504847  -0.0225099864  -0.0130830346   0.0000032570  -0.1351921002
       -0.0559950646  -0.0210245324   0.0010923479   0.0121858405   0.0023197608
       -0.0004827569  -0.0007400456   0.0223838177  -0.0046579686  -0.0134587601
        0.0024648283  -0.0006982193   0.0020538221  -0.0158117172   0.0001883626
       -0.0177466223   0.0150934428  -0.0027249433   0.0175041824  -0.0012835653
        0.0006959641  -0.0003350827  -0.0002987328  -0.0008259846   0.0006548847
       -0.0003910852  -0.0001804862  -0.0004421758   0.0001749887   0.0000650861
       -0.0002735084  -0.0000321075   0.0000095516   0.0000173936  -0.0000000695
        0.0000007483   0.0000131196   0.0000347014  -0.0000118700  -0.0000347134
        0.0000063472  -0.0000120295  -0.0000133916   0.0000001797   0.0000003370
       -0.0000027167   0.0000010322   0.0000011032  -0.0000018247   0.0000011307
       -0.0000026552  -0.0000011246  -0.0000001680   0.0000009668   0.0000003090
        0.0000002949  -0.0000008453   0.0000019130  -0.0001011714  -0.0000951169
        0.0000776694   0.0004265196  -0.0002985286   0.0005493464   0.0001382116
       -0.0006982190  -0.0005147237   0.0015680404   0.0003147401   0.0004757936
        0.0496662279  -0.0056696735  -0.0862113329  -0.0449574163   0.0052883407
        0.4623168048  -0.0491510428   0.0042807537  -0.1120958198   0.0201141659
        0.0580252692  -0.0997640050  -0.0021681885   0.0054988570   0.0010391043
        0.0031365146   0.0008073034   0.0038150327  -0.0000519919   0.0005579783
       -0.0004452887   0.0044804801   0.0000200737   0.0008199926   0.0109101657
        0.0126706262  -0.0180393225  -0.0042124289   0.0005109729   0.0001386219
        0.0005443882  -0.0000901263   0.0001024024  -0.0003553661  -0.0000476756
       -0.0000469512   0.0000494144  -0.0000739373   0.0000320979  -0.0001098331
        0.0000160920  -0.0000177934   0.0000740409   0.0000383805   0.0000307962
       -0.0003567701   0.0001523446  -0.0000451653  -0.0000218711  -0.0000010900
        0.0000007204  -0.0000312060  -0.0000017868  -0.0000011986  -0.0000000051
       -0.0000037107   0.0000006820  -0.0000031704  -0.0000038998   0.0000062160
        0.0000071838  -0.0000059884   0.0000028098  -0.0000026529   0.0000147113
        0.0000012390  -0.0000459146   0.0000190162   0.0000039246   0.0000248418
        0.0000164570   0.0000074823  -0.0000154014  -0.0000036731  -0.0000107330
        0.0000033679  -0.0000086872   0.0000056083  -0.0000156384   0.0000081907
       -0.0000056451   0.0000235387  -0.0000011310   0.0000048342  -0.0000207681
        0.0000050774  -0.0000016591  -0.0000087041  -0.0000102504   0.0000034066
        0.0000132507   0.0000273197  -0.0000013101  -0.0000160103  -0.0000132365
        0.0000024825  -0.0000083108   0.0000118069  -0.0000042797   0.0000234002
        0.0000001590   0.0000072016  -0.0000413938  -0.0000121892   0.0000014485
        0.0000985781  -0.0000292157  -0.0000086855   0.0076565464  -0.0152458921
       -0.0173530160   0.0044274975  -0.0009929316   0.0008652652  -0.0001856136
       -0.0005516941  -0.0004022434   0.0030987236  -0.0013319728   0.0038398524
       -0.0031067430  -0.0040413461   0.0017555949   0.0070641432  -0.0599220237
       -0.0960581956   0.0170373441   0.0007390686  -0.0109516168  -0.0160747708
        0.0018643453   0.0083326251   0.0156872801  -0.0045748724  -0.0103894912
        0.0059793365  -0.0005066737   0.0070765331  -0.0138012612  -0.0018612542
       -0.0166297791  -0.0136606239   0.0042844633  -0.0173613514  -0.0005757639
       -0.0012428595  -0.0012505073   0.0000282956  -0.0003929020   0.0000546920
       -0.0006256890  -0.0005072672  -0.0004551280   0.0001896494   0.0005167625
       -0.0004659679   0.0000077522  -0.0000177646  -0.0000275238  -0.0000133507
       -0.0000059077   0.0000038969   0.0000068451   0.0000052920  -0.0000299007
        0.0000002769   0.0000095395  -0.0000039515   0.0000004919   0.0000066696
        0.0000008551  -0.0000011575   0.0000048092  -0.0000000794  -0.0000044127
        0.0000027561  -0.0000001580  -0.0000063528   0.0000059347  -0.0000001450
       -0.0000032226  -0.0000047889   0.0000016923   0.0000865322  -0.0005562633
       -0.0004517398  -0.0005295391   0.0006233140  -0.0004906877   0.0001039803
        0.0004052133   0.0000558207  -0.0003616682   0.0012947867  -0.0013090633
       -0.0307288083   0.0031066187  -0.0163130680  -0.1145064387   0.0056495538
       -0.0491510428   0.4862614324   0.0028590795  -0.0482861457   0.0028953165
        0.0042310583  -0.0030119073   0.0001059421  -0.0008708220   0.0002475200
       -0.0000810208   0.0002007436  -0.0002338870  -0.0000156877  -0.0001258200
        0.0000468291   0.0001347673   0.0004189482  -0.0003116212  -0.0007519552
       -0.0006858801   0.0016286831  -0.0001252502   0.0001399408  -0.0009518701
       -0.0001483129  -0.0000145399   0.0004100715   0.0000057827  -0.0000881568
       -0.0001574889   0.0000215377  -0.0000482148  -0.0000058377  -0.0000060135
        0.0000119103  -0.0000039719  -0.0000115690   0.0000245823   0.0000016054
        0.0000111843   0.0000781413  -0.0001759225   0.0000073659  -0.0000256023
        0.0000007390   0.0000077989  -0.0000280580  -0.0000085786   0.0000190932
       -0.0000222589   0.0000046228   0.0000014677  -0.0000047110   0.0000062059
        0.0000055066  -0.0000137401   0.0000038316   0.0000008355   0.0000027218
        0.0000011047   0.0000150488   0.0000001254   0.0000008041  -0.0000305177
        0.0000181113   0.0000089230  -0.0000134256   0.0000071335  -0.0000023379
        0.0000305306   0.0000031482   0.0000039877  -0.0000480638  -0.0000105831
       -0.0000057375   0.0000882039  -0.0000115198   0.0000047698  -0.0000525906
        0.0000074275  -0.0000012552  -0.0000203645  -0.0000260819   0.0000016500
        0.0000377945   0.0000627954  -0.0000022243  -0.0000255982  -0.0000352953
        0.0000006499   0.0000060547   0.0000107549  -0.0000047339   0.0000528252
       -0.0000191324   0.0000061758  -0.0000533775  -0.0000068278  -0.0000018191
        0.0000423917   0.0000180736   0.0000128844  -0.0008635348   0.0006626656
        0.0015571026   0.0001731924  -0.0004376685  -0.0001181656  -0.0000627293
        0.0000917117   0.0000706101   0.0000387846  -0.0004267336  -0.0001006311
        0.0004068476   0.0006574282  -0.0000759479  -0.0012494362  -0.0056375046
       -0.0069893649   0.0005811010   0.0004472189  -0.0011992642  -0.0061355302
        0.0007288224   0.0015871441   0.0006170423  -0.0005358694  -0.0010554851
       -0.2427328110   0.0231913310   0.0907037925  -0.0426444283   0.0030232974
        0.0035130894  -0.0514211388  -0.0366926662   0.0282155123   0.0000436981
       -0.0000684208   0.0000193785   0.0000401469  -0.0000586845   0.0000159774
        0.0000109887  -0.0000402409   0.0000204392   0.0000201687   0.0000002450
        0.0000376421  -0.0000078315   0.0000013885   0.0000304898   0.0000092366
        0.0000053873   0.0000102880  -0.0000080390   0.0000384926   0.0000334049
       -0.0000001567   0.0000267649   0.0000030308   0.0000009893   0.0000124967
        0.0000005250  -0.0000054115   0.0000099078   0.0000016559  -0.0000063244
        0.0000073392   0.0000002497  -0.0000058622   0.0000018313   0.0000002912
       -0.0000042890  -0.0000056370  -0.0000009609   0.0000247007  -0.0000041621
        0.0000300274  -0.0000085485   0.0000624540  -0.0000163413   0.0000463018
        0.0000173861  -0.0000014138   0.0000109870   0.0001077945  -0.0000546842
        0.0034745426   0.0003516789   0.0018359049   0.0054679403  -0.0548421148
        0.0042807537   0.0028590795   0.5181487553   0.0041335047   0.0132023247
       -0.0063370601   0.0194810627  -0.0006994474  -0.0006261012   0.0013670759
       -0.0009523897  -0.0009473724  -0.0005291060   0.0002984992  -0.0002293695
       -0.0001241706  -0.0005955541   0.0001121554  -0.0007857794   0.0011284318
       -0.0011926832   0.0000480706   0.0001585183   0.0012966628   0.0000555285
       -0.0000244682  -0.0001756407  -0.0000460848  -0.0000299533  -0.0001121365
        0.0000247608   0.0001240671  -0.0000250693   0.0000128829   0.0000096354
        0.0000435152   0.0000017630  -0.0001440935   0.0000247393  -0.0000085156
        0.0000081381  -0.0001410874   0.0000107650   0.0000000548  -0.0000213117
        0.0000021378  -0.0000620263   0.0000304001   0.0000118587   0.0000042759
        0.0000090218  -0.0000053126  -0.0000003180  -0.0000039079  -0.0000014947
        0.0000156982  -0.0000112899  -0.0000032496  -0.0000053138   0.0000268280
        0.0000006627  -0.0000180800  -0.0000395013  -0.0000045747   0.0000089631
        0.0000131506   0.0000023212   0.0000099024   0.0000002188  -0.0000043878
       -0.0000161135   0.0000001161  -0.0000002837   0.0000116610   0.0000119271
       -0.0000031554  -0.0000161887   0.0000046245  -0.0000022945   0.0000086443
        0.0000009305  -0.0000004322   0.0000242559   0.0000045788   0.0000022093
       -0.0000140703  -0.0000194348   0.0000000198   0.0000024724   0.0000127205
       -0.0000000786  -0.0000172579  -0.0000160920  -0.0000009441   0.0000304110
        0.0000095361   0.0000040007  -0.0000062803   0.0000183305  -0.0000021211
       -0.0000035723   0.0000412352  -0.0000023001  -0.0012221136  -0.0010783538
       -0.0003336018   0.0006020722   0.0001068137   0.0008604130  -0.0003471325
       -0.0001996631   0.0001213966   0.0007601114  -0.0010865724   0.0006014063
        0.0005091054  -0.0009198391  -0.0013852395  -0.0148588248  -0.0032741066
       -0.0188973296  -0.0006399362   0.0003683817  -0.0002793678   0.0007488798
        0.0003105128  -0.0001801724   0.0006135384   0.0003724569   0.0005121181
        0.0232153202  -0.0467968000  -0.0105151283   0.0028610022  -0.2105662267
       -0.1103420661  -0.0365577542  -0.1932742136   0.1101261279   0.0002402403
        0.0001853638   0.0003327882  -0.0000079152  -0.0001358653   0.0000875139
        0.0001451217   0.0001044217   0.0001724554  -0.0000047144  -0.0000043166
        0.0000328586   0.0000218869   0.0001350082   0.0000010591   0.0000013621
        0.0000196307  -0.0000036620   0.0000055586   0.0001253434  -0.0000071477
        0.0000144322   0.0000155304   0.0000001326   0.0000033970  -0.0000005121
       -0.0000004488   0.0000127084  -0.0000016772  -0.0000000691   0.0000073839
       -0.0000038812  -0.0000014543  -0.0000004409   0.0000030049  -0.0000007280
        0.0000022611   0.0000016620  -0.0000000844   0.0000056632  -0.0000020377
       -0.0000460910  -0.0001290427   0.0001175945  -0.0001783753  -0.0000318936
       -0.0001476763  -0.0000852345  -0.0002126655   0.0002050644  -0.0003430662
        0.0048232805  -0.0004376632   0.0045356910  -0.0583488355   0.0053007609
       -0.1120958198  -0.0482861457   0.0041335047   0.4687212022  -0.0115305067
        0.0112340561  -0.0193023778   0.0004349860  -0.0008358218  -0.0011247037
        0.0008351029   0.0011092854   0.0000768837  -0.0002594296   0.0002134616
        0.0001040394   0.0002631207   0.0001604131   0.0005293313  -0.0004429491
        0.0000143717   0.0003672647   0.0002242685  -0.0000757119  -0.0016241570
       -0.0008293539   0.0001045555  -0.0001158999  -0.0000992894  -0.0000201206
        0.0000591353  -0.0000169153   0.0000913322  -0.0000017614   0.0000702373
       -0.0000167969   0.0000041323  -0.0000425807  -0.0000581041  -0.0000214819
       -0.0000802013   0.0000152501   0.0000795166   0.0000269772  -0.0000216629
        0.0000036731  -0.0000268196   0.0000157091   0.0000022042   0.0000018303
        0.0000098792  -0.0000024261  -0.0000035100   0.0000023443   0.0000039783
        0.0000090809  -0.0000038571   0.0000003012   0.0000034691  -0.0000029098
        0.0000055810   0.0000145969  -0.0000303555  -0.0000024898   0.0000010430
        0.0000143504   0.0000101836   0.0000008585  -0.0000091922  -0.0000121023
       -0.0000003419   0.0000009346   0.0000048652  -0.0000098327   0.0000016402
       -0.0000044101   0.0000133167  -0.0000009405   0.0000020438  -0.0000135332
        0.0000023557  -0.0000009617  -0.0000095840  -0.0000048626   0.0000021784
        0.0000105173   0.0000155979  -0.0000016912  -0.0000091839  -0.0000090236
        0.0000043321   0.0000010508   0.0000048195   0.0000001361   0.0000042551
        0.0000132405  -0.0000032778   0.0000055163   0.0000109991   0.0000192822
       -0.0000170109  -0.0000053130  -0.0000193689  -0.0003806364   0.0001347050
        0.0003650254   0.0002145380  -0.0001952667   0.0005104271  -0.0002829350
       -0.0001463502   0.0001055387   0.0005589590  -0.0012236743   0.0000932228
        0.0005914630   0.0007239433  -0.0011052143  -0.0132679585  -0.0090678237
       -0.0183451070   0.0009086230  -0.0003649082   0.0005626142   0.0026614130
       -0.0003018988  -0.0001710999   0.0009676987   0.0001549585   0.0005448080
        0.0903848375  -0.0104824537  -0.0829132991   0.0033014765  -0.1100387931
       -0.1155641443   0.0279347428   0.1098575079  -0.1235648177  -0.0001017512
       -0.0000815183  -0.0002697751   0.0000590629   0.0000651074  -0.0000170321
       -0.0001114795  -0.0000681768  -0.0000562046  -0.0000476753  -0.0000151575
        0.0000160523   0.0000121332  -0.0000065651  -0.0000290617   0.0000325251
       -0.0000110688   0.0000005166   0.0000138409  -0.0000029751  -0.0000323478
       -0.0000031458  -0.0000054257  -0.0000028278  -0.0000020021   0.0000002113
       -0.0000020917   0.0000037825   0.0000006430  -0.0000023570   0.0000004457
       -0.0000018560  -0.0000017260  -0.0000018537   0.0000032737  -0.0000017104
        0.0000009994  -0.0000026380   0.0000002162  -0.0000379590   0.0000288989
        0.0000150405  -0.0000928348   0.0000885889  -0.0000573027   0.0000455304
       -0.0000728535  -0.0000155426  -0.0000793252   0.0000950402  -0.0002648264
       -0.0085408462  -0.0192126794   0.0171417177  -0.0656344950  -0.0141968011
        0.0201141659   0.0028953165   0.0132023247  -0.0115305067   0.4298141212
       -0.1444205249  -0.1937185396  -0.1310664420   0.0864510228   0.0346272516
        0.0303654616   0.0232442494  -0.0428701941  -0.0345198378   0.0257224614
        0.0156666829  -0.0057947953  -0.0507041180   0.0353283656  -0.1827215689
        0.0365257121   0.1020507298  -0.0251447140   0.0241629102   0.0131529487
        0.0028845362   0.0017127070   0.0007738693   0.0007799824   0.0002226586
       -0.0001589649  -0.0001004402   0.0000502112   0.0002282069  -0.0001860956
       -0.0002842862  -0.0001008013   0.0006132064   0.0000785152  -0.0000806014
       -0.0014502396   0.0005710353  -0.0003148663  -0.0000659553   0.0000377718
       -0.0000013543  -0.0000327624  -0.0000161769   0.0000059496  -0.0000407591
       -0.0000057336  -0.0000000273  -0.0000091451  -0.0000177175   0.0000034489
        0.0000066152   0.0000193175   0.0000019029   0.0000063497  -0.0000023090
        0.0000008536  -0.0001518925   0.0002074803   0.0000437824   0.0000838869
       -0.0000446469  -0.0000185175   0.0000372295  -0.0000172315   0.0000133506
       -0.0000548551  -0.0000527468  -0.0000098504   0.0000475411   0.0000510281
       -0.0000002426  -0.0000334586   0.0000095311  -0.0000027247   0.0000284675
       -0.0000058871  -0.0000013773   0.0000009634  -0.0000171881  -0.0000027870