120
 energy: -173.899249160802 gnorm: 0.000033643233 xtb: 6.7.1 (edcfbbe)
C           -2.60745686079115       -5.84247090482412       -1.20573356070548
C           -1.45576046759066       -4.93058686322449       -0.90444089163871
C           -0.15513846587975       -5.42172754709633       -0.82544573941809
C            0.91787805701445       -4.59480195140226       -0.55209842008509
C            0.67699296558100       -3.25050427323010       -0.30826206503487
C           -0.63769352539299       -2.72605087724305       -0.40157043409707
C           -1.68498805120599       -3.57757704799142       -0.71758407708458
C           -0.53975919581533       -1.29572193285366       -0.23590059222380
C           -1.43821128788468       -0.22825839176946       -0.15981357637663
C           -0.85113837308428        1.02691615629177       -0.14086188341401
C            0.53864252500690        1.29785828232760       -0.23730176264581
C            1.43696430324066        0.23051010596213       -0.15703420485311
C            0.84971252063198       -1.02458300837222       -0.13686727987937
N            1.55935940719838       -2.21187761901629       -0.08779814725497
C            2.88009146387259       -2.20268336456607        0.33340119770586
C            3.51379903445291       -3.33411262898010        0.83858268130829
C            4.83855150278475       -3.30107047345957        1.22780978589724
C            5.57888036444977       -2.13070972464014        1.13905679207945
C            7.04664783662825       -2.02939083576541        1.51714273849197
C            7.84280754784602       -1.54132022446107        0.29862290726721
C            7.19867099154895       -1.02929963234812        2.67210851363187
C            7.62994415006292       -3.37246515311000        1.96377668285485
C            4.91361595783731       -0.99212288414144        0.70100695819048
C            3.58183466857309       -0.99310170969629        0.32249614859885
C            2.94050358440232        0.32668965486554       -0.10743708527518
C            3.46276010770644        1.40803835376770        0.81246828471457
C            3.12922441847777        1.65309693597073        2.12424466517805
C            3.79596734578414        2.66846326393955        2.79848843022878
C            4.78653665044081        3.40708993756196        2.17106618816221
C            5.12741049185994        3.16400399989986        0.84931989004604
C            4.45710892869674        2.16262777858948        0.16833490295697
C            4.54095117695926        1.72223964203656       -1.21914689890131
C            5.31809796816111        2.17342921357013       -2.27219747077767
C            5.14015145054904        1.59819851617788       -3.52074081859933
C            4.20311712589471        0.59538679948982       -3.71558850512495
C            3.42670867953602        0.13144708298976       -2.66154879304490
C            3.59994449270651        0.70066452940511       -1.42038164106158
C            0.63681945577714        2.72785746776285       -0.40540470970479
C            1.68524545961931        3.57884184649098       -0.71980267224321
C            1.45684945636216        4.93145995365286       -0.90900735273586
C            2.60831891054945        5.84501536664759       -1.20582375441561
C            0.15580541591479        5.42278423827816       -0.83470550792247
C           -0.91802188571114        4.59645894932649       -0.56347907064446
C           -0.67805002920577        3.25243729572583       -0.31652691015070
N           -1.56101945755368        2.21425344999659       -0.09613889831019
C           -2.88339920818444        2.20582961828885        0.32006739552976
C           -3.51991160847538        3.33883306657795        0.81823783812599
C           -4.84629178865951        3.30671325975526        1.20195487464787
C           -5.58572982187039        2.13566582963621        1.11483990226917
C           -7.05510277865064        2.03522899558002        1.48686496751762
C           -7.64105950819648        3.37994556005713        1.92501156212606
C           -7.84555549384618        1.54145085378850        0.26691237408919
C           -7.21176113141664        1.04010729460135        2.64549231708707
C           -4.91795201784291        0.99570293406018        0.68434221941754
C           -3.58466851811447        0.99592890539193        0.31110421717140
C           -2.94157094347801       -0.32567030969642       -0.11030774600335
C           -3.46079664757809       -1.40174802515438        0.81761841799447
C           -3.12449238601323       -1.63762258319142        2.13038631879058
C           -3.78748724938671       -2.65042103577418        2.81209062538070
C           -4.77707070348766       -3.39560709600717        2.19087119544804
C           -5.12072495799805       -3.16168794353628        0.86819579367394
C           -4.45416776088343       -2.16283138291799        0.17987570510555
C           -4.54088822948915       -1.73168994969487       -1.21036907330738
C           -5.31882384071780       -2.19124095856573       -2.25920252876339
C           -5.14340554089070       -1.62435259182168       -3.51192340578066
C           -4.20804437640731       -0.62161091817672       -3.71496152255684
C           -3.43099305274818       -0.14915913663634       -2.66516014835828
C           -3.60174555978553       -0.70995907120226       -1.41984135595854
H           -3.31124364904280       -5.35946753654354       -1.88087859661171
H           -2.26525079757897       -6.77100750443683       -1.65639818974199
H           -3.14057308766601       -6.08467591752297       -0.28548345276265
H            0.02644678614312       -6.47068034799259       -1.01139845074911
H            1.91723550456067       -4.99723444487453       -0.58105015110705
H           -2.67889333452456       -3.19750798298789       -0.85536406484030
H            2.95699450926926       -4.24717858890395        0.96194400384902
H            5.27744557988744       -4.20933351636580        1.60676033041164
H            7.50515953032562       -0.56199952018835       -0.02932691346262
H            7.72430728016227       -2.23617817175448       -0.53029090529444
H            8.90055183494851       -1.47325225876522        0.54433504741523
H            8.24327094799513       -0.95259124480308        2.96661093754535
H            6.62012449978478       -1.35893588587954        3.53266590856927
H            6.85003013922668       -0.03970231925655        2.38883038657385
H            8.68401497430465       -3.24920374666071        2.20421825472408
H            7.54948763953870       -4.11470232138272        1.17293859094485
H            7.12427808907159       -3.74220796133706        2.85275157312434
H            5.45327817937509       -0.05981860891732        0.65612562702820
H            2.36295302991832        1.07220684345213        2.61648561659841
H            3.54206855823362        2.88243404233199        3.82625323569806
H            5.29739904454304        4.18612073494510        2.71829007545696
H            5.89572683978627        3.74670202054387        0.36244138794344
H            6.04550501188876        2.95878006672783       -2.12648198838209
H            5.73683191692254        1.93879771252485       -4.35449798724064
H            4.07694147169895        0.16756363573018       -4.69929293802472
H            2.69989273308230       -0.65340172760382       -2.81361477936725
H            2.67929956701834        3.19795337552351       -0.85410896424859
H            2.27219826434650        6.74967945185333       -1.70702396313243
H            3.10296587624602        6.13308564664719       -0.27723630866559
H            3.34268796008952        5.34406470311880       -1.83333101918180
H           -0.02488185357897        6.47150483006296       -1.02281973199585
H           -1.91717596134275        4.99904694196726       -0.59638903488194
H           -2.96422998045997        4.25269724189966        0.94050489555336
H           -5.28721557493175        4.21631138484337        1.57530991547802
H           -8.69608073106789        3.25715530646101        2.16150929776010
H           -7.13941575917428        3.75395707232110        2.81447944212061
H           -7.55764017909178        4.11867458161763        1.13119957893371
H           -7.72287593299180        2.23224485329641       -0.56478901239565
H           -7.50663359889320        0.56045537840850       -0.05467227117349
H           -8.90449046939172        1.47486898718179        0.50786761889687
H           -8.25757094568590        0.96444022081874        2.93594931178883
H           -6.86173051724745        0.04937335087858        2.36795242990190
H           -6.63688435617007        1.37358604029929        3.50702921962187
H           -5.45675198943562        0.06279989437916        0.64123982898873
H           -2.35884765413054       -1.05172303619207        2.61765924149797
H           -3.53132265202411       -2.85734586075745        3.84073704663782
H           -5.28479726837130       -4.17269348179786        2.74376410767106
H           -5.88815165413022       -3.74956315473052        0.38615282007993
H           -6.04481454203276       -2.97666623638509       -2.10704105188307
H           -5.74075163451717       -1.97152905015893       -4.34248920410433
H           -4.08371301308299       -0.20052680504946       -4.70180234398453
H           -2.70552932854272        0.63567482130174       -2.82360284843804
