$hessian                                                                        
        0.1737016280  -0.0756648753  -0.1462825632  -0.0688595887   0.0056361823
        0.0647429583   0.0054930978  -0.0274223704  -0.0001264229  -0.0125718843
        0.0047699500   0.0171864079  -0.0000737763   0.0003961276   0.0002973757
       -0.0000456840   0.0000397768  -0.0001233903   0.0000188339   0.0000009871
       -0.0000349646  -0.0000099859   0.0000043223   0.0000160797  -0.0000092434
        0.0000070990  -0.0000012842  -0.0000035937   0.0000116636   0.0000067037
       -0.0000187306  -0.0000155041  -0.0000105196  -0.0000168924   0.0001614883
       -0.0000288904   0.0000188562   0.0000539205  -0.0000390466   0.0000144146
       -0.0000595478  -0.0000693510  -0.0000037608   0.0000348133   0.0000694863
       -0.0000532260   0.0000260427  -0.0000164679  -0.0000779266  -0.0000109906
        0.0000326066   0.0000271785   0.0000102185  -0.0000259467  -0.0000705578
       -0.0001206280   0.0000651071  -0.0000670672   0.0001096120  -0.0000505409
       -0.0001889312   0.0000017836  -0.0000012112   0.0000024578   0.0000436042
       -0.0000631463   0.0000614576   0.0000215226   0.0000111284   0.0000321224
       -0.0000032925  -0.0000159865  -0.0000071860  -0.0000002427  -0.0000007733
        0.0000053832   0.0000020656   0.0000079386   0.0000004585   0.0000033217
        0.0000051537  -0.0000013034  -0.0000019456   0.0000076598  -0.0000150741
       -0.0000059857   0.0000010914   0.0022859188   0.0254805406  -0.0161342011
       -0.0744700327   0.0463721241   0.0625222815  -0.0359981635   0.0130098299
       -0.0014749827  -0.0020235212  -0.0010141268   0.0097406915   0.0072577596
        0.0013110821   0.0016884308  -0.0000133391  -0.0000011655  -0.0000091628
        0.0000032369  -0.0000019741   0.0000039604   0.0000019814   0.0000001558
       -0.0000081267   0.0000056966   0.0000001828  -0.0000118574  -0.0000173504
        0.0000288240  -0.0000028320   0.0000287863  -0.0000031348  -0.0000148866
        0.0000061623   0.0000013873  -0.0000013251   0.0000244792   0.0000251199
       -0.0000209720   0.0000345964  -0.0000054796   0.0000338396   0.0000520439
       -0.0000230395   0.0000117097   0.0000156179   0.0000017783   0.0000003834
        0.0000008858  -0.0000098481   0.0000306902   0.0000018923  -0.0000033612
        0.0000019576   0.0000003845   0.0000002433   0.0000052665   0.0000001521
       -0.0000025047   0.0000053480   0.0000008784  -0.0000030167   0.0000052949
        0.0000013385   0.0000025183   0.0000033880   0.0074570892   0.0011504637
        0.0018040580  -0.0019379693   0.0056542818   0.0062618551
       -0.0756648753   0.6580726609  -0.0322255546  -0.0177501964  -0.1055574959
        0.0874141925  -0.0097370870   0.0010362182   0.0316420834   0.0050537782
       -0.0011944097  -0.0193442334   0.0002136692  -0.0010715828  -0.0002674423
       -0.0001103641   0.0001883811   0.0001181960  -0.0000838247   0.0000724033
        0.0000650736   0.0000429928   0.0000503003  -0.0000161578  -0.0000380446
       -0.0000241888   0.0000044856   0.0000081820   0.0000373093  -0.0000175464
        0.0000291585  -0.0001275122   0.0000070744   0.0000522643  -0.0001489301
        0.0000878921  -0.0000708851  -0.0001344716  -0.0000336290   0.0000551268
        0.0001913434   0.0002387150  -0.0000208759  -0.0000690195  -0.0001811512
        0.0000291267  -0.0000299463  -0.0000007808  -0.0000155091  -0.0001510310
        0.0000413685   0.0000054828  -0.0001706682   0.0001336820   0.0000022195
       -0.0000066634  -0.0000520452   0.0000086270   0.0001493321  -0.0000615589
       -0.0000528987   0.0001828055  -0.0000365031   0.0000334621   0.0000703050
       -0.0000813164  -0.0000084606  -0.0000321156   0.0001430890  -0.0000316184
        0.0000180036   0.0000356079   0.0000303233   0.0000308062  -0.0000001617
       -0.0000084551  -0.0000043649  -0.0000082036   0.0000024515   0.0000049287
        0.0000011128   0.0000028618   0.0000122585  -0.0000060356   0.0000584209
       -0.0000029576   0.0000190276   0.0078310027  -0.0604466201   0.0054543117
        0.0698256754  -0.2167164819  -0.1397502954   0.0130353873  -0.2714638514
        0.0796031737   0.0060468283   0.0034164479  -0.0207892388   0.0011114672
       -0.0050170352   0.0027085100   0.0000060273   0.0000262029   0.0000099108
       -0.0000052215   0.0000161876  -0.0000094272  -0.0000051906   0.0000161133
        0.0000035319   0.0000162681  -0.0000085589   0.0000075898   0.0001556326
       -0.0001706210   0.0000548393  -0.0000575900   0.0000297055   0.0000513471
       -0.0000065482   0.0000132533   0.0000173836   0.0000511828  -0.0001449513
        0.0000225319  -0.0000209530   0.0001167564  -0.0000015916   0.0000782708
       -0.0000851683  -0.0000162640  -0.0000131535  -0.0000093351  -0.0000218716
        0.0000174096  -0.0000572508  -0.0000360658  -0.0000301490  -0.0000016122
        0.0000009715   0.0000093302   0.0000017915   0.0000029645   0.0000034625
        0.0000080430   0.0000033868   0.0000049897   0.0000109447   0.0000006100
        0.0000064629   0.0000014592   0.0000045281   0.0012807196  -0.0049179231
        0.0022725161  -0.0013763635   0.0039908058   0.0027873676
       -0.1462825632  -0.0322255546   0.6086879546   0.0767022994   0.0118928063
       -0.3028032155  -0.0087486694   0.0885187201  -0.0143252568   0.0167050756
       -0.0179992998  -0.0523513399   0.0001051474  -0.0007501794  -0.0009308139
        0.0002865255  -0.0000424599   0.0002371531  -0.0000761901   0.0000712258
        0.0000949441   0.0000515879  -0.0000010854  -0.0000485607   0.0000290756
       -0.0000397643  -0.0000041283  -0.0000518003  -0.0000348413   0.0000042031
        0.0001555429  -0.0001039169   0.0000880097   0.0000580817  -0.0003865924
        0.0000684139   0.0000398822  -0.0000167584   0.0001477774  -0.0000891066
        0.0000728198   0.0000041117  -0.0000002532  -0.0000320627  -0.0000401466
        0.0000742067  -0.0000875370   0.0000138765   0.0000119565   0.0000758183
       -0.0001847498  -0.0000220755   0.0001000667   0.0000054664  -0.0000766597
       -0.0000005216   0.0000398878   0.0000677914  -0.0000854625   0.0001367982
        0.0000168776  -0.0000942504   0.0001414543  -0.0000354331  -0.0000550139
       -0.0001297099   0.0000213991  -0.0000195129  -0.0001393226  -0.0000444602
       -0.0000035711   0.0000818705   0.0000059394  -0.0000040310   0.0000025468
        0.0000024220  -0.0000118274  -0.0000060753   0.0000031001  -0.0000115723
       -0.0000003883  -0.0000030110  -0.0000022347  -0.0000069307   0.0000016231
        0.0000169241   0.0000025095  -0.0076997367  -0.0513610633   0.0505199371
        0.0508422337  -0.0640125954  -0.1801519491  -0.0014605970   0.0796210980
       -0.0705780542   0.0061440687   0.0019916071  -0.0202017898   0.0017654323
        0.0022701300   0.0012089145   0.0000275772  -0.0000155111   0.0000238130
       -0.0000063180  -0.0000007153  -0.0000120981   0.0000008571  -0.0000119321
        0.0000058153   0.0000033844  -0.0000060094   0.0000187418   0.0000516540
       -0.0000877639   0.0000066933  -0.0000493448   0.0000035122   0.0000269021
       -0.0000068329  -0.0000064487   0.0000033389   0.0000165534  -0.0000327686
        0.0000205652   0.0000011020   0.0000075699  -0.0000558419  -0.0000000287
        0.0000194439   0.0000079669  -0.0000177486  -0.0000140709   0.0000202979
       -0.0000308758   0.0000336510   0.0000265647   0.0000172794   0.0000105445
        0.0000120821   0.0000044726   0.0000012610   0.0000009840   0.0000010170
       -0.0000006644   0.0000050051   0.0000013771  -0.0000015657  -0.0000014325
       -0.0000094082  -0.0000051138   0.0000032148   0.0017167925   0.0028233570
        0.0011904134   0.0097787772  -0.0199662834  -0.0208864239
       -0.0688595887  -0.0177501964   0.0767022994   0.1759328565  -0.0790637715
       -0.1524923551  -0.0533616215   0.0281614410   0.0036907409   0.0045610373
        0.0083435790  -0.0060313147   0.0045776362   0.0020847843   0.0019038306
       -0.0000202974  -0.0011409100   0.0002939779   0.0003596498   0.0000269408
       -0.0000694489   0.0000143782  -0.0000931836  -0.0000234533  -0.0000057174
       -0.0000112474   0.0000028603  -0.0000630133  -0.0000119190   0.0000045353
       -0.0001016066  -0.0001994204   0.0000261267  -0.0001574527   0.0012561794
       -0.0002445380   0.0000555882  -0.0000519505  -0.0001450430   0.0001536463
       -0.0000737186   0.0001647977  -0.0000338806   0.0000071598   0.0000290903
       -0.0000528390  -0.0000050185   0.0000219819  -0.0000311876   0.0001864907
       -0.0000029855  -0.0001355564  -0.0000684227  -0.0000744670  -0.0001337306
       -0.0000786127   0.0000340855  -0.0000451257  -0.0000739406   0.0000321799
        0.0000157448  -0.0000482166   0.0000431428  -0.0001743699  -0.0000666623
       -0.0000097414  -0.0002147994  -0.0000687837  -0.0000813123  -0.0000005375
       -0.0000250068  -0.0000197142  -0.0000148105  -0.0000025719  -0.0000008843
        0.0000011939  -0.0000007669   0.0000047107  -0.0000010475  -0.0000066456
       -0.0000009509  -0.0000046028  -0.0000104860   0.0000014875  -0.0000251861
       -0.0000052357  -0.0000129972  -0.0060365936  -0.0072415252   0.0035442283
       -0.0059993446   0.0125581174   0.0165491633   0.0012230306   0.0000963566
       -0.0005833873  -0.0592099503   0.0581032019   0.0504792036   0.0010910902
       -0.0069873476   0.0031675893   0.0000140418  -0.0000061583   0.0000147584
        0.0000442654  -0.0000234550  -0.0000007504   0.0000122613  -0.0000037150
       -0.0000009210   0.0000182102   0.0000080670   0.0000009009  -0.0000632551
        0.0000403058  -0.0000028584   0.0000220445   0.0000252256  -0.0000132930
        0.0000083813   0.0000012922   0.0000042130  -0.0000017720   0.0000160671
       -0.0000079022   0.0000128888   0.0000152499   0.0000016801   0.0000311055
        0.0000048605  -0.0000061367   0.0000336659  -0.0000091589  -0.0000035442
        0.0000395965   0.0000016005   0.0000029530   0.0000214603  -0.0000046027
        0.0000012734  -0.0000010989  -0.0000038342  -0.0000009510  -0.0000012704
       -0.0000071132  -0.0000011563  -0.0000018349  -0.0000081637  -0.0000008361
       -0.0000050218   0.0000001640   0.0000004356  -0.0000655405  -0.0002612231
       -0.0001662677   0.0065788795   0.0024759008   0.0032749642
        0.0056361823  -0.1055574959   0.0118928063  -0.0790637715   0.6492057480
       -0.0116050273   0.0048273782  -0.3052209779   0.1116527111   0.0247734241
       -0.0593790874  -0.0495640249   0.0014997007  -0.0008150319  -0.0026286762
        0.0003821402  -0.0007690473   0.0003888847   0.0000388311   0.0000541358
        0.0000551509   0.0001086633  -0.0000027054  -0.0000484673  -0.0000342956
       -0.0000376165  -0.0000066738  -0.0000700292   0.0000075028  -0.0000139852
        0.0000135948  -0.0002057279   0.0001451599   0.0000567406  -0.0008551121
        0.0001531785   0.0000317092  -0.0000606072   0.0000597625  -0.0000414482
        0.0001613116   0.0000674473   0.0000152359  -0.0000390266  -0.0000535011
        0.0000944802  -0.0000356059  -0.0000034040  -0.0000564410  -0.0001711865
       -0.0001119769  -0.0001825931  -0.0001098905  -0.0000882184   0.0000589276
       -0.0001488347  -0.0000946352   0.0000734707   0.0000763263  -0.0000857787
       -0.0000903083   0.0000760158   0.0001286816  -0.0000668814   0.0000884976
        0.0000610399   0.0000113242   0.0000492438   0.0000109802  -0.0000437680
        0.0000295377   0.0001181358   0.0000536905   0.0000455733  -0.0000000875
        0.0000108447  -0.0000003745  -0.0000206910  -0.0000027715  -0.0000059394
        0.0000024442   0.0000006575  -0.0000061187  -0.0000124538   0.0000958295
       -0.0000121488   0.0000234927  -0.0072702488  -0.0273760932   0.0330125877
       -0.0045046689   0.0480481396  -0.0088892892  -0.0069343957  -0.0087003063
        0.0274338115   0.0580661637  -0.1782616638  -0.1138048778  -0.0000180700
       -0.0078253638   0.0045179694   0.0000267438   0.0000372610   0.0000174838
        0.0000032840   0.0000119846  -0.0000156601  -0.0000025575   0.0000106979
        0.0000064101   0.0000083790   0.0000042794   0.0000146692   0.0002150927
       -0.0001402931  -0.0000359704  -0.0000590244   0.0000081447   0.0000395750
        0.0000016406   0.0000004460   0.0000002050   0.0000307391  -0.0000448358
       -0.0000074671   0.0000160881  -0.0000230495  -0.0000261023  -0.0000205862
       -0.0000438152   0.0000187033   0.0000634248  -0.0000743059  -0.0000515007
       -0.0000089018   0.0000539187   0.0000202343  -0.0000318765   0.0000118221
        0.0000098153   0.0000074445   0.0000020259   0.0000016543   0.0000019960
        0.0000058375   0.0000033620   0.0000060088   0.0000119280  -0.0000007231
       -0.0000171716  -0.0000057007  -0.0000020135  -0.0003178617   0.0002732131
        0.0006427062   0.0026078407  -0.0023456288  -0.0033278571
        0.0647429583   0.0874141925  -0.3028032155  -0.1524923551  -0.0116050273
        0.6144297130   0.0153718520   0.0371408167  -0.1148264532  -0.0143172376
        0.0053375289   0.0481790120   0.0023304788  -0.0036134023   0.0003931707
       -0.0003050141  -0.0003774875   0.0000774670   0.0002069335  -0.0001013484
       -0.0000791762  -0.0000309592   0.0000002557  -0.0000009471  -0.0000414775
        0.0000427721   0.0000195109   0.0000538575   0.0000281347  -0.0000180132
       -0.0001402615   0.0000814262  -0.0001235838  -0.0001409294   0.0005200923
        0.0001830055   0.0000472820  -0.0000496368  -0.0002683291   0.0000650282
        0.0000785978   0.0002073491   0.0000385672  -0.0000562412  -0.0001273636
       -0.0001519642   0.0000529391   0.0000098743  -0.0001975439  -0.0001004260
        0.0000161390  -0.0000084309   0.0000219230   0.0000174617   0.0000086992
       -0.0001549408  -0.0001681876  -0.0001044330   0.0000324180  -0.0000235216
        0.0000227300   0.0000194453   0.0000807732  -0.0000190825   0.0000300733
        0.0000425286  -0.0000686022   0.0001432095   0.0000182295   0.0000091192
       -0.0000282419  -0.0000087592   0.0000108484   0.0000310729  -0.0000170106
        0.0000016287  -0.0000053231   0.0000033952   0.0000121091   0.0000039761
       -0.0000013732  -0.0000058465   0.0000087255   0.0000016932   0.0000029979
       -0.0000033236   0.0000127391   0.0035441334   0.0339264205  -0.0337176984
        0.0249299912  -0.0640710410  -0.0478323234   0.0030891298   0.0046405539
       -0.0111022651   0.0505916519  -0.1142354814  -0.1401125174  -0.0001748299
        0.0269532658  -0.0115572191  -0.0000082131   0.0000145556  -0.0000139666
        0.0000023809  -0.0000002233   0.0000170586  -0.0000085710   0.0000181525
        0.0000032388  -0.0000215020  -0.0000047208  -0.0000153485  -0.0000018697
        0.0000414370   0.0000555978   0.0000320613   0.0000211758  -0.0000018997
        0.0000012937   0.0000196136   0.0000268340   0.0000177359  -0.0000096249
       -0.0000249635   0.0000400924  -0.0000249592  -0.0000721932   0.0000100060
       -0.0000071612   0.0000323720   0.0000591475  -0.0000537022  -0.0000567871
       -0.0000384430   0.0000008275  -0.0000295199  -0.0000080365   0.0000028311
        0.0000095269   0.0000139899   0.0000049056   0.0000049706   0.0000058227
        0.0000036647   0.0000016528   0.0000047731   0.0000044042  -0.0000005309
        0.0000165110  -0.0000082749   0.0000092086  -0.0001419564   0.0006248082
        0.0000302261   0.0031437482  -0.0027536279  -0.0008795814
        0.0054930978  -0.0097370870  -0.0087486694  -0.0533616215   0.0048273782
        0.0153718520   0.1717502270  -0.0680253215  -0.1498760235  -0.0712340459
        0.0649742683   0.0527592731   0.0003707351   0.0037901571  -0.0005849218
       -0.0006091376  -0.0000089289  -0.0001374647   0.0001760899   0.0000806403
       -0.0000528446  -0.0000243391   0.0000097724   0.0000146555  -0.0000099354
        0.0000013675   0.0000009002  -0.0000175184  -0.0000610722   0.0000222605
       -0.0000320058   0.0000124092   0.0000336262  -0.0000456995  -0.0010412879
       -0.0000625556   0.0000836115   0.0002013293   0.0001556455  -0.0000726463
       -0.0000982119  -0.0003191859   0.0000175029   0.0001097613   0.0001826044
       -0.0000317321   0.0000424630  -0.0000065175   0.0002857097   0.0002184433
       -0.0000040542  -0.0005451361  -0.0001101170  -0.0001961502  -0.0002711127
       -0.0000118256  -0.0001383782  -0.0000111595  -0.0000456803   0.0000753158
        0.0000960117   0.0000025955   0.0000451736  -0.0000293790  -0.0001324884
        0.0000563758  -0.0007065123  -0.0000174892  -0.0000507716   0.0001058951
        0.0000172054  -0.0000854098  -0.0000371554  -0.0000260586  -0.0000057529
       -0.0000039729   0.0000084409   0.0000129956   0.0000042147   0.0000093001
       -0.0000049721   0.0000084420   0.0000042956   0.0000105149  -0.0000662866
        0.0000022023  -0.0000060820  -0.0057929752  -0.0037252011   0.0226563459
       -0.0077186203   0.0116431984  -0.0005396724   0.0069493721   0.0004571824
        0.0036839547   0.0002317133   0.0092800024  -0.0021144005  -0.0512118974
       -0.0134372034   0.0645137079  -0.0000307017   0.0000001145  -0.0000047345
        0.0000292833  -0.0000387601   0.0000073561   0.0000306243  -0.0000153543
       -0.0000049099   0.0000265092   0.0000067599   0.0000025239  -0.0003253778
        0.0000564394   0.0000650669   0.0000232684  -0.0000212971  -0.0000198939
       -0.0000067397  -0.0000181316  -0.0000116889  -0.0000037323  -0.0000201766
        0.0000247778   0.0000044210   0.0000099234  -0.0000276384  -0.0000054277
        0.0000315144  -0.0000168165   0.0000091901   0.0000082915  -0.0000038499
        0.0000203926   0.0000023350  -0.0000322178   0.0000064898   0.0000110359
       -0.0000097818  -0.0000162022   0.0000002831  -0.0000068776  -0.0000108543
       -0.0000081103  -0.0000089846  -0.0000111589  -0.0000178265  -0.0000008962
        0.0000098177   0.0000018957  -0.0000101335   0.0066772564   0.0006932776
        0.0036588056  -0.0001667918   0.0001033460  -0.0002614819
       -0.0274223704   0.0010362182   0.0885187201   0.0281614410  -0.3052209779
        0.0371408167  -0.0680253215   0.6356435017  -0.0367618223   0.0486184112
       -0.2066795574  -0.0749614838   0.0063112032  -0.0264316958  -0.0070542796
       -0.0010287656  -0.0017836946   0.0004336329   0.0008819650  -0.0004401007
       -0.0000620011  -0.0000669510  -0.0001928020   0.0000086224  -0.0000528643
        0.0001001656   0.0000139121  -0.0000140810   0.0001725223  -0.0000582976
       -0.0003852934   0.0001041199  -0.0001500084   0.0003234908  -0.0024525397
        0.0007607299  -0.0000204559   0.0000486180  -0.0001247753  -0.0002168624
        0.0001492433  -0.0002854539  -0.0000270439  -0.0000563466  -0.0001583296
       -0.0001759773  -0.0000880205  -0.0000922739  -0.0002702117  -0.0003670933
        0.0002545823  -0.0002607482   0.0002427667  -0.0002203415  -0.0000521603
        0.0000322094  -0.0000031521  -0.0000622189   0.0000052511   0.0001348016
        0.0000538324  -0.0001310463  -0.0000791819   0.0000161482  -0.0001629044
        0.0000407865   0.0000279320   0.0002192461  -0.0001655454   0.0001283886
        0.0000366974   0.0000548572  -0.0000181205  -0.0000014918  -0.0000083544
       -0.0000034908   0.0000101326   0.0000034116  -0.0000075541   0.0000042680
        0.0000032166   0.0000105373   0.0000070571   0.0000109856   0.0000027799
       -0.0000489242   0.0000173828   0.0116040720   0.0454327969  -0.0581129869
        0.0121443685  -0.0610143476  -0.0119119161   0.0006233716   0.0010599832
        0.0016166657   0.0022810525  -0.0243155653   0.0052156273  -0.0138186205
       -0.0558388227   0.0545685593   0.0000244058   0.0000976782  -0.0000350424
        0.0000709166  -0.0000195703   0.0000014209   0.0000079783   0.0000227753
        0.0000046845   0.0000295930   0.0000120123  -0.0000270780   0.0001563641
        0.0007290243   0.0000727609  -0.0000810218  -0.0000514254   0.0000312843
       -0.0000138494  -0.0000015093  -0.0000331119  -0.0000227025   0.0000124351
       -0.0000928696  -0.0000089174  -0.0000195757  -0.0000130321  -0.0000199589
        0.0000105211   0.0000162183  -0.0000263187   0.0000303241  -0.0000097009
       -0.0000279774  -0.0000027099   0.0000349076  -0.0000087301   0.0000226393
       -0.0000095984  -0.0000140818   0.0000069077   0.0000007883  -0.0000106273
        0.0000042794  -0.0000014239  -0.0000060040  -0.0000010429   0.0000008629
       -0.0000125537   0.0000050179  -0.0000153452   0.0006005890   0.0005689723
        0.0017704113   0.0001030137  -0.0005056203  -0.0002832435
       -0.0001264229   0.0316420834  -0.0143252568   0.0036907409   0.1116527111
       -0.1148264532  -0.1498760235  -0.0367618223   0.6108360941   0.0618778978
       -0.1293959718  -0.1774010351  -0.0018894316  -0.0005291971   0.0065065861
       -0.0007214323   0.0018604638  -0.0004102174  -0.0005251457  -0.0001321835
        0.0000362432  -0.0000672041   0.0000028693   0.0000620027   0.0000009069
        0.0000408303   0.0000086849   0.0001315554   0.0001353521  -0.0000031989
        0.0000195181   0.0001677437  -0.0000635824  -0.0003539477   0.0018200936
        0.0000173230   0.0001891286  -0.0005135006  -0.0007436333   0.0003708284
        0.0001557856   0.0006395976   0.0000375555  -0.0001909759  -0.0002331904
       -0.0004009756   0.0000166583  -0.0001454713  -0.0000480520   0.0003934382
        0.0003613896  -0.0001640363  -0.0000793037   0.0002616030  -0.0000543876
       -0.0001030320  -0.0000463711   0.0000323983   0.0001222473  -0.0002546638
        0.0000337684   0.0001598839  -0.0001150150   0.0000461570  -0.0000929947
        0.0001167678  -0.0001354969  -0.0001867865   0.0001974565  -0.0000444588
        0.0000203693   0.0000333422   0.0000348289   0.0000328725  -0.0000139943
       -0.0000238413  -0.0000062648  -0.0000076069  -0.0000198287  -0.0000129789
       -0.0000079533  -0.0000091086  -0.0000213991  -0.0000100318   0.0000737429
       -0.0000089177  -0.0000108050   0.0152844265  -0.0097535099  -0.0433236609
       -0.0006786518  -0.0105852858   0.0009575115   0.0035679656   0.0020969451
       -0.0045424587   0.0014175113  -0.0171374789   0.0051255861   0.0644438228
        0.0534711316  -0.2646481110   0.0000254845   0.0000514992  -0.0000066442
       -0.0000720928   0.0001015680  -0.0000002482  -0.0000746744   0.0000468019
        0.0000003869  -0.0000633540  -0.0000221968  -0.0000003995   0.0002444528
        0.0002916085   0.0000393448  -0.0000398571   0.0000631298   0.0000270502
        0.0000427927   0.0000438773   0.0000593609   0.0000903308  -0.0000051465
       -0.0001571866   0.0000408909   0.0000014239   0.0000260132   0.0000221542
       -0.0000182476  -0.0000336298  -0.0000021852  -0.0000137854  -0.0000035017
        0.0001708215  -0.0000022910  -0.0001157371  -0.0000039309   0.0000075307
        0.0000196637   0.0000165802   0.0000023629   0.0000057038   0.0000090885
        0.0000171074   0.0000019566  -0.0000006337   0.0000288996  -0.0000083387
       -0.0000299079   0.0000306464   0.0000064772   0.0038016176   0.0013083246
       -0.0046645374  -0.0002918855  -0.0002129885   0.0007767883
       -0.0125718843   0.0050537782   0.0167050756   0.0045610373   0.0247734241
       -0.0143172376  -0.0712340459   0.0486184112   0.0618778978   0.1654485145
       -0.0652852009  -0.1452171370  -0.0312295319  -0.0088469315   0.0030921496
        0.0011792996   0.0151362190  -0.0071499508  -0.0040479431   0.0002240414
        0.0005789244  -0.0002824443   0.0009776476   0.0005761801   0.0001044608
        0.0000829839  -0.0000262226   0.0006036747   0.0005972700   0.0003086070
        0.0003414103   0.0008880371  -0.0003995133   0.0006188428  -0.0051631726
        0.0014962031  -0.0000566012   0.0007008292   0.0020252956  -0.0009594495
       -0.0001242422  -0.0011607822   0.0001019648   0.0002449034   0.0002089203
        0.0001857979  -0.0000675772  -0.0003115112   0.0001543482  -0.0009189699
       -0.0000499112  -0.0013863761   0.0001465004  -0.0001742060  -0.0005651535
        0.0001052557  -0.0001510947   0.0000976599  -0.0000663585   0.0000332797
       -0.0001251821   0.0000921905   0.0001124785   0.0000585820   0.0001681469
       -0.0001304893   0.0000299642  -0.0002378529  -0.0001382340   0.0002791623
        0.0001412563   0.0001372240  -0.0000235844  -0.0000204654  -0.0000149497
        0.0000085474  -0.0000070815  -0.0000047295   0.0000059679   0.0000199062
       -0.0000046194   0.0000064259   0.0000218919   0.0000006909  -0.0000133356
       -0.0000226661   0.0000235816  -0.0641947003   0.0013720509   0.0634030744
        0.0076287690  -0.0257224899   0.0010417135  -0.0007915377  -0.0001295735
        0.0000199315   0.0072468380   0.0011192133   0.0017658151  -0.0031852370
        0.0055888666   0.0059074632  -0.0001259172  -0.0000200679  -0.0001976524
       -0.0003881602   0.0002048840  -0.0000175614  -0.0000976180   0.0000373016
       -0.0000878691   0.0000850103  -0.0000589239   0.0000008347  -0.0017059570
        0.0006096828  -0.0007809846  -0.0000795950  -0.0001395259   0.0000130567
       -0.0000279389  -0.0000222638  -0.0000633280  -0.0000211522  -0.0000408243
       -0.0000585917  -0.0000146030  -0.0000231593  -0.0000159769  -0.0000128990
       -0.0000130093   0.0000078630  -0.0000114359  -0.0000021006   0.0000004312
       -0.0000282063  -0.0000493978   0.0000493060  -0.0000169715   0.0000274120
       -0.0000094011  -0.0000094949   0.0000047655  -0.0000041346  -0.0000046240
       -0.0000040889  -0.0000041297   0.0000070112  -0.0000069931  -0.0000003147
        0.0000546340   0.0000115082  -0.0000064519  -0.0028621225  -0.0011289856
        0.0093143618   0.0072657795   0.0011535446   0.0017966253
        0.0047699500  -0.0011944097  -0.0179992998   0.0083435790  -0.0593790874
        0.0053375289   0.0649742683  -0.2066795574  -0.1293959718  -0.0652852009
        0.5030674110   0.0186312963   0.0011343867  -0.1209739485   0.0414468285
        0.0045642079  -0.0060365685   0.0008192408   0.0007309410   0.0000108999
        0.0005690323   0.0000734010  -0.0001376265  -0.0001360383  -0.0000527981
        0.0000026450  -0.0000062986  -0.0000618007  -0.0002813259  -0.0001303460
       -0.0004770484  -0.0005096950   0.0001042538  -0.0020782452  -0.0134452284
       -0.0053387141  -0.0011688448   0.0004364798   0.0024201375  -0.0006729719
        0.0005838635  -0.0008103929   0.0001494251  -0.0002910106  -0.0008073739
        0.0011927162   0.0003067599   0.0005096428   0.0001966605   0.0000264170
       -0.0001844300  -0.0000563582   0.0002912097   0.0000995335  -0.0000363137
        0.0000278637   0.0000451476   0.0000093085  -0.0001038587   0.0000795136
        0.0000601012  -0.0000887104   0.0000234825   0.0000355959  -0.0000956521
       -0.0000280157  -0.0001206400  -0.0000573568   0.0000139918   0.0000854336
       -0.0000888225   0.0001657464   0.0000288609   0.0000695521  -0.0000250766
        0.0000178231  -0.0000237920  -0.0000040497   0.0000170256  -0.0000084906
        0.0000053874  -0.0000073458  -0.0000048708  -0.0000072183   0.0000255414
       -0.0000107206   0.0000287635  -0.0137909495  -0.0932066900   0.0677306208
       -0.0084357601  -0.0022019804   0.0306812843  -0.0001704127   0.0007016554
       -0.0004748402   0.0012976436  -0.0050747454   0.0021323793  -0.0012528881
        0.0039684967   0.0018774030   0.0000171483   0.0002037835  -0.0000109253
       -0.0000067620   0.0000228496  -0.0000621669  -0.0000348411   0.0000262620
        0.0000399170  -0.0001446916   0.0000332762   0.0000365004  -0.0001440841
        0.0006099077  -0.0001176085  -0.0000391002  -0.0001514401   0.0001099201
        0.0000353481   0.0000301963   0.0000588974   0.0000101217   0.0000375770
       -0.0000959075  -0.0000259372  -0.0000352951  -0.0000070883  -0.0000276988
        0.0000454163  -0.0000189018  -0.0000267835  -0.0000046439   0.0000338740
       -0.0000118582   0.0000165466  -0.0000201798   0.0000174422   0.0000071941
        0.0000020822   0.0000142618   0.0000047581  -0.0000000642   0.0000047011
        0.0000020277   0.0000012007   0.0000063030   0.0000104126  -0.0000026563
       -0.0000005061  -0.0000147125  -0.0000036951   0.0052067888   0.0043994631
       -0.0201907161   0.0011108565  -0.0048426850   0.0028743692
        0.0171864079  -0.0193442334  -0.0523513399  -0.0060313147  -0.0495640249
        0.0481790120   0.0527592731  -0.0749614838  -0.1774010351  -0.1452171370
        0.0186312963   0.5638740485  -0.0007392231   0.0547362441  -0.0507377113
        0.0009056364  -0.0037053651   0.0010134206   0.0004076144  -0.0002173904
        0.0002935435   0.0007385661  -0.0001629260   0.0000508637  -0.0001647900
       -0.0003678995   0.0000455111  -0.0000999168   0.0002127693  -0.0001209856
       -0.0002640422   0.0002376595  -0.0000102455  -0.0002185388  -0.0153152934
        0.0044352391  -0.0000540798   0.0006645168   0.0008768857  -0.0004417048
        0.0009812106  -0.0015708216   0.0000370070   0.0000650776  -0.0000461615
        0.0000504942  -0.0002769506  -0.0001085535   0.0002525315   0.0005063622
        0.0000376164   0.0000448753  -0.0000227890   0.0002374024  -0.0002897126
        0.0001901012   0.0001344402   0.0000547597  -0.0000788158  -0.0000630367
        0.0000220742  -0.0000310651   0.0000539118   0.0000357432  -0.0001048991
        0.0000324531  -0.0001073446  -0.0001027558  -0.0001497191  -0.0000183463
        0.0000194978  -0.0001270937  -0.0000185859  -0.0000899742   0.0000003266
       -0.0000228267   0.0000014052   0.0000089621  -0.0000073448   0.0000058864
       -0.0000038075   0.0000309770   0.0000035962   0.0000186419  -0.0001058891
        0.0000486730  -0.0000171919   0.0703133978   0.0162649610  -0.2830970145
       -0.0075592097   0.0870759009  -0.0146211722  -0.0000081153  -0.0004582395