$hessian                                                                        
        0.5295253619  -0.0063525128   0.0000500035  -0.0740498595  -0.0373783324
        0.0023015059  -0.0104871416  -0.0288735432   0.0017110480  -0.0050108544
       -0.0009616441   0.0000749422  -0.0000284446   0.0001203710  -0.0000072876
        0.0001049159   0.0000348560  -0.0000116212  -0.0000689364  -0.0001193595
        0.0000043063  -0.0000949828   0.0000541312  -0.0000048214   0.0000494135
        0.0000453300  -0.0000008373   0.0000915878   0.0000169402  -0.0000027877
        0.0000153948   0.0000297630   0.0000004054   0.0000650133  -0.0000366734
        0.0000031101  -0.0001774042   0.0002161470   0.0000124029   0.0000889094
        0.0011609521  -0.0000943397   0.0003041871   0.0000222511  -0.0000041793
       -0.0000129352  -0.0000423110   0.0000115406   0.0000202062   0.0000004176
        0.0000334656  -0.0000015414   0.0000058839  -0.0000057435  -0.0000002835
        0.0000198757   0.0000036486  -0.0000128472   0.0000085568  -0.0000011290
       -0.0000089281  -0.0000088664   0.0000007924  -0.0000093331   0.0000085863
       -0.0000037384   0.0000021583  -0.0000063184   0.0000032886  -0.0000274727
        0.0000004590  -0.0000103216  -0.0026251116   0.0016727905  -0.0000075422
        0.0026084717   0.0198708561  -0.0011306840  -0.0752740745   0.0415238149
        0.0697886833  -0.2814733776  -0.0292566100   0.0090097150  -0.0851581364
        0.0390016470  -0.0816617431   0.0011339099  -0.0012287288   0.0000767016
       -0.0005688618  -0.0014667272   0.0000356843   0.0000346810   0.0000530375
       -0.0000019058   0.0000023474  -0.0000036977   0.0000001061  -0.0000037185
        0.0000034735   0.0000007225  -0.0000036712   0.0000027067  -0.0000018475
        0.0000085901  -0.0000097161   0.0000008584   0.0000354574   0.0000385936
        0.0000301359  -0.0000185617   0.0000028492  -0.0000163155   0.0000008116
       -0.0000041364  -0.0000073120  -0.0000022384   0.0000005994   0.0000041935
       -0.0000001673  -0.0000071485   0.0000065393  -0.0000048357   0.0000027681
       -0.0000004208   0.0000032208  -0.0000027108   0.0000057294   0.0000026037
       -0.0000062546  -0.0000048589  -0.0000008939  -0.0000000075  -0.0000022074
        0.0000011771  -0.0000005884   0.0000059079  -0.0000031370  -0.0000095724
       -0.0000016058  -0.0000066128   0.0000016889  -0.0000030539  -0.0000045435
       -0.0000048516  -0.0000170914   0.0010404876   0.0018609646  -0.0001720423
       -0.0063525128   0.4683838628   0.0003555762  -0.0305985270  -0.2092675196
        0.0088835606  -0.0109429002  -0.0164434573   0.0010382640  -0.0014699471
        0.0023645170   0.0002459203   0.0005028714  -0.0012135911   0.0000610486
       -0.0000914807   0.0005363393  -0.0000883617  -0.0000521642  -0.0001247247
        0.0000066051   0.0002994776  -0.0000425514   0.0000113586   0.0000108987
        0.0000010935   0.0000065659  -0.0003455990  -0.0000960274   0.0000018726
       -0.0000375275  -0.0000337958   0.0000067787  -0.0000590805   0.0002797844
       -0.0000368506   0.0001696330  -0.0008873424  -0.0000064545  -0.0004156235
       -0.0005823661   0.0001005497  -0.0003896651   0.0000388797  -0.0000027756
        0.0000458159   0.0000501860   0.0000372809  -0.0000269168  -0.0000429150
       -0.0000567270  -0.0000172021  -0.0000110269  -0.0000107823  -0.0000647236
       -0.0000129743  -0.0000072037   0.0000087803  -0.0000103025   0.0000203768
        0.0000093176   0.0000261362   0.0000027021   0.0000094774  -0.0000163850
       -0.0000133785   0.0000374305   0.0000359501   0.0000412088   0.0000457142
       -0.0000084428   0.0000084743   0.0031885566  -0.0011812162   0.0005071923
        0.0000810456  -0.0297484365   0.0020003882   0.0394935294  -0.0919266670
       -0.0898186422  -0.0295550956  -0.0467354213   0.0012362131   0.0369646334
       -0.0745967323   0.0759449670   0.0010309069   0.0006199723  -0.0001966457
       -0.0000429775  -0.0004083162   0.0000117113   0.0000275881   0.0000243891
       -0.0000027178   0.0000200901  -0.0000052981   0.0000001955   0.0000168130
       -0.0000399877  -0.0000242793   0.0000162967  -0.0000379419   0.0000268772
        0.0000148766  -0.0000097092  -0.0000005992  -0.0000343338  -0.0000733535
       -0.0000989329   0.0000150876   0.0000105919   0.0000230582  -0.0000057324
       -0.0000020627   0.0000053414   0.0000262340   0.0000029715  -0.0000102245
       -0.0000131266   0.0000057478  -0.0000001971   0.0000279278  -0.0000075213
        0.0000011382  -0.0000066080   0.0000078758  -0.0000016343  -0.0000062303
        0.0000117595  -0.0000007395   0.0000253263   0.0000022017   0.0000013647
       -0.0000084089   0.0000043398  -0.0000009583  -0.0000141663   0.0000065150
       -0.0000006960   0.0000158562  -0.0000183125  -0.0000178436  -0.0000082653
        0.0000154114   0.0000344977  -0.0015453702   0.0011558738  -0.0002244436
        0.0000500035   0.0003555762   0.4893275662   0.0024427339   0.0092251761
       -0.0597629935   0.0003853020   0.0010588091   0.0003650610   0.0001616044
        0.0003444055   0.0052489594   0.0001077612  -0.0000191384  -0.0001109420
        0.0000257276  -0.0000622009  -0.0009846102   0.0000032185   0.0000087024
       -0.0000253439   0.0000147303  -0.0000034870   0.0000671236  -0.0000011767
        0.0000012680   0.0000057023  -0.0000181645   0.0000034351   0.0000155312
       -0.0000004673   0.0000065698   0.0000663211   0.0000107532   0.0000126825
       -0.0002452138  -0.0000299859  -0.0000463086  -0.0003630577   0.0000157224
        0.0001678877   0.0005807261  -0.0000100147   0.0000013830   0.0000232931
        0.0000187683   0.0000086586  -0.0000466964   0.0000078478   0.0000112227
        0.0000058793  -0.0000034605   0.0000045853   0.0000080288  -0.0000010241
        0.0000025165   0.0000034156  -0.0000039624   0.0000026136  -0.0000008451
       -0.0000025973  -0.0000011980   0.0000035244  -0.0000009037  -0.0000010844
        0.0000022294  -0.0000190581  -0.0000042947  -0.0000016942   0.0000124926
        0.0000055703   0.0000071601  -0.0002100670   0.0003678942   0.0079606322
       -0.0002313951   0.0021374685   0.0020124796   0.0694271027  -0.0930435334
       -0.1929453947   0.0089957499   0.0011534591  -0.0451506373  -0.0811646819
        0.0786759520  -0.2015682491  -0.0001027258  -0.0001236360  -0.0018960379
        0.0000253653   0.0000639765  -0.0000321862   0.0000003630  -0.0000011941
       -0.0000121088   0.0000004164  -0.0000009504  -0.0000027535  -0.0000028643
        0.0000169781  -0.0000002842   0.0000031229  -0.0000154826   0.0000007025
       -0.0000002155  -0.0000009808  -0.0000107341   0.0000137221  -0.0000289696
        0.0000336955   0.0000125661  -0.0000016807   0.0000028556  -0.0000007479
        0.0000024086   0.0000001621  -0.0000008377  -0.0000013146   0.0000031402
       -0.0000010177   0.0000001391  -0.0000029825  -0.0000022088   0.0000010001
        0.0000002615   0.0000016958  -0.0000020323   0.0000001491  -0.0000002006
        0.0000002448  -0.0000001121  -0.0000032141   0.0000011682   0.0000018147
        0.0000025664  -0.0000025494   0.0000014410   0.0000028202   0.0000006459
       -0.0000029695   0.0000006498   0.0000030899   0.0000027448  -0.0000018924
        0.0000041625   0.0000018100   0.0000700775  -0.0002896138  -0.0025865636
       -0.0740498595  -0.0305985270   0.0024427339   0.6374916584  -0.0249212328
       -0.0010719858  -0.2751885798  -0.0119329070   0.0018244767  -0.0040069061
       -0.0914113719   0.0048932480  -0.0512482668   0.0239799352  -0.0011192958
       -0.0014767650  -0.0107844085   0.0002683647   0.0017285935   0.0050032131
       -0.0001820921   0.0022804811  -0.0036533245   0.0002212012  -0.0000422632
        0.0000093105  -0.0000132881  -0.0034565540  -0.0008212710   0.0000148758
        0.0001067254   0.0002917015   0.0000103620   0.0008496355   0.0022151009
       -0.0002586577  -0.0028365263  -0.0001966480   0.0000779872   0.0051028506
       -0.0072490126   0.0006491181  -0.0006905383   0.0000106452  -0.0000957197
        0.0002177999   0.0000254589  -0.0000372146  -0.0000244572  -0.0000396933
       -0.0000955131  -0.0000615485  -0.0000676943  -0.0000525792  -0.0000753066
        0.0000066099  -0.0000359257   0.0000399226  -0.0000119266   0.0000395138
        0.0000339007   0.0000437054   0.0000163100   0.0000249984  -0.0000231447
       -0.0000278545   0.0000546709   0.0000360465   0.0001251512   0.0001990477
        0.0000299951   0.0000917005   0.0392044349   0.0640731754  -0.0037770584
       -0.2201397655   0.0812787112  -0.0033983066   0.0033405782   0.0097269536
       -0.0006444176  -0.0112868395  -0.0299987605   0.0018604572   0.0034872991
        0.0111969118  -0.0007073703  -0.0243681018  -0.0026941444   0.0001851567
        0.0008712030  -0.0012052603  -0.0001313995   0.0000828987   0.0001038344
       -0.0000075913   0.0000136680   0.0000225911  -0.0000069876  -0.0000546623
        0.0000627010   0.0000569494  -0.0000565200   0.0000451621  -0.0000637671
       -0.0000970794   0.0001956973  -0.0000285627  -0.0001604078   0.0001153731
       -0.0001608604   0.0000066884   0.0000389438   0.0000431654  -0.0000137736
       -0.0000082473  -0.0000019099   0.0000482663   0.0000080016  -0.0000211529
        0.0000014718   0.0000100492   0.0000067417   0.0000468711  -0.0000186786
        0.0000035069   0.0000005771   0.0000076884   0.0000235650  -0.0000069835
        0.0000081085  -0.0000183157   0.0000419483  -0.0000008709  -0.0000067213
       -0.0000098071   0.0000035644   0.0000124655  -0.0000039959   0.0000096508
       -0.0000008260   0.0000386267  -0.0000402568  -0.0000679857  -0.0000040740
       -0.0000469295  -0.0000105590  -0.0259552347   0.0171654707  -0.0008231327
       -0.0373783324  -0.2092675196   0.0092251761  -0.0249212328   0.6312992601
       -0.0278959199  -0.0888551894  -0.1032309543   0.0033577951  -0.0316938548
       -0.0082955489   0.0003865192   0.0106716712   0.0013599199  -0.0003530189
        0.0010888946  -0.0007037921   0.0001009578  -0.0000555008  -0.0005990206
        0.0000130822  -0.0007099283   0.0006536689  -0.0000615181   0.0002458900
        0.0002468623  -0.0000052342   0.0010377739   0.0002311105  -0.0000169111
       -0.0000140421  -0.0000372941   0.0000049136  -0.0005468164  -0.0012090343
        0.0000716491  -0.0005377910  -0.0015455507   0.0002029282  -0.0052193285
       -0.0007982823   0.0003550961   0.0011604898  -0.0000027569  -0.0000216768
       -0.0003455454   0.0000221960  -0.0001702661   0.0001574160   0.0000606881
        0.0001060787   0.0001168049   0.0000140467   0.0000474062   0.0000765660
        0.0000388525   0.0000473649  -0.0000719626   0.0000216219  -0.0000365144
       -0.0000609590  -0.0000407068  -0.0000109158  -0.0000584396   0.0000351649
        0.0000184804   0.0000031105   0.0000007101  -0.0000908240  -0.0002271606
       -0.0000069518  -0.0000893697   0.0103698993  -0.0586954182   0.0031660901
        0.1575471003  -0.2011939890   0.0084062334  -0.0005311661  -0.0240188837
       -0.0032207333  -0.0060235184  -0.0069631525   0.0004192731   0.0004080528
       -0.0207395338   0.0053601306   0.0207184113   0.0036325442  -0.0001378197
       -0.0018542708  -0.0052263222   0.0006839879   0.0000572207   0.0000748742
        0.0000044130  -0.0000384048   0.0000144702   0.0000014040   0.0000093096
        0.0000311179   0.0000165905   0.0000125008   0.0000288571  -0.0000217553
       -0.0000435309   0.0000147159   0.0000024170   0.0001181924   0.0000294960
        0.0002231588  -0.0000375204  -0.0000126497  -0.0000583991   0.0000250413
       -0.0000034488  -0.0000226488  -0.0000666066  -0.0000026525   0.0000272717
        0.0000293875  -0.0000115612  -0.0000043102  -0.0000643461   0.0000286328
       -0.0000037264   0.0000149615  -0.0000124717   0.0000018416   0.0000202321
       -0.0000246199  -0.0000037895  -0.0000587979   0.0000052077   0.0000024056
        0.0000234029  -0.0000031976   0.0000118007   0.0000297129  -0.0000099980
        0.0000008286  -0.0000559880   0.0000489633   0.0000564545  -0.0000026880
        0.0000475702   0.0000394159  -0.0044691208   0.0047147600  -0.0001358131
        0.0023015059   0.0088835606  -0.0597629935  -0.0010719858  -0.0278959199
        0.1478782753   0.0064922496   0.0035056100  -0.0516498873   0.0016607111
        0.0002736836   0.0000753435  -0.0006050594  -0.0003492352  -0.0051570191
       -0.0000588942   0.0000361125  -0.0000410174  -0.0000101410   0.0000067890
       -0.0001488145   0.0000282032  -0.0000316241   0.0000174526  -0.0000070649
       -0.0000038153   0.0000290583  -0.0000463233  -0.0000270477  -0.0001384926
        0.0000030748   0.0000095032   0.0000000510   0.0000353625   0.0000831982
       -0.0000364017  -0.0001095370   0.0000855355   0.0009188986   0.0009747002
        0.0003262889   0.0047660948  -0.0005574984  -0.0001668140   0.0006693984
       -0.0001112097   0.0002340002  -0.0000581135   0.0001056115   0.0000231821
       -0.0001161107   0.0000001035   0.0001005425   0.0001292385  -0.0000101557
       -0.0000246064   0.0000088928   0.0000076163  -0.0000025390   0.0000069663
        0.0000148491   0.0000055972   0.0000009374   0.0000062443  -0.0000043645
       -0.0000030843  -0.0001719947   0.0000153061  -0.0000563178   0.0000012169
       -0.0001323786  -0.0000676677  -0.0005729412   0.0033461367  -0.0024617442
       -0.0081408089   0.0087536411  -0.0446983609  -0.0047121337  -0.0231697007
        0.0017237383   0.0006092294   0.0013197202   0.0002662119   0.0044733955
        0.0248630771  -0.0015818490  -0.0010849492  -0.0001627060   0.0005922773
        0.0000012906   0.0006284955   0.0085920725  -0.0000047743  -0.0000031612
        0.0000044086   0.0000004824  -0.0000002482   0.0000003535  -0.0000009516
       -0.0000022742  -0.0000013810  -0.0000018411   0.0000003267   0.0000007779
        0.0000014524   0.0000087533   0.0000200506  -0.0000275869  -0.0000066216
       -0.0000317443   0.0000018576   0.0000123193  -0.0000053108  -0.0000027633
       -0.0000017671  -0.0000000908   0.0000073732   0.0000011468  -0.0000038127
       -0.0000024763   0.0000024522   0.0000015300   0.0000087987  -0.0000059670
        0.0000003333  -0.0000020839   0.0000027123  -0.0000014120  -0.0000028735
        0.0000007099  -0.0000008787   0.0000081723  -0.0000011038  -0.0000002974
       -0.0000030677   0.0000013982  -0.0000038812  -0.0000043248  -0.0000000851
        0.0000014130  -0.0000126491   0.0000063680  -0.0000127025  -0.0000016379
       -0.0000151644  -0.0000025315   0.0005942264  -0.0005290231   0.0003381424
       -0.0104871416  -0.0109429002   0.0003853020  -0.2751885798  -0.0888551894
        0.0064922496   0.6267964458  -0.0079299069  -0.0010408000  -0.1113816336
       -0.0277223161   0.0006525722   0.0415461979  -0.0015217845   0.0001390325
       -0.0022655666   0.0125546760  -0.0004832287  -0.0018660241  -0.0037469592
        0.0001148704  -0.0011489243   0.0025025004  -0.0001310651   0.0000100694
       -0.0000135828   0.0000090488   0.0018507048   0.0001595925   0.0000043100
       -0.0000507084  -0.0002717228  -0.0000101707  -0.0007259815  -0.0006060669
        0.0001280769   0.0020820935  -0.0002349755  -0.0000119425  -0.0034648190
        0.0036936097  -0.0001958304   0.0002494028  -0.0001106206  -0.0000019153
       -0.0001785089   0.0000119506  -0.0001232435   0.0001272552   0.0000436382
        0.0000084327   0.0000196228   0.0000533295   0.0000724680   0.0000555669
       -0.0000207928   0.0000278353  -0.0000154380  -0.0000010249  -0.0000181848
       -0.0000172245  -0.0000208212  -0.0000066950  -0.0000047314   0.0000046280
        0.0000159644  -0.0000784864  -0.0000081628  -0.0001027885  -0.0000103915
       -0.0000444038  -0.0000917181  -0.0220594602  -0.0345391137   0.0020196683
       -0.0575428684   0.0538898167  -0.0028833475  -0.0003992606   0.0011329295
        0.0006323915  -0.0003744095  -0.0013348112   0.0000788923  -0.0003497551
        0.0011873305  -0.0007418587  -0.1726459405   0.1275356493  -0.0064304640
       -0.0102457591  -0.0281794878   0.0014746069  -0.0000155751   0.0001558149
       -0.0000143421   0.0000083858  -0.0000331683   0.0000048450   0.0000361751
       -0.0000747306  -0.0000412993   0.0000360602  -0.0000601634   0.0000523419
        0.0000434198  -0.0000715343   0.0000094882  -0.0000667671   0.0000943715
        0.0001886056   0.0000035780   0.0000098908  -0.0000054151   0.0000033941
        0.0000036260  -0.0000015325  -0.0000219997  -0.0000034279   0.0000080278
        0.0000064524   0.0000124490  -0.0000114260  -0.0000198071   0.0000056516
       -0.0000016971  -0.0000001898  -0.0000096459  -0.0000082476   0.0000008810
       -0.0000072839   0.0000105950  -0.0000206157   0.0000003695   0.0000038812
        0.0000056717  -0.0000063583   0.0000000024   0.0000108455   0.0000140332
        0.0000026781  -0.0000134742   0.0000178525   0.0000296559  -0.0000156780
        0.0000325537   0.0000100732  -0.0022165030   0.0032546920  -0.0002187035
       -0.0288735432  -0.0164434573   0.0010588091  -0.0119329070  -0.1032309543
        0.0035056100  -0.0079299069   0.6819549899  -0.0283792927  -0.1036053351
       -0.3300601137   0.0130087780   0.0526039724  -0.0687348517   0.0034658205
        0.0036615927   0.0121873700  -0.0000303932  -0.0022280876  -0.0052571103
        0.0002015769  -0.0021932238   0.0035352242  -0.0002552432   0.0000047863
       -0.0000269377   0.0000142016   0.0030469870   0.0006152218  -0.0000022221
       -0.0000912849  -0.0001920031   0.0000078146  -0.0006402419  -0.0020381613
        0.0001559314   0.0047986629   0.0006914304  -0.0000495984  -0.0026579173
       -0.0015724119  -0.0000948964   0.0001177137  -0.0000173128  -0.0000083397
       -0.0001398190  -0.0000761223  -0.0000495130   0.0001413292  -0.0000119109
       -0.0000471168  -0.0000172419   0.0000417815   0.0000461962   0.0000057685
       -0.0000098935   0.0000250510  -0.0000112434  -0.0000118478  -0.0000014969
       -0.0000134288   0.0000020134   0.0000065347   0.0000040434  -0.0000080551
        0.0000000356   0.0000057404   0.0000225192  -0.0000025156  -0.0000316207
        0.0000408502  -0.0000736162  -0.0264664420  -0.0280601583   0.0012657182
        0.0015996751   0.0444744310  -0.0027267993  -0.0018471449   0.0000803543
        0.0004876400  -0.0022502478  -0.0059753719   0.0004391789  -0.0019121157
        0.0001036349  -0.0004084834   0.1277214380  -0.1705143295   0.0069716225
       -0.0046219099  -0.0090590692   0.0007843873  -0.0001210924  -0.0000366434
        0.0000126792   0.0000004347   0.0000065086  -0.0000007125   0.0000413418
       -0.0000713326  -0.0000478074   0.0000412853  -0.0000592137   0.0000553993
        0.0000466752  -0.0001675159   0.0000263162   0.0000053506  -0.0000073595
        0.0000494172  -0.0000004265   0.0000153857   0.0000111652   0.0000053804
       -0.0000025048  -0.0000000219  -0.0000028147  -0.0000001429   0.0000027135
        0.0000071992   0.0000183461  -0.0000036367   0.0000028614   0.0000049146
       -0.0000005886   0.0000042282   0.0000037879  -0.0000035220   0.0000021828
        0.0000050473   0.0000013584  -0.0000014859  -0.0000023719  -0.0000024001
        0.0000043012  -0.0000017869   0.0000008911   0.0000061593   0.0000215007
       -0.0000005412  -0.0000062694  -0.0000092009   0.0000073983  -0.0000403075
        0.0000640753   0.0000780615   0.0037569482  -0.0022312419   0.0004984508
        0.0017110480   0.0010382640   0.0003650610   0.0018244767   0.0033577951
       -0.0516498873  -0.0010408000  -0.0283792927   0.1134888496   0.0046467146
        0.0136010401  -0.0435553984  -0.0024262529   0.0034986905   0.0014536756
       -0.0003109363  -0.0004395883   0.0063297766   0.0001114850   0.0002501295
        0.0001012053   0.0001263587  -0.0002097924  -0.0004659945   0.0000002626
       -0.0000019455  -0.0000328163  -0.0001824271  -0.0000415914  -0.0000154247
        0.0000046144   0.0000192308   0.0000487883   0.0000256813   0.0000911128
       -0.0003680893  -0.0002058828   0.0000018454   0.0000952599   0.0000944393
        0.0000431237  -0.0000476909   0.0000909279  -0.0000178124  -0.0001813186
        0.0000147835  -0.0000585475   0.0000477640  -0.0000209917  -0.0000156575
        0.0000107133   0.0000000651  -0.0000081374  -0.0000204833  -0.0000016935
        0.0000050570  -0.0000065581  -0.0000003831   0.0000004146   0.0000005186
       -0.0000003319   0.0000004787  -0.0000007448   0.0000004923   0.0000004391
       -0.0000009516   0.0000235574  -0.0000042598   0.0000148546  -0.0000069132
        0.0000085723   0.0000050219   0.0012019252   0.0012916547  -0.0050785893
        0.0001510666  -0.0024271212   0.0012252487   0.0001319378   0.0000431262
        0.0006894061   0.0001943062   0.0004694324   0.0011505006   0.0001529604
       -0.0000055473   0.0007539965  -0.0064108517   0.0069224483  -0.0331852660
        0.0001462624   0.0002479765   0.0005948288   0.0000068007   0.0000155380
        0.0001849760   0.0000022472  -0.0000011779   0.0000012045   0.0000050430
        0.0000125938   0.0000055427  -0.0000106266  -0.0000057795   0.0000008300
        0.0000027582   0.0000198690   0.0000603545   0.0000414406  -0.0000075269
       -0.0000113173  -0.0000015474  -0.0000019768   0.0000024346  -0.0000003573
        0.0000025063   0.0000018195   0.0000007406   0.0000001761   0.0000001830
       -0.0000001542  -0.0000034140  -0.0000005345  -0.0000003139   0.0000000001
        0.0000000114  -0.0000002070  -0.0000019225   0.0000024639   0.0000000553
        0.0000010650   0.0000001445  -0.0000001454   0.0000004337   0.0000004543
        0.0000002687  -0.0000009742   0.0000031482  -0.0000000254  -0.0000006926
       -0.0000011124   0.0000004906  -0.0000001715   0.0000032869   0.0000008628
        0.0000110532   0.0000025715  -0.0000932318   0.0006788625   0.0079772821
       -0.0050108544  -0.0014699471   0.0001616044  -0.0040069061  -0.0316938548
        0.0016607111  -0.1113816336  -0.1036053351   0.0046467146   0.6719639147
        0.0149135752   0.0027315533  -0.2206876741   0.1409702758  -0.0078467733
        0.0039820058   0.0141413327  -0.0004497058  -0.0014314171  -0.0044569256
        0.0001446998  -0.0011117990   0.0021970492  -0.0001161872  -0.0002333101
       -0.0002168889   0.0000267105   0.0012171414   0.0001040845   0.0000105647
       -0.0001308893  -0.0000366528  -0.0000021146  -0.0002246437  -0.0001823183
        0.0000378499   0.0036184444  -0.0010628966  -0.0000966032  -0.0066155885
       -0.0018364349  -0.0001992638  -0.0010573185   0.0010542310  -0.0000261682
        0.0000482998  -0.0000393962  -0.0000862513   0.0000182881  -0.0000111340
        0.0000104349  -0.0000334331   0.0000404256   0.0000605780  -0.0000063709
       -0.0000141017  -0.0000095581   0.0000103101   0.0000002092   0.0000057221
        0.0000030967   0.0000106233  -0.0000054105   0.0000025947  -0.0000044446
        0.0000000446  -0.0000832991  -0.0000390390   0.0000705227  -0.0001778952
        0.0000125228  -0.0000500447  -0.0481548891   0.0042156894  -0.0001701644
       -0.0007244241   0.0126887894  -0.0008470175  -0.0001076503   0.0002394148
        0.0001249091  -0.0004688283  -0.0014164505   0.0000959168  -0.0001056034
        0.0002376852  -0.0001481297   0.0040089025   0.0208516133  -0.0010583631
       -0.2836411688  -0.0649054776   0.0012114494  -0.0001362302  -0.0006676683
        0.0000257816   0.0000284250  -0.0000037463  -0.0000017014   0.0000365104
       -0.0000887385  -0.0000927984   0.0000340973  -0.0000739046   0.0000960198
        0.0001420925  -0.0001995277   0.0000317777  -0.0000412703   0.0000978504
        0.0001394600   0.0000160441   0.0000120832   0.0000212927  -0.0000059703
       -0.0000043364   0.0000008752   0.0000034280  -0.0000008643  -0.0000051356
       -0.0000105337   0.0000051828  -0.0000077264   0.0000056455  -0.0000043879
       -0.0000001886  -0.0000140813  -0.0000041962  -0.0000055031  -0.0000112208
        0.0000008302   0.0000052161   0.0000037559   0.0000024461   0.0000059010
       -0.0000082963  -0.0000012396   0.0000016305  -0.0000089453   0.0000024912
        0.0000020930  -0.0000161365   0.0000031100   0.0000062067  -0.0000357506
        0.0000025700  -0.0000132373   0.0005410354   0.0002358221  -0.0000981939
       -0.0009616441   0.0023645170   0.0003444055  -0.0914113719  -0.0082955489
        0.0002736836  -0.0277223161  -0.3300601137   0.0136010401   0.0149135752
        0.6539511019  -0.0253849356   0.0942423622  -0.1800877193   0.0070789645
        0.0189264367  -0.0431670289   0.0017029603   0.0046373890   0.0090311226
       -0.0003322282   0.0031487150  -0.0053214276   0.0003103127   0.0001252425
        0.0001632677  -0.0000394795  -0.0039976417  -0.0003057696  -0.0000308034
        0.0001305169   0.0001100320  -0.0000054519   0.0021535144   0.0017571468
       -0.0001416261  -0.0069170504  -0.0071811740   0.0003501119   0.0008717477
        0.0013150481   0.0000375772  -0.0006851661   0.0005688085   0.0000924759
        0.0002249432   0.0001083892   0.0001551221  -0.0002437060  -0.0000036403
        0.0001067486   0.0000666521  -0.0000677756  -0.0000867003  -0.0000003189
        0.0000236949  -0.0000356572   0.0000253633   0.0000085862  -0.0000052692
        0.0000218774  -0.0000085113  -0.0000055143   0.0000112646   0.0000061830
        0.0000038022  -0.0000397162  -0.0000556505   0.0000666307  -0.0001778571
       -0.0001136341   0.0000909435   0.0423392861   0.0447988197  -0.0023912423
        0.0178221500  -0.0515522092   0.0028050291   0.0006424892  -0.0000162850
       -0.0002088264   0.0001217391  -0.0004329938  -0.0000153293   0.0006243198
       -0.0000796937   0.0002216396  -0.0032652689  -0.0249435260   0.0012153080
       -0.0659169562  -0.0619432856   0.0002881965   0.0000222129   0.0001757167
        0.0000027893  -0.0000277112   0.0000111323   0.0000011822  -0.0000552323
        0.0001088329   0.0000877115  -0.0000562819   0.0000891755  -0.0000910032
        0.0000544557  -0.0002318070   0.0000136714   0.0000600746  -0.0000148293
       -0.0001392703   0.0000121418  -0.0000321561  -0.0000112296  -0.0000035119
        0.0000092101   0.0000068578   0.0000082911  -0.0000007566  -0.0000041011
       -0.0000000634  -0.0000197806   0.0000064175   0.0000028391  -0.0000058714
        0.0000010465   0.0000012035  -0.0000042267  -0.0000024325   0.0000011158
       -0.0000042330   0.0000046234   0.0000063330   0.0000003412   0.0000009622
        0.0000012590  -0.0000008437  -0.0000095910   0.0000027363  -0.0000201044
        0.0000002518   0.0000065279   0.0000185463  -0.0000103066   0.0000583786
       -0.0000712757  -0.0000607352   0.0001946604  -0.0005778011   0.0001412680
        0.0000749422   0.0002459203   0.0052489594   0.0048932480   0.0003865192
        0.0000753435   0.0006525722   0.0130087780  -0.0435553984   0.0027315533
       -0.0253849356   0.1141861240  -0.0054344616   0.0072499626  -0.0444415062
       -0.0007694796   0.0016437014  -0.0032943763  -0.0001446177  -0.0003185916
        0.0000053571  -0.0001152876   0.0001959180   0.0001544081   0.0000015506
       -0.0000041897  -0.0000142088   0.0001414534  -0.0000084213  -0.0001564966
       -0.0000031970  -0.0000169630  -0.0000307871  -0.0000637399  -0.0000057119
        0.0005010673   0.0002900256   0.0002125663   0.0032386037   0.0000955317
        0.0002638207   0.0037656956  -0.0003068492  -0.0000139180   0.0008218574
        0.0001891913   0.0000117541  -0.0000322261   0.0000026745   0.0000538876
       -0.0000214924   0.0000077190   0.0000115534   0.0000138982  -0.0000047693
       -0.0000093491   0.0000035365   0.0000027409  -0.0000006397   0.0000036676
        0.0000077625   0.0000030847  -0.0000007351   0.0000040050  -0.0000022041
       -0.0000029151  -0.0000537732   0.0000809896   0.0000152994  -0.0001757888
       -0.0000703130  -0.0000567802  -0.0024316245  -0.0022963925  -0.0010842644
       -0.0009104427   0.0026606348  -0.0020208647  -0.0000168826   0.0008361225
        0.0000869555  -0.0000167734  -0.0000077677   0.0002705384  -0.0000091112
       -0.0007699673   0.0001458440   0.0001730939   0.0012703939  -0.0002267991
        0.0012202033   0.0007451313  -0.0334121094   0.0000002487  -0.0000195673
       -0.0001748447  -0.0000019081   0.0000007891  -0.0000018865  -0.0000012456
        0.0000010269  -0.0000007756   0.0000072104  -0.0000073400   0.0000062529
        0.0000193580   0.0000064766   0.0001398661   0.0000025030   0.0000164719
        0.0000397875   0.0000037390   0.0000038962   0.0000054941  -0.0000015020
        0.0000017538   0.0000027231   0.0000036125   0.0000006010  -0.0000008563
       -0.0000015162  -0.0000022439  -0.0000002805   0.0000030757  -0.0000027838
        0.0000006784  -0.0000009542  -0.0000006463   0.0000017331  -0.0000014118
        0.0000021412   0.0000002888   0.0000021108   0.0000006108   0.0000009248
       -0.0000010281  -0.0000002983   0.0000026833  -0.0000017858   0.0000005851
       -0.0000007848  -0.0000227160   0.0000045575   0.0000063805  -0.0000162546
        0.0000094754   0.0000284854  -0.0000230047   0.0000131198  -0.0002420654
       -0.0000284446   0.0005028714   0.0001077612  -0.0512482668   0.0106716712
       -0.0006050594   0.0415461979   0.0526039724  -0.0024262529  -0.2206876741
        0.0942423622  -0.0054344616   0.6520730998  -0.1033886054   0.0089881117
       -0.0692585605  -0.0061267008  -0.0001555866   0.0032026728  -0.0205868954
        0.0009100900  -0.0023683555  -0.0023550728   0.0001718187  -0.0002913323
       -0.0012533176   0.0000543497  -0.0009158018  -0.0011775487   0.0000616859
        0.0001152397   0.0001195188  -0.0000200554  -0.0049472549   0.0020682523
       -0.0001437352  -0.0142939065   0.0221986738  -0.0008131641  -0.0523503777
        0.0262164571  -0.0017576443  -0.0000257302   0.0039910912   0.0004119889