$hessian                                                                        
        0.6690022777   0.0602745002  -0.0188511518  -0.1465052196  -0.0553906854
       -0.1252005628  -0.0360972023  -0.0111909021  -0.0225548348   0.0062567556
        0.0015302794   0.0008448750  -0.0007731177   0.0019131888  -0.0001630970
        0.0008430052  -0.0005620914  -0.0010097127  -0.0001765146   0.0003757747
        0.0000661654   0.0002035536  -0.0000801907  -0.0000270615  -0.0000134012
        0.0004001202   0.0000016711   0.0001435718  -0.0005617155   0.0001589065
       -0.0003546171   0.0002369776   0.0000074447  -0.0001122999  -0.0000309385
        0.0000010160   0.0000622301  -0.0000311248  -0.0000617853  -0.0000494490
       -0.0000125953   0.0000122270   0.0000190616   0.0000093873  -0.0000162187
       -0.0000163817  -0.0000006778  -0.0000060942  -0.0000074576   0.0000058989
       -0.0000002745  -0.0000019452  -0.0000048400   0.0000069920  -0.0000023467
       -0.0000019597  -0.0000069829  -0.0000084531   0.0000078425   0.0000028360
       -0.0000171547  -0.0000027782   0.0000036772   0.0000156756   0.0000104645
        0.0000182210  -0.0000448876  -0.0000088399  -0.0000166444   0.0000620803
       -0.0000653933   0.0000572612   0.0024382231   0.0020365819   0.0007828688
       -0.0004196095  -0.0018929354  -0.0000641401  -0.0001103714   0.0005565292
        0.0000367633  -0.0008095012   0.0007478409  -0.0000436605   0.0017704218
       -0.0008603066   0.0000938483  -0.0013709841  -0.0015305932  -0.0000841960
        0.0003521875   0.0011993196   0.0000750595   0.0000305157   0.0000113615
       -0.0000604931  -0.0000322844  -0.0006337094   0.0003944175  -0.0023232985
       -0.0011624829   0.0000112636  -0.0399548633   0.0020182798   0.0231187804
       -0.1541837577   0.0344130052   0.1362900219  -0.2996500128  -0.0302755425
        0.0047874451   0.0066731034   0.0046769179   0.0120742416  -0.0057550784
       -0.0015137631   0.0003067205  -0.0001572234   0.0003064493   0.0000064193
       -0.0000085222   0.0000373669  -0.0000171896   0.0000447523  -0.0000132735
       -0.0000036365   0.0000321121   0.0000054699  -0.0000110450   0.0000229672
        0.0000039418  -0.0000287151  -0.0000079657  -0.0000012646   0.0000181832
       -0.0000078493  -0.0000036533   0.0000065355  -0.0000109401  -0.0000043338
        0.0000056682  -0.0000111273  -0.0000051498  -0.0000053861  -0.0000082070
       -0.0000056477  -0.0000060353  -0.0000083620  -0.0000024166  -0.0000180738
        0.0000253632  -0.0000075206   0.0000335172   0.0000457124  -0.0000070143
       -0.0001938470   0.0000380807   0.0000187643  -0.0000378059   0.0000296132
        0.0000013039   0.0000074979  -0.0000034398   0.0000019225  -0.0000104704
        0.0000569244  -0.0000453720  -0.0000049987  -0.0000618884  -0.0003802986
        0.0000298200  -0.0057625656  -0.0015578762   0.0004645138   0.0066701121
       -0.0029516024  -0.0112207648
        0.0602745002   0.1797548792   0.1615630349  -0.0293495644  -0.0808871343
       -0.0830009549  -0.0320420713  -0.0005563686   0.0048844019   0.0017955857
       -0.0114290603  -0.0174003135  -0.0002394525  -0.0005798037   0.0004336163
        0.0000507284  -0.0002721698  -0.0000333966   0.0001600172  -0.0001209891
       -0.0000249311  -0.0000997293   0.0000460554   0.0000597843   0.0001461780
        0.0000640309  -0.0000033319  -0.0000201774  -0.0001101708   0.0000031667
       -0.0000194992   0.0000390207   0.0000250848   0.0000240764   0.0000023077
        0.0000207025  -0.0000126225   0.0000114966   0.0000067352  -0.0000022013
        0.0000004076  -0.0000099588   0.0000016058  -0.0000016393   0.0000070731
       -0.0000008051  -0.0000002290   0.0000046748  -0.0000013884  -0.0000027384
       -0.0000030350  -0.0000025932   0.0000001007   0.0000035010   0.0000091711
        0.0000011996   0.0000029350  -0.0000040573  -0.0000032167   0.0000004987
       -0.0000078030  -0.0000010771  -0.0000030868  -0.0000029288  -0.0000027726
        0.0000003643   0.0000262848   0.0000053640  -0.0000077022   0.0000011419
        0.0000154887  -0.0000077315  -0.0001093022  -0.0001183988  -0.0000370367
        0.0000579372  -0.0000271060  -0.0000038412  -0.0000346778   0.0002059246
        0.0000074552   0.0001314161  -0.0003648170   0.0000181300  -0.0003816562
        0.0002506219  -0.0000090575   0.0002650209   0.0001684292   0.0000286283
       -0.0001039724  -0.0000310875   0.0000038515   0.0000057089  -0.0002304427
       -0.0001234290   0.0002100397   0.0004873182   0.0001003881   0.0000662301
       -0.0001115244   0.0000201238   0.0218361235   0.0075958415   0.0094190962
        0.0092263020  -0.0654316294  -0.0527558049  -0.0302838798  -0.0385698669
       -0.0024666082  -0.0028837506  -0.0019808223  -0.0070331472  -0.0014649521
        0.0071294597  -0.0020841746   0.0000474382  -0.0000223782   0.0000224799
       -0.0000066309   0.0000040015   0.0000073394   0.0000061787  -0.0000025101
       -0.0000175811   0.0000031017   0.0000035162  -0.0000074983  -0.0000034675
       -0.0000001960   0.0000071093  -0.0000006026  -0.0000002957  -0.0000024025
        0.0000040247   0.0000009259  -0.0000025314   0.0000038426   0.0000006193
        0.0000006288   0.0000025205   0.0000004813   0.0000003028   0.0000009751
        0.0000003122   0.0000036073   0.0000008213  -0.0000007223   0.0000074950
        0.0000032175  -0.0000010769   0.0000104874  -0.0000014179  -0.0000032841
        0.0000114324   0.0000047686  -0.0000023112  -0.0000236691   0.0000013950
        0.0000030456  -0.0000031415  -0.0000074491   0.0000147012   0.0000004118
       -0.0000184311  -0.0000036210  -0.0000141904  -0.0001304710  -0.0000938637
        0.0000552126  -0.0016474091   0.0071700262  -0.0019766410   0.0045166121
       -0.0020122514  -0.0096845565
       -0.0188511518   0.1615630349   0.5863722360  -0.0494532347  -0.0744606765
       -0.2423990837  -0.0792665852  -0.0016450461   0.0226548264   0.0004487792
       -0.0153264263  -0.0559752253  -0.0002604234  -0.0016040268   0.0010020039
       -0.0004022097  -0.0005723976   0.0002639600   0.0007548037  -0.0006046095
       -0.0000503739  -0.0003988231   0.0002046458   0.0002137930   0.0004732434
        0.0000311341  -0.0000190531  -0.0001338657  -0.0001183933  -0.0000406312
        0.0000505072   0.0000547108   0.0000907219   0.0001294308   0.0000099643
        0.0000671758  -0.0000646508   0.0000438806   0.0000440207   0.0000152208
        0.0000065469  -0.0000242143  -0.0000093316  -0.0000102628   0.0000232982
        0.0000084985  -0.0000009384   0.0000122120   0.0000004928  -0.0000108198
       -0.0000026635  -0.0000111065   0.0000019078   0.0000100991   0.0000237268
        0.0000040683   0.0000107858  -0.0000093573  -0.0000123287  -0.0000028929
       -0.0000098188  -0.0000026046  -0.0000076495  -0.0000190347  -0.0000130505
       -0.0000031218   0.0000893865   0.0000186176  -0.0000252421  -0.0000171757
        0.0000653992  -0.0000454451  -0.0011730992  -0.0010714071  -0.0003419558
        0.0002883777   0.0006791688   0.0000222884  -0.0000432471   0.0002598148
       -0.0000139467   0.0007718528  -0.0013357466   0.0000757875  -0.0018309347
        0.0011038660  -0.0000659526   0.0013265225   0.0011705367   0.0001304660
       -0.0006023488  -0.0006036892  -0.0000127947   0.0000473214  -0.0007762407
       -0.0003627680   0.0005336023   0.0015110974   0.0002838540   0.0011938566
        0.0001551090   0.0000175812   0.0776695910   0.0175362002   0.0199859146
        0.0624350006  -0.0617241835  -0.2471669440   0.0047753337  -0.0023622781
       -0.0428159033  -0.0102691542  -0.0099887909  -0.0232065857   0.0006945660
       -0.0020451968   0.0020082540   0.0002731649  -0.0002152351   0.0000821182
       -0.0000027646  -0.0000203785   0.0000312484  -0.0000020998  -0.0000005499
       -0.0000563199  -0.0000118464   0.0000058613  -0.0000185417  -0.0000161829
       -0.0000021981   0.0000287057   0.0000017749   0.0000003624  -0.0000133667
        0.0000134745   0.0000040392  -0.0000090853   0.0000158724   0.0000035022
       -0.0000007784   0.0000122880   0.0000033923   0.0000034183   0.0000061662
        0.0000028996   0.0000125212   0.0000064894  -0.0000003240   0.0000291840
       -0.0000045373  -0.0000015669   0.0000185661  -0.0000046003  -0.0000032489
        0.0000875973   0.0000100044  -0.0000132617  -0.0000434541  -0.0000026881
        0.0000170690  -0.0000162765  -0.0000104294   0.0000181403   0.0000046929
       -0.0000392298  -0.0000075574  -0.0000499639  -0.0004221344  -0.0002032625
        0.0001963944   0.0000817688  -0.0022281860   0.0021340381   0.0111909481
       -0.0074900865  -0.0231275296
       -0.1465052196  -0.0293495644  -0.0494532347   0.6489062712   0.0527630423
       -0.0340220840  -0.3293087765  -0.0467045154  -0.0303437110  -0.0404425123
        0.0200082964   0.0765243894   0.0008557170  -0.0007735336   0.0018769379
       -0.0010709483   0.0011702840   0.0012066696  -0.0006449761  -0.0001011446
       -0.0002103087   0.0001518374   0.0000163699  -0.0001619499  -0.0003105076
       -0.0004843295   0.0000226448  -0.0001539080   0.0007735310  -0.0001973336
        0.0005084113  -0.0003071104  -0.0001352151   0.0001934209   0.0000393962
       -0.0000330161  -0.0000472141   0.0000017379   0.0000763667   0.0000917194
        0.0000065126   0.0000295736  -0.0000175757  -0.0000090719   0.0000090311
       -0.0000168147  -0.0000054145   0.0000190112  -0.0000212785  -0.0000085919
       -0.0000065861   0.0000135683   0.0000048772   0.0000086427  -0.0000035849
        0.0000031453  -0.0000222672  -0.0000144048  -0.0000097208   0.0000103215
       -0.0000014432  -0.0000007747  -0.0000222327  -0.0000082194  -0.0000055830
       -0.0000329813   0.0000448027   0.0000117230   0.0000100836  -0.0000862158
        0.0000227548  -0.0000716527  -0.0020221340  -0.0018238677  -0.0008523411
        0.0002809913   0.0018588277   0.0000204029   0.0001671162  -0.0007011272
       -0.0000107540   0.0004305291   0.0000064549  -0.0000042719  -0.0008795681
        0.0002671724  -0.0000698597   0.0008343491   0.0009766900   0.0000131919
       -0.0000549058  -0.0010601941  -0.0001034016   0.0001819252   0.0006080408
        0.0003927291  -0.0006636532   0.0001173712  -0.0009452100   0.0017670602
        0.0013571484   0.0000894693  -0.0426052753  -0.0130354672  -0.0236242524
        0.0572867897  -0.0023242338  -0.0275404113  -0.0175410260  -0.0106371274
       -0.0239531601  -0.1116052770   0.0295514626   0.1100343123  -0.0165631841
       -0.0026489545  -0.0020196626  -0.0003728212   0.0001275814   0.0000726992
       -0.0000238165  -0.0000281991  -0.0000078805  -0.0000070713  -0.0000142094
        0.0000560486   0.0000013412   0.0000110730   0.0000383666   0.0000002670
        0.0000086320  -0.0000245410   0.0000032000  -0.0000001222  -0.0000336011
        0.0000147832   0.0000028810  -0.0000190639   0.0000212493   0.0000040137
        0.0000006264   0.0000221040   0.0000058348  -0.0000015962   0.0000212700
        0.0000057945   0.0000169491   0.0000043713  -0.0000000907   0.0000315858
       -0.0000167956  -0.0000037752  -0.0000213678  -0.0000058678  -0.0000077239
        0.0002163582   0.0000132582   0.0000025960   0.0000688832   0.0000052234
        0.0000379357   0.0000100629  -0.0000239907   0.0000451789   0.0000098893
       -0.0000442101  -0.0000436721   0.0000596945   0.0000955340   0.0000422905
        0.0001479568  -0.0002211159  -0.0000619072  -0.0006041628  -0.0006127984
        0.0002913764   0.0034752131
       -0.0553906854  -0.0808871343  -0.0744606765   0.0527630423   0.1820093057
        0.1674130419  -0.0187887656  -0.0555756101  -0.0184748972   0.0019453015
        0.0044127754   0.0169054601   0.0018540333   0.0063905199  -0.0033839429
       -0.0015454707   0.0004642761   0.0003227577  -0.0003848476  -0.0003649528
       -0.0001007310  -0.0000916800   0.0000616140  -0.0000131238  -0.0000318559
       -0.0002582260   0.0000074688  -0.0001276429   0.0003521405  -0.0000360998
        0.0002334414   0.0001814974   0.0001003844   0.0000118979   0.0000011263
       -0.0000285432  -0.0000050136   0.0000072055   0.0000062381   0.0000324252
        0.0000012319   0.0000098867  -0.0000009750  -0.0000016209   0.0000050640
       -0.0000050451  -0.0000010989   0.0000012658  -0.0000002025  -0.0000016001
       -0.0000012394  -0.0000016682  -0.0000001991  -0.0000009036  -0.0000029895
       -0.0000028021   0.0000015229   0.0000007969  -0.0000006449   0.0000018540
       -0.0000037864  -0.0000003877  -0.0000010579  -0.0000025788  -0.0000004652
       -0.0000024906   0.0000219458   0.0000052033  -0.0000031537  -0.0000028200
        0.0000096852   0.0000009164  -0.0002346113   0.0000147168  -0.0001735956
        0.0001523868   0.0003598729   0.0001074417   0.0000792363  -0.0002535812
       -0.0000246914   0.0000450789   0.0001064926   0.0000016055  -0.0001013886
       -0.0000271240  -0.0000169079   0.0000877961   0.0001724039  -0.0000018821
        0.0000334423  -0.0001534243  -0.0000154822  -0.0000522112   0.0001499450
        0.0000705880   0.0000575569  -0.0002376009  -0.0002032685   0.0015811292
        0.0003589381  -0.0004238898  -0.0130991421  -0.0078524472  -0.0044413741
        0.0156534203  -0.0050550166  -0.0246783543  -0.0027890201  -0.0009107922
       -0.0033179332   0.0290971087  -0.0489513927  -0.0513702324  -0.0105265290
       -0.0008715646  -0.0008151634   0.0000457139  -0.0000804691  -0.0000260491
       -0.0000005059   0.0000109793   0.0000028052  -0.0000097287   0.0000112667
        0.0000093309  -0.0000304430   0.0000302037  -0.0000061045  -0.0000059759
        0.0000008465  -0.0000026600   0.0000009312   0.0000004139  -0.0000074390
        0.0000012006   0.0000011742  -0.0000026354   0.0000010823   0.0000017321
       -0.0000007905   0.0000020610   0.0000023339   0.0000003046   0.0000011517
        0.0000014399   0.0000017340   0.0000018582   0.0000009581   0.0000041073
        0.0000035454  -0.0000059906  -0.0000035603  -0.0000247066   0.0000194905
        0.0000411297  -0.0000240604  -0.0000129474   0.0000284238  -0.0000081927
       -0.0000039841  -0.0000016368  -0.0000063934  -0.0000026370   0.0000046083
       -0.0000407401   0.0000173759   0.0000044333  -0.0002887972  -0.0000781109
        0.0001042123  -0.0001854054  -0.0001726545   0.0002033939   0.0001062944
        0.0066073137  -0.0033194695
       -0.1252005628  -0.0830009549  -0.2423990837  -0.0340220840   0.1674130419
        0.6091867855   0.0436863675  -0.0102439214  -0.0888541200   0.0218966097
        0.0099595248   0.0211287317   0.0038984140  -0.0042052193  -0.0033458845
        0.0009772539   0.0006451595  -0.0000682898  -0.0003260793   0.0001789205
        0.0000017055   0.0000856702  -0.0000570176  -0.0000841032  -0.0002400995
       -0.0002422521   0.0000104343   0.0000630904   0.0003925381  -0.0000282362
        0.0004080276  -0.0003808794   0.0000843405  -0.0000221839   0.0000078604
       -0.0000643959  -0.0000057940  -0.0000013387  -0.0000025177   0.0000083908
        0.0000023028   0.0000049073  -0.0000031423   0.0000006730  -0.0000031175
        0.0000075081   0.0000013717  -0.0000017511   0.0000098768   0.0000029709
        0.0000057339  -0.0000080809  -0.0000007154   0.0000003811  -0.0000081133
       -0.0000011486   0.0000025317   0.0000038510   0.0000034101  -0.0000021597
        0.0000028585   0.0000010898   0.0000089010  -0.0000156634   0.0000001031
        0.0000183928   0.0000212321   0.0000093958  -0.0000158721  -0.0000257336
       -0.0000044647   0.0000057163  -0.0006884804  -0.0006467333  -0.0001084740
        0.0000789396   0.0006604083   0.0000401225   0.0000837096  -0.0004022854
       -0.0000105365   0.0000419555   0.0002595888  -0.0000178868  -0.0000140387
       -0.0000852998  -0.0000256251   0.0000557002   0.0002114089  -0.0000249931
        0.0000780812  -0.0003535240  -0.0000506980   0.0000220751   0.0004818769
        0.0002083643  -0.0004890453  -0.0004195781  -0.0004624130   0.0007011097
        0.0007639296  -0.0000316532  -0.0257005356  -0.0051016067  -0.0095972430
        0.0274285051  -0.0182595397  -0.0611138561  -0.0016157816  -0.0006632366
       -0.0005809670   0.1101422869  -0.0510896038  -0.2203015584  -0.0240466340
       -0.0031650358  -0.0008581947  -0.0000125506  -0.0000771047  -0.0000359001
        0.0000051773   0.0000107700  -0.0000060383  -0.0000350155   0.0000195730
        0.0000342102  -0.0000104521  -0.0000139230   0.0000002800  -0.0000073792
       -0.0000015764   0.0000028627   0.0000000693   0.0000002921   0.0000045306
       -0.0000057278   0.0000002225   0.0000055370  -0.0000066189   0.0000009434
       -0.0000016006  -0.0000081178   0.0000012209   0.0000015435  -0.0000100292
        0.0000009658  -0.0000052223   0.0000056301   0.0000033147  -0.0000048303
        0.0000316809  -0.0000051196   0.0000003559  -0.0000408889  -0.0000204146
        0.0000259697  -0.0000345987  -0.0000114884   0.0000622296  -0.0000148248
       -0.0000239173   0.0000057986   0.0000160890  -0.0000374517   0.0000107434
        0.0000168382   0.0000193785   0.0000449085   0.0003180556   0.0004999698
       -0.0000468236  -0.0005404614   0.0002870461   0.0004730781   0.0030636637
       -0.0033239211  -0.0032250512
       -0.0360972023  -0.0320420713  -0.0792665852  -0.3293087765  -0.0187887656
        0.0436863675   0.6560634162   0.0680270154  -0.0014413402  -0.1301592062
        0.0111464254   0.0559956629  -0.0397444078   0.0081890448   0.0259516730
       -0.0005151054  -0.0050076622   0.0007261052   0.0009359273   0.0000210231
        0.0003854881   0.0002521476  -0.0002442087  -0.0000385885   0.0002328620
        0.0007466991  -0.0000293225   0.0000482693  -0.0014532928   0.0000055639
       -0.0021404001   0.0013909999  -0.0005269750  -0.0000137973   0.0000126886
        0.0001153974   0.0001628003  -0.0000038941  -0.0002088843  -0.0001442109
       -0.0000074063  -0.0000037324   0.0000263384   0.0000155584  -0.0000360171
       -0.0000040872   0.0000037555  -0.0000288690   0.0000175057   0.0000172283
        0.0000187124  -0.0000053615  -0.0000041733  -0.0000022287   0.0000145962
        0.0000067985   0.0000125711   0.0000123999   0.0000128363  -0.0000201262
       -0.0000053026  -0.0000004587   0.0000212758   0.0000213998   0.0000115906
        0.0000614905  -0.0001255743  -0.0000248840  -0.0000015732   0.0001609946
       -0.0000380414   0.0001646740   0.0022763931   0.0016141204   0.0006239549
       -0.0003674923  -0.0018754478  -0.0003784283  -0.0002739623   0.0007851250
        0.0000114904  -0.0006423909   0.0002957233  -0.0000346387   0.0013911818
       -0.0004970896   0.0000984799  -0.0011383011  -0.0013894340  -0.0000558120
        0.0002859551   0.0012002546   0.0000582285  -0.0001904827  -0.0002190740
       -0.0001643609   0.0003835349  -0.0007250016   0.0011956194  -0.0030633131
        0.0010151631   0.0022279037   0.0505469808   0.0134043388   0.0236407310
       -0.0456238052   0.0043094058   0.0281320636  -0.0005466109  -0.0017774803
       -0.0024966806  -0.0186790425  -0.0015309264   0.0032164931  -0.1037156169
       -0.0434938453  -0.1001165844   0.0004468230   0.0005063766   0.0002290429
        0.0000602083   0.0000675429  -0.0000159643   0.0000282363   0.0000479540
        0.0000009352  -0.0000632840   0.0000769427   0.0000319470  -0.0000001427
       -0.0000101230  -0.0000347745  -0.0000137405  -0.0000020452   0.0000533032
       -0.0000273299  -0.0000052153   0.0000319520  -0.0000408316  -0.0000071769
        0.0000072211  -0.0000393003  -0.0000081970  -0.0000070788  -0.0000317494
       -0.0000053963  -0.0000278971  -0.0000215383  -0.0000001255  -0.0000662039
        0.0000214359   0.0000084348   0.0000573721   0.0000419464  -0.0000408189
       -0.0001532791   0.0000089416   0.0000201585  -0.0000734472  -0.0000047553
       -0.0000621326   0.0000075794   0.0000473344  -0.0000395286  -0.0000147851
        0.0001208367   0.0000090186  -0.0000015035  -0.0000886192  -0.0019564704
        0.0005743111  -0.0005442862  -0.0020078066  -0.0027103078  -0.0002284381
        0.0003059709   0.0006123783
       -0.0111909021  -0.0005563686  -0.0016450461  -0.0467045154  -0.0555756101
       -0.0102439214   0.0680270154   0.1798353398   0.1649913474   0.0273685655
       -0.0627239504  -0.0591533515   0.0032120184   0.0021479986   0.0020699027
       -0.0007868861   0.0000718244   0.0015149546  -0.0000640243  -0.0001833639
       -0.0000628259  -0.0000871431   0.0000682575  -0.0000051016  -0.0000512071
       -0.0003213084   0.0000188922  -0.0001659776   0.0004872025  -0.0001865153
        0.0002951016  -0.0000852815   0.0000070245   0.0000800641   0.0000058897
        0.0001053403  -0.0000451806   0.0000489502   0.0000309729   0.0000470491
        0.0000129285  -0.0000128543  -0.0000186025  -0.0000067900   0.0000116884
       -0.0000045247   0.0000000749   0.0000013961  -0.0000020723  -0.0000064024
        0.0000027117   0.0000226470   0.0000013230  -0.0000125281   0.0000047834
       -0.0000009522   0.0000160103   0.0000108225  -0.0000050539  -0.0000041936
        0.0000126677   0.0000033151  -0.0000093018  -0.0000016337  -0.0000055019
       -0.0000290348  -0.0000598131  -0.0000027089   0.0000581781   0.0000117770
        0.0000669118  -0.0000108256  -0.0015639150  -0.0014489992  -0.0008363741
        0.0003152559   0.0014309930   0.0000289453   0.0000739334  -0.0005140721
       -0.0000775475   0.0007902409  -0.0007712156   0.0000515265  -0.0016258417
        0.0008654808  -0.0000979015   0.0011848663   0.0013417956   0.0001105013
       -0.0005209314  -0.0008093036  -0.0000092948  -0.0001546266  -0.0003259584
       -0.0002689785  -0.0002321374  -0.0004367713   0.0007721489   0.0013712978
       -0.0004144090  -0.0005833492  -0.0007938992  -0.0043310329  -0.0166324379
        0.0031857266  -0.0036680533   0.0018895846  -0.0019666896   0.0061122698
       -0.0039687615   0.0063056071   0.0013227614  -0.0006391800  -0.0435599839
       -0.0648945757  -0.0742890021   0.0003016693  -0.0005698654  -0.0002720782
       -0.0000055544  -0.0000099137  -0.0000015688  -0.0000144401   0.0000051792
        0.0000075547  -0.0000199595   0.0000117906   0.0000100792  -0.0000010047
       -0.0000049839  -0.0000000510   0.0000054763   0.0000004509  -0.0000206593
        0.0000083918   0.0000016725  -0.0000093782   0.0000088794   0.0000005883
       -0.0000025598   0.0000183744   0.0000027794  -0.0000003575   0.0000166543
        0.0000032119   0.0000047920  -0.0000016969  -0.0000020616  -0.0000005201
       -0.0000088674  -0.0000050123  -0.0000360865  -0.0000378320   0.0000161826
        0.0001933438  -0.0000361921  -0.0000332990   0.0000196783  -0.0000195096
        0.0000002436  -0.0000116904  -0.0000008115  -0.0000087351   0.0000127351
       -0.0000474539   0.0000214612  -0.0000581221  -0.0013134906  -0.0018234392
        0.0008650839  -0.0017317938   0.0057790604  -0.0039316873   0.0001602290
       -0.0001209435   0.0003286937
       -0.0225548348   0.0048844019   0.0226548264  -0.0303437110  -0.0184748972
       -0.0888541200  -0.0014413402   0.1649913474   0.5918706086   0.1218709229
       -0.0534267758  -0.2372351899   0.0119502343  -0.0017159431  -0.0004544616
       -0.0016132435   0.0009891680   0.0012348340  -0.0000558583   0.0004463792
       -0.0001826781  -0.0002756184  -0.0000412012   0.0000669200  -0.0000696589
       -0.0004037769   0.0000073211  -0.0003024912   0.0006891042  -0.0001932098
        0.0004728393  -0.0003098280  -0.0000961659   0.0001088955   0.0000360335
        0.0000523173  -0.0000803077   0.0000433065   0.0000715191   0.0000965021
        0.0000197105  -0.0000025339  -0.0000252928  -0.0000131179   0.0000089737
       -0.0000092470  -0.0000014824   0.0000111132  -0.0000027959  -0.0000154056
       -0.0000031281   0.0000341584   0.0000172436  -0.0000123704   0.0000060906
        0.0000043865   0.0000021590   0.0000137428  -0.0000208134   0.0000013495
        0.0000226645   0.0000064021  -0.0000240071  -0.0000051990  -0.0000229642
       -0.0000412071  -0.0000313191  -0.0000263580   0.0000698825  -0.0000745384
        0.0001244200  -0.0000624402  -0.0033231648  -0.0029062650  -0.0011406812
        0.0005569067   0.0023592764  -0.0000041802   0.0000019599  -0.0001430729
        0.0000199891   0.0012404531  -0.0017101553   0.0000518048  -0.0029406137
        0.0015699746  -0.0001328959   0.0022650532   0.0022057877   0.0001247454
       -0.0006485544  -0.0016790516  -0.0001598152   0.0001014235  -0.0004805056
        0.0000098691   0.0003226147   0.0018125574  -0.0010696016   0.0022116224
        0.0014292318   0.0003089908  -0.0243268383  -0.0222372359  -0.0581599185
        0.0259786532   0.0012847811  -0.0106690300  -0.0026745021  -0.0039986885
       -0.0027257054   0.0253267189   0.0018617237  -0.0021503069  -0.1003600419
       -0.0749189170  -0.2108359973  -0.0002947469  -0.0007850256  -0.0001925303
       -0.0000456328  -0.0000332933   0.0000076368  -0.0000756036  -0.0000098666
       -0.0000117644  -0.0000385578  -0.0000022762   0.0000334281  -0.0000030506
        0.0000014013  -0.0000048119   0.0000092783  -0.0000004011  -0.0000361667
        0.0000150638   0.0000049503  -0.0000206963   0.0000200605   0.0000054251
       -0.0000053794   0.0000316844   0.0000074233   0.0000034856   0.0000223867
        0.0000085017   0.0000129413  -0.0000003880   0.0000017794   0.0000103327
       -0.0000386074   0.0000411684  -0.0000609137  -0.0000496533  -0.0000183421
        0.0003234148  -0.0000019077  -0.0000072383   0.0000044566  -0.0000097412
        0.0000289026   0.0000018681  -0.0000121827   0.0000299941   0.0000169696
       -0.0000404629   0.0000209077   0.0000331593   0.0007753302   0.0024216655
       -0.0003144396  -0.0022676308  -0.0039273654  -0.0027672003   0.0005820776
       -0.0000170911   0.0006086303
        0.0062567556   0.0017955857   0.0004487792  -0.0404425123   0.0019453015
        0.0218966097  -0.1301592062   0.0273685655   0.1218709229   0.5960286745
        0.0467778016  -0.0183560898  -0.2227470320  -0.0218712629   0.0040026906
       -0.0326937052   0.0148682594   0.0061213530  -0.0005704994  -0.0018890805
       -0.0003127275  -0.0011514124   0.0004777309  -0.0000829377   0.0001754542
       -0.0011102588   0.0000424916  -0.0014476999   0.0019280401  -0.0006784915
        0.0021873969   0.0005771719   0.0001588473   0.0006230383   0.0000638290
        0.0000278691  -0.0002564883  -0.0000387056   0.0003539644   0.0002840732
        0.0000291429  -0.0001068184  -0.0000320509  -0.0000130682   0.0001406181
        0.0000154784  -0.0000054904   0.0000785520  -0.0000424654  -0.0000044429
       -0.0000801454   0.0000238237  -0.0000069373   0.0000188041   0.0000212595
       -0.0000044704  -0.0000141241  -0.0000383578  -0.0000152259   0.0000792738
        0.0000160564  -0.0000039264  -0.0000748754  -0.0000186531  -0.0000054572
       -0.0001436102   0.0002711289   0.0000584378   0.0001155424  -0.0002571087
        0.0000596189  -0.0003401708  -0.0013589003  -0.0022235400  -0.0017037533
       -0.0007780979   0.0021142681   0.0003483289   0.0006863530  -0.0019004403
       -0.0001428130   0.0009056160   0.0003067570   0.0000908597  -0.0014995326
        0.0003093006  -0.0001635524   0.0011201275   0.0018561476   0.0001592787
       -0.0004288294  -0.0010520041  -0.0000252758  -0.0004365358  -0.0000765546
       -0.0002708551   0.0005195873   0.0011902906  -0.0001482094  -0.0181319944
       -0.0165897890  -0.0037158330  -0.1233311706  -0.0431423767  -0.1104961028
       -0.0374248271  -0.0109437140  -0.0214329146   0.0009745276   0.0000929401
        0.0000014722  -0.0049121136  -0.0011593802   0.0001237505   0.0060509231
       -0.0036302760  -0.0112131052   0.0003942667  -0.0000838000   0.0000525460
        0.0000283557  -0.0004371714   0.0000099506   0.0000348279  -0.0001477652
        0.0000683406   0.0000290091   0.0000763236   0.0000553844  -0.0000907667
       -0.0000009298   0.0001699444   0.0000260358   0.0000093113  -0.0001456161
        0.0000833543   0.0000125983  -0.0000671671   0.0000941811   0.0000133390
       -0.0000018778   0.0000941922   0.0000159953  -0.0000000336   0.0000892622
        0.0000125394   0.0000709104   0.0000266829  -0.0000008749   0.0001428390
       -0.0000865701  -0.0000280216  -0.0001851370   0.0000449698   0.0000287426
        0.0003831981   0.0000019357  -0.0000058381   0.0001011627  -0.0000161880
        0.0001361594  -0.0000255480  -0.0000947461   0.0001527690   0.0000296121
       -0.0003434988   0.0000672498  -0.0000760311   0.0004616796   0.0009612207
       -0.0001033464   0.0061046250   0.0049764434   0.0122923190  -0.0048826892
       -0.0018910790   0.0006509473
        0.0015302794  -0.0114290603  -0.0153264263   0.0200082964   0.0044127754
        0.0099595248   0.0111464254  -0.0627239504  -0.0534267758   0.0467778016
        0.2303873892   0.1577939489  -0.0179952580  -0.0714433631  -0.0046155019
        0.0216078422   0.0055106583   0.0004612834   0.0026787553  -0.0024631880
        0.0003004911   0.0006861500   0.0000156885  -0.0004882454  -0.0001777511
       -0.0001275186  -0.0000501321   0.0012066591   0.0004838020  -0.0001404180
        0.0030596408  -0.0043319077   0.0001103034   0.0000130498  -0.0000494946
        0.0000312133  -0.0000136122  -0.0000787115   0.0000385943   0.0000089168
        0.0000082456   0.0000001528   0.0000004506   0.0000056987   0.0000006271
        0.0000097199   0.0000027500   0.0000032159  -0.0000098603   0.0000103281
        0.0000014872  -0.0000003364  -0.0000071955   0.0000035444  -0.0000101103
       -0.0000049604  -0.0000067250  -0.0000066339   0.0000099579  -0.0000028342
        0.0000133389   0.0000022964   0.0000051156  -0.0000095896   0.0000075482
       -0.0000094752  -0.0000118685   0.0000090822   0.0000017960  -0.0000059710