67
 energy: -114.752886535942 gnorm: 0.000060449972 xtb: 6.7.1 (edcfbbe)
O           -0.13314786985532        4.57934505387419       -1.20780810023017
S           -0.01355169168707        3.82188406156297        0.01855748827000
O            0.10062800653826        4.56989147311369        1.25122112175656
C            1.36151315201051        2.67872503297364       -0.11034290372378
C            2.08152518485744        2.33859845946276        1.01982171238826
C            3.03917629130921        1.34437027305809        0.94317754374967
C            3.26767617480900        0.68928246410335       -0.26745856660502
N            4.20896616064812       -0.35442108086531       -0.34104291360486
C            5.55942757389348       -0.12372557512592       -0.05383056186397
C            6.05154067333947        1.14343911912784        0.23450159663820
C            7.39670229507576        1.33831653029555        0.50988825265280
C            8.27532652821761        0.27359970794155        0.48969363994831
C            7.80645650516021       -0.99201008932047        0.16959920003432
C            6.46604257550066       -1.19054862086231       -0.10754940781428
O            6.08551125971274       -2.46681298092024       -0.44871810580958
C            4.75757150322416       -2.67632731888858       -0.73633701448242
C            4.38841366714122       -3.96753975606904       -1.06812420678941
C            3.06224535350764       -4.26919587096442       -1.34042725783289
C            2.10901255759741       -3.27408575768901       -1.25751505290567
C            2.47486192287535       -1.97825422339998       -0.92488988950837
C            3.80393233849298       -1.65111942247914       -0.68332451671225
C            2.54868641640751        1.06095774358916       -1.40490248204278
C            1.58944127343935        2.05195244780554       -1.32235952190601
C           -1.38043124557893        2.66790705667239        0.13779717643988
C           -1.60487565470941        2.03039064834863        1.34485727680922
C           -2.55718154463028        1.03207364574285        1.41906862441859
C           -3.27275389955530        0.66407662390671        0.27826431080099
N           -4.20702865868619       -0.38647289203116        0.34336827838355
C           -5.55901263456105       -0.16277026112309        0.05775123374156
C           -6.05935847661085        1.10276042960511       -0.22347099308548
C           -7.40577660887335        1.29045746418562       -0.49771895599489
C           -8.27746726334196        0.21996826926579       -0.48354877197678
C           -7.80042188563272       -1.04429992933840       -0.17033434937185
C           -6.45872861505803       -1.23569996739220        0.10564140046250
O           -6.07003501839599       -2.51133648779636        0.43991647176510
C           -4.74053545362166       -2.71419618090284        0.72505441041054
C           -4.36285580800403       -4.00496715951213        1.04887757838058
C           -3.03450656668450       -4.29975160765497        1.31809010631559
C           -2.08767626031101       -3.29814915511548        1.24004223098243
C           -2.46210170625201       -2.00273773529626        0.91543806320588
C           -3.79349587669641       -1.68265670406248        0.67726221718007
C           -3.04780996216465        1.32976413153952       -0.92722524858192
C           -2.09717115220203        2.33130753380235       -0.99550084340782
H            1.87826634647410        2.85619069113808        1.94399362630251
H            3.60077444070499        1.05856011819173        1.81957865532550
H            5.38110336162850        1.98820630189632        0.23604141054908
H            7.74898576087529        2.33289135178489        0.73625165901773
H            9.32162828245028        0.41813480761769        0.70793805892730
H            8.46837343087823       -1.84253845300687        0.12375803130525
H            5.15651937237245       -4.72406204364614       -1.10352027200073
H            2.78520462021396       -5.27795637932309       -1.60288194116388
H            1.07034592955096       -3.49513589386034       -1.44913225253217
H            1.71505683444188       -1.21718903189485       -0.84681796361544
H            2.74467966432387        0.56640582443660       -2.34404298639155
H            1.02310622952679        2.35903964258838       -2.18698460715313
H           -1.04130860455710        2.33483569072472        2.21222509524290
H           -2.75039115166793        0.52901248704118        2.35426675537550
H           -5.39451409073063        1.95192919950147       -0.22013825618780
H           -7.76450987161699        2.28398703138911       -0.71849305235792
H           -9.32468670006077        0.35894997392854       -0.70099634184472
H           -8.45681151647651       -1.89933784601223       -0.12909576960288
H           -5.12609097766276       -4.76657187643138        1.08053011369236
H           -2.75075118337072       -5.30827410740220        1.57422597938646
H           -1.04742003605133       -3.51375626798013        1.42922535510883
H           -1.70731909688216       -1.23631106958196        0.84112783004554
H           -3.60663374496600        1.04656259833374       -1.80624053058040
H           -1.89687928289580        2.85737123828910       -1.91552614905244
