$hessian                                                                        
        0.1238167339   0.0847079514  -0.0762878201  -0.0869618230  -0.0437550528
        0.0563184173  -0.0236363191  -0.0421849021   0.0512692712  -0.0063056093
        0.0004477666  -0.0051980028  -0.0028247895  -0.0033078773   0.0038391076
       -0.0005309968   0.0020857663  -0.0033987327   0.0030254168  -0.0000534056
        0.0016726226  -0.0015919531  -0.0006293384   0.0002719822  -0.0002189236
       -0.0000972189   0.0006471128  -0.0007973325   0.0002170090  -0.0027831330
       -0.0022838858   0.0017248444  -0.0036721448   0.0111585418   0.0090669127
       -0.0108991892  -0.0025365588   0.0018872831  -0.0055163384   0.0013302223
       -0.0017160459  -0.0007863729  -0.0003340568   0.0008242440  -0.0001410930
        0.0005273694   0.0001791735   0.0000302401  -0.0006581141   0.0000490383
        0.0000461351   0.0001594132   0.0000212910   0.0000345218   0.0003935604
       -0.0000719503  -0.0000254288  -0.0007058737  -0.0030019209   0.0040387057
        0.0040233123   0.0058355854   0.0115690854  -0.0142712838  -0.0175288587
       -0.0164460936  -0.0017001953  -0.0061623137  -0.0035981674   0.0001744334
        0.0026413394  -0.0013081862  -0.0005182884  -0.0004618130  -0.0002910870
       -0.0000314305   0.0022962466  -0.0006710599  -0.0006057473  -0.0035573577
        0.0000162208   0.0016654357   0.0029611800   0.0018679952   0.0007096884
       -0.0021959523   0.0005135843  -0.0018327273   0.0009606943  -0.0011324540
        0.0003553419  -0.0010641129   0.0003252540   0.0003429708  -0.0001089068
        0.0001368722  -0.0000494780  -0.0001501174   0.0001212695   0.0001298207
        0.0000483880   0.0000328680  -0.0001432146  -0.0000145659   0.0000579657
        0.0006313496  -0.0002231610  -0.0000727829   0.0001959010   0.0011908847
       -0.0015997760  -0.0000898671  -0.0001638578   0.0000236973  -0.0000315467
        0.0000583435   0.0000101596  -0.0000150249   0.0091197931   0.0009346238
        0.0000415250   0.0002080476   0.0000747588  -0.0000262050   0.0000128374
       -0.0000109705   0.0001289230   0.0000196913  -0.0000644152  -0.0001087146
       -0.0001155819   0.0000507774
        0.0847079514   0.2295690033  -0.2731604024  -0.0598644186  -0.1916238643
        0.1983512820  -0.0232248009  -0.0188325090   0.0311380863  -0.0056011308
        0.0023599651   0.0017105529  -0.0026611198  -0.0033574524   0.0041797854
       -0.0001984929   0.0026855653  -0.0051768415   0.0044634889   0.0000167559
        0.0022156599  -0.0025521842  -0.0009419478  -0.0004042342  -0.0020529486
       -0.0001452638   0.0003160861   0.0090790778   0.0062211383  -0.0016541512
       -0.0053497741   0.0005206787  -0.0028570189   0.0102088229  -0.0125868853
        0.0536897845  -0.0003657203  -0.0001998156  -0.0007169875   0.0002028454
       -0.0010819507  -0.0006952975   0.0000969248   0.0002808670  -0.0000151111
        0.0004685270   0.0000440212  -0.0000856961  -0.0007132652  -0.0000160051
       -0.0000178505   0.0000704295   0.0000288057   0.0000890034  -0.0001447481
        0.0001720446   0.0000303456  -0.0002213064  -0.0097548978   0.0067518197
        0.0090053009   0.0125752103   0.0232935168  -0.0341038633  -0.0260196634
       -0.0321415293  -0.0039251831  -0.0120786903  -0.0070100796   0.0002500356
        0.0050219397  -0.0021352479  -0.0007022618  -0.0007038582  -0.0002572868
       -0.0001448768   0.0046991612  -0.0017044355  -0.0009898151  -0.0072616374
       -0.0000708328   0.0029097628   0.0060528800   0.0036214187   0.0011322238
       -0.0029243744   0.0026506287  -0.0023336238   0.0013760483  -0.0039474231
        0.0003777154  -0.0024052631   0.0016991847   0.0000137068  -0.0003345198
        0.0000387960   0.0000260574   0.0001005128   0.0000504528   0.0001311238
        0.0002087739  -0.0000108595  -0.0002345910   0.0001036044  -0.0002066513
        0.0014833261  -0.0000180999  -0.0007562311   0.0006663757  -0.0008388876
       -0.0006899732  -0.0000442504   0.0000826595   0.0000522244   0.0000242001
       -0.0000106626  -0.0000042274   0.0198986616   0.0185542539   0.0038266459
        0.0001608362   0.0004295139   0.0000758006   0.0000361933   0.0001374100
       -0.0000330780   0.0000974444   0.0001200360  -0.0000977374  -0.0000826566
       -0.0002246005   0.0000681093
       -0.0762878201  -0.2731604024   0.4604712863   0.0821649075   0.2161999201
       -0.3714920991   0.0215206964   0.0210121074  -0.0137174410   0.0057206686
        0.0054474906  -0.0028005801   0.0008690234   0.0025996629  -0.0032214479
        0.0008766806  -0.0026614786   0.0044297535  -0.0051296950  -0.0002034881
       -0.0022256263   0.0037447753   0.0009959174  -0.0007218521   0.0009918317
       -0.0008908919   0.0010728982  -0.0138094882  -0.0017615839   0.0022312918
        0.0061164563  -0.0004408610   0.0018283943  -0.0149830377   0.0438420642
       -0.0733561892  -0.0000940129  -0.0002391598   0.0004786987  -0.0005854013
        0.0031553428   0.0001587781   0.0003219128  -0.0019254951   0.0004987923
       -0.0021888872  -0.0005217898   0.0000152207   0.0020888047   0.0008378684
        0.0000174928  -0.0005312870   0.0000514013  -0.0000963086   0.0002839378
       -0.0000065439  -0.0001090044   0.0004822173   0.0139116179  -0.0075564227
       -0.0048524878  -0.0187648212  -0.0129572131   0.0116887307   0.0071206857
        0.0238449896   0.0033082434   0.0128624837   0.0055522861  -0.0003259448
       -0.0052247964   0.0024007156   0.0006743532   0.0005733447  -0.0003843145
        0.0003422678  -0.0058914976   0.0025950722   0.0011175029   0.0089169163
       -0.0001839673  -0.0029553039  -0.0078195744  -0.0031228290  -0.0014669348
        0.0043014268  -0.0031542077   0.0026745921  -0.0018521450   0.0033905126
       -0.0004224863   0.0027226684  -0.0022339592   0.0001544199   0.0004007719
       -0.0000087836  -0.0000560565  -0.0001428926  -0.0000027078  -0.0001775965
       -0.0000448572   0.0001381858   0.0003075309  -0.0002581397   0.0002807664
       -0.0013444080  -0.0000106325   0.0009270691  -0.0025075814   0.0001453149
       -0.0004120410   0.0000677140  -0.0000908543  -0.0002756558  -0.0000815794
       -0.0000018107  -0.0000442746  -0.0174296734  -0.0227822426  -0.0120519771
       -0.0001345109  -0.0002282093  -0.0001664595  -0.0001127096  -0.0002148559
        0.0000358154  -0.0001509058  -0.0001612282   0.0000919230   0.0001105411
        0.0002032463  -0.0001645811
       -0.0869618230  -0.0598644186   0.0821649075   0.4531264199   0.0863614290
       -0.0023567773  -0.1876552529  -0.0233814041  -0.0323848481  -0.0259460207
       -0.0341234465   0.0436338396   0.0093139259   0.0064821436  -0.0072414615
       -0.0043835594  -0.0057839983   0.0057001920  -0.0006682422   0.0007309820
       -0.0022885459  -0.0012753435  -0.0018252142   0.0030162765   0.0031331853
        0.0044408904  -0.0035197941   0.0115539365   0.0079169178  -0.0080513600
       -0.0030488448  -0.0027095667   0.0039510270  -0.1272720486   0.0267025403
       -0.0676172025  -0.0292155529  -0.0011706025  -0.0134848439  -0.0029654004
       -0.0034910984  -0.0004608569  -0.0000841875   0.0019637495  -0.0002457911
        0.0025746442   0.0005691300  -0.0000182482  -0.0026398049  -0.0010424506
       -0.0000865126   0.0008282676  -0.0001171919   0.0001864190  -0.0010332600
        0.0001545208   0.0000141454  -0.0046597052  -0.0044736122   0.0012449338
        0.0007903683   0.0033105166   0.0021288426  -0.0030949211  -0.0009373393
       -0.0040665345  -0.0021361420  -0.0036349580  -0.0013479608   0.0003208426
        0.0019183893  -0.0001521990  -0.0003809076  -0.0009963258  -0.0006117241
        0.0001800366   0.0007695760   0.0003175189   0.0000280895  -0.0012111091
       -0.0004234508   0.0008486103   0.0026366267   0.0006240146   0.0004450787
       -0.0034417964   0.0002774208  -0.0009288390   0.0012814137  -0.0002035769
       -0.0007319684  -0.0002764281   0.0013723388  -0.0008596198  -0.0006669512
       -0.0000562705   0.0005567359   0.0008788132   0.0000425600   0.0001679306
        0.0003494911  -0.0004426133  -0.0003353950   0.0007271219  -0.0008153451
        0.0019592311   0.0005802235  -0.0014571518  -0.0032828448   0.0007964784
       -0.0011542690   0.0000397203   0.0001706388   0.0000623477   0.0001391188
       -0.0000221097  -0.0000183316   0.0034515969   0.0000442326   0.0034557951
       -0.0000180967   0.0000423076   0.0001095952   0.0001501173   0.0002724797
       -0.0000230751  -0.0001324443   0.0002394294   0.0000372724   0.0001023683
       -0.0001700201   0.0001892977
       -0.0437550528  -0.1916238643   0.2161999201   0.0863614290   0.3333901503
       -0.2691275706  -0.0393025203  -0.0553198365   0.0085748207  -0.0192409877
       -0.0143528283   0.0065414960   0.0011345596   0.0014057619   0.0000147761
       -0.0018793852  -0.0013695923   0.0032932493  -0.0015751733   0.0002458465
       -0.0015214063   0.0006477948  -0.0005401339   0.0007615062   0.0036583641
        0.0009059752  -0.0023309049   0.0036752831  -0.0076694511   0.0129423268
        0.0020042074   0.0000605818   0.0061159690   0.0239399600  -0.0600032869
        0.0149353331  -0.0054317880   0.0017552767   0.0003330389  -0.0001804655
        0.0029101337   0.0002951311   0.0006863870  -0.0021701564   0.0003164786
       -0.0020426099  -0.0007370298  -0.0000186821   0.0017948552   0.0006982738
       -0.0000102283  -0.0005096059   0.0000118667  -0.0001047445  -0.0001695253
        0.0003650774   0.0002094028   0.0014119578   0.0062262119  -0.0043459152
       -0.0053863783  -0.0085100874  -0.0126330945   0.0105489284   0.0051837391
        0.0151805890   0.0016685717   0.0064726081   0.0037672884  -0.0002084334
       -0.0024464383   0.0010448426   0.0004755958   0.0005083839   0.0000007767
        0.0000982402  -0.0023243436   0.0008098283   0.0006864024   0.0036374977
        0.0001578842  -0.0016655838  -0.0035730145  -0.0018786553  -0.0008175396
        0.0020067925  -0.0010081835   0.0019606203  -0.0000423467   0.0015229345
        0.0000297905   0.0010669040  -0.0005582358   0.0001204686   0.0001479996
       -0.0000058770   0.0000007216  -0.0001893110   0.0001186081  -0.0000444980
       -0.0001305843  -0.0000556492   0.0001975705   0.0001976520   0.0000635404
       -0.0012716866   0.0002493730   0.0004112948  -0.0032587966   0.0004611927
        0.0003032458   0.0001289379  -0.0001606474   0.0001001080  -0.0000399285
       -0.0000633892  -0.0000301773  -0.0142481382  -0.0164175586  -0.0003915436
       -0.0001188299  -0.0002432196  -0.0000472277  -0.0000324984  -0.0001091737
        0.0000488964  -0.0000805518  -0.0000778937   0.0000636336   0.0000293309
        0.0001668893  -0.0000588238
        0.0563184173   0.1983512820  -0.3714920991  -0.0023567773  -0.2691275706
        0.5901650642  -0.0110224944   0.0121120249  -0.0701191656   0.0227381675
        0.0018949475   0.0056598055  -0.0002034870   0.0007376105  -0.0005808174
        0.0006794825   0.0028753447  -0.0027954593   0.0027262159  -0.0000575852
        0.0014230211  -0.0012275516   0.0006417452  -0.0010055116  -0.0077027426
       -0.0033329794   0.0001996717   0.0082511613   0.0211754725  -0.0359563952
       -0.0084090312   0.0059252694  -0.0090526406  -0.0751832930   0.0212258232
       -0.1058931486  -0.0013918264  -0.0051313888   0.0001258609   0.0033343360
       -0.0037050945  -0.0010147487  -0.0003716833   0.0031218184  -0.0005574793
        0.0032876336   0.0007675625  -0.0000193181  -0.0030120149  -0.0009956416
       -0.0000186804   0.0008538039  -0.0001567292   0.0001986642   0.0003402367
       -0.0005409669   0.0002501690  -0.0015917049  -0.0165196094   0.0120444447
        0.0077269536   0.0234745710   0.0207046166  -0.0209692307  -0.0135144319
       -0.0304961470  -0.0043302870  -0.0170726969  -0.0080529015   0.0004803255
        0.0068047364  -0.0031917185  -0.0009336186  -0.0007785624   0.0005769777
       -0.0004800187   0.0077146446  -0.0034400489  -0.0016409957  -0.0117371706
        0.0001577999   0.0040357138   0.0101932382   0.0043422788   0.0022611643
       -0.0051407383   0.0043877899  -0.0045670772   0.0026631020  -0.0063968050
        0.0003101072  -0.0050391306   0.0033663387  -0.0005893580  -0.0006413603
       -0.0000950661   0.0002646482   0.0003643076  -0.0002998495   0.0001954510
        0.0000722880  -0.0002172802  -0.0005176893   0.0001654187  -0.0002504015
        0.0023774701   0.0008007120  -0.0006678022   0.0043818440   0.0003374443
        0.0005617042  -0.0001426779   0.0000676606   0.0002119289   0.0001121809
        0.0000136465   0.0000369163   0.0255572584   0.0313694742   0.0069924986
        0.0002216934   0.0003824584   0.0001905897   0.0000940982   0.0003182616
       -0.0000600709   0.0002391205   0.0002478956  -0.0001411886  -0.0001439238
       -0.0003271039   0.0002186029
       -0.0236363191  -0.0232248009   0.0215206964  -0.1876552529  -0.0393025203
       -0.0110224944   0.3682276395   0.1121300613  -0.0198355394  -0.0661244314
       -0.0179856196   0.0134742336  -0.0260640202  -0.0329934833   0.0377171266
       -0.0013475815   0.0016085655  -0.0066683280  -0.0006768918  -0.0012343389
        0.0017581576   0.0002547371   0.0016578493  -0.0073589585   0.0005032820
        0.0043848364  -0.0104662654   0.0034515163   0.0008419573   0.0050593447
        0.0016970220  -0.0000132468  -0.0008961634  -0.0665099702  -0.0134244963
       -0.0234232172  -0.0064009289   0.0017930476  -0.0044912979  -0.0010715478
        0.0003348018   0.0011463606  -0.0000616703  -0.0011201424   0.0001247071
       -0.0012694536  -0.0001862669  -0.0000275419   0.0011574217   0.0005299493
        0.0000423918  -0.0003531480   0.0001115610  -0.0001542143  -0.0002973408
        0.0003267144  -0.0000172261   0.0029098354   0.0061563185   0.0012238678
        0.0002743509  -0.0038095170   0.0008132249  -0.0015111045  -0.0030454342
       -0.0006287213   0.0014320811   0.0027444762   0.0007486021  -0.0002138683
       -0.0016633571   0.0002080770   0.0003794633   0.0008073594   0.0007658849
       -0.0002014871  -0.0004274152  -0.0004762193  -0.0000794094   0.0007303983
        0.0002428550  -0.0006938153  -0.0016968738  -0.0005497073  -0.0001244123
        0.0033192784   0.0003888446  -0.0003959926  -0.0008268754  -0.0029320168
        0.0005326482  -0.0018765461  -0.0000277992   0.0024655545   0.0015469272
        0.0007671322  -0.0009679056  -0.0013825304   0.0012293339  -0.0001964889
        0.0003477725   0.0004369605   0.0003219897   0.0003468677  -0.0003735401
       -0.0005698362   0.0005227600   0.0010747797   0.0014117306  -0.0000913167
        0.0001548145  -0.0000209963  -0.0000252634  -0.0000778475  -0.0000689687
        0.0000239248   0.0000284811   0.0015425176   0.0042019009   0.0007105628
        0.0000227633   0.0000117713  -0.0000627172  -0.0001068584  -0.0001253540
        0.0000120637   0.0000835734  -0.0001280496  -0.0000291016  -0.0000484261
        0.0001043492  -0.0001295862
       -0.0421849021  -0.0188325090   0.0210121074  -0.0233814041  -0.0553198365
        0.0121120249   0.1121300613   0.1817963954  -0.1674239451  -0.0077105894
       -0.0999932681   0.0944004559  -0.0250020876  -0.0172187314   0.0197899533
        0.0007173082   0.0076713378  -0.0009862895  -0.0030984471  -0.0012228542
       -0.0000543375   0.0050928409   0.0070785764   0.0011063713  -0.0107264533
       -0.0131584378   0.0241510517   0.0076759081   0.0038169043  -0.0066433401
       -0.0020187358  -0.0002005650  -0.0035566006  -0.0175046534   0.0013769496
        0.0047456063   0.0031745512   0.0080100110   0.0017358408  -0.0004551932
       -0.0012790794   0.0005065954  -0.0002173942   0.0002116256  -0.0000657575
        0.0003294737   0.0000576976   0.0000187892  -0.0002415556  -0.0002355831
       -0.0000593685  -0.0000726888   0.0000591830   0.0000206861  -0.0004979620
        0.0002586314  -0.0000241128   0.0027374658  -0.0092031508   0.0055688834
        0.0003635478   0.0117915023   0.0017968903  -0.0031467480  -0.0018616366
       -0.0061684713  -0.0007598666  -0.0063680754  -0.0025619092  -0.0000001852
        0.0023739253  -0.0015836123  -0.0001332223   0.0003663623   0.0009645825
       -0.0004398284   0.0039626755  -0.0024100581  -0.0008103809  -0.0059348519
        0.0004655029   0.0015332514   0.0044000963   0.0014945041   0.0008421393
       -0.0008676017   0.0029545063  -0.0006843856   0.0009355984  -0.0035682371
        0.0001921897  -0.0026718505   0.0017455375   0.0016691038  -0.0017748486
       -0.0015973108  -0.0001160709  -0.0005055796   0.0002494361   0.0005137536
       -0.0008343452  -0.0008198927  -0.0005881343  -0.0005917154   0.0005642445
        0.0002387700   0.0001056458   0.0000055384   0.0000031682  -0.0004244349
        0.0002790344   0.0000421406   0.0000011381   0.0000615669  -0.0000069866
        0.0000181052   0.0000154839   0.0023515992   0.0041232650   0.0017678030
        0.0001192101   0.0000737558   0.0000377741   0.0000172410   0.0000564216
       -0.0000056194   0.0001586983   0.0000450472  -0.0000834499  -0.0001045469
       -0.0000918960   0.0000415419
        0.0512692712   0.0311380863  -0.0137174410  -0.0323848481   0.0085748207
       -0.0701191656  -0.0198355394  -0.1674239451   0.2941049991  -0.0030891845
        0.0878902057  -0.1757983062   0.0235750394   0.0151220909  -0.0080560227
       -0.0054401263  -0.0006796818   0.0042895991   0.0050683419   0.0010478507
        0.0007621122  -0.0113251467  -0.0008998055   0.0006591685   0.0140840194
        0.0322622647  -0.0384043546  -0.0101559048  -0.0101627913   0.0115219386
        0.0048502330  -0.0016722891   0.0051893807  -0.0091517701   0.0080732169
       -0.0058727174  -0.0068154365  -0.0022853098  -0.0030000008  -0.0008748318
       -0.0001418065   0.0004076008  -0.0002265537   0.0003198398   0.0000488928
        0.0001465126   0.0002763183   0.0000265693  -0.0000662983  -0.0001025039
        0.0000509679   0.0001703222   0.0000045165  -0.0000686761   0.0002613514
       -0.0001532844  -0.0001331627  -0.0038126605   0.0157277636  -0.0093186780
       -0.0011658161  -0.0204519910  -0.0032783898   0.0055549568   0.0040927854
        0.0107082480   0.0020958586   0.0111669057   0.0042432547  -0.0000498768
       -0.0043213833   0.0025935007   0.0002284576  -0.0004193587  -0.0013630277
        0.0006763135  -0.0067073403   0.0038963153   0.0011931727   0.0100839274
       -0.0007010841  -0.0024828926  -0.0078566908  -0.0024902514  -0.0014025495
        0.0024650910  -0.0048305886   0.0019791598  -0.0026241447   0.0058180458
       -0.0006271942   0.0050155720  -0.0028938905   0.0004594424  -0.0015404820
       -0.0002254140  -0.0001505143  -0.0000726589   0.0000118182   0.0000175643
       -0.0008943222   0.0000008043   0.0010129714   0.0012128762  -0.0012016635
       -0.0003724205  -0.0003738773   0.0000447114   0.0006594490   0.0005524476
       -0.0004408254  -0.0001065809   0.0000125748  -0.0001912251  -0.0000066465
        0.0000170046  -0.0000411887  -0.0034799142  -0.0060820977  -0.0021503230
       -0.0001613382  -0.0000916227  -0.0000879700  -0.0000591565  -0.0001363319
       -0.0000015801  -0.0002075301  -0.0001204920   0.0001152231   0.0001482942
        0.0001580522  -0.0001072033
       -0.0063056093  -0.0056011308   0.0057206686  -0.0259460207  -0.0192409877
        0.0227381675  -0.0661244314  -0.0077105894  -0.0030891845   0.6168177517
        0.1139232083   0.0831432811  -0.2917498653  -0.0502878805  -0.0519352531
       -0.0226134647  -0.0513057603   0.0715275183  -0.0326456320   0.0012178574
       -0.0167556941   0.0272811876   0.0148043721  -0.0077252722  -0.1206077709
        0.0281733062  -0.0846944728  -0.0733018268  -0.0215255304  -0.0004458040
        0.0032867013  -0.0040751268   0.0060154528   0.0191100362   0.0180453773
       -0.0195076423  -0.0061729860  -0.0087108894  -0.0023780762   0.0000377933
        0.0007675590   0.0002846272  -0.0002095331   0.0004878384  -0.0000792530
        0.0000591172   0.0003568685  -0.0000365755  -0.0000873025   0.0000471332
        0.0001927347   0.0003010184  -0.0000418443  -0.0001038338   0.0009650558
       -0.0004965089  -0.0001778232  -0.0058029576   0.0271125474  -0.0153653572
        0.0005466999  -0.0347107697  -0.0003566892   0.0035937900   0.0017979565
        0.0114470392   0.0028363838   0.0180486756   0.0063557809  -0.0000460152
       -0.0071857267   0.0043727941   0.0004246424  -0.0006557930  -0.0020590959
        0.0010515577  -0.0108615864   0.0062252933   0.0019580363   0.0164616761
       -0.0012352858  -0.0041672993  -0.0129157407  -0.0039518266  -0.0020297195
        0.0049163362  -0.0076167529   0.0024398438  -0.0056597205   0.0089899021
        0.0001617644   0.0091995460  -0.0052860966  -0.0215022034  -0.0053685165
       -0.0032305678   0.0008993564  -0.0026735352   0.0003107174  -0.0007236520
       -0.0002004145  -0.0004209564   0.0004874222  -0.0032005679   0.0014944841
       -0.0037930186  -0.0016274035  -0.0015085380   0.0014824202   0.0005445320
        0.0001205164  -0.0001482103   0.0000954188  -0.0000874410   0.0000065773
       -0.0000098531   0.0000123562   0.0006222945  -0.0018347711  -0.0008023077
       -0.0002836604  -0.0000333560  -0.0001058982   0.0000259653  -0.0001344893
       -0.0000083888  -0.0003901605  -0.0001469111   0.0001851503   0.0002559239
        0.0002151944  -0.0001723976
        0.0004477666   0.0023599651   0.0054474906  -0.0341234465  -0.0143528283
        0.0018949475  -0.0179856196  -0.0999932681   0.0878902057   0.1139232083
        0.2768782229  -0.1831926028  -0.0843027830  -0.0747113340  -0.0011190916
       -0.0225742085  -0.0217771573   0.0193397544  -0.0016669287  -0.0013864447
       -0.0057334767   0.0066157717  -0.0106215528   0.0193443156   0.0423771828
       -0.0659057962   0.0485726701  -0.0125102618  -0.0040707385  -0.0016013683
       -0.0006023120   0.0009234850   0.0051700957   0.0126124621   0.0065780226
       -0.0058934324  -0.0026571022  -0.0046518761  -0.0009951662  -0.0000005182
        0.0005760954  -0.0000003518  -0.0000376243   0.0002677513   0.0000298288
        0.0000494049   0.0001575460   0.0000217916   0.0000731400  -0.0000402496
        0.0000652280   0.0001415489  -0.0000341529  -0.0000460548   0.0004979397
       -0.0003463758  -0.0000601382  -0.0034578869   0.0133248000  -0.0084464407
       -0.0010787154  -0.0181222310  -0.0027060685   0.0040361146   0.0023507568
        0.0088731642   0.0018828117   0.0097360885   0.0035229357  -0.0000171035
       -0.0038015877   0.0022863871   0.0001853435  -0.0003400990  -0.0011890773
        0.0005821132  -0.0059058477   0.0033671445   0.0010327872   0.0088380288
       -0.0006067149  -0.0022224417  -0.0071231089  -0.0020854430  -0.0011551738
        0.0023880374  -0.0042637566   0.0016817197  -0.0024293247   0.0051778178
       -0.0005202843   0.0045018882  -0.0026319988   0.0066653783   0.0038050883
        0.0005125695  -0.0027508463   0.0030062101   0.0054014553  -0.0001919627
        0.0004846062  -0.0000138768  -0.0020389420   0.0021864246   0.0047000004
       -0.0013342451   0.0003445681   0.0002291531   0.0004585490   0.0002851821
       -0.0001113391  -0.0000323940   0.0000439027  -0.0001250306   0.0000123408
       -0.0000069511  -0.0000165156  -0.0017528290  -0.0033011075  -0.0009517300
       -0.0001574630  -0.0000503402  -0.0000736716  -0.0000398809  -0.0001066664
        0.0000009193  -0.0001834872  -0.0000923735   0.0001022820   0.0001188778
        0.0001347419  -0.0000868107
       -0.0051980028   0.0017105529  -0.0028005801   0.0436338396   0.0065414960
        0.0056598055   0.0134742336   0.0944004559  -0.1757983062   0.0831432811
       -0.1831926028   0.4648284107   0.0061334196   0.0207064947  -0.0753232581
        0.0237301377   0.0015195892   0.0083198206  -0.0126539701  -0.0042666030
       -0.0039569063   0.0034690078   0.0214539741  -0.0347541037  -0.1012631066
        0.0431256121  -0.1786048137  -0.0269271143  -0.0103081214   0.0018728379
        0.0014645719   0.0026797157  -0.0003684011  -0.0074295548  -0.0006409662
       -0.0066310853   0.0000653049   0.0015178835  -0.0002808492   0.0001374315
       -0.0007404229   0.0002334801  -0.0000973638   0.0003208843  -0.0002612775
        0.0003873774   0.0000868913  -0.0000329353  -0.0004763316  -0.0000885230
        0.0000175345   0.0000403179   0.0000066819   0.0000128153  -0.0002671830
        0.0000766833  -0.0000007871   0.0011301692  -0.0019286924   0.0018667003
        0.0016796677   0.0038570714   0.0030904138  -0.0027390140  -0.0016815079
       -0.0047344876  -0.0007998060  -0.0024878103  -0.0009288969   0.0000249612
        0.0008590427  -0.0004853867  -0.0000023854   0.0000787256   0.0004856724
       -0.0002259101   0.0015877532  -0.0010034642  -0.0002756101  -0.0023052039
        0.0000925383   0.0005143814   0.0019483597   0.0004371163   0.0005044883
       -0.0004723568   0.0010084422  -0.0006157962  -0.0004646556  -0.0009582993
        0.0010985417   0.0004016725   0.0002741075  -0.0233086897  -0.0063812787
       -0.0009544589   0.0008167436   0.0053197394  -0.0012709620  -0.0004572265
        0.0001094239   0.0004249822   0.0003450762   0.0040638794  -0.0010104793
       -0.0016765548  -0.0007415456   0.0000725149   0.0003456504   0.0000478984
        0.0002102444  -0.0000456614  -0.0000088968   0.0002569553  -0.0000010075
        0.0000063696   0.0000427287   0.0021870802   0.0031351239   0.0009117989
        0.0000335632   0.0000557563   0.0000322055   0.0000803304   0.0000943842
       -0.0000125220   0.0000379899   0.0000663939  -0.0000268260  -0.0000172775
       -0.0000693218   0.0000479614
       -0.0028247895  -0.0026611198   0.0008690234   0.0093139259   0.0011345596
       -0.0002034870  -0.0260640202  -0.0250020876   0.0235750394  -0.2917498653
       -0.0843027830   0.0061334196   0.6021673443   0.1072944950   0.0999158145
       -0.1035571615  -0.0245818897   0.0057090923   0.0437969092   0.0081608963
        0.0089996612  -0.0212135164  -0.0097862826   0.0061797493  -0.0672278007
       -0.0005996178  -0.0370121820   0.0269622187   0.0166332991  -0.0186350001
       -0.0071459989  -0.0001019630  -0.0049501068  -0.0122550031  -0.0120650459
        0.0157077200   0.0058739181   0.0073356637   0.0016293200  -0.0000020938
       -0.0009518806  -0.0003656016   0.0000709536  -0.0002260256   0.0000763326
        0.0002291938  -0.0001919553   0.0000640746  -0.0001719851  -0.0002044893
       -0.0001797475  -0.0000599830   0.0000006227   0.0001077689  -0.0006533092
        0.0004635740   0.0001555605   0.0041377822  -0.0250474438   0.0128178266
        0.0000314375   0.0310139200   0.0013973744  -0.0039207395  -0.0021681298
       -0.0112776710  -0.0029543371  -0.0162537715  -0.0057318396   0.0000511764
        0.0065084243  -0.0037476132  -0.0003564940   0.0004168757   0.0016327341
       -0.0008769002   0.0094728974  -0.0052788703  -0.0016427310  -0.0144024002
        0.0009560988   0.0036471074   0.0115967622   0.0034655893   0.0017413304
       -0.0049711111   0.0064773204  -0.0020610574   0.0048356241  -0.0067482780
       -0.0001055730  -0.0071318569   0.0043227332  -0.1426847412   0.0388277270
       -0.1241200034  -0.0109963147  -0.0165853122   0.0206141565  -0.0009315167
       -0.0000485698  -0.0041341809  -0.0002118396   0.0001683814   0.0003993074
        0.0017630984   0.0012308673  -0.0000094931  -0.0009190288  -0.0005228612
       -0.0001337502   0.0000397002  -0.0000162348   0.0000197292   0.0000090644
        0.0000090702  -0.0000084392   0.0004269491   0.0026092453   0.0012200607
        0.0002419501   0.0000322498   0.0000928976  -0.0000230980   0.0001191828
       -0.0000008499   0.0003152882   0.0001187020  -0.0001436670  -0.0002094500
       -0.0001602084   0.0001423760
       -0.0033078773  -0.0033574524   0.0025996629   0.0064821436   0.0014057619
        0.0007376105  -0.0329934833  -0.0172187314   0.0151220909  -0.0502878805
       -0.0747113340   0.0207064947   0.1072944950   0.2784481445  -0.2216537413
       -0.0654408533  -0.1258122746   0.0988139745   0.0339006893  -0.0084935935
        0.0335150503  -0.0164783910  -0.0082710832  -0.0006848985  -0.0238049396
        0.0041568112  -0.0164181744   0.0198231076   0.0143851807  -0.0073202148
       -0.0035975184   0.0005331241  -0.0032256824  -0.0081583090  -0.0082908000
        0.0110623798   0.0045071966   0.0049422822   0.0011358724   0.0000259154
       -0.0002784702  -0.0004608024   0.0002262284  -0.0007431684   0.0001114318
       -0.0003713465  -0.0003229458   0.0000119299   0.0003400444   0.0001059166
       -0.0001090156  -0.0002706803   0.0000513429   0.0000647833  -0.0004242271
        0.0004371734   0.0001286199   0.0030827024  -0.0204809903   0.0101042179
        0.0002127179   0.0255702175   0.0013615838  -0.0032397078  -0.0018668129
       -0.0093682729  -0.0026882808  -0.0134688679  -0.0047079648   0.0000731680
        0.0055289538  -0.0030547263  -0.0003590385   0.0002299211   0.0010900137
       -0.0006539574   0.0076295840  -0.0040823968  -0.0012772241  -0.0116225451
        0.0007424907   0.0030135602   0.0095206732   0.0029441376   0.0013222603
       -0.0044780051   0.0050349735  -0.0017206325   0.0041270617  -0.0047191503
        0.0001433315  -0.0054533988   0.0031846858   0.0387381026  -0.0535996645
        0.0543350454  -0.0051853914  -0.0055192118   0.0086067331  -0.0002312286
        0.0045196133   0.0035756765  -0.0004339346   0.0001021202  -0.0001127003
        0.0015695090   0.0004402211  -0.0000675120  -0.0005871051  -0.0003984105
       -0.0000882736   0.0000262555   0.0000287640   0.0000371216  -0.0000052569
        0.0000061795  -0.0000069036   0.0004732126   0.0021456586   0.0009601859
        0.0001943488   0.0000227117   0.0000848039  -0.0000043445   0.0000910920