$hessian                                                                        
        0.5252708333   0.0016938230  -0.0008476094  -0.0661883486  -0.0041349603
        0.0026690609  -0.0010510379   0.0182198569  -0.0162292366   0.0004635986
       -0.0001355960   0.0002047738   0.0000775967   0.0001141716  -0.0001803455
       -0.0000121676   0.0000234745   0.0000325576  -0.0000042210   0.0000013792
        0.0000212673   0.0001153219  -0.0000625541   0.0000114199  -0.0000386451
       -0.0000114115   0.0000232085  -0.0000207766   0.0000003023  -0.0000063467
        0.0000492654   0.0000086437   0.0000330034  -0.0000255750  -0.0000121091
        0.0000070775  -0.0000118987  -0.0000109684  -0.0000014168  -0.0000046036
        0.0000305853  -0.0000025027  -0.0000183613  -0.0000202198  -0.0000165976
        0.0000010252   0.0000028260   0.0000052256  -0.0000047027  -0.0000077045
       -0.0000023973   0.0000017166   0.0000051641   0.0000010308  -0.0000003741
        0.0000022287  -0.0000006608  -0.0000020651   0.0000030962  -0.0000038603
        0.0000021223   0.0000055726   0.0000007781   0.0000007354   0.0000001964
        0.0000014826   0.0000008940   0.0000052571  -0.0000006984   0.0000003781
       -0.0000068856   0.0000037474  -0.0000038198   0.0000009670  -0.0000024982
        0.0000150581  -0.0000162666   0.0000207288   0.0000115218   0.0000208011
       -0.0000015880  -0.0000014804  -0.0000196597   0.0000014469  -0.0000403136
        0.0000343415  -0.0000056009   0.0000199590  -0.0000129152   0.0000029011
        0.0000268173  -0.0000009396  -0.0000008966  -0.0000270967  -0.0000060916
       -0.0000019023   0.0000142412   0.0000189859   0.0000115608   0.0000015152
       -0.0000054468  -0.0000022245  -0.0000030099  -0.0000000208   0.0000007168
       -0.0000032374   0.0000019955   0.0000014704   0.0000046752   0.0000009505
        0.0000017944  -0.0000121332   0.0000018178  -0.0000005130  -0.0000038084
       -0.0000007434  -0.0000022272  -0.0000004718   0.0000015792   0.0000004581
       -0.0000033876   0.0000000333  -0.0000010458   0.0000022696  -0.0000018596
       -0.0000019883   0.0000008711   0.0000033783   0.0000047597   0.0000030793
       -0.0000114432  -0.0000078398  -0.0000200094   0.0000130954   0.0000012104
       -0.0000084718  -0.0000058404   0.0000034471   0.0000893550   0.0000100460
       -0.0000111399  -0.1795826930  -0.1163162769  -0.0282733679  -0.0486082323
        0.0115744399   0.0244709045  -0.2248663917   0.1041476349   0.0014608040
       -0.0025198323  -0.0183005375   0.0173257626   0.0007407472  -0.0012507365
        0.0015892818   0.0006397760  -0.0003678380  -0.0008421317  -0.0034172931
        0.0039000987  -0.0007734509  -0.0001074940   0.0000883987  -0.0001798923
       -0.0007378943   0.0008639545  -0.0003926649  -0.0000967063  -0.0000112680
        0.0000343400  -0.0000038604  -0.0000324775  -0.0000206512  -0.0000152871
        0.0000087281   0.0000068375  -0.0000079604  -0.0000174681  -0.0000398357
        0.0000014789  -0.0000087106   0.0000074577  -0.0000091175   0.0000081606
        0.0000085316  -0.0000133755  -0.0000093947  -0.0000756447  -0.0000271698
        0.0000080914   0.0000108776  -0.0000150094  -0.0000386847  -0.0000377689
       -0.0000052557  -0.0000050476  -0.0000007676  -0.0000013481  -0.0000018898
       -0.0000030313   0.0000012219   0.0000019869   0.0000019771   0.0000004548
        0.0000022633  -0.0000000812   0.0000011952   0.0000017105   0.0000003444
        0.0000001092   0.0000019977  -0.0000013261   0.0000003454   0.0000013167
       -0.0000014443  -0.0000002215   0.0000006549  -0.0000014659   0.0000022765
       -0.0000001595   0.0000008596  -0.0000042038   0.0000044659  -0.0000009179
       -0.0000026278   0.0000010666  -0.0000016026   0.0000005404   0.0000027883
        0.0000003814  -0.0000001891  -0.0000000116  -0.0000013622  -0.0000004811
        0.0000001831  -0.0000012200  -0.0000010097   0.0000004052  -0.0000012375
       -0.0000018090   0.0000014274  -0.0000006564  -0.0000013885   0.0000012976
       -0.0000009359  -0.0000006262   0.0000012827  -0.0000003720  -0.0000008361
       -0.0000000565  -0.0000020556  -0.0000044981  -0.0000021812   0.0000006940
        0.0000018334  -0.0000005478   0.0000008397
        0.0016938230   0.4962626670   0.0325979403  -0.0053813116  -0.1305867666
        0.0665251845   0.0050589175  -0.0168012929   0.0133886623  -0.0000002307
        0.0001839194  -0.0000446267  -0.0000845060  -0.0000811511   0.0000757699
       -0.0000229157   0.0000325773  -0.0000390042  -0.0000104430   0.0000018268
        0.0000199268  -0.0000604918   0.0000708406   0.0000013417  -0.0000017456
       -0.0000222845  -0.0000360054   0.0000012539   0.0000175968   0.0000131241
       -0.0000316461  -0.0000055975  -0.0000381711   0.0000188533   0.0000019125
       -0.0000080357   0.0000036462   0.0000119287   0.0000010706  -0.0000027870
       -0.0000213186  -0.0000068319   0.0000142577   0.0000199369   0.0000112589
       -0.0000029505  -0.0000070941  -0.0000023581   0.0000062316   0.0000059137
        0.0000054256  -0.0000027653  -0.0000023824  -0.0000031945  -0.0000006902
       -0.0000032354   0.0000005362   0.0000008775  -0.0000023033   0.0000020990
       -0.0000003084  -0.0000007894   0.0000004493  -0.0000006289  -0.0000020705
        0.0000005775  -0.0000019753  -0.0000046641   0.0000006551   0.0000003165
        0.0000052870  -0.0000009840   0.0000039993   0.0000036069   0.0000032092
       -0.0000102131   0.0000047411  -0.0000075774  -0.0000021512  -0.0000178390
       -0.0000006878   0.0000084276   0.0000081590  -0.0000019010   0.0000057493
       -0.0000087082   0.0000017230   0.0000073423  -0.0000020646  -0.0000014273
       -0.0000030485  -0.0000036742   0.0000015144   0.0000074716  -0.0000054561
       -0.0000043834   0.0000027194  -0.0000023299   0.0000005462  -0.0000041652
        0.0000036855   0.0000030553  -0.0000002276   0.0000000153   0.0000000248
        0.0000010622  -0.0000016684  -0.0000010870   0.0000003453   0.0000013924
        0.0000016565   0.0000000974  -0.0000000711   0.0000002211   0.0000050456
       -0.0000004538   0.0000010061  -0.0000009491  -0.0000002481   0.0000006936
       -0.0000004540  -0.0000000443   0.0000008812   0.0000019622   0.0000013059
        0.0000021143   0.0000014691  -0.0000024324  -0.0000027020  -0.0000047872
        0.0000067140   0.0000056485  -0.0000056947   0.0000062452  -0.0000041400
        0.0000101785   0.0000037971  -0.0000095479  -0.0000294895  -0.0000006565
        0.0000117485  -0.1160426634  -0.1432143428  -0.0263091509   0.0115901842
       -0.0901667575  -0.0946557918   0.1042946288  -0.1035434794  -0.0028398717
       -0.0041982057  -0.0176878464   0.0160578061   0.0005104087   0.0072551299
       -0.0064297068  -0.0006537645   0.0005367231   0.0008008707   0.0033145124
       -0.0021643829   0.0005775984   0.0001404129  -0.0000185158  -0.0000106452
       -0.0002305437  -0.0000021644   0.0002972199   0.0000116036  -0.0000293506
       -0.0000088089   0.0000142596  -0.0000021109   0.0000080729   0.0000053948
       -0.0000099417  -0.0000180368  -0.0000004607  -0.0000296317  -0.0000537031
        0.0000216070   0.0000071316   0.0000085419  -0.0000159214   0.0000084590
        0.0000087595   0.0000448708  -0.0000374102   0.0000331923   0.0000067918
        0.0000004709   0.0000128167  -0.0000038286   0.0000300357   0.0000456565
        0.0000006921   0.0000079589   0.0000018621   0.0000020547   0.0000044262
        0.0000021817  -0.0000022224  -0.0000015709  -0.0000038755  -0.0000000408
       -0.0000013508  -0.0000002241  -0.0000009644   0.0000010670  -0.0000011809
       -0.0000003379  -0.0000002976   0.0000009199  -0.0000016187   0.0000003973
        0.0000000426  -0.0000018332  -0.0000001992  -0.0000005216  -0.0000038253
       -0.0000003281  -0.0000016462   0.0000037820  -0.0000011338   0.0000007314
        0.0000021439  -0.0000001208   0.0000011562   0.0000004661  -0.0000005926
       -0.0000010632  -0.0000005600  -0.0000001481  -0.0000005807   0.0000012186
        0.0000002924   0.0000007540   0.0000018152  -0.0000005136   0.0000006936
        0.0000011725  -0.0000004565   0.0000011784   0.0000017130  -0.0000016220
        0.0000004023  -0.0000001232  -0.0000020293  -0.0000005535  -0.0000017783
        0.0000004005   0.0000013096   0.0000038185  -0.0000004886   0.0000011881
       -0.0000023300  -0.0000031784   0.0000070071
       -0.0008476094   0.0325979403   0.4894387206   0.0035639592   0.0665886512
       -0.1383595687  -0.0033953291   0.0043910624  -0.0016976331   0.0000865765
       -0.0002047630   0.0001940331   0.0000964601   0.0000774953   0.0000134232
        0.0000261942  -0.0000247840  -0.0000213333   0.0000101486   0.0000071581
        0.0000002884   0.0000214726   0.0000343042   0.0000393155   0.0000103301
       -0.0000438811  -0.0000224886   0.0000140770   0.0000495657   0.0000018102
        0.0000220641  -0.0000217806  -0.0000166171  -0.0000079795   0.0000177929
       -0.0000060245  -0.0000000203   0.0000049501   0.0000018602  -0.0000057263
       -0.0000098272  -0.0000061557   0.0000034856   0.0000068807  -0.0000002445
       -0.0000005665  -0.0000093314   0.0000012921   0.0000032160   0.0000000647
        0.0000041236  -0.0000006450   0.0000037099  -0.0000031519  -0.0000010207
       -0.0000014686  -0.0000008231   0.0000011691  -0.0000009322   0.0000022790
        0.0000007427   0.0000023499  -0.0000000572   0.0000010898  -0.0000001130
        0.0000016464  -0.0000013536  -0.0000003562  -0.0000012885   0.0000007717
       -0.0000000478   0.0000014416   0.0000014251   0.0000023395  -0.0000001954
        0.0000004709  -0.0000053046   0.0000057627   0.0000027113  -0.0000030969
       -0.0000037236   0.0000087360  -0.0000014731   0.0000007012  -0.0000140795
        0.0000000408   0.0000003326   0.0000089890  -0.0000069976   0.0000000692
       -0.0000010174  -0.0000062748   0.0000029566   0.0000026988  -0.0000069421
       -0.0000052721   0.0000081531   0.0000028755   0.0000054939  -0.0000033003
        0.0000008169  -0.0000001119  -0.0000000509   0.0000017024   0.0000016523
        0.0000005996  -0.0000010904  -0.0000006386  -0.0000000069   0.0000000115
        0.0000001790  -0.0000024644   0.0000008682   0.0000006294   0.0000013262
        0.0000003964   0.0000010329   0.0000000101   0.0000000166   0.0000006451
       -0.0000012807  -0.0000013080  -0.0000008139   0.0000006465   0.0000011467
        0.0000014015   0.0000044042   0.0000002208  -0.0000000709  -0.0000018970
       -0.0000002892  -0.0000002089  -0.0000174501   0.0000099375  -0.0000039669
        0.0000051773  -0.0000013092  -0.0000099575  -0.0000272056   0.0000045620
        0.0000056049  -0.0282293757  -0.0261062806  -0.0499935866   0.0243750849
       -0.0942483232  -0.2322060701   0.0015680444  -0.0029144079  -0.0434886198
        0.0009136075   0.0015348895   0.0008391747   0.0015032052   0.0195655818
       -0.0264648658   0.0006008382  -0.0012131364   0.0011316452   0.0000197327
       -0.0002981959   0.0006856869   0.0000200135   0.0000263706  -0.0000508722
       -0.0002837443   0.0002360154  -0.0000773833  -0.0000255168  -0.0000100837
       -0.0000003410   0.0000136039  -0.0000124443   0.0000093878  -0.0000016730
        0.0000029572   0.0000028787   0.0000063504  -0.0000157744  -0.0000160428
       -0.0000015657  -0.0000008108   0.0000117414  -0.0000121911   0.0000061682
       -0.0000000098  -0.0000184543  -0.0000332704   0.0000169633  -0.0000071229
        0.0000198380   0.0000154878  -0.0000094864   0.0000064545   0.0000105663
       -0.0000017080  -0.0000047315   0.0000041688   0.0000013056   0.0000032363
       -0.0000009520  -0.0000021318  -0.0000001967  -0.0000027582   0.0000001624
        0.0000006628   0.0000005633  -0.0000001027   0.0000029423  -0.0000001568
       -0.0000003618   0.0000019019   0.0000000697  -0.0000015735   0.0000021427
       -0.0000009582  -0.0000022727   0.0000000466  -0.0000019175  -0.0000011704
       -0.0000026293   0.0000000613  -0.0000032339   0.0000011929   0.0000022188
        0.0000001420   0.0000010506   0.0000015850   0.0000038906  -0.0000008466
       -0.0000007639   0.0000002348  -0.0000021780  -0.0000020413  -0.0000008883
       -0.0000010763  -0.0000006356  -0.0000002824  -0.0000001564   0.0000006152
       -0.0000011876  -0.0000005067   0.0000004251  -0.0000002175  -0.0000002224
        0.0000011667   0.0000002144  -0.0000011426   0.0000000215  -0.0000005292
       -0.0000005345   0.0000002019  -0.0000009472  -0.0000017826   0.0000019595
        0.0000012046   0.0000017907   0.0000050366
       -0.0661883486  -0.0053813116   0.0035639592   0.4897919377   0.0282425322
        0.0045711532  -0.1458079714   0.0616840491   0.0030582683  -0.0277633254
        0.0114843878  -0.0022253945  -0.0035885993  -0.0024792887  -0.0009448785
       -0.0010219041   0.0006614945  -0.0001508197   0.0000697455   0.0000565964
        0.0000215502  -0.0001655208   0.0000998391  -0.0000586783   0.0000771764
       -0.0000387416   0.0000726667   0.0000562962  -0.0000019356  -0.0000117993
       -0.0000340814   0.0000095264  -0.0000208783   0.0000054310  -0.0000035893
        0.0000033612   0.0000349916   0.0000866456  -0.0000143645  -0.0000200723
       -0.0000847954   0.0000099807   0.0000446812   0.0000339164   0.0000299252
       -0.0000105814   0.0000043202  -0.0000146517  -0.0000002569   0.0000028792
        0.0000041657   0.0000020493  -0.0000022527   0.0000071565  -0.0000012186
        0.0000099838  -0.0000019198   0.0000026829  -0.0000220254   0.0000146530
       -0.0000105952  -0.0000129934  -0.0000085764   0.0000035433   0.0000040176
        0.0000030477  -0.0000051699  -0.0000050769  -0.0000040203  -0.0000015609
        0.0000091140  -0.0000066038   0.0000086437   0.0000007105   0.0000117957
       -0.0000284173   0.0000256960  -0.0000324353  -0.0000298891   0.0000160381
       -0.0000041421   0.0000344344  -0.0000297253   0.0000054453  -0.0000031398
       -0.0000493425   0.0000080562  -0.0000047671   0.0000160329   0.0000003184
       -0.0000431046   0.0000052518  -0.0000010667   0.0000601520  -0.0000091842
        0.0000006216  -0.0000247092  -0.0000226745  -0.0000162186   0.0000051222
        0.0000041471   0.0000059624  -0.0000072144  -0.0000013827  -0.0000024119
        0.0000012305  -0.0000028659  -0.0000020381  -0.0000038069   0.0000016368
        0.0000003912   0.0000094509  -0.0000083601  -0.0000064549   0.0000099931
        0.0000059007   0.0000073716  -0.0000040565  -0.0000018432  -0.0000012955
        0.0000024991   0.0000029497   0.0000030315  -0.0000062940   0.0000043856
        0.0000037258   0.0000000973  -0.0000058171  -0.0000058307  -0.0000162750
        0.0000288360   0.0000145611  -0.0000013157  -0.0000051096   0.0000005835
        0.0000127977   0.0000137273   0.0000071272  -0.0000719774  -0.0000100029
       -0.0000091010  -0.0016691685  -0.0177347570   0.0168081051   0.0002044790
       -0.0019490332   0.0027006970  -0.0014363308   0.0191958870  -0.0186992970
       -0.1915160363  -0.1069133494  -0.0246258279  -0.0456998924   0.0047944887
        0.0129767016  -0.0058674900   0.0059469824   0.0030463856  -0.0005058375
        0.0015888773  -0.0009460639   0.0009356766   0.0007866573   0.0005962233
        0.0004038721   0.0002287966   0.0003006942   0.0000930886  -0.0002663293
        0.0000610602  -0.0002157850  -0.0001484154  -0.0002128477  -0.0000126620
        0.0000246372   0.0000739447  -0.0000448073  -0.0000297410  -0.0000273330
        0.0000639025  -0.0000066091   0.0000384397  -0.0000137964   0.0000036099
       -0.0000162679  -0.0000405451   0.0000944621   0.0000585497  -0.0000597855
        0.0000357206  -0.0000380607   0.0000015644   0.0000234784   0.0000274235
       -0.0000116855   0.0000006766   0.0000048014   0.0000021486   0.0000000945
        0.0000027138  -0.0000018572   0.0000026220  -0.0000051580  -0.0000034286
       -0.0000024255  -0.0000036907  -0.0000001575  -0.0000028332   0.0000011932
       -0.0000015617  -0.0000036107  -0.0000005684   0.0000011011  -0.0000022006
        0.0000026310   0.0000014012   0.0000007213   0.0000019050  -0.0000027811
       -0.0000032814  -0.0000017195   0.0000098957  -0.0000055918  -0.0000005853
        0.0000001375  -0.0000058437   0.0000019597   0.0000040015  -0.0000009255
       -0.0000007823   0.0000014185   0.0000016773   0.0000019325   0.0000030685
        0.0000011254   0.0000018085   0.0000031097  -0.0000013127  -0.0000006806
        0.0000033370  -0.0000003279   0.0000003463   0.0000022368  -0.0000025955
       -0.0000023603  -0.0000010901  -0.0000015652  -0.0000019923   0.0000018527
        0.0000004663   0.0000003765   0.0000014950   0.0000056302  -0.0000021620
       -0.0000018719   0.0000078411  -0.0000077938
       -0.0041349603  -0.1305867666   0.0665886512   0.0282425322   0.4912259088
        0.0288308415   0.0584147275  -0.1095205938  -0.0032446381  -0.0074297505
        0.0081264570   0.0000732757  -0.0026050377  -0.0009773038  -0.0005589988
       -0.0005463531   0.0004053581  -0.0000614314   0.0000056184   0.0000397325
       -0.0000035831  -0.0000157525   0.0000078564  -0.0002480692  -0.0000526807
        0.0000377692   0.0000880501  -0.0000436245  -0.0000224203   0.0000006099
       -0.0000630582   0.0000050382  -0.0000220540   0.0000580347   0.0000052192
       -0.0000029751  -0.0000124860  -0.0000711490   0.0000124493   0.0000094888
        0.0000485111  -0.0000129546  -0.0000193189  -0.0000132633  -0.0000168770
        0.0000004138  -0.0000018171   0.0000121172  -0.0000002851  -0.0000001172
        0.0000028153  -0.0000074300  -0.0000019838  -0.0000068113  -0.0000001091
       -0.0000100401   0.0000046878  -0.0000026818   0.0000137094  -0.0000091723
        0.0000090690   0.0000120802   0.0000084078  -0.0000046519  -0.0000071667
       -0.0000007107   0.0000026239  -0.0000018511   0.0000055990   0.0000033481
       -0.0000028367   0.0000074262  -0.0000050044   0.0000030420  -0.0000062203
        0.0000187648  -0.0000238846   0.0000221485   0.0000224781  -0.0000296676
        0.0000073269  -0.0000253763   0.0000397879  -0.0000069612   0.0000231442
        0.0000335610  -0.0000082771   0.0000040880  -0.0000218551   0.0000020012
        0.0000565713  -0.0000004351  -0.0000026968  -0.0000696515   0.0000066585
       -0.0000021629   0.0000341983   0.0000278943   0.0000191313  -0.0000048519
       -0.0000068599  -0.0000066046   0.0000106088   0.0000030127   0.0000055296
       -0.0000046419   0.0000027682   0.0000022988   0.0000020913  -0.0000020437
       -0.0000001972  -0.0000108202   0.0000100779   0.0000080069  -0.0000107284
       -0.0000059690  -0.0000074312   0.0000018275   0.0000014564   0.0000013504
       -0.0000056019  -0.0000016652  -0.0000015265   0.0000107462  -0.0000052082
       -0.0000030714  -0.0000026562   0.0000061148   0.0000075027   0.0000213319
       -0.0000343841  -0.0000194898   0.0000023773   0.0000213110   0.0000001779
       -0.0000104783  -0.0000066235   0.0000139901   0.0000576512  -0.0000191297
        0.0000008741  -0.0038345140  -0.0177701285   0.0156046875   0.0004062143
        0.0081846992  -0.0063824032   0.0023045248  -0.0143810102   0.0134961419
       -0.1071361919  -0.1179865561  -0.0202262316   0.0049683674  -0.0898970219
       -0.0925661124   0.0131950980  -0.0101994965  -0.0036323503   0.0194605319
       -0.0176244568   0.0020998636  -0.0010325442   0.0006844314   0.0000283877
       -0.0002099180   0.0001649288   0.0002505921   0.0000206108  -0.0000218504
       -0.0001010397  -0.0001847394  -0.0000329039  -0.0001108578   0.0000203016
        0.0000168354  -0.0000054882   0.0000158296   0.0000068684   0.0000013228
       -0.0000051204   0.0000058990  -0.0000135748   0.0000132756   0.0000106722
        0.0000149894  -0.0000099282   0.0000191603   0.0000595681   0.0000609613
       -0.0000115926   0.0000110881   0.0000061488   0.0001143949   0.0000281863
        0.0000143432  -0.0000051323  -0.0000028504   0.0000050539   0.0000042967
       -0.0000014956   0.0000019216  -0.0000028779  -0.0000001017   0.0000038437
        0.0000022539   0.0000024166  -0.0000001018   0.0000047818  -0.0000032420
        0.0000023097   0.0000043568   0.0000007916  -0.0000024637   0.0000040640
       -0.0000048872  -0.0000035205  -0.0000020564  -0.0000042447  -0.0000009801
        0.0000001344  -0.0000011691  -0.0000072578   0.0000023248  -0.0000016078
        0.0000014984   0.0000059882  -0.0000036976   0.0000000316   0.0000018563
        0.0000004958   0.0000002780  -0.0000019863  -0.0000030781  -0.0000028697
       -0.0000014552  -0.0000027139  -0.0000026680   0.0000011654   0.0000001443
       -0.0000032305   0.0000003210  -0.0000006864  -0.0000020037   0.0000019201
        0.0000016868  -0.0000000477   0.0000019021   0.0000014653  -0.0000018583
       -0.0000004410  -0.0000017664   0.0000005010  -0.0000077598   0.0000011213
        0.0000145691  -0.0000048190  -0.0000057052
        0.0026690609   0.0665251845  -0.1383595687   0.0045711532   0.0288308415
        0.5099255137   0.0038654205  -0.0029958040  -0.0666550336  -0.0057074872
        0.0027587328  -0.0000047482  -0.0014133776  -0.0006722960  -0.0003046839
       -0.0003627984   0.0001712258   0.0000620520  -0.0000208667   0.0000152540
       -0.0000248562   0.0002148817   0.0000114618  -0.0000254266  -0.0000116703
        0.0000375019   0.0000522947  -0.0000210182  -0.0000267626  -0.0000057158
       -0.0000197374  -0.0000148718   0.0000392165   0.0000151898  -0.0000106673
        0.0000010981   0.0000032276  -0.0000344398   0.0000038346   0.0000017473
        0.0000284798  -0.0000158656  -0.0000124995  -0.0000018922  -0.0000077035
        0.0000010895  -0.0000058170   0.0000035279   0.0000016176  -0.0000056784
        0.0000045077  -0.0000008719   0.0000050603  -0.0000036037  -0.0000009038
       -0.0000028516  -0.0000006650  -0.0000008552   0.0000033665  -0.0000021392
        0.0000045578   0.0000073654   0.0000044579   0.0000002447  -0.0000010254
        0.0000020299  -0.0000009113   0.0000010997  -0.0000011891   0.0000017976
       -0.0000036500   0.0000050141  -0.0000002482   0.0000050540  -0.0000047161
        0.0000101668  -0.0000167594   0.0000181743   0.0000011809  -0.0000141102
        0.0000031464  -0.0000193800   0.0000159781  -0.0000034775  -0.0000001058
        0.0000151873  -0.0000063000   0.0000049066  -0.0000142155  -0.0000005633
        0.0000289045   0.0000009775   0.0000003317  -0.0000307532   0.0000013663
       -0.0000058552   0.0000173500   0.0000136762   0.0000123507  -0.0000031415
       -0.0000018910  -0.0000049270   0.0000026848   0.0000044202   0.0000035313
       -0.0000007392   0.0000017204   0.0000007807   0.0000018238  -0.0000007020
       -0.0000002601  -0.0000067414   0.0000050529   0.0000037658  -0.0000040030
       -0.0000018120  -0.0000022372   0.0000015332   0.0000009308   0.0000009155
       -0.0000020351  -0.0000014857  -0.0000012219   0.0000036462  -0.0000012224
       -0.0000007553   0.0000024812   0.0000036838   0.0000030882   0.0000055125
       -0.0000152074  -0.0000069774  -0.0000019063   0.0000075216  -0.0000016368
       -0.0000000183  -0.0000135379   0.0000019788   0.0000358238   0.0000086292
        0.0000067254   0.0019190745   0.0000977787   0.0020387748   0.0012783829
        0.0188939113  -0.0271194604  -0.0011273572   0.0029264839  -0.0017088740
       -0.0245573967  -0.0204132491  -0.0496988220   0.0129565817  -0.0930666969
       -0.2239624143   0.0225939209  -0.0184557600  -0.0038303051  -0.0156296443
        0.0145776982  -0.0006895197  -0.0013112444   0.0005687693   0.0003208541
        0.0003144366   0.0001811279  -0.0000067277   0.0000344424  -0.0000691535
       -0.0000067730  -0.0000921767  -0.0000437433  -0.0000810328  -0.0000029251
        0.0000333284  -0.0000139831  -0.0000120563  -0.0000055259   0.0000460024
       -0.0000157592  -0.0000163800  -0.0000015400   0.0000312776  -0.0000049680
       -0.0000326633  -0.0002958687   0.0000371887   0.0000767758   0.0001005758
        0.0000277379   0.0000450061   0.0000075938   0.0000903203  -0.0000882145
        0.0000030811  -0.0000051168   0.0000035235   0.0000007724   0.0000078197
       -0.0000023580  -0.0000017361   0.0000008757  -0.0000029687  -0.0000003596
        0.0000003012   0.0000003592  -0.0000004960   0.0000031716   0.0000000241
       -0.0000011936   0.0000018416   0.0000003919  -0.0000024183   0.0000026771
       -0.0000005582  -0.0000034539   0.0000007672  -0.0000016069  -0.0000015406
       -0.0000008774   0.0000009129  -0.0000026136   0.0000014218   0.0000031224
       -0.0000012368   0.0000040044  -0.0000001911   0.0000002721   0.0000007055
        0.0000013357  -0.0000003544  -0.0000015233  -0.0000012083  -0.0000019751
       -0.0000007445  -0.0000004731  -0.0000011692   0.0000000554   0.0000009474
       -0.0000016303  -0.0000001915   0.0000008560  -0.0000009560   0.0000003112
        0.0000017647  -0.0000002253  -0.0000005029   0.0000007800  -0.0000030202
       -0.0000010515  -0.0000009059   0.0000023184  -0.0000009190   0.0000019158
        0.0000021437   0.0000050336  -0.0000009558
       -0.0010510379   0.0050589175  -0.0033953291  -0.1458079714   0.0584147275
        0.0038654205   0.4508217586   0.0063780860  -0.0095005220  -0.1454731550
       -0.0558703430  -0.0252021940  -0.0264088058  -0.0062200253  -0.0074828091
       -0.0030724654   0.0022501226   0.0001584314   0.0001406563   0.0001377646
        0.0000097995  -0.0001609685  -0.0001894483   0.0002020757  -0.0000123161
       -0.0001068705  -0.0000508019   0.0000058530   0.0000569853  -0.0000160208
        0.0000958090  -0.0000516663   0.0000636553  -0.0000307089  -0.0000497443
        0.0000128784  -0.0000084026   0.0000066810  -0.0000041271  -0.0000066336
        0.0000228362   0.0000012801  -0.0000093981  -0.0000080660  -0.0000098415
        0.0000002148   0.0000054644   0.0000018631  -0.0000028758  -0.0000010942
       -0.0000025498  -0.0000000708  -0.0000000557   0.0000010282  -0.0000006750
       -0.0000016023   0.0000005835   0.0000012218   0.0000039806  -0.0000001848
        0.0000005034   0.0000016161   0.0000006189  -0.0000009774   0.0000003251
       -0.0000003421   0.0000001553  -0.0000007560   0.0000017981   0.0000021704
        0.0000012619   0.0000034933  -0.0000035705  -0.0000022112  -0.0000030290
        0.0000055613   0.0000011663   0.0000041828  -0.0000037907   0.0000337177
       -0.0000042483   0.0000199595  -0.0000515530  -0.0000012232  -0.0000006379
       -0.0000180149   0.0000112192  -0.0000086207   0.0000064958   0.0000089018
        0.0000108766   0.0000036376  -0.0000020943  -0.0000067469   0.0000007028
       -0.0000005697   0.0000004727   0.0000038458  -0.0000004728   0.0000045124
       -0.0000060281  -0.0000026734  -0.0000001417   0.0000031645   0.0000037635
       -0.0000022715  -0.0000000106  -0.0000000009  -0.0000035447  -0.0000004091
       -0.0000003934   0.0000007093   0.0000002682   0.0000005883  -0.0000038351
        0.0000029999   0.0000021109  -0.0000002398  -0.0000003267  -0.0000000034
       -0.0000014092   0.0000008976   0.0000011256   0.0000000836  -0.0000006255
        0.0000000583  -0.0000008941   0.0000019215   0.0000037632   0.0000011002
       -0.0000061566  -0.0000056862   0.0000217337  -0.0000080386   0.0000096875
       -0.0000031807   0.0000221702   0.0000135217   0.0000475997  -0.0000304303
       -0.0000752201   0.0002658582  -0.0004538845   0.0000442363   0.0005017422
       -0.0005708535   0.0003982698   0.0008122086  -0.0001387406   0.0000693340
       -0.0273351446   0.0143077315   0.0003572809  -0.0051820503   0.0053433419
        0.0025959537  -0.0427022485   0.0072819654   0.0192376460  -0.0452194351
       -0.0248786916   0.0223172753  -0.0003135154  -0.0012345542  -0.0026542417
       -0.0086995775  -0.0076665735  -0.0004246020   0.0008114232  -0.0015635981
        0.0004866180  -0.0008603385  -0.0003725977  -0.0007321602  -0.0000511280
        0.0000313427   0.0000556777  -0.0000796441  -0.0000540418  -0.0000139977
        0.0000824773   0.0000121015   0.0000734026  -0.0000049122  -0.0000043776
       -0.0000913379  -0.0006870771   0.0001341788  -0.0001832029  -0.0003629703
       -0.0000411071  -0.0000460922  -0.0000675547   0.0000381778  -0.0000831110
       -0.0000016597   0.0000074305  -0.0000063820  -0.0000001518  -0.0000012999
       -0.0000007628   0.0000020662   0.0000012920   0.0000012609   0.0000007350
        0.0000005658  -0.0000000985   0.0000012450   0.0000003475   0.0000006284
        0.0000002405   0.0000009672  -0.0000002851   0.0000007177   0.0000016757
       -0.0000003812   0.0000001278  -0.0000000373   0.0000001475   0.0000004770
       -0.0000004443   0.0000003080   0.0000020974   0.0000055110  -0.0000018003
       -0.0000040517  -0.0000016542  -0.0000000451   0.0000038375   0.0000025303
        0.0000008709   0.0000005023   0.0000012719   0.0000002114  -0.0000012643
        0.0000018237   0.0000008335  -0.0000001319  -0.0000000456  -0.0000005053
        0.0000004428   0.0000009435   0.0000005627   0.0000002859  -0.0000001297
       -0.0000006779  -0.0000009631   0.0000001349  -0.0000004275  -0.0000010862
       -0.0000010844  -0.0000024847  -0.0000055669   0.0000046167  -0.0000022973
       -0.0000016185   0.0000094852  -0.0000171360
        0.0182198569  -0.0168012929   0.0043910624   0.0616840491  -0.1095205938
       -0.0029958040   0.0063780860   0.4921218486  -0.0066117890  -0.0560505577
       -0.1001946595  -0.0165464058   0.0116932132   0.0072077738   0.0043983137
        0.0029840240  -0.0017251023   0.0003008046  -0.0001700604  -0.0001972104
       -0.0000537416  -0.0002232162   0.0002281382   0.0002936310   0.0002387836
       -0.0002510327  -0.0000768308   0.0001314189   0.0003846389  -0.0000524226
       -0.0001379211   0.0000706266   0.0000623803   0.0000819058   0.0000281939