      -----------------------------------------------------------      
     |                   =====================                   |     
     |                           x T B                           |     
     |                   =====================                   |     
     |                         S. Grimme                         |     
     |          Mulliken Center for Theoretical Chemistry        |     
     |                    University of Bonn                     |     
      -----------------------------------------------------------      

   * xtb version 6.7.1 (edcfbbe) compiled by 'albert@albert-system' on 2024-07-22

   xtb is free software: you can redistribute it and/or modify it under
   the terms of the GNU Lesser General Public License as published by
   the Free Software Foundation, either version 3 of the License, or
   (at your option) any later version.
   
   xtb is distributed in the hope that it will be useful,
   but WITHOUT ANY WARRANTY; without even the implied warranty of
   MERCHANTABILITY or FITNESS FOR A PARTICULAR PURPOSE.  See the
   GNU Lesser General Public License for more details.
   
   Cite this work as:
   * C. Bannwarth, E. Caldeweyher, S. Ehlert, A. Hansen, P. Pracht,
     J. Seibert, S. Spicher, S. Grimme, WIREs Comput. Mol. Sci., 2020, 11,
     e01493. DOI: 10.1002/wcms.1493
   
   for GFN2-xTB:
   * C. Bannwarth, S. Ehlert and S. Grimme., J. Chem. Theory Comput., 2019,
     15, 1652-1671. DOI: 10.1021/acs.jctc.8b01176
   for GFN1-xTB:
   * S. Grimme, C. Bannwarth, P. Shushkov, J. Chem. Theory Comput., 2017,
     13, 1989-2009. DOI: 10.1021/acs.jctc.7b00118
   for GFN0-xTB:
   * P. Pracht, E. Caldeweyher, S. Ehlert, S. Grimme, ChemRxiv, 2019, preprint.
     DOI: 10.26434/chemrxiv.8326202.v1
   for GFN-FF:
   * S. Spicher and S. Grimme, Angew. Chem. Int. Ed., 2020, 59, 15665-15673.
     DOI: 10.1002/anie.202004239
   
   for ALPB and GBSA implicit solvation:
   * S. Ehlert, M. Stahn, S. Spicher, S. Grimme, J. Chem. Theory Comput.,
     2021, 17, 4250-4261. DOI: 10.1021/acs.jctc.1c00471
   
   for ddCOSMO and CPCM-X implicit solvation:
   * M. Stahn, S. Ehlert, S. Grimme, J. Phys. Chem. A,
     2023, XX, XXXX-XXXX. DOI: 10.1021/acs.jpca.3c04382
   
   for DFT-D4:
   * E. Caldeweyher, C. Bannwarth and S. Grimme, J. Chem. Phys., 2017,
     147, 034112. DOI: 10.1063/1.4993215
   * E. Caldeweyher, S. Ehlert, A. Hansen, H. Neugebauer, S. Spicher,
     C. Bannwarth and S. Grimme, J. Chem. Phys., 2019, 150, 154122.
     DOI: 10.1063/1.5090222
   * E. Caldeweyher, J.-M. Mewes, S. Ehlert and S. Grimme, Phys. Chem. Chem. Phys.
     2020, 22, 8499-8512. DOI: 10.1039/D0CP00502A
   
   for sTDA-xTB:
   * S. Grimme and C. Bannwarth, J. Chem. Phys., 2016, 145, 054103.
     DOI: 10.1063/1.4959605
   
   in the mass-spec context:
   * V. Asgeirsson, C. Bauer and S. Grimme, Chem. Sci., 2017, 8, 4879.
     DOI: 10.1039/c7sc00601b
   * J. Koopman and S. Grimme, ACS Omega 2019, 4, 12, 15120-15133.
     DOI: 10.1021/acsomega.9b02011
   
   for metadynamics refer to:
   * S. Grimme, J. Chem. Theory Comput., 2019, 155, 2847-2862
     DOI: 10.1021/acs.jctc.9b00143
   
   for SPH calculations refer to:
   * S. Spicher and S. Grimme, J. Chem. Theory Comput., 2021, 17, 1701-1714
     DOI: 10.1021/acs.jctc.0c01306
   
   for ONIOM refer to:
   * C. Plett, A. Katbashev, S. Ehlert, S. Grimme, M. Bursch,
     Phys. Chem. Chem. Phys., 2023, 25, 17860-17868. DOI: 10.1039/D3CP02178E
   
   for DIPRO refer to:
   * J. Kohn, N. Gildemeister, S. Grimme, D. Fazzi, A. Hansen,
     J. Chem. Phys., 2023, just accepted.
   
   for PTB refer to:
   * S. Grimme, M. Mueller, A. Hansen, J. Chem. Phys., 2023, 158, 124111.
     DOI: 10.1063/5.0137838
   
   with help from (in alphabetical order)
   P. Atkinson, C. Bannwarth, F. Bohle, G. Brandenburg, E. Caldeweyher
   M. Checinski, S. Dohm, S. Ehlert, S. Ehrlich, I. Gerasimov, C. Hölzer
   A. Katbashev, J. Kohn, J. Koopman, C. Lavigne, S. Lehtola, F. März, M. Müller,
   F. Musil, H. Neugebauer, J. Pisarek, C. Plett, P. Pracht, F. Pultar,
   J. Seibert, P. Shushkov, S. Spicher, M. Stahn, M. Steiner, T. Strunk,
   J. Stückrath, T. Rose, and J. Unsleber
   
 * started run on 2025/09/04 at 00:05:29.933     
   ID    Z sym.   atoms
    1    6 C      1-4, 6-37, 39-68
    2    7 N      5, 38
    3    1 H      69-112

           -------------------------------------------------
          |                Calculation Setup                |
           -------------------------------------------------

          program call               : xtb data2507/toluene/m-TPA-AP-TPA/m-TPA-AP-TPA_toluene_S0_finalOpt.xtbopt.xyz --gfn 2 --uhf 2 --gbsa toluene --ohess vtight --parallel 40 --molden --ceasefiles --namespace data2507/toluene/m-TPA-AP-TPA/m-TPA-AP-TPA_toluene_T1_preOpt
          calculation namespace      : data2507/toluene/m-TPA-AP-TPA/m-TPA-AP-TPA_toluene_T1_preOpt
          coordinate file            : data2507/toluene/m-TPA-AP-TPA/m-TPA-AP-TPA_toluene_S0_finalOpt.xtbopt.xyz
          omp threads                :                    40


           -------------------------------------------------
          |                 G F N 2 - x T B                 |
           -------------------------------------------------

        Reference                      10.1021/acs.jctc.8b01176
      * Hamiltonian:
        H0-scaling (s, p, d)           1.850000    2.230000    2.230000
        zeta-weighting                 0.500000
      * Dispersion:
        s8                             2.700000
        a1                             0.520000
        a2                             5.000000
        s9                             5.000000
      * Repulsion:
        kExp                           1.500000    1.000000
        rExp                           1.000000
      * Coulomb:
        alpha                          2.000000
        third order                    shell-resolved
        anisotropic                    true
        a3                             3.000000
        a5                             4.000000
        cn-shift                       1.200000
        cn-exp                         4.000000
        max-rad                        5.000000

      * Solvation model:               GBSA
        Solvent                        toluene
        Parameter file                 internal GFN2-xTB/GBSA
        Dielectric constant                7.0000E+00
        Reference state                gsolv [1 M gas/solution]
        Free energy shift                  4.5239E-03 Eh       2.8388E+00 kcal/mol
        Temperature                        2.9815E+02 K
        Density                            8.6700E-01 kg/L
        Solvent mass                       9.2140E+01 g/mol
        Interaction kernel             Still
        Born radius scaling (c1)           1.5686E+00
        Born radii integrator          GBOBC
        Born offset                        0.0000E+00 a0       0.0000E+00 AA
        H-bond correction              false
        Ion screening                  false
        Surface tension                    1.0000E-05 Eh       1.5569E+01 dyn/cm
        Grid points                               230 per atom

          ...................................................
          :                      SETUP                      :
          :.................................................:
          :  # basis functions                 316          :
          :  # atomic orbitals                 316          :
          :  # shells                          180          :
          :  # electrons                       318          :
          :  max. iterations                   250          :
          :  Hamiltonian                  GFN2-xTB          :
          :  restarted?                      false          :
          :  GBSA solvation                   true          :
          :  PC potential                    false          :
          :  electronic temp.          300.0000000     K    :
          :  accuracy                    1.0000000          :
          :  -> integral cutoff          0.2500000E+02      :
          :  -> integral neglect         0.1000000E-07      :
          :  -> SCF convergence          0.1000000E-05 Eh   :
          :  -> wf. convergence          0.1000000E-03 e    :
          :  Broyden damping             0.4000000          :
          :  net charge                          0          :
          :  unpaired electrons                  2          :
          ...................................................

 iter      E             dE          RMSdq      gap      omega  full diag
   1   -172.7852230 -0.172785E+03  0.413E+00    0.07       0.0  T
   2   -172.7832399  0.198310E-02  0.269E+00    0.40       1.0  T
   3   -172.5168480  0.266392E+00  0.195E+00    1.61       1.0  T
   4   -172.8385861 -0.321738E+00  0.817E-01    0.55       1.0  T
   5   -172.8784003 -0.398142E-01  0.623E-01    0.13       1.0  T
   6   -172.9269869 -0.485866E-01  0.317E-01    0.04       1.0  T
   7   -172.9224241  0.456283E-02  0.351E-01    0.14       1.0  T
   8   -172.9285455 -0.612144E-02  0.254E-01    0.04       1.0  T
   9   -172.9320638 -0.351826E-02  0.231E-01    0.10       1.0  T
  10   -172.9392027 -0.713891E-02  0.118E-01    0.08       1.0  T
  11   -172.9392398 -0.371131E-04  0.111E-01    0.09       1.0  T
  12   -172.9412288 -0.198898E-02  0.295E-02    0.06       1.0  T
  13   -172.9413318 -0.102988E-03  0.189E-02    0.06       1.0  T
  14   -172.9413854 -0.536436E-04  0.770E-03    0.06       1.2  T
  15   -172.9413931 -0.767096E-05  0.365E-03    0.06       2.6  T
  16   -172.9413950 -0.195823E-05  0.156E-03    0.06       6.1  T
  17   -172.9413954 -0.380877E-06  0.561E-04    0.06      16.8  T
  18   -172.9413954 -0.228334E-08  0.539E-04    0.06      17.5  T

   *** convergence criteria satisfied after 18 iterations ***

         #    Occupation            Energy/Eh            Energy/eV
      -------------------------------------------------------------
         1        2.0000           -0.6701061             -18.2345
       ...           ...                  ...                  ...
       154        2.0000           -0.3925597             -10.6821
       155        2.0000           -0.3842141             -10.4550
       156        1.9666           -0.3560096              -9.6875
       157        1.9295           -0.3552629              -9.6672
       158        1.8071           -0.3541717              -9.6375
       159        1.2968           -0.3519928              -9.5782
       160        0.7685           -0.2727996              -7.4233 (HOMO)
       161        0.2315           -0.2705197              -7.3612 (LUMO)
       162                         -0.2373790              -6.4594
       163                         -0.2344521              -6.3798
       164                         -0.2343455              -6.3769
       165                         -0.2341168              -6.3706
       ...                                ...                  ...
       316                          0.7366992              20.0466
      -------------------------------------------------------------
                  HL-Gap            0.0022800 Eh            0.0620 eV
             Fermi-level           -0.3122359 Eh           -8.4964 eV
 
 transition dipole moment (au) for excitation:         159         160
     X       Y       Z   
  -1.8239  -0.0480   0.2562  total (au/Debye):    1.842   4.683
 dE (eV)             :    2.155
 oscillator strength :  0.25345E+00

 SCC (total)                   0 d,  0 h,  0 min,  0.406 sec
 SCC setup                      ...        0 min,  0.003 sec (  0.743%)
 Dispersion                     ...        0 min,  0.006 sec (  1.576%)
 classical contributions        ...        0 min,  0.000 sec (  0.038%)
 integral evaluation            ...        0 min,  0.013 sec (  3.243%)
 iterations                     ...        0 min,  0.322 sec ( 79.366%)
 molecular gradient             ...        0 min,  0.020 sec (  4.940%)
 printout                       ...        0 min,  0.041 sec ( 10.071%)

         :::::::::::::::::::::::::::::::::::::::::::::::::::::
         ::                     SUMMARY                     ::
         :::::::::::::::::::::::::::::::::::::::::::::::::::::
         :: total energy            -169.658743638513 Eh    ::
         :: total w/o Gsasa/hb      -169.592435286467 Eh    ::
         :: gradient norm              0.085581378283 Eh/a0 ::
         :: HOMO-LUMO gap              0.062040618122 eV    ::
         ::.................................................::
         :: SCC energy              -172.939754119095 Eh    ::
         :: -> isotropic ES            0.012560902428 Eh    ::
         :: -> anisotropic ES          0.016512289587 Eh    ::
         :: -> anisotropic XC          0.100370181114 Eh    ::
         :: -> dispersion             -0.168006674335 Eh    ::
         :: -> Gsolv                  -0.068191068135 Eh    ::
         ::    -> Gelec               -0.001882716089 Eh    ::
         ::    -> Gsasa               -0.070832231918 Eh    ::
         ::    -> Ghb                  0.000000000000 Eh    ::
         ::    -> Gshift               0.004523879872 Eh    ::
         :: repulsion energy           3.281010480583 Eh    ::
         :: add. restraining           0.000000000000 Eh    ::
         :: total charge               0.000000000003 e     ::
         :::::::::::::::::::::::::::::::::::::::::::::::::::::

      ----------------------------------------------------------- 
     |                   =====================                   |
     |                        A N C O P T                        |
     |                   =====================                   |
     |               Approximate Normal Coordinate               |
     |                Rational Function Optimizer                |
      ----------------------------------------------------------- 

Optimization log is written to '/dev/null'
      ----------------------------------------------------------- 
     |                   =====================                   |
     |                        A N C O P T                        |
     |                   =====================                   |
     |               Approximate Normal Coordinate               |
     |                Rational Function Optimizer                |
      ----------------------------------------------------------- 

          ...................................................
          :                      SETUP                      :
          :.................................................:
          :   optimization level         verytight          :
          :   max. optcycles                  2240          :
          :   ANC micro-cycles                  20          :
          :   degrees of freedom               330          :
          :.................................................:
          :   RF solver                   davidson          :
          :   write xtbopt.log                true          :
          :   linear?                        false          :
          :   energy convergence         0.1000000E-06 Eh   :
          :   grad. convergence          0.2000000E-03 Eh/α :
          :   maxmium RF displ.          1.0000000          :
          :   Hlow (freq-cutoff)         0.1000000E-01      :
          :   Hmax (freq-cutoff)         5.0000000          :
          :   S6 in model hess.         20.0000000          :
          ...................................................

generating ANC from exact Hessian ...
Using Lindh-Hessian (1995)
 Shifting diagonal of input Hessian by   9.976642083591350E-003
 Lowest  eigenvalues of input Hessian
    0.000000    0.000000    0.000000    0.000000    0.000000    0.000000
    0.010000    0.010011    0.010044    0.010090    0.010112    0.010197
    0.010277    0.010537    0.010586    0.010995    0.011145    0.011164
 Highest eigenvalues
    2.121949    2.152669    2.153042    2.154107    2.157826    2.161320
 

........................................................................
.............................. CYCLE    1 ..............................
........................................................................

 iter      E             dE          RMSdq      gap      omega  full diag
   1   -172.9413955 -0.172941E+03  0.155E-04    0.06       0.0  T
   2   -172.9413954  0.116782E-06  0.834E-04    0.06      11.3  T
   3   -172.9413955 -0.920146E-07  0.375E-04    0.06      25.2  T
     SCC iter.                  ...        0 min,  0.061 sec
     gradient                   ...        0 min,  0.019 sec
 * total energy  :  -169.6587437 Eh     change       -0.3131819E-07 Eh
   gradient norm :     0.0855505 Eh/α   predicted     0.0000000E+00 (-100.00%)
   displ. norm   :     0.1260531 α      lambda       -0.4868162E-02
   maximum displ.:     0.0476719 α      in ANC's #76, #74, #130, ...

........................................................................
.............................. CYCLE    2 ..............................
........................................................................

 iter      E             dE          RMSdq      gap      omega  full diag
   1   -172.9296692 -0.172930E+03  0.106E-01    0.13       0.0  T
   2   -172.9245954  0.507375E-02  0.175E-01    0.07       1.0  T
   3   -172.9272462 -0.265075E-02  0.139E-01    0.08       1.0  T
   4   -172.9302233 -0.297716E-02  0.630E-02    0.12       1.0  T
   5   -172.9305844 -0.361075E-03  0.203E-02    0.11       1.0  T
   6   -172.9306087 -0.243308E-04  0.120E-02    0.11       1.0  T
   7   -172.9306328 -0.240213E-04  0.487E-03    0.11       1.9  T
   8   -172.9306355 -0.278281E-05  0.193E-03    0.11       4.9  T
   9   -172.9306358 -0.261368E-06  0.740E-04    0.11      12.8  T
  10   -172.9306359 -0.652660E-07  0.215E-04    0.11      44.0  T
     SCC iter.                  ...        0 min,  0.175 sec
     gradient                   ...        0 min,  0.020 sec
 * total energy  :  -169.6624199 Eh     change       -0.3676249E-02 Eh
   gradient norm :     0.0486928 Eh/α   predicted    -0.2472793E-02 ( -32.74%)
   displ. norm   :     0.1662888 α      lambda       -0.3416623E-02
   maximum displ.:     0.0575531 α      in ANC's #61, #25, #76, ...

........................................................................
.............................. CYCLE    3 ..............................
........................................................................

 iter      E             dE          RMSdq      gap      omega  full diag
   1   -172.9263091 -0.172926E+03  0.106E-01    0.22       0.0  T
   2   -172.9236809  0.262816E-02  0.130E-01    0.19       1.0  T
   3   -172.9240311 -0.350197E-03  0.134E-01    0.13       1.0  T
   4   -172.9267713 -0.274013E-02  0.522E-02    0.19       1.0  T
   5   -172.9270224 -0.251090E-03  0.137E-02    0.18       1.0  T
   6   -172.9270365 -0.141549E-04  0.779E-03    0.18       1.2  T
   7   -172.9270480 -0.114822E-04  0.236E-03    0.18       4.0  T
   8   -172.9270485 -0.481695E-06  0.115E-03    0.18       8.2  T
   9   -172.9270485 -0.265833E-07  0.671E-04    0.18      14.1  T
  10   -172.9270485 -0.498619E-07  0.223E-04    0.18      42.4  T
     SCC iter.                  ...        0 min,  0.177 sec
     gradient                   ...        0 min,  0.022 sec
 * total energy  :  -169.6641042 Eh     change       -0.1684241E-02 Eh
   gradient norm :     0.0121529 Eh/α   predicted    -0.1755650E-02 (   4.24%)
   displ. norm   :     0.0755766 α      lambda       -0.2123682E-03
   maximum displ.:     0.0332390 α      in ANC's #25, #22, #9, ...

........................................................................
.............................. CYCLE    4 ..............................
........................................................................

 iter      E             dE          RMSdq      gap      omega  full diag
   1   -172.9281328 -0.172928E+03  0.196E-02    0.19       0.0  T
   2   -172.9281321  0.716604E-06  0.118E-02    0.18       1.0  T
   3   -172.9280759  0.561933E-04  0.184E-02    0.19       1.0  T
   4   -172.9281241 -0.481565E-04  0.708E-03    0.18       1.3  T
   5   -172.9281337 -0.958273E-05  0.116E-03    0.18       8.2  T
   6   -172.9281339 -0.255381E-06  0.481E-04    0.18      19.7  T
   7   -172.9281340 -0.402655E-07  0.132E-04    0.18      71.4  T
     SCC iter.                  ...        0 min,  0.117 sec
     gradient                   ...        0 min,  0.020 sec
 * total energy  :  -169.6642808 Eh     change       -0.1766893E-03 Eh
   gradient norm :     0.0070807 Eh/α   predicted    -0.1075446E-03 ( -39.13%)
   displ. norm   :     0.2297943 α      lambda       -0.3572617E-03
   maximum displ.:     0.1046612 α      in ANC's #22, #9, #25, ...

........................................................................
.............................. CYCLE    5 ..............................
........................................................................

 iter      E             dE          RMSdq      gap      omega  full diag
   1   -172.9302655 -0.172930E+03  0.487E-02    0.21       0.0  T
   2   -172.9302486  0.169319E-04  0.302E-02    0.20       1.0  T
   3   -172.9297567  0.491907E-03  0.517E-02    0.19       1.0  T
   4   -172.9302556 -0.498947E-03  0.116E-02    0.21       1.0  T
   5   -172.9302723 -0.167090E-04  0.228E-03    0.20       4.1  T
   6   -172.9302729 -0.577366E-06  0.125E-03    0.20       7.6  T
   7   -172.9302732 -0.271072E-06  0.418E-04    0.20      22.6  T
   8   -172.9302732 -0.967557E-08  0.238E-04    0.20      39.6  T
     SCC iter.                  ...        0 min,  0.133 sec
     gradient                   ...        0 min,  0.019 sec
 * total energy  :  -169.6645045 Eh     change       -0.2236906E-03 Eh
   gradient norm :     0.0043625 Eh/α   predicted    -0.1880908E-03 ( -15.91%)
   displ. norm   :     0.1775914 α      lambda       -0.1223049E-03
   maximum displ.:     0.0834511 α      in ANC's #9, #22, #25, ...

........................................................................
.............................. CYCLE    6 ..............................
........................................................................

 iter      E             dE          RMSdq      gap      omega  full diag
   1   -172.9307443 -0.172931E+03  0.312E-02    0.21       0.0  T
   2   -172.9307288  0.155505E-04  0.209E-02    0.22       1.0  T
   3   -172.9304064  0.322356E-03  0.422E-02    0.20       1.0  T
   4   -172.9307433 -0.336911E-03  0.409E-03    0.21       2.3  T
   5   -172.9307459 -0.258794E-05  0.134E-03    0.21       7.0  T
   6   -172.9307461 -0.208589E-06  0.726E-04    0.21      13.0  T
   7   -172.9307462 -0.894611E-07  0.211E-04    0.21      44.8  T
     SCC iter.                  ...        0 min,  0.117 sec
     gradient                   ...        0 min,  0.020 sec
 * total energy  :  -169.6646122 Eh     change       -0.1076481E-03 Eh
   gradient norm :     0.0074540 Eh/α   predicted    -0.6308132E-04 ( -41.40%)
   displ. norm   :     0.4629275 α      lambda       -0.3330747E-03
   maximum displ.:     0.2162532 α      in ANC's #22, #9, #7, ...

........................................................................
.............................. CYCLE    7 ..............................
........................................................................

 iter      E             dE          RMSdq      gap      omega  full diag
   1   -172.9303032 -0.172930E+03  0.785E-02    0.23       0.0  T
   2   -172.9301341  0.169038E-03  0.567E-02    0.25       1.0  T
   3   -172.9286937  0.144046E-02  0.955E-02    0.20       1.0  T
   4   -172.9302605 -0.156684E-02  0.188E-02    0.24       1.0  T
   5   -172.9303116 -0.510482E-04  0.830E-03    0.24       1.1  T
   6   -172.9303181 -0.655813E-05  0.510E-03    0.24       1.9  T
   7   -172.9303224 -0.423856E-05  0.190E-03    0.24       5.0  T
   8   -172.9303228 -0.436789E-06  0.803E-04    0.24      11.8  T
   9   -172.9303228 -0.348072E-07  0.333E-04    0.24      28.4  T
     SCC iter.                  ...        0 min,  0.149 sec
     gradient                   ...        0 min,  0.019 sec
 * total energy  :  -169.6649092 Eh     change       -0.2970031E-03 Eh
   gradient norm :     0.0115689 Eh/α   predicted    -0.2022342E-03 ( -31.91%)
   displ. norm   :     0.6838231 α      lambda       -0.5217578E-03
   maximum displ.:     0.3274049 α      in ANC's #9, #22, #7, ...

........................................................................
.............................. CYCLE    8 ..............................
........................................................................

 iter      E             dE          RMSdq      gap      omega  full diag
   1   -172.9276800 -0.172928E+03  0.113E-01    0.26       0.0  T
   2   -172.9271377  0.542343E-03  0.885E-02    0.29       1.0  T
   3   -172.9249780  0.215968E-02  0.128E-01    0.22       1.0  T
   4   -172.9275878 -0.260982E-02  0.304E-02    0.27       1.0  T
   5   -172.9277086 -0.120786E-03  0.147E-02    0.27       1.0  T
   6   -172.9277295 -0.209419E-04  0.866E-03    0.27       1.1  T
   7   -172.9277410 -0.114357E-04  0.371E-03    0.27       2.5  T
   8   -172.9277424 -0.146999E-05  0.180E-03    0.27       5.2  T
   9   -172.9277425 -0.114659E-06  0.988E-04    0.27       9.6  T
  10   -172.9277427 -0.137642E-06  0.461E-04    0.27      20.5  T
     SCC iter.                  ...        0 min,  0.166 sec
     gradient                   ...        0 min,  0.019 sec
 * total energy  :  -169.6653688 Eh     change       -0.4596398E-03 Eh
   gradient norm :     0.0136675 Eh/α   predicted    -0.3828716E-03 ( -16.70%)
   displ. norm   :     0.6433028 α      lambda       -0.5817288E-03
   maximum displ.:     0.3257777 α      in ANC's #9, #7, #22, ...

........................................................................
.............................. CYCLE    9 ..............................
........................................................................

 iter      E             dE          RMSdq      gap      omega  full diag
   1   -172.9262182 -0.172926E+03  0.104E-01    0.29       0.0  T
   2   -172.9255803  0.637858E-03  0.877E-02    0.32       1.0  T
   3   -172.9242323  0.134806E-02  0.113E-01    0.26       1.0  T
   4   -172.9262231 -0.199081E-02  0.210E-02    0.30       1.0  T
   5   -172.9262851 -0.620111E-04  0.788E-03    0.30       1.2  T
   6   -172.9262892 -0.408405E-05  0.509E-03    0.30       1.9  T
   7   -172.9262932 -0.404379E-05  0.195E-03    0.30       4.8  T
   8   -172.9262935 -0.237065E-06  0.106E-03    0.30       8.9  T
   9   -172.9262934  0.367525E-07  0.860E-04    0.30      11.0  T
  10   -172.9262936 -0.114610E-06  0.309E-04    0.30      30.6  T
     SCC iter.                  ...        0 min,  0.173 sec
     gradient                   ...        0 min,  0.020 sec
 * total energy  :  -169.6658465 Eh     change       -0.4777006E-03 Eh
   gradient norm :     0.0111848 Eh/α   predicted    -0.4112377E-03 ( -13.91%)
   displ. norm   :     0.4621552 α      lambda       -0.5471725E-03
   maximum displ.:     0.2569041 α      in ANC's #9, #7, #6, ...

........................................................................
.............................. CYCLE   10 ..............................
........................................................................

 iter      E             dE          RMSdq      gap      omega  full diag
   1   -172.9295948 -0.172930E+03  0.765E-02    0.30       0.0  T
   2   -172.9290515  0.543342E-03  0.731E-02    0.32       1.0  T
   3   -172.9287089  0.342538E-03  0.785E-02    0.29       1.0  T
   4   -172.9296468 -0.937866E-03  0.799E-03    0.31       1.2  T
   5   -172.9296559 -0.913043E-05  0.186E-03    0.31       5.1  T
   6   -172.9296562 -0.234556E-06  0.109E-03    0.31       8.7  T
   7   -172.9296562 -0.133148E-07  0.682E-04    0.31      13.8  T
   8   -172.9296562  0.243239E-08  0.637E-04    0.31      14.8  T
     SCC iter.                  ...        0 min,  0.133 sec
     gradient                   ...        0 min,  0.019 sec
 * total energy  :  -169.6662493 Eh     change       -0.4027933E-03 Eh
   gradient norm :     0.0061627 Eh/α   predicted    -0.3320299E-03 ( -17.57%)
   displ. norm   :     0.4230170 α      lambda       -0.3437678E-03
   maximum displ.:     0.2431355 α      in ANC's #9, #7, #6, ...

........................................................................
.............................. CYCLE   11 ..............................
........................................................................

 iter      E             dE          RMSdq      gap      omega  full diag
   1   -172.9300975 -0.172930E+03  0.674E-02    0.32       0.0  T
   2   -172.9297687  0.328809E-03  0.594E-02    0.33       1.0  T
   3   -172.9292217  0.547011E-03  0.755E-02    0.30       1.0  T
   4   -172.9300989 -0.877240E-03  0.149E-02    0.32       1.0  T
   5   -172.9301348 -0.358520E-04  0.256E-03    0.32       3.7  T
   6   -172.9301352 -0.416459E-06  0.159E-03    0.32       5.9  T
   7   -172.9301355 -0.310976E-06  0.611E-04    0.32      15.5  T
   8   -172.9301355 -0.541962E-08  0.389E-04    0.32      24.3  T
     SCC iter.                  ...        0 min,  0.132 sec
     gradient                   ...        0 min,  0.019 sec
 * total energy  :  -169.6665259 Eh     change       -0.2765972E-03 Eh
   gradient norm :     0.0051602 Eh/α   predicted    -0.2026466E-03 ( -26.74%)
   displ. norm   :     0.3424047 α      lambda       -0.3274998E-03
   maximum displ.:     0.1985381 α      in ANC's #9, #7, #6, ...

........................................................................
.............................. CYCLE   12 ..............................
........................................................................

 iter      E             dE          RMSdq      gap      omega  full diag
   1   -172.9329916 -0.172933E+03  0.583E-02    0.32       0.0  T
   2   -172.9328894  0.102195E-03  0.426E-02    0.33       1.0  T
   3   -172.9319250  0.964436E-03  0.794E-02    0.31       1.0  T
   4   -172.9329919 -0.106697E-02  0.848E-03    0.33       1.1  T
   5   -172.9330038 -0.119008E-04  0.129E-03    0.33       7.3  T
   6   -172.9330040 -0.185371E-06  0.646E-04    0.33      14.6  T
   7   -172.9330041 -0.269629E-07  0.331E-04    0.33      28.5  T
     SCC iter.                  ...        0 min,  0.116 sec
     gradient                   ...        0 min,  0.020 sec
 * total energy  :  -169.6667903 Eh     change       -0.2644265E-03 Eh
   gradient norm :     0.0077043 Eh/α   predicted    -0.1829506E-03 ( -30.81%)
   displ. norm   :     0.4205736 α      lambda       -0.3586894E-03
   maximum displ.:     0.2431672 α      in ANC's #7, #9, #6, ...

........................................................................
.............................. CYCLE   13 ..............................
........................................................................

 iter      E             dE          RMSdq      gap      omega  full diag
   1   -172.9322590 -0.172932E+03  0.664E-02    0.34       0.0  T
   2   -172.9322296  0.294610E-04  0.414E-02    0.34       1.0  T
   3   -172.9311842  0.104540E-02  0.776E-02    0.32       1.0  T
   4   -172.9322327 -0.104856E-02  0.145E-02    0.34       1.0  T
   5   -172.9322661 -0.333460E-04  0.148E-03    0.34       6.4  T
   6   -172.9322663 -0.232065E-06  0.702E-04    0.34      13.5  T
   7   -172.9322664 -0.483953E-07  0.303E-04    0.34      31.2  T
     SCC iter.                  ...        0 min,  0.115 sec
     gradient                   ...        0 min,  0.019 sec
 * total energy  :  -169.6670974 Eh     change       -0.3070664E-03 Eh
   gradient norm :     0.0086283 Eh/α   predicted    -0.2110700E-03 ( -31.26%)
   displ. norm   :     0.5018934 α      lambda       -0.4152471E-03
   maximum displ.:     0.2892575 α      in ANC's #7, #9, #6, ...

........................................................................
.............................. CYCLE   14 ..............................
........................................................................

 iter      E             dE          RMSdq      gap      omega  full diag
   1   -172.9313598 -0.172931E+03  0.800E-02    0.35       0.0  T
   2   -172.9313602 -0.386179E-06  0.470E-02    0.35       1.0  T
   3   -172.9313234  0.367188E-04  0.151E-02    0.35       1.0  T
   4   -172.9313623 -0.388264E-04  0.197E-03    0.35       4.8  T
   5   -172.9313625 -0.284479E-06  0.154E-03    0.35       6.1  T
   6   -172.9313629 -0.324788E-06  0.748E-04    0.35      12.6  T
   7   -172.9313629 -0.542988E-07  0.316E-04    0.35      29.9  T
     SCC iter.                  ...        0 min,  0.116 sec
     gradient                   ...        0 min,  0.019 sec
 * total energy  :  -169.6674522 Eh     change       -0.3547652E-03 Eh
   gradient norm :     0.0076403 Eh/α   predicted    -0.2599280E-03 ( -26.73%)
   displ. norm   :     0.5680726 α      lambda       -0.4161553E-03
   maximum displ.:     0.3304492 α      in ANC's #7, #9, #6, ...

........................................................................
.............................. CYCLE   15 ..............................
........................................................................

 iter      E             dE          RMSdq      gap      omega  full diag
   1   -172.9292962 -0.172929E+03  0.889E-02    0.36       0.0  T
   2   -172.9292905  0.564995E-05  0.522E-02    0.36       1.0  T
   3   -172.9287998  0.490705E-03  0.525E-02    0.37       1.0  T
   4   -172.9292883 -0.488519E-03  0.834E-03    0.36       1.1  T
   5   -172.9293001 -0.117394E-04  0.134E-03    0.36       7.1  T
   6   -172.9293003 -0.227070E-06  0.651E-04    0.36      14.5  T
   7   -172.9293003 -0.226225E-07  0.345E-04    0.36      27.4  T
     SCC iter.                  ...        0 min,  0.118 sec
     gradient                   ...        0 min,  0.021 sec
 * total energy  :  -169.6677970 Eh     change       -0.3448054E-03 Eh
   gradient norm :     0.0050737 Eh/α   predicted    -0.2752269E-03 ( -20.18%)
   displ. norm   :     0.5716540 α      lambda       -0.3359118E-03
   maximum displ.:     0.3355844 α      in ANC's #7, #9, #6, ...

........................................................................
.............................. CYCLE   16 ..............................
........................................................................

 iter      E             dE          RMSdq      gap      omega  full diag
   1   -172.9281831 -0.172928E+03  0.887E-02    0.37       0.0  T
   2   -172.9281797  0.337768E-05  0.520E-02    0.37       1.0  T
   3   -172.9278399  0.339839E-03  0.427E-02    0.38       1.0  T
   4   -172.9281802 -0.340292E-03  0.611E-03    0.37       1.5  T
   5   -172.9281861 -0.586627E-05  0.117E-03    0.37       8.1  T
   6   -172.9281862 -0.143150E-06  0.641E-04    0.37      14.8  T
   7   -172.9281862 -0.263184E-07  0.308E-04    0.37      30.7  T
     SCC iter.                  ...        0 min,  0.115 sec
     gradient                   ...        0 min,  0.019 sec
 * total energy  :  -169.6680651 Eh     change       -0.2681495E-03 Eh
   gradient norm :     0.0033598 Eh/α   predicted    -0.2228474E-03 ( -16.89%)
   displ. norm   :     0.5055316 α      lambda       -0.2311647E-03
   maximum displ.:     0.3015716 α      in ANC's #7, #9, #6, ...

........................................................................
.............................. CYCLE   17 ..............................
........................................................................

 iter      E             dE          RMSdq      gap      omega  full diag
   1   -172.9285411 -0.172929E+03  0.763E-02    0.38       0.0  T
   2   -172.9285414 -0.253957E-06  0.447E-02    0.38       1.0  T
   3   -172.9284957  0.456966E-04  0.154E-02    0.38       1.0  T
   4   -172.9285372 -0.415010E-04  0.590E-03    0.38       1.6  T
   5   -172.9285427 -0.554598E-05  0.990E-04    0.38       9.5  T
   6   -172.9285428 -0.103521E-06  0.528E-04    0.38      17.9  T
   7   -172.9285429 -0.183484E-07  0.218E-04    0.38      43.4  T
     SCC iter.                  ...        0 min,  0.116 sec
     gradient                   ...        0 min,  0.019 sec
 * total energy  :  -169.6682463 Eh     change       -0.1811926E-03 Eh
   gradient norm :     0.0034838 Eh/α   predicted    -0.1451211E-03 ( -19.91%)
   displ. norm   :     0.4292258 α      lambda       -0.1637909E-03
   maximum displ.:     0.2607574 α      in ANC's #7, #9, #6, ...

........................................................................
.............................. CYCLE   18 ..............................
........................................................................

 iter      E             dE          RMSdq      gap      omega  full diag
   1   -172.9300461 -0.172930E+03  0.636E-02    0.39       0.0  T
   2   -172.9300449  0.112340E-05  0.375E-02    0.39       1.0  T
   3   -172.9299255  0.119441E-03  0.267E-02    0.38       1.0  T
   4   -172.9300448 -0.119320E-03  0.379E-03    0.39       2.5  T
   5   -172.9300474 -0.256624E-05  0.725E-04    0.39      13.0  T
   6   -172.9300474 -0.408509E-07  0.443E-04    0.39      21.3  T
   7   -172.9300474 -0.145398E-07  0.187E-04    0.39      50.6  T
     SCC iter.                  ...        0 min,  0.116 sec
     gradient                   ...        0 min,  0.019 sec
 * total energy  :  -169.6683755 Eh     change       -0.1291301E-03 Eh
   gradient norm :     0.0036727 Eh/α   predicted    -0.9698429E-04 ( -24.89%)
   displ. norm   :     0.3903150 α      lambda       -0.1332007E-03
   maximum displ.:     0.2411258 α      in ANC's #7, #9, #6, ...

........................................................................
.............................. CYCLE   19 ..............................
........................................................................

 iter      E             dE          RMSdq      gap      omega  full diag
   1   -172.9317093 -0.172932E+03  0.579E-02    0.40       0.0  T
   2   -172.9317052  0.411980E-05  0.345E-02    0.40       1.0  T
   3   -172.9314378  0.267343E-03  0.396E-02    0.39       1.0  T
   4   -172.9317096 -0.271826E-03  0.286E-03    0.40       3.3  T
   5   -172.9317108 -0.120816E-05  0.620E-04    0.40      15.2  T
   6   -172.9317109 -0.227911E-07  0.382E-04    0.40      24.7  T
   7   -172.9317109 -0.708368E-08  0.187E-04    0.40      50.4  T
     SCC iter.                  ...        0 min,  0.116 sec
     gradient                   ...        0 min,  0.019 sec
 * total energy  :  -169.6684810 Eh     change       -0.1055038E-03 Eh
   gradient norm :     0.0030465 Eh/α   predicted    -0.7674845E-04 ( -27.26%)
   displ. norm   :     0.3619376 α      lambda       -0.1110124E-03
   maximum displ.:     0.2273359 α      in ANC's #7, #6, #9, ...

........................................................................
.............................. CYCLE   20 ..............................
........................................................................

 iter      E             dE          RMSdq      gap      omega  full diag
   1   -172.9325900 -0.172933E+03  0.554E-02    0.40       0.0  T
   2   -172.9325828  0.716870E-05  0.332E-02    0.41       1.0  T
   3   -172.9322130  0.369738E-03  0.466E-02    0.39       1.0  T
   4   -172.9325906 -0.377512E-03  0.310E-03    0.40       3.0  T
   5   -172.9325919 -0.137453E-05  0.678E-04    0.40      13.9  T
   6   -172.9325920 -0.405756E-07  0.378E-04    0.40      25.0  T
   7   -172.9325920 -0.498085E-08  0.219E-04    0.40      43.2  T
     SCC iter.                  ...        0 min,  0.115 sec
     gradient                   ...        0 min,  0.019 sec
 * total energy  :  -169.6685677 Eh     change       -0.8675761E-04 Eh
   gradient norm :     0.0022679 Eh/α   predicted    -0.6278051E-04 ( -27.64%)
   displ. norm   :     0.2956050 α      lambda       -0.8411031E-04
   maximum displ.:     0.1873896 α      in ANC's #7, #6, #3, ...
 * RMSD in coord.:     0.6367156 α      energy gain  -0.9824081E-02 Eh

generating ANC from exact Hessian ...
Using Lindh-Hessian (1995)
 Shifting diagonal of input Hessian by   9.974046034563569E-003
 Lowest  eigenvalues of input Hessian
    0.000000    0.000000    0.000000    0.000000    0.000000    0.000000
    0.010000    0.010004    0.010041    0.010085    0.010099    0.010211
    0.010291    0.010556    0.010612    0.010949    0.011112    0.011208
 Highest eigenvalues
    2.097853    2.144892    2.152048    2.152816    2.157388    2.159837
 

........................................................................
.............................. CYCLE   21 ..............................
........................................................................

 iter      E             dE          RMSdq      gap      omega  full diag
   1   -172.9329224 -0.172933E+03  0.476E-02    0.41       0.0  T
   2   -172.9329189  0.346895E-05  0.284E-02    0.41       1.0  T
   3   -172.9327130  0.205875E-03  0.347E-02    0.40       1.0  T
   4   -172.9329228 -0.209790E-03  0.227E-03    0.41       4.2  T
   5   -172.9329236 -0.743236E-06  0.582E-04    0.41      16.2  T
   6   -172.9329236 -0.354378E-07  0.321E-04    0.41      29.4  T
     SCC iter.                  ...        0 min,  0.095 sec
     gradient                   ...        0 min,  0.019 sec
 * total energy  :  -169.6686332 Eh     change       -0.6543129E-04 Eh
   gradient norm :     0.0019923 Eh/α   predicted     0.0000000E+00 (-100.00%)
   displ. norm   :     0.0593981 α      lambda       -0.2435413E-04
   maximum displ.:     0.0281850 α      in ANC's #7, #9, #8, ...

........................................................................
.............................. CYCLE   22 ..............................
........................................................................

 iter      E             dE          RMSdq      gap      omega  full diag
   1   -172.9316341 -0.172932E+03  0.115E-02    0.41       0.0  T
   2   -172.9316340  0.685275E-07  0.688E-03    0.41       1.4  T
   3   -172.9316270  0.701978E-05  0.616E-03    0.41       1.5  T
   4   -172.9316335 -0.654150E-05  0.205E-03    0.41       4.6  T
   5   -172.9316342 -0.699477E-06  0.328E-04    0.41      28.8  T
   6   -172.9316342 -0.135858E-07  0.112E-04    0.41      84.4  T
     SCC iter.                  ...        0 min,  0.095 sec
     gradient                   ...        0 min,  0.019 sec
 * total energy  :  -169.6686640 Eh     change       -0.3085823E-04 Eh
   gradient norm :     0.0008254 Eh/α   predicted    -0.1288959E-04 ( -58.23%)
   displ. norm   :     0.1730394 α      lambda       -0.4734955E-04
   maximum displ.:     0.0844789 α      in ANC's #7, #9, #3, ...

........................................................................
.............................. CYCLE   23 ..............................
........................................................................

 iter      E             dE          RMSdq      gap      omega  full diag
   1   -172.9301986 -0.172930E+03  0.310E-02    0.41       0.0  T
   2   -172.9301986 -0.411217E-07  0.183E-02    0.41       1.0  T
   3   -172.9301843  0.142595E-04  0.893E-03    0.41       1.1  T
   4   -172.9301971 -0.127981E-04  0.335E-03    0.41       2.8  T
   5   -172.9301990 -0.188326E-05  0.617E-04    0.41      15.3  T
   6   -172.9301991 -0.430705E-07  0.260E-04    0.41      36.4  T
   7   -172.9301991 -0.309535E-08  0.106E-04    0.41      88.9  T
     SCC iter.                  ...        0 min,  0.111 sec
     gradient                   ...        0 min,  0.019 sec
 * total energy  :  -169.6687161 Eh     change       -0.5207689E-04 Eh
   gradient norm :     0.0017589 Eh/α   predicted    -0.2399090E-04 ( -53.93%)
   displ. norm   :     0.2130295 α      lambda       -0.3973314E-04
   maximum displ.:     0.1071177 α      in ANC's #7, #9, #3, ...

........................................................................
.............................. CYCLE   24 ..............................
........................................................................

 iter      E             dE          RMSdq      gap      omega  full diag
   1   -172.9296226 -0.172930E+03  0.362E-02    0.41       0.0  T
   2   -172.9296227 -0.144304E-06  0.213E-02    0.41       1.0  T
   3   -172.9296096  0.130783E-04  0.870E-03    0.41       1.1  T
   4   -172.9296216 -0.119740E-04  0.305E-03    0.41       3.1  T
   5   -172.9296231 -0.146197E-05  0.622E-04    0.41      15.2  T
   6   -172.9296231 -0.435533E-07  0.327E-04    0.41      28.9  T
   7   -172.9296231 -0.998369E-08  0.120E-04    0.41      78.6  T
     SCC iter.                  ...        0 min,  0.112 sec
     gradient                   ...        0 min,  0.019 sec
 * total energy  :  -169.6687651 Eh     change       -0.4897157E-04 Eh
   gradient norm :     0.0024790 Eh/α   predicted    -0.2027713E-04 ( -58.59%)
   displ. norm   :     0.2134422 α      lambda       -0.5680796E-04
   maximum displ.:     0.1075283 α      in ANC's #7, #9, #3, ...

........................................................................
.............................. CYCLE   25 ..............................
........................................................................

 iter      E             dE          RMSdq      gap      omega  full diag
   1   -172.9295615 -0.172930E+03  0.352E-02    0.41       0.0  T
   2   -172.9295610  0.485443E-06  0.208E-02    0.41       1.0  T
   3   -172.9295102  0.507735E-04  0.171E-02    0.40       1.0  T
   4   -172.9295615 -0.512703E-04  0.208E-03    0.41       4.5  T
   5   -172.9295620 -0.562486E-06  0.529E-04    0.41      17.9  T
   6   -172.9295621 -0.265010E-07  0.314E-04    0.41      30.1  T
     SCC iter.                  ...        0 min,  0.095 sec
     gradient                   ...        0 min,  0.019 sec
 * total energy  :  -169.6688154 Eh     change       -0.5032338E-04 Eh
   gradient norm :     0.0024000 Eh/α   predicted    -0.2969862E-04 ( -40.98%)
   displ. norm   :     0.3796671 α      lambda       -0.9675448E-04
   maximum displ.:     0.1915712 α      in ANC's #7, #9, #3, ...

........................................................................
.............................. CYCLE   26 ..............................
........................................................................

 iter      E             dE          RMSdq      gap      omega  full diag
   1   -172.9294850 -0.172929E+03  0.615E-02    0.41       0.0  T
   2   -172.9294819  0.307345E-05  0.364E-02    0.41       1.0  T
   3   -172.9292449  0.236983E-03  0.370E-02    0.40       1.0  T
   4   -172.9294856 -0.240659E-03  0.340E-03    0.41       2.8  T
   5   -172.9294870 -0.140687E-05  0.933E-04    0.41      10.1  T
   6   -172.9294871 -0.880011E-07  0.542E-04    0.41      17.4  T
   7   -172.9294871 -0.284003E-07  0.224E-04    0.41      42.1  T
     SCC iter.                  ...        0 min,  0.112 sec
     gradient                   ...        0 min,  0.020 sec
 * total energy  :  -169.6688937 Eh     change       -0.7830396E-04 Eh
   gradient norm :     0.0018780 Eh/α   predicted    -0.5535417E-04 ( -29.31%)
   displ. norm   :     0.5899475 α      lambda       -0.8199844E-04
   maximum displ.:     0.3024827 α      in ANC's #7, #9, #3, ...

........................................................................
.............................. CYCLE   27 ..............................
........................................................................

 iter      E             dE          RMSdq      gap      omega  full diag
   1   -172.9292649 -0.172929E+03  0.928E-02    0.41       0.0  T
   2   -172.9292545  0.103742E-04  0.551E-02    0.41       1.0  T
   3   -172.9285631  0.691391E-03  0.637E-02    0.40       1.0  T
   4   -172.9292674 -0.704255E-03  0.474E-03    0.41       2.0  T
   5   -172.9292699 -0.258869E-05  0.135E-03    0.41       7.0  T
   6   -172.9292701 -0.167841E-06  0.820E-04    0.41      11.5  T
   7   -172.9292702 -0.634830E-07  0.372E-04    0.41      25.4  T
     SCC iter.                  ...        0 min,  0.111 sec
     gradient                   ...        0 min,  0.019 sec
 * total energy  :  -169.6689711 Eh     change       -0.7736726E-04 Eh
   gradient norm :     0.0017041 Eh/α   predicted    -0.4734357E-04 ( -38.81%)
   displ. norm   :     0.1981942 α      lambda       -0.3288723E-04
   maximum displ.:     0.1060315 α      in ANC's #7, #3, #9, ...

........................................................................
.............................. CYCLE   28 ..............................
........................................................................

 iter      E             dE          RMSdq      gap      omega  full diag
   1   -172.9323619 -0.172932E+03  0.283E-02    0.41       0.0  T
   2   -172.9323602  0.167889E-05  0.169E-02    0.41       1.0  T
   3   -172.9322675  0.927603E-04  0.237E-02    0.41       1.0  T
   4   -172.9323620 -0.945503E-04  0.187E-03    0.41       5.1  T
   5   -172.9323626 -0.533635E-06  0.544E-04    0.41      17.4  T
   6   -172.9323626 -0.461239E-07  0.243E-04    0.41      38.8  T
     SCC iter.                  ...        0 min,  0.096 sec
     gradient                   ...        0 min,  0.019 sec
 * total energy  :  -169.6690077 Eh     change       -0.3663540E-04 Eh
   gradient norm :     0.0012607 Eh/α   predicted    -0.1673093E-04 ( -54.33%)
   displ. norm   :     0.2565735 α      lambda       -0.3381967E-04
   maximum displ.:     0.1362809 α      in ANC's #7, #3, #2, ...

........................................................................
.............................. CYCLE   29 ..............................
........................................................................

 iter      E             dE          RMSdq      gap      omega  full diag
   1   -172.9330476 -0.172933E+03  0.368E-02    0.41       0.0  T
   2   -172.9330461  0.148869E-05  0.219E-02    0.41       1.0  T
   3   -172.9329445  0.101613E-03  0.250E-02    0.41       1.0  T
   4   -172.9330468 -0.102393E-03  0.298E-03    0.41       3.2  T
   5   -172.9330484 -0.155493E-05  0.723E-04    0.41      13.1  T
   6   -172.9330485 -0.853762E-07  0.296E-04    0.41      32.0  T
   7   -172.9330485 -0.509002E-08  0.137E-04    0.41      69.0  T
     SCC iter.                  ...        0 min,  0.111 sec
     gradient                   ...        0 min,  0.019 sec
 * total energy  :  -169.6690480 Eh     change       -0.4034206E-04 Eh
   gradient norm :     0.0013469 Eh/α   predicted    -0.1741164E-04 ( -56.84%)
   displ. norm   :     0.2516506 α      lambda       -0.3361055E-04
   maximum displ.:     0.1293694 α      in ANC's #7, #3, #2, ...

........................................................................
.............................. CYCLE   30 ..............................
........................................................................

 iter      E             dE          RMSdq      gap      omega  full diag
   1   -172.9331095 -0.172933E+03  0.362E-02    0.41       0.0  T
   2   -172.9331086  0.919051E-06  0.214E-02    0.41       1.0  T
   3   -172.9330360  0.726019E-04  0.210E-02    0.41       1.0  T
   4   -172.9331089 -0.728831E-04  0.274E-03    0.41       3.4  T
   5   -172.9331102 -0.129763E-05  0.639E-04    0.41      14.8  T
   6   -172.9331102 -0.644086E-07  0.282E-04    0.41      33.5  T
   7   -172.9331102 -0.533367E-08  0.124E-04    0.41      76.0  T
     SCC iter.                  ...        0 min,  0.111 sec
     gradient                   ...        0 min,  0.019 sec
 * total energy  :  -169.6690867 Eh     change       -0.3866617E-04 Eh
   gradient norm :     0.0012160 Eh/α   predicted    -0.1728234E-04 ( -55.30%)
   displ. norm   :     0.2221737 α      lambda       -0.2511239E-04
   maximum displ.:     0.1188943 α      in ANC's #3, #7, #2, ...

........................................................................
.............................. CYCLE   31 ..............................
........................................................................

 iter      E             dE          RMSdq      gap      omega  full diag
   1   -172.9324608 -0.172932E+03  0.314E-02    0.41       0.0  T
   2   -172.9324607  0.115467E-06  0.185E-02    0.41       1.0  T
   3   -172.9324401  0.206035E-04  0.113E-02    0.41       1.0  T
   4   -172.9324600 -0.199282E-04  0.260E-03    0.41       3.6  T
   5   -172.9324612 -0.117194E-05  0.535E-04    0.41      17.7  T
   6   -172.9324612 -0.449440E-07  0.240E-04    0.41      39.4  T
   7   -172.9324612 -0.406922E-08  0.105E-04    0.41      90.4  T
     SCC iter.                  ...        0 min,  0.111 sec
     gradient                   ...        0 min,  0.019 sec
 * total energy  :  -169.6691154 Eh     change       -0.2865798E-04 Eh
   gradient norm :     0.0008604 Eh/α   predicted    -0.1283724E-04 ( -55.21%)
   displ. norm   :     0.1790788 α      lambda       -0.1870612E-04
   maximum displ.:     0.1010950 α      in ANC's #3, #7, #2, ...

........................................................................
.............................. CYCLE   32 ..............................
........................................................................

 iter      E             dE          RMSdq      gap      omega  full diag
   1   -172.9318409 -0.172932E+03  0.246E-02    0.41       0.0  T
   2   -172.9318409 -0.133087E-07  0.144E-02    0.41       1.0  T
   3   -172.9318340  0.688968E-05  0.643E-03    0.41       1.5  T
   4   -172.9318406 -0.659086E-05  0.171E-03    0.41       5.5  T
   5   -172.9318410 -0.478609E-06  0.321E-04    0.41      29.5  T
   6   -172.9318411 -0.981871E-08  0.192E-04    0.41      49.3  T
     SCC iter.                  ...        0 min,  0.096 sec
     gradient                   ...        0 min,  0.019 sec
 * total energy  :  -169.6691377 Eh     change       -0.2238839E-04 Eh
   gradient norm :     0.0007357 Eh/α   predicted    -0.9489708E-05 ( -57.61%)
   displ. norm   :     0.1859019 α      lambda       -0.1976811E-04
   maximum displ.:     0.1082174 α      in ANC's #3, #7, #2, ...

........................................................................
.............................. CYCLE   33 ..............................
........................................................................

 iter      E             dE          RMSdq      gap      omega  full diag
   1   -172.9312677 -0.172931E+03  0.243E-02    0.41       0.0  T
   2   -172.9312678 -0.918108E-07  0.143E-02    0.41       1.0  T
   3   -172.9312669  0.891152E-06  0.244E-03    0.41       3.9  T
   4   -172.9312677 -0.836326E-06  0.947E-04    0.41      10.0  T
   5   -172.9312678 -0.118465E-06  0.411E-04    0.41      23.0  T
     SCC iter.                  ...        0 min,  0.079 sec
     gradient                   ...        0 min,  0.019 sec
 * total energy  :  -169.6691620 Eh     change       -0.2420870E-04 Eh
   gradient norm :     0.0009613 Eh/α   predicted    -0.1003835E-04 ( -58.53%)
   displ. norm   :     0.2412970 α      lambda       -0.2494233E-04
   maximum displ.:     0.1418263 α      in ANC's #3, #7, #2, ...

........................................................................
.............................. CYCLE   34 ..............................
........................................................................

 iter      E             dE          RMSdq      gap      omega  full diag
   1   -172.9306668 -0.172931E+03  0.300E-02    0.41       0.0  T
   2   -172.9306669 -0.422122E-07  0.176E-02    0.41       1.0  T
   3   -172.9306592  0.763317E-05  0.667E-03    0.41       1.4  T
   4   -172.9306665 -0.728689E-05  0.187E-03    0.41       5.1  T
   5   -172.9306671 -0.569917E-06  0.360E-04    0.41      26.2  T
   6   -172.9306671 -0.785488E-08  0.218E-04    0.41      43.3  T
     SCC iter.                  ...        0 min,  0.096 sec
     gradient                   ...        0 min,  0.019 sec
 * total energy  :  -169.6691923 Eh     change       -0.3034031E-04 Eh
   gradient norm :     0.0012094 Eh/α   predicted    -0.1279534E-04 ( -57.83%)
   displ. norm   :     0.2940745 α      lambda       -0.2816063E-04
   maximum displ.:     0.1738148 α      in ANC's #3, #7, #2, ...

........................................................................
.............................. CYCLE   35 ..............................
........................................................................

 iter      E             dE          RMSdq      gap      omega  full diag
   1   -172.9304779 -0.172930E+03  0.347E-02    0.42       0.0  T
   2   -172.9304779  0.690177E-07  0.204E-02    0.42       1.0  T
   3   -172.9304584  0.194935E-04  0.108E-02    0.42       1.0  T
   4   -172.9304778 -0.193861E-04  0.182E-03    0.42       5.2  T
   5   -172.9304783 -0.558177E-06  0.362E-04    0.42      26.1  T
   6   -172.9304783 -0.346387E-08  0.253E-04    0.42      37.4  T
     SCC iter.                  ...        0 min,  0.096 sec
     gradient                   ...        0 min,  0.019 sec
 * total energy  :  -169.6692265 Eh     change       -0.3424696E-04 Eh
   gradient norm :     0.0012194 Eh/α   predicted    -0.1462455E-04 ( -57.30%)
   displ. norm   :     0.3287273 α      lambda       -0.2889162E-04
   maximum displ.:     0.1964536 α      in ANC's #3, #2, #7, ...

........................................................................
.............................. CYCLE   36 ..............................
........................................................................

 iter      E             dE          RMSdq      gap      omega  full diag
   1   -172.9306883 -0.172931E+03  0.370E-02    0.42       0.0  T
   2   -172.9306874  0.882624E-06  0.219E-02    0.42       1.0  T
   3   -172.9306187  0.687657E-04  0.201E-02    0.42       1.0  T
   4   -172.9306883 -0.696784E-04  0.196E-03    0.42       4.8  T
   5   -172.9306889 -0.568241E-06  0.423E-04    0.42      22.3  T
   6   -172.9306889 -0.110011E-07  0.261E-04    0.42      36.1  T
     SCC iter.                  ...        0 min,  0.096 sec
     gradient                   ...        0 min,  0.019 sec
 * total energy  :  -169.6692603 Eh     change       -0.3374504E-04 Eh
   gradient norm :     0.0009902 Eh/α   predicted    -0.1514237E-04 ( -55.13%)
   displ. norm   :     0.2878824 α      lambda       -0.2208974E-04
   maximum displ.:     0.1751188 α      in ANC's #3, #2, #7, ...

........................................................................
.............................. CYCLE   37 ..............................
........................................................................

 iter      E             dE          RMSdq      gap      omega  full diag
   1   -172.9313151 -0.172931E+03  0.312E-02    0.43       0.0  T
   2   -172.9313138  0.123844E-05  0.186E-02    0.43       1.0  T
   3   -172.9312363  0.775250E-04  0.214E-02    0.42       1.0  T
   4   -172.9313153 -0.789645E-04  0.151E-03    0.43       6.3  T
   5   -172.9313156 -0.319567E-06  0.344E-04    0.43      27.5  T
   6   -172.9313156 -0.558458E-08  0.223E-04    0.43      42.3  T
     SCC iter.                  ...        0 min,  0.095 sec
     gradient                   ...        0 min,  0.020 sec
 * total energy  :  -169.6692851 Eh     change       -0.2477300E-04 Eh
   gradient norm :     0.0007591 Eh/α   predicted    -0.1145646E-04 ( -53.75%)
   displ. norm   :     0.2097607 α      lambda       -0.1459093E-04
   maximum displ.:     0.1308341 α      in ANC's #3, #2, #7, ...

........................................................................
.............................. CYCLE   38 ..............................
........................................................................

 iter      E             dE          RMSdq      gap      omega  full diag
   1   -172.9318750 -0.172932E+03  0.225E-02    0.43       0.0  T
   2   -172.9318741  0.874885E-06  0.135E-02    0.43       1.0  T
   3   -172.9318246  0.495666E-04  0.171E-02    0.43       1.0  T
   4   -172.9318751 -0.505633E-04  0.121E-03    0.43       7.8  T
   5   -172.9318753 -0.203235E-06  0.282E-04    0.43      33.5  T
   6   -172.9318753 -0.589006E-08  0.166E-04    0.43      57.1  T
     SCC iter.                  ...        0 min,  0.095 sec
     gradient                   ...        0 min,  0.019 sec
 * total energy  :  -169.6693013 Eh     change       -0.1619765E-04 Eh
   gradient norm :     0.0007044 Eh/α   predicted    -0.7439040E-05 ( -54.07%)
   displ. norm   :     0.1392573 α      lambda       -0.1033926E-04
   maximum displ.:     0.0881825 α      in ANC's #3, #2, #5, ...

........................................................................
.............................. CYCLE   39 ..............................
........................................................................

 iter      E             dE          RMSdq      gap      omega  full diag
   1   -172.9322247 -0.172932E+03  0.156E-02    0.43       0.0  T
   2   -172.9322243  0.343614E-06  0.932E-03    0.43       1.0  T
   3   -172.9322032  0.210715E-04  0.112E-02    0.43       1.0  T
   4   -172.9322247 -0.214803E-04  0.771E-04    0.43      12.3  T
   5   -172.9322248 -0.849076E-07  0.176E-04    0.43      53.8  T
   6   -172.9322248 -0.105669E-08  0.108E-04    0.43      87.5  T
     SCC iter.                  ...        0 min,  0.095 sec
     gradient                   ...        0 min,  0.020 sec
 * total energy  :  -169.6693138 Eh     change       -0.1251273E-04 Eh
   gradient norm :     0.0006845 Eh/α   predicted    -0.5217181E-05 ( -58.31%)
   displ. norm   :     0.1450284 α      lambda       -0.1162898E-04
   maximum displ.:     0.0899932 α      in ANC's #3, #2, #5, ...

........................................................................
.............................. CYCLE   40 ..............................
........................................................................

 iter      E             dE          RMSdq      gap      omega  full diag
   1   -172.9322677 -0.172932E+03  0.176E-02    0.43       0.0  T
   2   -172.9322675  0.167703E-06  0.105E-02    0.43       1.0  T
   3   -172.9322521  0.153747E-04  0.953E-03    0.43       1.0  T
   4   -172.9322677 -0.155643E-04  0.104E-03    0.43       9.0  T
   5   -172.9322678 -0.155485E-06  0.234E-04    0.43      40.5  T
   6   -172.9322678 -0.284527E-08  0.140E-04    0.43      67.5  T
     SCC iter.                  ...        0 min,  0.096 sec
     gradient                   ...        0 min,  0.019 sec
 * total energy  :  -169.6693281 Eh     change       -0.1429481E-04 Eh
   gradient norm :     0.0006879 Eh/α   predicted    -0.5869664E-05 ( -58.94%)
   displ. norm   :     0.1861357 α      lambda       -0.1394344E-04
   maximum displ.:     0.1140045 α      in ANC's #3, #2, #5, ...

........................................................................
.............................. CYCLE   41 ..............................
........................................................................

 iter      E             dE          RMSdq      gap      omega  full diag
   1   -172.9320687 -0.172932E+03  0.231E-02    0.43       0.0  T
   2   -172.9320688 -0.503642E-07  0.136E-02    0.44       1.0  T
   3   -172.9320607  0.812835E-05  0.703E-03    0.43       1.3  T
   4   -172.9320684 -0.776210E-05  0.190E-03    0.44       5.0  T
   5   -172.9320690 -0.580659E-06  0.309E-04    0.43      30.6  T
   6   -172.9320690 -0.601355E-08  0.187E-04    0.43      50.5  T
     SCC iter.                  ...        0 min,  0.095 sec
     gradient                   ...        0 min,  0.019 sec
 * total energy  :  -169.6693446 Eh     change       -0.1652074E-04 Eh
   gradient norm :     0.0007190 Eh/α   predicted    -0.7083957E-05 ( -57.12%)
   displ. norm   :     0.1996668 α      lambda       -0.1316861E-04
   maximum displ.:     0.1236173 α      in ANC's #3, #2, #5, ...

........................................................................
.............................. CYCLE   42 ..............................
........................................................................

 iter      E             dE          RMSdq      gap      omega  full diag
   1   -172.9318544 -0.172932E+03  0.240E-02    0.44       0.0  T
   2   -172.9318545 -0.109488E-06  0.141E-02    0.44       1.0  T
   3   -172.9318486  0.590118E-05  0.605E-03    0.43       1.6  T
   4   -172.9318539 -0.531417E-05  0.217E-03    0.44       4.4  T
   5   -172.9318547 -0.767887E-06  0.318E-04    0.44      29.7  T
   6   -172.9318547 -0.540857E-08  0.195E-04    0.44      48.5  T
     SCC iter.                  ...        0 min,  0.095 sec
     gradient                   ...        0 min,  0.020 sec
 * total energy  :  -169.6693601 Eh     change       -0.1548196E-04 Eh
   gradient norm :     0.0006227 Eh/α   predicted    -0.6704958E-05 ( -56.69%)
   displ. norm   :     0.1918306 α      lambda       -0.1149538E-04
   maximum displ.:     0.1208887 α      in ANC's #3, #2, #5, ...
 * RMSD in coord.:     0.4082689 α      energy gain  -0.7923445E-03 Eh

generating ANC from exact Hessian ...
Using Lindh-Hessian (1995)
 Shifting diagonal of input Hessian by   9.974583044977522E-003
 Lowest  eigenvalues of input Hessian
    0.000000    0.000000    0.000000    0.000000    0.000000    0.000000
    0.010000    0.010004    0.010041    0.010086    0.010100    0.010199
    0.010297    0.010564    0.010604    0.010955    0.011127    0.011220
 Highest eigenvalues
    2.096290    2.142968    2.150080    2.153987    2.157857    2.158135
 

........................................................................
.............................. CYCLE   43 ..............................
........................................................................

 iter      E             dE          RMSdq      gap      omega  full diag
   1   -172.9317880 -0.172932E+03  0.218E-02    0.44       0.0  T
   2   -172.9317882 -0.140116E-06  0.128E-02    0.44       1.0  T
   3   -172.9317877  0.454338E-06  0.206E-03    0.43       4.6  T
   4   -172.9317880 -0.305997E-06  0.117E-03    0.44       8.1  T
   5   -172.9317882 -0.195231E-06  0.361E-04    0.44      26.1  T
   6   -172.9317882 -0.141636E-07  0.182E-04    0.44      51.8  T
     SCC iter.                  ...        0 min,  0.085 sec
     gradient                   ...        0 min,  0.019 sec
 * total energy  :  -169.6693740 Eh     change       -0.1389009E-04 Eh
   gradient norm :     0.0005325 Eh/α   predicted     0.0000000E+00 (-100.00%)
   displ. norm   :     0.0274024 α      lambda       -0.4219092E-05
   maximum displ.:     0.0107029 α      in ANC's #3, #7, #15, ...

........................................................................
.............................. CYCLE   44 ..............................
........................................................................

 iter      E             dE          RMSdq      gap      omega  full diag
   1   -172.9320814 -0.172932E+03  0.433E-03    0.43       0.0  T
   2   -172.9320814 -0.751530E-08  0.255E-03    0.43       3.7  T
   3   -172.9320813  0.160041E-06  0.975E-04    0.43       9.7  T
   4   -172.9320814 -0.162040E-06  0.254E-04    0.44      37.2  T
     SCC iter.                  ...        0 min,  0.058 sec
     gradient                   ...        0 min,  0.019 sec
 * total energy  :  -169.6693796 Eh     change       -0.5682324E-05 Eh
   gradient norm :     0.0002846 Eh/α   predicted    -0.2125673E-05 ( -62.59%)
   displ. norm   :     0.1457605 α      lambda       -0.1828607E-04
   maximum displ.:     0.0569083 α      in ANC's #3, #7, #15, ...

........................................................................
.............................. CYCLE   45 ..............................
........................................................................

 iter      E             dE          RMSdq      gap      omega  full diag
   1   -172.9323616 -0.172932E+03  0.213E-02    0.43       0.0  T
   2   -172.9323617 -0.113314E-06  0.125E-02    0.43       1.0  T
   3   -172.9323557  0.597673E-05  0.575E-03    0.43       1.6  T
   4   -172.9323608 -0.500621E-05  0.271E-03    0.43       3.5  T
   5   -172.9323620 -0.123565E-05  0.639E-04    0.43      14.8  T
   6   -172.9323620 -0.553928E-07  0.195E-04    0.43      48.6  T
   7   -172.9323620 -0.201069E-08  0.988E-05    0.43      95.6  T
     SCC iter.                  ...        0 min,  0.099 sec
     gradient                   ...        0 min,  0.019 sec
 * total energy  :  -169.6693975 Eh     change       -0.1783748E-04 Eh
   gradient norm :     0.0007847 Eh/α   predicted    -0.9230837E-05 ( -48.25%)
   displ. norm   :     0.0931919 α      lambda       -0.6362039E-05
   maximum displ.:     0.0421394 α      in ANC's #3, #7, #2, ...

........................................................................
.............................. CYCLE   46 ..............................
........................................................................

 iter      E             dE          RMSdq      gap      omega  full diag
   1   -172.9321942 -0.172932E+03  0.113E-02    0.43       0.0  T
   2   -172.9321942  0.475728E-08  0.668E-03    0.43       1.4  T
   3   -172.9321906  0.357352E-05  0.453E-03    0.43       2.1  T
   4   -172.9321939 -0.325796E-05  0.161E-03    0.43       5.9  T
   5   -172.9321943 -0.423759E-06  0.288E-04    0.43      32.9  T
   6   -172.9321943 -0.118659E-07  0.103E-04    0.43      91.3  T
     SCC iter.                  ...        0 min,  0.086 sec
     gradient                   ...        0 min,  0.019 sec
 * total energy  :  -169.6694045 Eh     change       -0.7067896E-05 Eh
   gradient norm :     0.0006825 Eh/α   predicted    -0.3197745E-05 ( -54.76%)
   displ. norm   :     0.0877785 α      lambda       -0.6018123E-05
   maximum displ.:     0.0439773 α      in ANC's #3, #7, #2, ...

........................................................................
.............................. CYCLE   47 ..............................
........................................................................

 iter      E             dE          RMSdq      gap      omega  full diag
   1   -172.9321666 -0.172932E+03  0.878E-03    0.43       0.0  T
   2   -172.9321666  0.108305E-07  0.519E-03    0.43       1.8  T
   3   -172.9321639  0.273793E-05  0.404E-03    0.43       2.3  T
   4   -172.9321665 -0.257765E-05  0.120E-03    0.43       7.9  T
   5   -172.9321667 -0.236000E-06  0.196E-04    0.43      48.2  T
   6   -172.9321667 -0.496632E-08  0.872E-05    0.43     108.3  T
     SCC iter.                  ...        0 min,  0.086 sec
     gradient                   ...        0 min,  0.020 sec
 * total energy  :  -169.6694123 Eh     change       -0.7709241E-05 Eh
   gradient norm :     0.0004001 Eh/α   predicted    -0.3020316E-05 ( -60.82%)
   displ. norm   :     0.1239552 α      lambda       -0.9397804E-05
   maximum displ.:     0.0657998 α      in ANC's #3, #7, #2, ...

........................................................................
.............................. CYCLE   48 ..............................
........................................................................

 iter      E             dE          RMSdq      gap      omega  full diag
   1   -172.9319977 -0.172932E+03  0.115E-02    0.43       0.0  T
   2   -172.9319977 -0.172421E-07  0.679E-03    0.43       1.4  T
   3   -172.9319953  0.243364E-05  0.398E-03    0.43       2.4  T
   4   -172.9319974 -0.214469E-05  0.146E-03    0.43       6.5  T
   5   -172.9319978 -0.361418E-06  0.210E-04    0.43      45.0  T
   6   -172.9319978 -0.475947E-08  0.122E-04    0.43      77.7  T
     SCC iter.                  ...        0 min,  0.085 sec
     gradient                   ...        0 min,  0.019 sec
 * total energy  :  -169.6694238 Eh     change       -0.1158390E-04 Eh
   gradient norm :     0.0004120 Eh/α   predicted    -0.4731189E-05 ( -59.16%)
   displ. norm   :     0.1597901 α      lambda       -0.1026575E-04
   maximum displ.:     0.0875311 α      in ANC's #3, #7, #2, ...

........................................................................
.............................. CYCLE   49 ..............................
........................................................................

 iter      E             dE          RMSdq      gap      omega  full diag
   1   -172.9319550 -0.172932E+03  0.145E-02    0.43       0.0  T
   2   -172.9319550 -0.742960E-07  0.852E-03    0.43       1.1  T
   3   -172.9319545  0.525950E-06  0.213E-03    0.43       4.4  T
   4   -172.9319548 -0.278155E-06  0.131E-03    0.43       7.2  T
   5   -172.9319551 -0.287699E-06  0.244E-04    0.43      38.8  T
   6   -172.9319551 -0.446607E-08  0.150E-04    0.43      63.1  T
     SCC iter.                  ...        0 min,  0.085 sec
     gradient                   ...        0 min,  0.019 sec
 * total energy  :  -169.6694363 Eh     change       -0.1246748E-04 Eh
   gradient norm :     0.0007399 Eh/α   predicted    -0.5191302E-05 ( -58.36%)
   displ. norm   :     0.1708196 α      lambda       -0.9731380E-05
   maximum displ.:     0.0960628 α      in ANC's #3, #7, #2, ...

........................................................................
.............................. CYCLE   50 ..............................
........................................................................

 iter      E             dE          RMSdq      gap      omega  full diag
   1   -172.9320022 -0.172932E+03  0.155E-02    0.43       0.0  T
   2   -172.9320023 -0.708455E-07  0.904E-03    0.43       1.0  T
   3   -172.9320015  0.813395E-06  0.231E-03    0.43       4.1  T
   4   -172.9320018 -0.387128E-06  0.167E-03    0.43       5.6  T
   5   -172.9320023 -0.473695E-06  0.174E-04    0.43      54.2  T
   6   -172.9320023  0.323240E-09  0.119E-04    0.43      79.2  T
     SCC iter.                  ...        0 min,  0.085 sec
     gradient                   ...        0 min,  0.019 sec
 * total energy  :  -169.6694486 Eh     change       -0.1233295E-04 Eh
   gradient norm :     0.0008198 Eh/α   predicted    -0.4930776E-05 ( -60.02%)
   displ. norm   :     0.1947193 α      lambda       -0.1108605E-04
   maximum displ.:     0.1115879 α      in ANC's #3, #7, #2, ...

........................................................................
.............................. CYCLE   51 ..............................
........................................................................

 iter      E             dE          RMSdq      gap      omega  full diag
   1   -172.9321053 -0.172932E+03  0.178E-02    0.42       0.0  T
   2   -172.9321053 -0.636376E-07  0.104E-02    0.42       1.0  T
   3   -172.9321030  0.233896E-05  0.389E-03    0.42       2.4  T
   4   -172.9321049 -0.195785E-05  0.169E-03    0.43       5.6  T
   5   -172.9321054 -0.459396E-06  0.241E-04    0.42      39.2  T
   6   -172.9321054 -0.180248E-08  0.177E-04    0.42      53.3  T
     SCC iter.                  ...        0 min,  0.085 sec
     gradient                   ...        0 min,  0.019 sec
 * total energy  :  -169.6694629 Eh     change       -0.1421709E-04 Eh
   gradient norm :     0.0006328 Eh/α   predicted    -0.5638075E-05 ( -60.34%)
   displ. norm   :     0.2275266 α      lambda       -0.1263537E-04
   maximum displ.:     0.1327559 α      in ANC's #3, #7, #2, ...

........................................................................
.............................. CYCLE   52 ..............................
........................................................................

 iter      E             dE          RMSdq      gap      omega  full diag
   1   -172.9322379 -0.172932E+03  0.208E-02    0.42       0.0  T
   2   -172.9322379 -0.182213E-07  0.122E-02    0.42       1.0  T
   3   -172.9322310  0.692254E-05  0.650E-03    0.42       1.5  T
   4   -172.9322377 -0.672143E-05  0.155E-03    0.42       6.1  T
   5   -172.9322381 -0.370312E-06  0.262E-04    0.42      36.1  T
   6   -172.9322381 -0.141713E-08  0.197E-04    0.42      47.9  T
     SCC iter.                  ...        0 min,  0.086 sec
     gradient                   ...        0 min,  0.019 sec
 * total energy  :  -169.6694786 Eh     change       -0.1573638E-04 Eh
   gradient norm :     0.0003479 Eh/α   predicted    -0.6464725E-05 ( -58.92%)
   displ. norm   :     0.2207162 α      lambda       -0.1122346E-04
   maximum displ.:     0.1316482 α      in ANC's #3, #2, #7, ...

........................................................................
.............................. CYCLE   53 ..............................
........................................................................

 iter      E             dE          RMSdq      gap      omega  full diag
   1   -172.9323260 -0.172932E+03  0.201E-02    0.42       0.0  T
   2   -172.9323261 -0.550887E-07  0.117E-02    0.42       1.0  T
   3   -172.9323225  0.353181E-05  0.477E-03    0.42       2.0  T
   4   -172.9323258 -0.322827E-05  0.158E-03    0.42       6.0  T
   5   -172.9323262 -0.406672E-06  0.264E-04    0.42      35.9  T
   6   -172.9323262 -0.228769E-08  0.192E-04    0.42      49.2  T
     SCC iter.                  ...        0 min,  0.085 sec
     gradient                   ...        0 min,  0.020 sec
 * total energy  :  -169.6694925 Eh     change       -0.1386393E-04 Eh
   gradient norm :     0.0003582 Eh/α   predicted    -0.5737244E-05 ( -58.62%)
   displ. norm   :     0.1851307 α      lambda       -0.9123656E-05
   maximum displ.:     0.1131369 α      in ANC's #3, #2, #7, ...

........................................................................
.............................. CYCLE   54 ..............................
........................................................................

 iter      E             dE          RMSdq      gap      omega  full diag
   1   -172.9324569 -0.172932E+03  0.171E-02    0.42       0.0  T
   2   -172.9324569 -0.302480E-07  0.100E-02    0.42       1.0  T
   3   -172.9324544  0.245765E-05  0.392E-03    0.42       2.4  T
   4   -172.9324567 -0.231073E-05  0.116E-03    0.42       8.1  T
   5   -172.9324570 -0.218004E-06  0.177E-04    0.42      53.3  T
   6   -172.9324570  0.471061E-09  0.131E-04    0.42      72.2  T
     SCC iter.                  ...        0 min,  0.086 sec
     gradient                   ...        0 min,  0.020 sec
 * total energy  :  -169.6695041 Eh     change       -0.1167924E-04 Eh
   gradient norm :     0.0004763 Eh/α   predicted    -0.4635141E-05 ( -60.31%)
   displ. norm   :     0.1658873 α      lambda       -0.8758701E-05
   maximum displ.:     0.1033870 α      in ANC's #3, #2, #7, ...

........................................................................
.............................. CYCLE   55 ..............................
........................................................................

 iter      E             dE          RMSdq      gap      omega  full diag
   1   -172.9325169 -0.172933E+03  0.161E-02    0.42       0.0  T
   2   -172.9325170 -0.477326E-07  0.946E-03    0.42       1.0  T
   3   -172.9325167  0.323243E-06  0.155E-03    0.42       6.1  T
   4   -172.9325169 -0.230748E-06  0.878E-04    0.42      10.8  T
   5   -172.9325170 -0.121182E-06  0.234E-04    0.42      40.3  T
     SCC iter.                  ...        0 min,  0.071 sec
     gradient                   ...        0 min,  0.019 sec
 * total energy  :  -169.6695156 Eh     change       -0.1146339E-04 Eh
   gradient norm :     0.0004630 Eh/α   predicted    -0.4433811E-05 ( -61.32%)
   displ. norm   :     0.1743770 α      lambda       -0.9763266E-05
   maximum displ.:     0.1098889 α      in ANC's #3, #2, #7, ...

[...]
eigval :     1344.70  1364.15  1375.61  1385.25  1388.17  1393.10
eigval :     1403.58  1411.99  1416.13  1422.20  1425.00  1434.57
eigval :     1434.74  1438.30  1441.61  1441.92  1450.14  1461.54
eigval :     1463.62  1468.46  1468.77  1469.96  1471.60  1472.96
eigval :     1485.63  1491.08  1514.45  1519.20  1523.16  1527.91
eigval :     1540.31  1551.59  1555.50  1556.55  1560.51  1566.00
eigval :     1571.28  1573.41  1575.48  1577.98  1578.86  1580.03
eigval :     1589.91  1590.24  1596.34  1596.64  3063.83  3064.83
eigval :     3066.58  3069.16  3069.52  3071.41  3071.79  3071.84
eigval :     3072.21  3072.55  3072.79  3072.96  3073.45  3073.75
eigval :     3073.79  3074.65  3076.56  3078.01  3078.71  3080.47
eigval :     3080.88  3081.10  3082.05  3082.21  3082.69  3082.77
eigval :     3083.61  3084.54  3085.24  3085.33  3085.44  3085.97
eigval :     3086.10  3091.29  3092.38  3092.73  3093.49  3093.75
eigval :     3094.18  3094.47  3095.45  3096.17  3100.33  3102.01
 reduced masses (amu)
   1: 11.41   2: 11.15   3: 11.31   4: 11.45   5: 11.49   6: 11.50   7: 11.21   8: 11.12
   9: 11.00  10: 10.99  11: 11.08  12: 10.89  13: 10.95  14: 10.70  15: 10.70  16: 10.48
  17: 10.40  18: 10.75  19: 10.74  20: 10.60  21: 10.64  22: 10.72  23: 10.86  24: 10.62
  25: 10.33  26: 10.36  27: 10.18  28: 10.11  29: 10.25  30: 10.54  31: 10.60  32: 10.83
  33: 10.53  34: 10.58  35: 10.75  36: 10.77  37: 10.24  38: 10.48  39: 10.35  40: 10.46
  41: 10.47  42: 10.35  43: 10.45  44: 10.58  45: 10.24  46: 10.59  47: 10.60  48: 10.75
  49: 10.65  50: 11.00  51: 11.02  52: 10.63  53: 10.44  54: 10.48  55: 10.58  56: 10.48
  57: 10.84  58: 10.46  59:  9.06  60:  9.05  61: 10.89  62:  9.50  63:  9.18  64: 10.62
  65: 11.01  66: 11.11  67: 10.69  68: 10.43  69: 10.03  70: 10.34  71: 10.33  72:  9.90
  73: 10.43  74: 10.03  75:  9.99  76: 10.07  77:  9.92  78: 10.84  79: 10.53  80: 10.65
  81: 10.67  82: 10.43  83: 11.11  84: 10.47  85: 11.16  86: 11.42  87: 11.36  88: 11.29
  89: 11.13  90: 11.20  91: 11.16  92: 11.15  93: 11.20  94: 11.23  95: 11.13  96: 11.35
  97: 11.33  98: 11.12  99: 11.30 100: 11.17 101: 10.91 102: 11.03 103: 11.10 104: 11.05
 105: 10.23 106: 10.23 107: 10.30 108: 10.04 109: 10.17 110: 10.21 111: 11.05 112: 11.03
 113: 10.87 114: 11.00 115: 11.02 116: 11.58 117: 10.71 118: 10.76 119:  9.75 120: 11.03
 121:  3.91 122:  4.18 123:  3.86 124:  4.56 125:  5.43 126:  4.59 127:  3.89 128:  4.14
 129:  4.83 130: 10.13 131:  3.55 132:  5.43 133:  4.49 134: 10.54 135:  3.58 136:  3.62
 137:  3.32 138:  3.30 139:  3.30 140:  3.28 141:  7.05 142:  4.20 143:  6.68 144:  4.44
 145:  3.74 146:  3.64 147:  3.91 148:  4.01 149:  6.12 150:  7.53 151:  5.65 152:  3.98
 153:  9.14 154:  4.91 155: 10.72 156:  3.35 157:  3.49 158:  4.21 159:  3.47 160: 11.05
 161:  3.60 162:  3.47 163:  2.80 164:  3.76 165:  3.90 166:  3.31 167:  3.34 168:  3.25
 169:  3.20 170:  3.27 171:  3.59 172: 10.50 173: 10.96 174: 10.99 175: 11.00 176: 10.74
 177: 10.46 178: 10.57 179: 10.59 180: 10.16 181:  9.30 182:  6.83 183:  6.77 184:  6.56
 185:  6.53 186:  8.56 187:  6.90 188:  6.13 189:  9.05 190:  4.26 191:  4.13 192:  7.06
 193:  4.02 194:  4.13 195:  6.28 196:  4.71 197:  4.41 198:  5.71 199:  5.26 200:  4.85
 201:  5.05 202:  1.68 203:  1.90 204:  1.34 205:  2.94 206:  1.64 207:  1.92 208:  2.75
 209:  2.77 210:  2.02 211:  1.93 212:  2.28 213:  2.24 214:  2.52 215:  4.91 216:  4.03
 217:  5.08 218:  6.80 219:  6.94 220:  4.56 221:  5.57 222:  6.30 223:  4.27 224:  3.92
 225:  5.26 226:  4.11 227:  4.10 228:  5.24 229:  4.61 230:  8.12 231:  9.47 232:  9.21
 233: 10.29 234: 10.40 235: 11.52 236: 11.30 237: 10.46 238: 10.39 239: 11.67 240: 11.65
 241: 11.85 242: 11.88 243:  9.70 244: 10.09 245:  9.87 246: 11.21 247: 10.13 248: 11.19
 249: 11.24 250:  8.90 251: 10.71 252:  9.70 253:  9.84 254:  9.29 255:  9.22 256: 10.00
 257:  9.96 258:  9.13 259:  9.23 260: 10.30 261:  9.26 262:  9.46 263: 10.10 264:  9.66
 265: 10.09 266:  9.16 267:  9.08 268:  9.91 269:  9.29 270: 10.23 271: 11.36 272: 10.50
 273: 11.21 274: 11.05 275: 11.26 276: 11.09 277: 11.47 278: 11.37 279: 11.39 280: 11.53
 281: 11.43 282: 11.44 283: 11.47 284: 11.46 285: 11.50 286: 11.53 287: 11.52 288: 11.52
 289: 11.45 290: 11.45 291: 11.48 292: 11.49 293:  1.77 294:  1.78 295:  1.78 296:  1.80
 297:  1.76 298:  1.76 299:  1.75 300:  1.76 301:  1.76 302:  1.77 303:  1.75 304:  1.77
 305:  1.77 306:  1.77 307:  1.78 308:  1.77 309:  1.87 310:  1.87 311:  1.83 312:  1.82
 313:  1.83 314:  1.83 315:  1.83 316:  1.83 317:  1.83 318:  1.83 319:  1.84 320:  1.86
 321:  1.85 322:  1.86 323:  1.86 324:  1.87 325:  1.87 326:  1.89 327:  1.89 328:  1.83
 329:  1.92 330:  1.92 331:  1.92 332:  1.92 333:  1.85 334:  1.87 335:  1.84 336:  1.85
 IR intensities (km·mol⁻¹)
   1:  0.06   2:  7.08   3:  3.35   4:  2.15   5:  0.05   6:  4.30   7:  2.66   8:  1.10
   9:  0.14  10:  0.97  11:  8.48  12:  1.49  13: 10.87  14:  4.86  15: 16.67  16:  0.79
  17: 26.75  18:  0.32  19:  1.23  20: 15.33  21:  2.83  22: 13.17  23:  0.96  24:  1.95
  25:  1.91  26: 14.84  27:  8.74  28: 76.15  29: 21.65  30: 12.59  31:  8.61  32: 13.94
  33:  0.74  34:  0.89  35:  8.72  36:  0.38  37:  8.58  38:  6.82  39:  0.09  40:  6.82
  41:  9.32  42:  1.96  43:  1.54  44:  0.65  45:  0.93  46:  2.30  47:  0.77  48: 18.65
  49:  7.39  50: 48.35  51: 63.82  52:  0.77  53:  2.58  54:  0.64  55:  1.12  56:  6.07
  57:  6.98  58:  1.11  59: 13.30  60:  1.42  61:  1.54  62:  4.57  63:  0.17  64:  2.32
  65:  8.65  66:  0.53  67:  6.77  68:  2.31  69:  4.42  70:  3.88  71:  2.05  72:  9.44
  73:  2.46  74:  5.31  75:  0.04  76: 34.65  77: 11.31  78:  3.07  79: 12.69  80:  1.70
  81:  4.51  82:  6.70  83:  2.79  84:  7.39  85:  0.46  86:  0.31  87:  0.16  88: 11.51
  89:  1.06  90:  0.55  91:  4.43  92: 14.25  93:  0.14  94: 13.73  95: 19.26  96:  7.82
  97:  4.43  98:  2.34  99:  7.20 100: 57.96 101:  3.53 102:  1.67 103:  1.81 104: 12.12
 105: 12.69 106:  2.70 107:  2.24 108:  5.35 109: 13.05 110: 15.22 111: 43.85 112: 34.24
 113: 81.13 114:  1.21 115:  3.51 116:  2.32 117: 49.83 118: 12.21 119:  6.47 120:  4.21
 121:  6.40 122:166.56 123: 35.45 124: 20.30 125: 16.64 126: 31.63 127: 26.43 128: 16.28
 129:  5.73 130:  1.55 131:  4.16 132: 35.41 133: 33.87 134: 34.13 135: 20.66 136:  4.33
 137:  2.88 138: 14.95 139:155.83 140:  2.59 141: 22.42 142: 44.30 143: 61.25 144:  3.76
 145:  9.05 146:120.91 147:  2.11 148: 53.67 149: 10.15 150:  8.68 151:  3.60 152:  3.68
 153: 10.78 154:  3.59 155:  6.40 156:  6.99 157:  6.54 158: 10.08 159: 10.77 160:  7.23
 161: 34.89 162:104.02 163: 14.96 164: 10.30 165: 24.98 166:310.45 167:117.17 168: 16.40
 169:118.27 170:150.73 171: 14.84 172:  1.02 173:357.11 174: 49.43 175:190.59 176:  0.98
 177:  0.57 178:  2.54 179:  5.95 180: 70.51 181: 12.92 182: 28.55 183: 28.67 184: 13.24
 185: 37.08 186: 11.44 187:  9.59 188:  1.39 189: 41.59 190: 31.16 191: 32.15 192: 19.95
 193:101.44 194: 25.69 195: 24.03 196:  3.32 197:  0.70 198: 20.77 199: 99.86 200: 11.43
 201:229.73 202:  0.93 203: 68.25 204:  2.81 205: 30.43 206: 34.32 207:  6.51 208:  8.04
 209: 37.02 210:  6.48 211:  3.63 212:141.34 213:257.13 214: 43.05 215: 27.12 216: 64.29
 217: 41.68 218: 19.21 219:  1.22 220:  1.94 221: 85.15 222: 30.88 223:  2.97 224: 16.19
 225:  1.96 226:  9.23 227: 28.40 228: 49.95 229:141.04 230: 35.80 231: 73.71 232:371.27
 233:296.81 234:461.24 235: 17.57 236: 22.09 237: 69.90 238:210.87 239:  9.02 240: 25.23
 241:  6.45 242:  1.21 243: 52.65 244:140.66 245: 36.11 246: 24.12 247: 30.06 248: 65.38
 249: 12.94 250:  6.29 251: 12.29 252:  1.20 253: 11.86 254: 24.92 255: 11.64 256: 66.56
 257:196.69 258: 34.04 259: 14.24 260:  5.96 261: 24.53 262: 96.94 263: 83.54 264:160.56
 265: 29.45 266:141.02 267: 73.00 268:161.23 269:220.11 270: 70.24 271: 52.24 272: 17.05
 273:  3.40 274:  2.92 275:  1.52 276:  6.95 277: 38.74 278: 26.57 279:157.31 280: 42.62
 281: 82.93 282:162.61 283:174.91 284: 23.38 285: 32.61 286: 57.97 287:  9.99 288:119.89
 289:123.07 290:100.07 291:209.45 292: 14.47 293:  1.13 294: 64.77 295: 53.56 296: 68.74
 297:  1.92 298:  9.07 299: 18.69 300: 15.79 301: 96.28 302: 10.63 303: 11.14 304: 30.04
 305: 67.09 306: 84.52 307:  7.87 308: 10.73 309:262.83 310:150.21 311:118.23 312:126.13
 313: 62.19 314:162.92 315:174.30 316: 50.58 317: 78.13 318: 31.13 319: 96.91 320:139.44
 321:131.44 322:133.07 323:  2.07 324:254.85 325:102.41 326:240.34 327:151.28 328: 85.65
 329:399.69 330:371.66 331: 98.76 332:106.35 333:165.70 334:200.76 335:309.57 336:351.97
 Raman intensities (Ä⁴*amu⁻¹)
   1:  0.00   2:  0.00   3:  0.00   4:  0.00   5:  0.00   6:  0.00   7:  0.00   8:  0.00
   9:  0.00  10:  0.00  11:  0.00  12:  0.00  13:  0.00  14:  0.00  15:  0.00  16:  0.00
  17:  0.00  18:  0.00  19:  0.00  20:  0.00  21:  0.00  22:  0.00  23:  0.00  24:  0.00
  25:  0.00  26:  0.00  27:  0.00  28:  0.00  29:  0.00  30:  0.00  31:  0.00  32:  0.00
  33:  0.00  34:  0.00  35:  0.00  36:  0.00  37:  0.00  38:  0.00  39:  0.00  40:  0.00
  41:  0.00  42:  0.00  43:  0.00  44:  0.00  45:  0.00  46:  0.00  47:  0.00  48:  0.00
  49:  0.00  50:  0.00  51:  0.00  52:  0.00  53:  0.00  54:  0.00  55:  0.00  56:  0.00
  57:  0.00  58:  0.00  59:  0.00  60:  0.00  61:  0.00  62:  0.00  63:  0.00  64:  0.00
  65:  0.00  66:  0.00  67:  0.00  68:  0.00  69:  0.00  70:  0.00  71:  0.00  72:  0.00
  73:  0.00  74:  0.00  75:  0.00  76:  0.00  77:  0.00  78:  0.00  79:  0.00  80:  0.00
  81:  0.00  82:  0.00  83:  0.00  84:  0.00  85:  0.00  86:  0.00  87:  0.00  88:  0.00
  89:  0.00  90:  0.00  91:  0.00  92:  0.00  93:  0.00  94:  0.00  95:  0.00  96:  0.00
  97:  0.00  98:  0.00  99:  0.00 100:  0.00 101:  0.00 102:  0.00 103:  0.00 104:  0.00
 105:  0.00 106:  0.00 107:  0.00 108:  0.00 109:  0.00 110:  0.00 111:  0.00 112:  0.00
 113:  0.00 114:  0.00 115:  0.00 116:  0.00 117:  0.00 118:  0.00 119:  0.00 120:  0.00
 121:  0.00 122:  0.00 123:  0.00 124:  0.00 125:  0.00 126:  0.00 127:  0.00 128:  0.00
 129:  0.00 130:  0.00 131:  0.00 132:  0.00 133:  0.00 134:  0.00 135:  0.00 136:  0.00
 137:  0.00 138:  0.00 139:  0.00 140:  0.00 141:  0.00 142:  0.00 143:  0.00 144:  0.00
 145:  0.00 146:  0.00 147:  0.00 148:  0.00 149:  0.00 150:  0.00 151:  0.00 152:  0.00
 153:  0.00 154:  0.00 155:  0.00 156:  0.00 157:  0.00 158:  0.00 159:  0.00 160:  0.00
 161:  0.00 162:  0.00 163:  0.00 164:  0.00 165:  0.00 166:  0.00 167:  0.00 168:  0.00
 169:  0.00 170:  0.00 171:  0.00 172:  0.00 173:  0.00 174:  0.00 175:  0.00 176:  0.00
 177:  0.00 178:  0.00 179:  0.00 180:  0.00 181:  0.00 182:  0.00 183:  0.00 184:  0.00
 185:  0.00 186:  0.00 187:  0.00 188:  0.00 189:  0.00 190:  0.00 191:  0.00 192:  0.00
 193:  0.00 194:  0.00 195:  0.00 196:  0.00 197:  0.00 198:  0.00 199:  0.00 200:  0.00
 201:  0.00 202:  0.00 203:  0.00 204:  0.00 205:  0.00 206:  0.00 207:  0.00 208:  0.00
 209:  0.00 210:  0.00 211:  0.00 212:  0.00 213:  0.00 214:  0.00 215:  0.00 216:  0.00
 217:  0.00 218:  0.00 219:  0.00 220:  0.00 221:  0.00 222:  0.00 223:  0.00 224:  0.00
 225:  0.00 226:  0.00 227:  0.00 228:  0.00 229:  0.00 230:  0.00 231:  0.00 232:  0.00
 233:  0.00 234:  0.00 235:  0.00 236:  0.00 237:  0.00 238:  0.00 239:  0.00 240:  0.00
 241:  0.00 242:  0.00 243:  0.00 244:  0.00 245:  0.00 246:  0.00 247:  0.00 248:  0.00
 249:  0.00 250:  0.00 251:  0.00 252:  0.00 253:  0.00 254:  0.00 255:  0.00 256:  0.00
 257:  0.00 258:  0.00 259:  0.00 260:  0.00 261:  0.00 262:  0.00 263:  0.00 264:  0.00
 265:  0.00 266:  0.00 267:  0.00 268:  0.00 269:  0.00 270:  0.00 271:  0.00 272:  0.00
 273:  0.00 274:  0.00 275:  0.00 276:  0.00 277:  0.00 278:  0.00 279:  0.00 280:  0.00
 281:  0.00 282:  0.00 283:  0.00 284:  0.00 285:  0.00 286:  0.00 287:  0.00 288:  0.00
 289:  0.00 290:  0.00 291:  0.00 292:  0.00 293:  0.00 294:  0.00 295:  0.00 296:  0.00
 297:  0.00 298:  0.00 299:  0.00 300:  0.00 301:  0.00 302:  0.00 303:  0.00 304:  0.00
 305:  0.00 306:  0.00 307:  0.00 308:  0.00 309:  0.00 310:  0.00 311:  0.00 312:  0.00
 313:  0.00 314:  0.00 315:  0.00 316:  0.00 317:  0.00 318:  0.00 319:  0.00 320:  0.00
 321:  0.00 322:  0.00 323:  0.00 324:  0.00 325:  0.00 326:  0.00 327:  0.00 328:  0.00
 329:  0.00 330:  0.00 331:  0.00 332:  0.00 333:  0.00 334:  0.00 335:  0.00 336:  0.00
 output can be read by thermo (or use thermo option).
 writing <g98.out> molden fake output.
 recommended (thermochemical) frequency scaling factor: 1.0
           -------------------------------------------------
          |             Thermodynamic Functions             |
           -------------------------------------------------

Refinement of some symmetry elements was terminated before convergence was reached.
Some symmetry elements may remain unidentified.
Molecule has no symmetry elements
It seems to be the C1 point group
c1  symmetry found (for desy threshold:  0.10E+00) used in thermo

          ...................................................
          :                      SETUP                      :
          :.................................................:
          :  # frequencies                         330      :
          :  # imaginary freq.                       0      :
          :  linear?                             false      :
          :  only rotor calc.                    false      :
          :  symmetry                               c1      :
          :  rotational number                       1      :
          :  scaling factor                  1.0000000      :
          :  rotor cutoff                   50.0000000 cm⁻¹ :
          :  imag. cutoff                  -20.0000000 cm⁻¹ :
          :.................................................:

    mode    ω/cm⁻¹     T·S(HO)/kcal·mol⁻¹    T·S(FR)/kcal·mol⁻¹   T·S(vib)
   ------------------------------------------------------------------------
       1      7.37    -2.56933 (  0.05%)    -1.62375 ( 99.95%)    -1.62419
       2      7.64    -2.54777 (  0.05%)    -1.61297 ( 99.95%)    -1.61348
       3      9.25    -2.43499 (  0.12%)    -1.55657 ( 99.88%)    -1.55760
       4     11.90    -2.28569 (  0.32%)    -1.48191 ( 99.68%)    -1.48448
       5     15.16    -2.14212 (  0.84%)    -1.41010 ( 99.16%)    -1.41623
       6     22.57    -1.90646 (  3.99%)    -1.29219 ( 96.01%)    -1.31667
       7     26.29    -1.81623 (  7.10%)    -1.24703 ( 92.90%)    -1.28742
       8     32.23    -1.69563 ( 14.72%)    -1.18663 ( 85.28%)    -1.26157
       9     40.95    -1.55419 ( 31.02%)    -1.11573 ( 68.98%)    -1.25175
      10     42.04    -1.53862 ( 33.32%)    -1.10792 ( 66.68%)    -1.25144
      11     45.21    -1.49568 ( 40.07%)    -1.08637 ( 59.93%)    -1.25037
      12     49.94    -1.43707 ( 49.87%)    -1.05693 ( 50.13%)    -1.24651
      13     58.38    -1.34504 ( 65.01%)    -1.01066 ( 34.99%)    -1.22805
      14     61.08    -1.31845 ( 69.01%)    -0.99727 ( 30.99%)    -1.21890
      15     63.19    -1.29846 ( 71.84%)    -0.98720 ( 28.16%)    -1.21080
      16     69.86    -1.23949 ( 79.22%)    -0.95746 ( 20.78%)    -1.18087
      17     70.67    -1.23274 ( 79.96%)    -0.95405 ( 20.04%)    -1.17690
      18     74.34    -1.20308 ( 83.01%)    -0.93907 ( 16.99%)    -1.15822
      19     78.99    -1.16750 ( 86.17%)    -0.92108 ( 13.83%)    -1.13341
      20     81.22    -1.15122 ( 87.44%)    -0.91284 ( 12.56%)    -1.12128
      21     84.93    -1.12512 ( 89.27%)    -0.89961 ( 10.73%)    -1.10093
      22     92.44    -1.07566 ( 92.11%)    -0.87450 (  7.89%)    -1.05980
      23    103.48    -1.01001 ( 94.83%)    -0.84106 (  5.17%)    -1.00128
      24    113.33    -0.95739 ( 96.35%)    -0.81415 (  3.65%)    -0.95216
      25    120.21    -0.92335 ( 97.09%)    -0.79667 (  2.91%)    -0.91967
      26    134.88    -0.85726 ( 98.15%)    -0.76257 (  1.85%)    -0.85550
      27    138.46    -0.84228 ( 98.33%)    -0.75481 (  1.67%)    -0.84082
      28    163.40    -0.74838 ( 99.13%)    -0.70575 (  0.87%)    -0.74801
      29    181.70    -0.68899 ( 99.43%)    -0.67430 (  0.57%)    -0.68891
      30    200.67    -0.63415 ( 99.62%)    -0.64488 (  0.38%)    -0.63419
      31    204.18    -0.62467 ( 99.64%)    -0.63975 (  0.36%)    -0.62472
      32    210.03    -0.60923 ( 99.68%)    -0.63137 (  0.32%)    -0.60930
      33    213.85    -0.59945 ( 99.70%)    -0.62603 (  0.30%)    -0.59953
      34    219.36    -0.58568 ( 99.73%)    -0.61850 (  0.27%)    -0.58577
      35    222.54    -0.57792 ( 99.75%)    -0.61424 (  0.25%)    -0.57801
      36    225.44    -0.57094 ( 99.76%)    -0.61039 (  0.24%)    -0.57103
      37    226.71    -0.56792 ( 99.76%)    -0.60873 (  0.24%)    -0.56802
      38    235.35    -0.54793 ( 99.80%)    -0.59766 (  0.20%)    -0.54803
      39    239.88    -0.53779 ( 99.81%)    -0.59201 (  0.19%)    -0.53789
      40    253.57    -0.50853 ( 99.85%)    -0.57557 (  0.15%)    -0.50863
      41    261.29    -0.49289 ( 99.87%)    -0.56669 (  0.13%)    -0.49299
      42    264.67    -0.48621 ( 99.87%)    -0.56287 (  0.13%)    -0.48631
      43    275.90    -0.46480 ( 99.89%)    -0.55056 (  0.11%)    -0.46489
      44    288.87    -0.44143 ( 99.91%)    -0.53696 (  0.09%)    -0.44152
      45    292.78    -0.43466 ( 99.92%)    -0.53297 (  0.08%)    -0.43474
   ------------------------------------------------------------------------

   temp. (K)  partition function   enthalpy   heat capacity  entropy
                                   cal/mol     cal/K/mol   cal/K/mol   J/K/mol
 298.15  VIB  0.775E+26            31959.435    202.864    200.675
         ROT  0.280E+09              888.752      2.981     41.635
         INT  0.217E+35            32848.187    205.845    242.310
         TR   0.246E+29             1481.254      4.968     46.129
         TOT                       34329.4410   210.8135   288.4388  1206.8278

       T/K    H(0)-H(T)+PV         H(T)/Eh          T*S/Eh         G(T)/Eh
   ------------------------------------------------------------------------
    298.15    0.547074E-01    0.920462E+00    0.137047E+00    0.783415E+00
   ------------------------------------------------------------------------

         :::::::::::::::::::::::::::::::::::::::::::::::::::::
         ::                  THERMODYNAMIC                  ::
         :::::::::::::::::::::::::::::::::::::::::::::::::::::
         :: total free energy        -168.886415520721 Eh   ::
         ::.................................................::
         :: total energy             -169.669830551741 Eh   ::
         :: zero point energy           0.865754148699 Eh   ::
         :: G(RRHO) w/o ZPVE           -0.082339117679 Eh   ::
         :: G(RRHO) contrib.            0.783415031020 Eh   ::
         :::::::::::::::::::::::::::::::::::::::::::::::::::::

optimized geometry written to: xtbopt.xyz


           -------------------------------------------------
          | TOTAL ENERGY             -169.669830551741 Eh   |
          | TOTAL ENTHALPY           -168.749368956586 Eh   |
          | TOTAL FREE ENERGY        -168.886415520721 Eh   |
          | GRADIENT NORM               0.000072858678 Eh/α |
          | HOMO-LUMO GAP               0.434151868921 eV   |
           -------------------------------------------------

------------------------------------------------------------------------
 * finished run on 2025/09/04 at 00:05:56.297     
------------------------------------------------------------------------
 total:
 * wall-time:     0 d,  0 h,  0 min, 26.362 sec
 *  cpu-time:     0 d,  0 h, 16 min, 36.734 sec
 * ratio c/w:    37.809 speedup
 SCF:
 * wall-time:     0 d,  0 h,  0 min,  0.408 sec
 *  cpu-time:     0 d,  0 h,  0 min, 16.258 sec
 * ratio c/w:    39.862 speedup
 ANC optimizer:
 * wall-time:     0 d,  0 h,  0 min, 15.831 sec
 *  cpu-time:     0 d,  0 h, 10 min, 33.141 sec
 * ratio c/w:    39.993 speedup
 analytical hessian:
 * wall-time:     0 d,  0 h,  0 min,  9.830 sec
 *  cpu-time:     0 d,  0 h,  5 min, 38.087 sec
 * ratio c/w:    34.394 speedup

