$hessian                                                                        
        0.6464187132  -0.0617671784   0.1060632264  -0.1075781375  -0.0724805820
       -0.0654564219  -0.0060381188  -0.0257752767  -0.0201433994   0.0022143827
        0.0132020422   0.0118082281  -0.0027206538  -0.0005943012  -0.0016270427
        0.0000355959   0.0003949338   0.0006087666  -0.0000341841  -0.0000245813
       -0.0001283620   0.0000103124  -0.0000634475  -0.0000943908   0.0000485912
        0.0000104658   0.0000863167   0.0000580869   0.0000499965   0.0000736860
        0.0000329313  -0.0001055305   0.0000048652   0.0002441975  -0.0000957046
       -0.0003735165  -0.0004180881   0.0001516022  -0.0001757957   0.0000921343
       -0.0001256334  -0.0000295067  -0.0001144927   0.0000109063   0.0000594511
       -0.0000194882   0.0001276311  -0.0000518553   0.0002311669   0.0000038462
       -0.0000590681  -0.0000597895  -0.0000631436  -0.0000067413   0.0000349708
        0.0000961638   0.0000542814  -0.0001186707  -0.0000175828  -0.0000152976
        0.0000890989  -0.0000386169  -0.0000571808   0.0000286471   0.0001103263
        0.0000906667   0.0000317230  -0.0001398612  -0.0000684169  -0.0002665291
        0.0000375350   0.0000355944   0.0002662712   0.0000016796  -0.0000440703
       -0.0000252505   0.0000786699   0.0000423073   0.0000923815   0.0000830939
       -0.0000374949  -0.0001146671  -0.0000502591   0.0000284174   0.0001074431
        0.0000877946  -0.0000325543  -0.0000498437  -0.0001129496   0.0000324095
        0.0000157274   0.0000901325  -0.0000274321  -0.0000456506  -0.0000385924
        0.0000136526   0.0000104832   0.0000014392  -0.0000008637  -0.0000058741
       -0.0000069046   0.0000139164  -0.0000020760  -0.0000069449   0.0000061601
       -0.0000217039  -0.0000063327   0.0000040544  -0.0000010925   0.0000046615
       -0.0000073244   0.0000057261  -0.0000047581   0.0000008159  -0.0000007827
        0.0000019597  -0.0000001631   0.0000059493  -0.0000077966   0.0000107528
        0.0000021771  -0.0000037117   0.0000030464  -0.0000018703  -0.0000036995
       -0.0000030229  -0.0000039035   0.0000057625  -0.0000017968  -0.0000001655
        0.0000093296  -0.0000076773   0.0000014036   0.0000013149  -0.0000016671
        0.0000077445  -0.0000026182   0.0000082544   0.0000022932   0.0000061474
        0.0000042190   0.0000039979   0.0000033151  -0.0000037923  -0.0000023616
       -0.0000015439  -0.0000043876  -0.0000108100  -0.0000058027  -0.0000087347
       -0.0000021079   0.0000186960  -0.0000196844   0.0000064369  -0.0000235645
        0.0000136593  -0.0000455076  -0.0000767276   0.0000277175   0.0000889079
        0.0000450655  -0.0000193464  -0.0000965384  -0.0000741972   0.0000387522
        0.0000491060   0.0001315467  -0.0000238920  -0.0000509257  -0.0001491262
       -0.0000033962   0.0000144255  -0.0000107275  -0.0000041378   0.0000012413
       -0.0000016197  -0.0000004669   0.0000698522   0.0001285222   0.0000419017
       -0.0000353141  -0.0001095753  -0.0000912972   0.0001189345   0.0000358432
        0.0000268455  -0.0001099991   0.0000310149   0.0000555049   0.0000106004
       -0.0000874777  -0.0000727398  -0.0000381491   0.0000670982   0.0000349415
        0.0002467689  -0.0000302306  -0.0000289250  -0.0576092396   0.0085700742
       -0.0088908997  -0.2026133812   0.1467636304   0.0555372376  -0.2717514739
       -0.0209949171  -0.0802064438   0.0041205681   0.0161888269   0.0119674124
       -0.0047011986   0.0001299324  -0.0036000178  -0.0000647847  -0.0000625571
        0.0000121832  -0.0000129808  -0.0000487272   0.0000145919  -0.0000126435
       -0.0000118376   0.0000114792  -0.0000091539  -0.0000211329  -0.0000100026
       -0.0000031640   0.0000068636   0.0000588436  -0.0001907712   0.0001017016
       -0.0000526025  -0.0000206836   0.0000321391  -0.0000338037   0.0000113039
        0.0000118468  -0.0000075865   0.0000253293   0.0000028792   0.0000246114
        0.0000036988  -0.0000029365   0.0000021241  -0.0000106176  -0.0000110584
        0.0000010177  -0.0000158249   0.0000004842  -0.0000036788  -0.0000044614
       -0.0000062294   0.0000034296   0.0000017136  -0.0000045323  -0.0000026958
        0.0000068310  -0.0000042067   0.0000029405   0.0000027453  -0.0000022677
       -0.0000016593   0.0000016189   0.0000019661   0.0000021561   0.0000059659
        0.0000016392  -0.0000024362   0.0000009570  -0.0000020128   0.0000013060
        0.0000004556  -0.0000031011  -0.0000029827  -0.0000002260   0.0000028471
        0.0000003944   0.0000017762   0.0000027914   0.0000022918   0.0000021129
       -0.0000036005   0.0000012012  -0.0000018579   0.0000015574  -0.0000018284
        0.0000015340   0.0000027043   0.0000023999  -0.0000008093   0.0000005317
       -0.0000012368  -0.0000030027  -0.0000011444   0.0000016034  -0.0000005017
        0.0000015151   0.0000007782   0.0000026089  -0.0000009122  -0.0000028788
        0.0000011396  -0.0000022505  -0.0000027749   0.0000087269   0.0000019757
       -0.0000031364  -0.0000055444   0.0000034192  -0.0000044734  -0.0000008222
        0.0000000342  -0.0000086563  -0.0000040861  -0.0000018620  -0.0000038944
       -0.0000135508   0.0000009716   0.0000068804   0.0000000209   0.0000096425
        0.0000002583  -0.0000027533  -0.0000009303  -0.0000048344   0.0000055437
       -0.0000391264  -0.0000138603   0.0000395029   0.0000110697  -0.0000592436
       -0.0045749754   0.0002765631  -0.0032774818   0.0047186777  -0.0038241991
       -0.0020165807
       -0.0617671784   0.4883010706   0.2348241552  -0.0084846964  -0.2189503863
       -0.1169695214  -0.0732356279   0.0104236615  -0.0156545913   0.0138778787
       -0.0463530746  -0.0252803350  -0.0011487017   0.0008902509   0.0020053112
       -0.0001714939  -0.0005536871  -0.0001464805  -0.0005682624  -0.0002689993
        0.0000028257   0.0000793957   0.0003371947   0.0001988188  -0.0001461335
        0.0000734087  -0.0002856455  -0.0000434767  -0.0003069922   0.0001327517
        0.0002912896   0.0002693511   0.0002505674   0.0004897845  -0.0005756437
       -0.0000719447   0.0003954374  -0.0001697765   0.0003654251  -0.0002159269
        0.0002650639   0.0001130223   0.0002347701   0.0000693244  -0.0001441613
        0.0000885475  -0.0002965253   0.0000807069  -0.0000818838   0.0000114142
        0.0000276150   0.0000043971   0.0000283356  -0.0000222655   0.0000177968
        0.0000022472  -0.0000005775  -0.0000026061  -0.0000176933  -0.0000130609
        0.0000060971  -0.0000045838  -0.0000084117  -0.0000019355   0.0000080153
        0.0000091713  -0.0000096910  -0.0000006479   0.0000033259   0.0000025883
       -0.0000001885   0.0000047970   0.0000103025   0.0000076755  -0.0000031652
       -0.0000083256   0.0000072422   0.0000019028   0.0000083073   0.0000061685
       -0.0000022530  -0.0000113161  -0.0000076323   0.0000025029   0.0000109009
        0.0000099901  -0.0000026134  -0.0000058755  -0.0000125291   0.0000038881
        0.0000035886   0.0000112181  -0.0000030450  -0.0000077318   0.0000014721
        0.0000014276   0.0000027923   0.0000018695  -0.0000094290   0.0000038828
       -0.0000020150   0.0000061155  -0.0000087118   0.0000007488   0.0000013079
       -0.0000041920  -0.0000089936   0.0000066274  -0.0000151853   0.0000093805
       -0.0000274969   0.0000072746   0.0000004623   0.0000083275   0.0000138255
        0.0000076011   0.0000046326   0.0000006716  -0.0000053096   0.0000084370
        0.0000048959  -0.0000035514   0.0000033411  -0.0000007325  -0.0000018400
       -0.0000004651   0.0000005723   0.0000057694  -0.0000006999  -0.0000012717
        0.0000039710  -0.0000073683  -0.0000046345  -0.0000168742   0.0000102240
        0.0000083410   0.0000008752   0.0000040190  -0.0000015098  -0.0000009982
        0.0000070966  -0.0000000320   0.0000036077  -0.0000014743  -0.0000027111
       -0.0000061463  -0.0000035809  -0.0000047303  -0.0000029243  -0.0000066415
        0.0000115699   0.0000094311  -0.0000002885   0.0000007928  -0.0000083518
        0.0000037817  -0.0000067622  -0.0000071696   0.0000026091   0.0000084805
        0.0000077798  -0.0000048356  -0.0000095744  -0.0000115019   0.0000072867
        0.0000008224   0.0000131869  -0.0000043417  -0.0000027098  -0.0000134459
        0.0000026644   0.0000000101   0.0000005262  -0.0000001228   0.0000002761
        0.0000012758   0.0000000460  -0.0000165358   0.0000002898   0.0000037333
        0.0000014804  -0.0000029563  -0.0000036585  -0.0000020075   0.0000058891
        0.0000000077   0.0000058111  -0.0000030824   0.0000096333  -0.0000264180
        0.0000066144   0.0000162041   0.0000134618  -0.0000350473  -0.0000066399
       -0.0004387425   0.0002345910   0.0000221252   0.0568234507   0.0268898275
        0.0315954635   0.0824948392  -0.1879439341  -0.0709828317  -0.0208943912
       -0.0427129116  -0.0126728589  -0.0033094815  -0.0179983981  -0.0131347138
        0.0004545415   0.0033724327  -0.0028888318  -0.0000850027  -0.0001013820
       -0.0001019106  -0.0000296757   0.0000049270   0.0000114953   0.0000235581
       -0.0000183812  -0.0000259570  -0.0000066346  -0.0000071991  -0.0000015519
       -0.0000018859  -0.0000151084   0.0000111184   0.0001444054  -0.0000593527
       -0.0000279194   0.0000139232   0.0000225755   0.0000169079   0.0000008525
       -0.0000111166  -0.0000319700  -0.0000003227  -0.0000120456  -0.0000081029
        0.0000040113   0.0000085974   0.0000115244   0.0000040363   0.0000032254
        0.0000031558   0.0000036154  -0.0000010213   0.0000020527   0.0000007460
        0.0000007004   0.0000005517   0.0000015512  -0.0000011851  -0.0000005590
        0.0000024296  -0.0000010088  -0.0000001576   0.0000021946   0.0000001441
       -0.0000008655  -0.0000004247  -0.0000002214   0.0000003168   0.0000017609
        0.0000006078  -0.0000009537   0.0000007136   0.0000011337   0.0000010921
        0.0000003185  -0.0000023683  -0.0000037956   0.0000007622   0.0000019353
       -0.0000010802   0.0000017583   0.0000003105   0.0000005385   0.0000017251
       -0.0000011032   0.0000010040  -0.0000014692   0.0000007695   0.0000001897
       -0.0000012780   0.0000010007   0.0000002393  -0.0000010843   0.0000014505
       -0.0000008313  -0.0000002939  -0.0000005135  -0.0000000388   0.0000010947
       -0.0000001862   0.0000018252   0.0000021724  -0.0000010710   0.0000001475
        0.0000001753  -0.0000017349  -0.0000008277   0.0000034210   0.0000009986
       -0.0000009657  -0.0000006814   0.0000017169  -0.0000012987   0.0000002643
        0.0000021464  -0.0000018524   0.0000017578  -0.0000010072  -0.0000000682
        0.0000056382  -0.0000004024  -0.0000007327   0.0000060247   0.0000018351
       -0.0000051618   0.0000034064   0.0000044303   0.0000056746   0.0000110830
        0.0000160577  -0.0000044867   0.0000063799  -0.0000145537   0.0000074484
       -0.0001996344   0.0033308041  -0.0030725153   0.0153609299  -0.0181498271
       -0.0081692270
        0.1060632264   0.2348241552   0.2991407116  -0.0217554614  -0.1350275943
       -0.1434675178  -0.0515288760  -0.0012229678  -0.0149769358   0.0114997067
       -0.0232714248  -0.0197885774  -0.0015002822   0.0007309386   0.0007962569
       -0.0001298955  -0.0002532198   0.0000835845  -0.0004889369  -0.0002307260
       -0.0000738993   0.0000610545   0.0002603693   0.0001400387  -0.0000923900
        0.0000632117  -0.0001904858  -0.0000223031  -0.0002204512   0.0001255608
        0.0002390047   0.0001851926   0.0002168744   0.0004985955  -0.0005237235
       -0.0000908555   0.0002370724  -0.0000746873   0.0002514117  -0.0001175771
        0.0001640924   0.0000900147   0.0001351449   0.0000678340  -0.0000926121
        0.0000790261  -0.0002087306   0.0000653784  -0.0000090760   0.0000118257
        0.0000056391  -0.0000121125   0.0000058225  -0.0000175294   0.0000287189
        0.0000170983   0.0000073087  -0.0000220637  -0.0000194362  -0.0000199955
        0.0000143901  -0.0000147730  -0.0000189796  -0.0000021650   0.0000241764
        0.0000232445   0.0000000445  -0.0000242778  -0.0000133400  -0.0000403117
        0.0000036825   0.0000091693   0.0000383230   0.0000012793  -0.0000054189
       -0.0000114379   0.0000201161   0.0000081518   0.0000168118   0.0000151847
       -0.0000041511  -0.0000222919  -0.0000110449   0.0000029953   0.0000191004
        0.0000198153  -0.0000023528  -0.0000091878  -0.0000219529   0.0000072859
        0.0000027151   0.0000164584  -0.0000044547  -0.0000108390  -0.0000007684
        0.0000027270   0.0000052408   0.0000015758  -0.0000077631   0.0000033278
       -0.0000050871   0.0000077755  -0.0000070115  -0.0000005059   0.0000046854
       -0.0000095825  -0.0000076582   0.0000047247  -0.0000074896   0.0000054209
       -0.0000150499   0.0000059366  -0.0000013804   0.0000072684   0.0000053757
        0.0000017270   0.0000025740   0.0000046585  -0.0000040075   0.0000080269
        0.0000049045  -0.0000043496   0.0000044726  -0.0000052484  -0.0000037408
       -0.0000014396  -0.0000029076   0.0000072389  -0.0000005611  -0.0000001938
        0.0000071130  -0.0000051086  -0.0000002300  -0.0000056828   0.0000034018
        0.0000050852  -0.0000003878   0.0000074225   0.0000033804   0.0000025802
        0.0000074748   0.0000002489   0.0000047076  -0.0000010656  -0.0000027111
       -0.0000041718  -0.0000046566  -0.0000083428  -0.0000029407  -0.0000054543
        0.0000113139   0.0000093973  -0.0000047368   0.0000004694  -0.0000109610
        0.0000046368  -0.0000081579  -0.0000142379   0.0000053537   0.0000146090
        0.0000084210  -0.0000064339  -0.0000153236  -0.0000178279   0.0000113808
        0.0000080047   0.0000236983  -0.0000054864  -0.0000097147  -0.0000277872
       -0.0000032120   0.0000036011  -0.0000012426   0.0000029630   0.0000000291
       -0.0000003103   0.0000002159   0.0000028497   0.0000247791   0.0000120172
       -0.0000110500  -0.0000215312  -0.0000160792   0.0000200571   0.0000150171
        0.0000126207  -0.0000134702   0.0000083887   0.0000225405  -0.0000037313
       -0.0000127878  -0.0000042190  -0.0000003219  -0.0000125201   0.0000054155
       -0.0002966959   0.0001743853   0.0000067989   0.0223603035   0.0193585795
        0.0201550423   0.0118008415  -0.0537005622  -0.0799526077  -0.0802545368
       -0.0124148282  -0.0628048597  -0.0013526329  -0.0082350991  -0.0046609076
       -0.0031868151  -0.0031895459   0.0051561691  -0.0001241836  -0.0001050649
       -0.0000658314  -0.0000292894  -0.0000208211   0.0000096517   0.0000149566
       -0.0000200584  -0.0000207746  -0.0000088289  -0.0000115344  -0.0000074764
        0.0000011094  -0.0000082503   0.0000186321   0.0000980649  -0.0000215421
       -0.0000076341   0.0000098091   0.0000219981   0.0000015462  -0.0000000999
       -0.0000027008  -0.0000305812   0.0000021029  -0.0000068239   0.0000019646
        0.0000027399   0.0000080258   0.0000092954   0.0000003789   0.0000010167
        0.0000024310  -0.0000016176  -0.0000001603  -0.0000004754  -0.0000019961
       -0.0000015712   0.0000022225   0.0000022007  -0.0000030421   0.0000006940
        0.0000037289  -0.0000029143   0.0000012623   0.0000028107  -0.0000013293
       -0.0000004849  -0.0000005287   0.0000006486   0.0000002130   0.0000036510
        0.0000004247  -0.0000029861   0.0000021106  -0.0000003167   0.0000019100
       -0.0000000248  -0.0000017391  -0.0000028274   0.0000004603   0.0000034003
       -0.0000003950   0.0000029503   0.0000027762   0.0000020739   0.0000017707
       -0.0000021392   0.0000031539  -0.0000019648  -0.0000009404   0.0000017623
        0.0000001346   0.0000014366   0.0000014175  -0.0000015037  -0.0000006986
       -0.0000001781  -0.0000011314  -0.0000020546   0.0000032805   0.0000002541
        0.0000008441   0.0000042534   0.0000030022   0.0000014344   0.0000006555
        0.0000001397  -0.0000019859   0.0000001412   0.0000050803   0.0000020938
       -0.0000020195  -0.0000026977   0.0000022271  -0.0000029623  -0.0000006160
        0.0000017459  -0.0000038821  -0.0000007959  -0.0000011896  -0.0000014695
        0.0000035313   0.0000008680   0.0000001547   0.0000040178   0.0000023034
       -0.0000038105   0.0000006160   0.0000013292   0.0000009526   0.0000028461
        0.0000010180  -0.0000072208   0.0000093473  -0.0000100307  -0.0000128386
       -0.0036543243  -0.0031881152   0.0050841794   0.0114299916  -0.0138979180
       -0.0051405873
       -0.1075781375  -0.0084846964  -0.0217554614   0.6375996474  -0.0743952801
        0.0931575486  -0.3100892286  -0.0470446546  -0.1034634769  -0.0582962259
        0.0523493136   0.0215351273   0.0041898917   0.0031566769  -0.0006102978
        0.0001309237  -0.0004457885  -0.0005524582   0.0007101708   0.0005360110
       -0.0001687664  -0.0001338659  -0.0003698663  -0.0000607910   0.0001519116
       -0.0000271192   0.0002806839  -0.0000088822   0.0002367797  -0.0001718365
       -0.0001289237  -0.0000183400  -0.0001899908  -0.0022687334   0.0014216151
        0.0001492667  -0.0003788285  -0.0002490598  -0.0002286404   0.0001513293
       -0.0001864658  -0.0001371050  -0.0001681644  -0.0001626032   0.0001378898
       -0.0002441657   0.0003632904  -0.0000706764  -0.0000083644   0.0000093601
       -0.0000038931   0.0000113761  -0.0000106387   0.0000211860   0.0000073018
       -0.0000223704  -0.0000096528   0.0000384962   0.0000139590   0.0000186955
       -0.0000120716   0.0000201935   0.0000183699  -0.0000099124  -0.0000225576
       -0.0000228826   0.0000136750   0.0000226400   0.0000199836   0.0000084795
        0.0000067909  -0.0000033015   0.0000370335   0.0000125932  -0.0000053127
        0.0000213369   0.0000076884  -0.0000098317  -0.0000044522   0.0000367204
       -0.0000047926  -0.0000101751  -0.0000195201   0.0000015950   0.0000104087
        0.0000255401  -0.0000067764  -0.0000325621  -0.0000047541   0.0000011347
        0.0000132423   0.0000045833  -0.0000031342  -0.0000055388  -0.0000146733
        0.0000013701  -0.0000179154  -0.0000054486   0.0000182828   0.0000058930
        0.0000019043   0.0000119366   0.0000078425  -0.0000159828   0.0000136234
       -0.0000137225   0.0000196889  -0.0000062357   0.0000494886  -0.0000259538
        0.0000822692  -0.0000005126  -0.0000028119   0.0000073143  -0.0001054855
       -0.0000574306  -0.0000338461   0.0000199504   0.0000056501  -0.0000120429
       -0.0000175251  -0.0000115581  -0.0000096120   0.0000090213   0.0000021784
        0.0000013830  -0.0000148715  -0.0000115184  -0.0000125615   0.0000086365
        0.0000218313   0.0000205812   0.0000373196   0.0000920742  -0.0000642730
       -0.0000205550  -0.0000052485   0.0000254255   0.0000131863   0.0000149343
       -0.0000140689  -0.0000034798  -0.0000062386   0.0000067145   0.0000082258
        0.0000152689  -0.0000157132   0.0000095656  -0.0000181804   0.0000057247
       -0.0000054779  -0.0000050976  -0.0000231236  -0.0000136916  -0.0000155802
        0.0000065429   0.0000064162  -0.0000401936   0.0000118290   0.0000168373
        0.0000196385   0.0000006723  -0.0000030012  -0.0000268139   0.0000009173
        0.0000408447   0.0000120076  -0.0000035194  -0.0000143078  -0.0000092099
        0.0000052383  -0.0000000896  -0.0000101809   0.0000030098   0.0000062328
        0.0000005234  -0.0000025140  -0.0000029775  -0.0000242128  -0.0000171787
        0.0000207916   0.0000141821   0.0000097044  -0.0000422347  -0.0000268803
       -0.0000168204   0.0000156303  -0.0000308619  -0.0000339071  -0.0000091286
        0.0000164824  -0.0000002622   0.0000022548   0.0000188382  -0.0000248076
        0.0004535844  -0.0001304871  -0.0001104423  -0.0285366415  -0.0220223080
       -0.0213214722   0.0481312893  -0.0042170728   0.0094740997  -0.0098897666
       -0.0217841017  -0.0172873366  -0.1629482877   0.1198325345   0.0455516397
       -0.0089961339  -0.0025794297  -0.0043663140  -0.0001607611   0.0000045709
        0.0002388056   0.0000493726   0.0000377738  -0.0000411594   0.0000100843
        0.0000491977   0.0000363758   0.0000187328   0.0000384090   0.0000485802
        0.0000255838  -0.0000435107   0.0000499605  -0.0001905746   0.0001298025
       -0.0000077991  -0.0000191216  -0.0000240396   0.0000116889   0.0000072807
        0.0000159887   0.0000527230  -0.0000368610   0.0000245202   0.0000074038
       -0.0000188004   0.0000069512  -0.0000072435  -0.0000009272   0.0000072755
       -0.0000003245   0.0000063260  -0.0000028548  -0.0000023687  -0.0000067857
       -0.0000103233  -0.0000000640   0.0000028956  -0.0000065538   0.0000028681
       -0.0000006925  -0.0000118722   0.0000021339   0.0000055609   0.0000042429
        0.0000019481  -0.0000132801   0.0000002307  -0.0000205229   0.0000029916
        0.0000087565  -0.0000150640   0.0000152607   0.0000000626   0.0000029558
       -0.0000126624   0.0000081655  -0.0000031552  -0.0000010130   0.0000096914
       -0.0000033468   0.0000083373   0.0000027464   0.0000001132   0.0000089537
       -0.0000025428   0.0000048339  -0.0000050765  -0.0000140969   0.0000003152
       -0.0000031617   0.0000046932  -0.0000141757  -0.0000065088  -0.0000122184
       -0.0000029131  -0.0000027727  -0.0000069090   0.0000034634   0.0000010773
       -0.0000000042   0.0000096527   0.0000013983   0.0000132159   0.0000021465
       -0.0000049722  -0.0000009906   0.0000166776   0.0000009377   0.0000119421
       -0.0000018956  -0.0000060362   0.0000143987  -0.0000025314  -0.0000092344
        0.0000151268  -0.0000041446  -0.0000246676   0.0000029130   0.0000004791
        0.0000070677   0.0000054190   0.0000048455  -0.0000043881  -0.0000042536
        0.0000099593   0.0000087272  -0.0000001977   0.0000013695   0.0000009727
        0.0000043372   0.0000130705   0.0000528214   0.0000720974   0.0000030849
        0.0001595006  -0.0005932184  -0.0004902161  -0.0017897829   0.0044907553
        0.0003468394
       -0.0724805820  -0.2189503863  -0.1350275943  -0.0743952801   0.5007354633
        0.2394119770   0.0158567815  -0.0814446084  -0.0205203813   0.0063058132
        0.0264980215   0.0216025022   0.0061080203  -0.0010430672  -0.0034589163
        0.0002978050  -0.0001946838  -0.0001813320   0.0002743942   0.0000230237
        0.0001548706   0.0000381728   0.0000007296   0.0000790741   0.0000215725
       -0.0000174202   0.0000328861  -0.0000620039   0.0001075580  -0.0000912741
       -0.0001587504   0.0000438452  -0.0000046767   0.0005664841  -0.0001060103
       -0.0004281166  -0.0001562845   0.0003519025  -0.0002642726   0.0002586344
       -0.0001690224  -0.0000711510  -0.0001731590  -0.0000417291   0.0000769836
       -0.0000192165   0.0000533367   0.0001059294  -0.0001662670  -0.0000037686
        0.0000381756   0.0001120138   0.0001153498   0.0000798429  -0.0000997669
       -0.0001192046  -0.0000820535   0.0001871873   0.0000971583   0.0000860353
       -0.0001096380   0.0001133307   0.0001314499   0.0000218159  -0.0001511187
       -0.0001357795  -0.0000336755   0.0002104496   0.0001337020   0.0002738169
       -0.0000154316  -0.0000533031  -0.0001598874   0.0000310841   0.0000299026
        0.0000760057  -0.0001380809  -0.0000510580  -0.0000876577  -0.0000227055
        0.0000204925   0.0000734151   0.0000346646  -0.0000216099  -0.0000613216
       -0.0000471555   0.0000196061   0.0000118956   0.0000635477  -0.0000156465
       -0.0000051183  -0.0000430072   0.0000099609   0.0000280263  -0.0000174235
        0.0000042047  -0.0000342341  -0.0000033040   0.0000365080  -0.0000139805
        0.0000177672  -0.0000111090   0.0000315339  -0.0000127857  -0.0000103102
        0.0000423234   0.0000475381  -0.0000240754   0.0000489181  -0.0000248105
        0.0000838151  -0.0000155846   0.0000088897  -0.0000193656  -0.0000593857
       -0.0000359482  -0.0000224110  -0.0000063328   0.0000440210  -0.0000482111
       -0.0000277143   0.0000201321  -0.0000154461   0.0000097541   0.0000080102
        0.0000043867   0.0000020952  -0.0000386334   0.0000009267   0.0000138203
       -0.0000368989   0.0000489424   0.0000209381   0.0000532465  -0.0000325716
       -0.0000488821  -0.0000111181  -0.0000363628  -0.0000017557  -0.0000047952
       -0.0000352552  -0.0000094755  -0.0000076556   0.0000088877   0.0000105103
        0.0000234962   0.0000172706   0.0000453949   0.0000078834   0.0000455911
       -0.0000662602  -0.0000490919   0.0000127445  -0.0000102064   0.0000353646
       -0.0000155914   0.0000346616   0.0000057029  -0.0000009275  -0.0000391612
       -0.0000257414   0.0000154785   0.0000643782   0.0000391732  -0.0000302285
       -0.0000116383  -0.0000728908   0.0000088933   0.0000554407   0.0001256052
        0.0000141398  -0.0000039236   0.0000090962   0.0000097007   0.0000028288
        0.0000025393  -0.0000046430  -0.0001034674  -0.0001949041  -0.0000905227
        0.0001092801   0.0001360213   0.0001018675  -0.0001783106  -0.0001037063
       -0.0000753596   0.0001258110  -0.0001175675  -0.0001543184  -0.0000505478
        0.0001235071   0.0001211827   0.0000561036  -0.0001239810  -0.0001393503
        0.0001695959  -0.0003120293   0.0000965428  -0.0246854988  -0.0148792404
       -0.0135342178   0.0432160057  -0.0462803354  -0.0205382489  -0.0021882110
       -0.0030907831  -0.0026234982   0.1195878069  -0.1580196863  -0.0515052970
       -0.0217299428  -0.0034717343  -0.0091244188  -0.0000415831   0.0000530313
        0.0000240235  -0.0000041074   0.0000257863  -0.0000254829  -0.0000025908
        0.0000176712  -0.0000032632   0.0000083907   0.0000192071   0.0000154154
       -0.0000073251  -0.0000386435  -0.0000457147   0.0000114738   0.0000158588
        0.0000073072  -0.0000051576  -0.0000105262  -0.0000108870  -0.0000082587
        0.0000075508   0.0000318505  -0.0000155229   0.0000009568  -0.0000195715
       -0.0000051150  -0.0000131550  -0.0000236046  -0.0000140547  -0.0000008409
       -0.0000156580  -0.0000116104  -0.0000014338   0.0000030264   0.0000037260
        0.0000057839  -0.0000054271  -0.0000099504   0.0000122810   0.0000096033
       -0.0000117129   0.0000038617  -0.0000035170  -0.0000061017   0.0000032532
        0.0000003715   0.0000011465  -0.0000049605  -0.0000044789  -0.0000078209
       -0.0000032887   0.0000063233  -0.0000021263  -0.0000046419  -0.0000053485
       -0.0000009161   0.0000052958   0.0000101556  -0.0000042807  -0.0000094691
        0.0000015847  -0.0000065289  -0.0000065910  -0.0000031169  -0.0000072096
        0.0000061451  -0.0000063323   0.0000071213  -0.0000006777  -0.0000064965
        0.0000072368  -0.0000058729  -0.0000003873   0.0000072470   0.0000028013
        0.0000036036   0.0000033875   0.0000058625  -0.0000041720  -0.0000004589
        0.0000022993  -0.0000077416  -0.0000101758   0.0000024343   0.0000022928
        0.0000009643   0.0000101959   0.0000062814  -0.0000134352  -0.0000000090
        0.0000016909   0.0000051524  -0.0000011819   0.0000011963  -0.0000017051
       -0.0000007867   0.0000082439  -0.0000073515   0.0000042773  -0.0000035907
       -0.0000103008   0.0000021855   0.0000060974  -0.0000119099   0.0000046003
        0.0000256675   0.0000125893   0.0000195406   0.0000196177   0.0000121490
        0.0000218081   0.0000056782  -0.0000244484   0.0000170424   0.0000201395
       -0.0005425057   0.0002358690   0.0001143425   0.0040077472  -0.0001485153
       -0.0042752898
       -0.0654564219  -0.1169695214  -0.1434675178   0.0931575486   0.2394119770
        0.3030129769  -0.0623370984  -0.0388035256  -0.0868915497  -0.0103203196
        0.0338068554   0.0197280237   0.0012576315  -0.0053245606   0.0023925410
       -0.0003962367   0.0007491061   0.0002513051   0.0007851836   0.0002227713
       -0.0002134549  -0.0000045270  -0.0002516973  -0.0000877912   0.0001392246
       -0.0000988466   0.0003306474   0.0000883078   0.0004131938  -0.0002552476
       -0.0004141087  -0.0002548588  -0.0003010816   0.0004271146   0.0005533205
        0.0009267129   0.0000284562   0.0001646410  -0.0002598252   0.0001865076
       -0.0001875593  -0.0001704114  -0.0001372535  -0.0000700106   0.0000914412
       -0.0001721878   0.0001026350  -0.0001228558  -0.0000965057  -0.0000066716
        0.0000289193   0.0000809249   0.0000463499   0.0000557444  -0.0000782640
       -0.0000987083  -0.0000612319   0.0001569527   0.0000794934   0.0000637243
       -0.0000932757   0.0000918969   0.0001155682   0.0000083942  -0.0001353505
       -0.0001223759  -0.0000167087   0.0001862667   0.0001074916   0.0002405966
       -0.0000184379  -0.0000531639  -0.0001618944   0.0000108155   0.0000384294
        0.0000646331  -0.0001197836  -0.0000478452  -0.0000880469  -0.0000386676
        0.0000240824   0.0000854297   0.0000383406  -0.0000282744  -0.0000735255
       -0.0000579616   0.0000254618   0.0000209186   0.0000833979  -0.0000226756
       -0.0000089707  -0.0000607680   0.0000160897   0.0000355847  -0.0000016855
       -0.0000002466  -0.0000307978  -0.0000029420   0.0000338366  -0.0000100013
        0.0000196838  -0.0000124758   0.0000278468  -0.0000091407  -0.0000068622
        0.0000326605   0.0000408792  -0.0000163175   0.0000459141  -0.0000241843
        0.0000835051  -0.0000152719   0.0000070128  -0.0000163028  -0.0000620988
       -0.0000390823  -0.0000226838  -0.0000010655   0.0000328653  -0.0000385125
       -0.0000255637   0.0000156843  -0.0000118741   0.0000111922   0.0000074282
        0.0000049541  -0.0000014801  -0.0000353065  -0.0000010211   0.0000089084
       -0.0000229950   0.0000393062   0.0000227640   0.0000571171  -0.0000370849
       -0.0000422381  -0.0000057748  -0.0000223812   0.0000044682  -0.0000026073
       -0.0000346741  -0.0000102563  -0.0000132215   0.0000093107   0.0000106922
        0.0000209322   0.0000111027   0.0000348466   0.0000053298   0.0000317681
       -0.0000442095  -0.0000419003   0.0000097672  -0.0000127982   0.0000346291
       -0.0000149947   0.0000424067   0.0000257757  -0.0000060442  -0.0000545080
       -0.0000324993   0.0000185348   0.0000778862   0.0000536967  -0.0000336726