 Entering Gaussian System
 *********************************************
 Gaussian 98:
 frequency output generated by the xtb code
 *********************************************
                         Standard orientation:
 --------------------------------------------------------------------
  Center     Atomic     Atomic              Coordinates (Angstroms)
  Number     Number      Type              X           Y           Z
 --------------------------------------------------------------------
    1          6             0      -11.572299   -4.226379    0.064912
    2          6             0      -11.040342   -3.251813    1.126209
    3          6             0      -11.162849   -3.885233    2.520305
    4          6             0      -11.913182   -1.993546    1.097904
    5          6             0       -9.573332   -2.958413    0.842556
    6          6             0       -8.653452   -4.008829    0.850760
    7          6             0       -7.311373   -3.776738    0.635194
    8          6             0       -6.853134   -2.486780    0.389126
    9          6             0       -7.743406   -1.400757    0.320922
   10          6             0       -9.093838   -1.688242    0.575716
   11          5             0       -7.142201   -0.009707    0.007607
   12          6             0       -7.766534    1.370786   -0.307012
   13          6             0       -9.121182    1.634978   -0.564609
   14          6             0       -9.621913    2.896700   -0.832472
   15          6             0      -11.093330    3.164775   -1.118437
   16          6             0      -11.943977    1.891310   -1.093833
   17          6             0      -11.224782    3.798376   -2.511620
   18          6             0      -11.644007    4.127947   -0.056285
   19          6             0       -8.720193    3.962786   -0.838928
   20          6             0       -7.374750    3.753812   -0.620692
   21          6             0       -6.894918    2.471936   -0.373462
   22          8             0       -5.531091    2.398459   -0.216452
   23          6             0       -4.897933    1.205988   -0.102254
   24          6             0       -3.509486    1.229705   -0.094308
   25          6             0       -2.817104    0.027513    0.012716
   26          7             0       -1.391098    0.038507    0.014221
   27          6             0       -0.716466    0.269840   -1.157991
   28          6             0       -1.393528    0.472430   -2.365798
   29          6             0       -0.700460    0.739228   -3.523555
   30          6             0        0.697550    0.817260   -3.506777
   31          6             0        1.389595    0.595053   -2.339216
   32          6             0        0.711144    0.297850   -1.151788
   33          7             0        1.385801    0.038432    0.014198
   34          6             0        2.811746    0.027160    0.010854
   35          6             0        3.504843    1.094785    0.572248
   36          6             0        4.893391    1.073577    0.561031
   37          6             0        5.612571    0.002290    0.003490
   38          6             0        4.871603   -1.055941   -0.550432
   39          6             0        3.482944   -1.052350   -0.554494
   40          8             0        5.481785   -2.126845   -1.112195
   41          6             0        6.845945   -2.284708   -1.057283
   42          6             0        7.302377   -3.488758   -1.583323
   43          6             0        8.646842   -3.793387   -1.559542
   44          6             0        9.570872   -2.912460   -0.994283
   45          6             0       11.042253   -3.302314   -0.955033
   46          6             0       11.920920   -2.238364   -0.290366
   47          6             0       11.193231   -4.608649   -0.161098
   48          6             0       11.544248   -3.506418   -2.392263
   49          6             0        9.091913   -1.715052   -0.493126
   50          6             0        7.738705   -1.340986   -0.519489
   51          5             0        7.138665   -0.011422   -0.000319
   52          6             0        7.764994    1.306961    0.516182
   53          6             0        9.124671    1.656208    0.483851
   54          6             0        9.627839    2.843977    0.984203
   55          6             0       11.106146    3.206053    0.939834
   56          6             0       11.279077    4.511940    0.149668
   57          6             0       11.617588    3.395518    2.375752
   58          6             0       11.961581    2.127792    0.267934
   59          6             0        8.722682    3.741111    1.554470
   60          6             0        7.372906    3.461366    1.583729
   61          6             0        6.892049    2.266430    1.058648
   62          8             0        5.525481    2.133407    1.119604
   63          6             0        0.711387   -0.215731    1.181581
   64          6             0        1.389251   -0.510801    2.369688
   65          6             0        0.696770   -0.729544    3.537786
   66          6             0       -0.701226   -0.651212    3.553957
   67          6             0       -1.393849   -0.387644    2.395344
   68          6             0       -0.716241   -0.187475    1.187246
   69          6             0       -3.489119   -1.186337    0.118267
   70          6             0       -4.877705   -1.186631    0.122394
   71          6             0       -5.616776    0.003420    0.009104
   72          8             0       -5.490453   -2.389866    0.235117
   73          1             0      -12.622971   -4.443026    0.247843
   74          1             0      -11.477004   -3.790235   -0.927681
   75          1             0      -11.024057   -5.164501    0.078046
   76          1             0      -10.756043   -3.214490    3.274889
   77          1             0      -10.624227   -4.827236    2.576688
   78          1             0      -12.208164   -4.076470    2.755076
   79          1             0      -11.590079   -1.277251    1.850076
   80          1             0      -11.886927   -1.522138    0.118465
   81          1             0      -12.945530   -2.263937    1.312104
   82          1             0       -8.976395   -5.021036    1.040682
   83          1             0       -6.595300   -4.585135    0.664147
   84          1             0       -9.773459   -0.854872    0.577631
   85          1             0       -9.786308    0.789997   -0.567893
   86          1             0      -11.606863    1.182131   -1.846609
   87          1             0      -12.980510    2.143881   -1.309592
   88          1             0      -11.911352    1.418725   -0.115156
   89          1             0      -10.702501    4.749660   -2.565761
   90          1             0      -10.805412    3.135978   -3.266695
   91          1             0      -12.272928    3.971872   -2.747560
   92          1             0      -12.697669    4.327597   -0.241341
   93          1             0      -11.543941    3.691169    0.935559
   94          1             0      -11.111279    5.075010   -0.065940
   95          1             0       -9.060161    4.969300   -1.029435
   96          1             0       -6.672495    4.574287   -0.648272
   97          1             0       -2.984376    2.168268   -0.173220
   98          1             0       -2.469965    0.418493   -2.376662
   99          1             0       -1.237853    0.894117   -4.445286
  100          1             0        1.235466    1.045412   -4.412841
  101          1             0        2.466216    0.646060   -2.326404
  102          1             0        2.980481    1.931422    1.005743
  103          1             0        2.941326   -1.879022   -0.985907
  104          1             0        6.582606   -4.178423   -1.999710
  105          1             0        8.968482   -4.735554   -1.976351
  106          1             0       11.877022   -1.298979   -0.836111
  107          1             0       12.955976   -2.574999   -0.285234
  108          1             0       11.617315   -2.069580    0.740388
  109          1             0       10.641492   -5.421379   -0.625528
  110          1             0       12.241525   -4.895979   -0.107199
  111          1             0       10.818116   -4.477780    0.852308
  112          1             0       11.424085   -2.589237   -2.965809
  113          1             0       12.598805   -3.775207   -2.386805
  114          1             0       10.994170   -4.296808   -2.895767
  115          1             0        9.776882   -1.022879   -0.037557
  116          1             0        9.794688    0.952011    0.024501
  117          1             0       12.332614    4.778434    0.091493
  118          1             0       10.746141    5.333969    0.619654
  119          1             0       10.896411    4.392142   -0.862279
  120          1             0       11.479996    2.479544    2.947321
  121          1             0       11.086261    4.196090    2.883303
  122          1             0       12.677582    3.641769    2.367190
  123          1             0       11.902750    1.187803    0.811213
  124          1             0       11.649911    1.967721   -0.761805
  125          1             0       13.002714    2.445045    0.258711
  126          1             0        9.063518    4.676572    1.971109
  127          1             0        6.667881    4.163888    2.003863
  128          1             0        2.465835   -0.562634    2.357500
  129          1             0        1.234422   -0.955334    4.444588
  130          1             0       -1.238872   -0.803474    4.475988
  131          1             0       -2.470320   -0.333937    2.405462
  132          1             0       -2.948201   -2.115725    0.198946
 --------------------------------------------------------------------
     1 basis functions        1 primitive gaussians
     1 alpha electrons        1 beta electrons
 
 Harmonic frequencies (cm**-1), IR intensities (km*mol⁻¹),
 Raman scattering activities (A**4/amu), Raman depolarization ratios,
 reduced masses (AMU), force constants (mDyne/A) and normal coordinates:
                      1                      2                      3
                        a                      a                      a 
 Frequencies --     2.1420                 3.7925                 9.3823
 Red. masses --    10.7649                11.0310                10.8958
 Frc consts  --     0.0000                 0.0000                 0.0000
 IR Inten    --     3.8739                 0.0894                 0.0351
 Raman Activ --     0.0000                 0.0000                 0.0000
 Depolar     --     0.0000                 0.0000                 0.0000
 Atom AN      X      Y      Z        X      Y      Z        X      Y      Z
   1   6    -0.00   0.02  -0.20     0.11  -0.12  -0.04     0.01  -0.01   0.13
   2   6    -0.01  -0.04  -0.14     0.08  -0.11  -0.04     0.04  -0.01   0.11
   3   6    -0.02  -0.11  -0.18     0.09  -0.12  -0.04     0.08   0.00   0.12
   4   6    -0.01  -0.03  -0.08     0.05  -0.13  -0.04     0.03  -0.01   0.13
   5   6    -0.01  -0.03  -0.12     0.07  -0.07  -0.03     0.03  -0.01   0.07
   6   6    -0.01  -0.03  -0.16     0.10  -0.05  -0.03     0.03  -0.00   0.05
   7   6    -0.01  -0.02  -0.15     0.09  -0.02  -0.02     0.03  -0.00   0.01
   8   6    -0.01  -0.01  -0.09     0.06  -0.00  -0.02     0.02  -0.00  -0.01
   9   6    -0.00  -0.01  -0.05     0.03  -0.03  -0.02     0.01  -0.00   0.01
  10   6    -0.00  -0.02  -0.07     0.04  -0.06  -0.02     0.02  -0.01   0.05
  11   5     0.00   0.00   0.00     0.00  -0.01  -0.01     0.00  -0.00  -0.01
  12   6     0.00   0.02   0.05    -0.03  -0.02  -0.01    -0.01  -0.00   0.02
  13   6     0.00   0.03   0.07    -0.04  -0.06  -0.01    -0.02  -0.00   0.06
  14   6     0.01   0.04   0.12    -0.07  -0.07  -0.01    -0.03  -0.00   0.08
  15   6     0.01   0.06   0.14    -0.07  -0.10  -0.01    -0.04  -0.00   0.13
  16   6     0.00   0.06   0.08    -0.04  -0.12  -0.02    -0.03  -0.00   0.14
  17   6     0.00   0.12   0.17    -0.08  -0.10  -0.01    -0.07   0.01   0.14
  18   6     0.01   0.01   0.19    -0.10  -0.12  -0.01    -0.01  -0.01   0.15
  19   6     0.01   0.04   0.16    -0.09  -0.05  -0.00    -0.03   0.00   0.07
  20   6     0.01   0.03   0.15    -0.09  -0.01   0.00    -0.03   0.00   0.03
  21   6     0.01   0.02   0.10    -0.06  -0.00   0.00    -0.02   0.00   0.00
  22   8     0.01   0.01   0.10    -0.07   0.04   0.01    -0.01   0.00  -0.04
  23   6     0.00  -0.00   0.04    -0.03   0.05   0.01    -0.01   0.00  -0.06
  24   6     0.00  -0.00   0.04    -0.03   0.08   0.01    -0.00   0.01  -0.09
  25   6     0.00  -0.01   0.00     0.00   0.10   0.01     0.00   0.01  -0.11
  26   7     0.00  -0.01   0.00     0.00   0.14   0.02     0.00   0.01  -0.13
  27   6     0.00  -0.01   0.00     0.00   0.14   0.02    -0.01   0.01  -0.13
  28   6     0.00   0.00   0.01     0.01   0.15   0.02    -0.02   0.01  -0.12
  29   6     0.00   0.00   0.01     0.01   0.15   0.03    -0.02   0.01  -0.13
  30   6     0.00  -0.01   0.00     0.01   0.15   0.03    -0.02   0.00  -0.14
  31   6     0.00  -0.02   0.00     0.01   0.15   0.03    -0.01   0.01  -0.14
  32   6     0.00  -0.01   0.00     0.00   0.14   0.03    -0.01   0.01  -0.14
  33   7    -0.00  -0.01   0.00     0.00   0.14   0.03     0.00   0.02  -0.15
  34   6     0.00  -0.01   0.00    -0.00   0.10   0.02     0.00   0.03  -0.14
  35   6    -0.00   0.01  -0.04     0.03   0.09   0.01    -0.01   0.03  -0.13
  36   6    -0.00   0.02  -0.04     0.03   0.05   0.01    -0.01   0.03  -0.10
  37   6     0.00  -0.00   0.00    -0.00   0.03   0.01     0.00   0.03  -0.08
  38   6     0.00  -0.03   0.05    -0.03   0.05   0.01     0.01   0.03  -0.10
  39   6     0.00  -0.03   0.05    -0.03   0.08   0.02     0.01   0.03  -0.13
  40   8     0.01  -0.06   0.11    -0.07   0.04   0.02     0.03   0.03  -0.11
  41   6     0.00  -0.05   0.10    -0.06  -0.00   0.01     0.02   0.02  -0.04
  42   6     0.01  -0.07   0.16    -0.09  -0.02   0.02     0.03   0.01  -0.02
  43   6     0.01  -0.07   0.17    -0.10  -0.05   0.02     0.02  -0.00   0.04
  44   6     0.01  -0.04   0.12    -0.08  -0.07   0.01     0.01  -0.02   0.08
  45   6     0.01  -0.03   0.13    -0.09  -0.11   0.01     0.00  -0.04   0.16
  46   6     0.01   0.01   0.07    -0.06  -0.13  -0.01    -0.02  -0.06   0.21
  47   6     0.02   0.01   0.20    -0.12  -0.11   0.02    -0.06  -0.05   0.16
  48   6    -0.00  -0.10   0.14    -0.10  -0.14   0.01     0.08  -0.04   0.18
  49   6     0.01  -0.01   0.06    -0.05  -0.06   0.00     0.00  -0.01   0.06
  50   6     0.00  -0.02   0.05    -0.04  -0.02   0.00     0.01   0.01  -0.00
  51   5     0.00   0.00  -0.00    -0.00  -0.00   0.00     0.00   0.01  -0.03
  52   6    -0.00   0.02  -0.06     0.03  -0.02  -0.01    -0.01   0.01  -0.01
  53   6    -0.00   0.03  -0.07     0.04  -0.05  -0.01    -0.00  -0.01   0.05
  54   6    -0.01   0.05  -0.13     0.07  -0.06  -0.02    -0.01  -0.01   0.07
  55   6    -0.01   0.05  -0.14     0.08  -0.10  -0.03    -0.00  -0.03   0.14
  56   6    -0.01   0.02  -0.20     0.11  -0.11  -0.03     0.05  -0.04   0.14
  57   6    -0.01   0.11  -0.15     0.09  -0.11  -0.03    -0.06  -0.04   0.16
  58   6    -0.01   0.03  -0.09     0.05  -0.12  -0.03     0.01  -0.04   0.18
  59   6    -0.01   0.07  -0.17     0.10  -0.04  -0.02    -0.02  -0.01   0.04
  60   6    -0.01   0.07  -0.15     0.09  -0.01  -0.01    -0.03   0.01  -0.02
  61   6    -0.01   0.05  -0.10     0.06   0.00  -0.01    -0.02   0.01  -0.04
  62   8    -0.01   0.05  -0.10     0.07   0.04   0.00    -0.02   0.03  -0.10
  63   6     0.00  -0.02   0.00    -0.00   0.14   0.03     0.01   0.01  -0.13
  64   6     0.00  -0.01   0.00    -0.00   0.14   0.03     0.01   0.01  -0.14
  65   6     0.00  -0.02   0.00    -0.01   0.14   0.03     0.02   0.01  -0.13
  66   6    -0.00  -0.03  -0.00    -0.01   0.14   0.02     0.02   0.01  -0.13
  67   6    -0.00  -0.03  -0.00    -0.01   0.13   0.02     0.02   0.01  -0.12
  68   6    -0.00  -0.02   0.00    -0.00   0.13   0.02     0.01   0.01  -0.13
  69   6    -0.00  -0.01  -0.04     0.03   0.08   0.01     0.01   0.01  -0.10
  70   6    -0.00  -0.01  -0.04     0.03   0.05  -0.00     0.01   0.00  -0.07
  71   6     0.00  -0.00   0.00     0.00   0.03  -0.00     0.00   0.00  -0.05
  72   8    -0.01  -0.01  -0.10     0.07   0.04  -0.01     0.01   0.00  -0.06
  73   1    -0.00   0.00  -0.06     0.03  -0.04  -0.01     0.00  -0.00   0.05
  74   1     0.00   0.02  -0.05     0.03  -0.03  -0.01    -0.01  -0.00   0.04
  75   1    -0.00   0.00  -0.07     0.04  -0.03  -0.01     0.00  -0.00   0.03
  76   1    -0.01  -0.04  -0.04     0.02  -0.03  -0.01     0.03   0.00   0.03
  77   1    -0.01  -0.03  -0.06     0.03  -0.03  -0.01     0.02   0.00   0.03
  78   1    -0.01  -0.04  -0.06     0.03  -0.04  -0.01     0.02   0.00   0.04
  79   1    -0.00  -0.02  -0.01     0.01  -0.04  -0.01     0.02  -0.00   0.03
  80   1    -0.00   0.00  -0.02     0.01  -0.04  -0.01     0.00  -0.00   0.04
  81   1    -0.00  -0.01  -0.03     0.01  -0.05  -0.01     0.01  -0.00   0.05
  82   1    -0.00  -0.01  -0.06     0.03  -0.02  -0.01     0.01  -0.00   0.02
  83   1    -0.00  -0.01  -0.05     0.03   0.00  -0.01     0.01   0.00  -0.00
  84   1    -0.00  -0.00  -0.01     0.01  -0.02  -0.01     0.01  -0.00   0.02
  85   1     0.00   0.01   0.01    -0.00  -0.02  -0.00    -0.00  -0.00   0.02
  86   1    -0.00   0.03   0.01    -0.01  -0.03  -0.01    -0.02   0.00   0.04
  87   1     0.00   0.02   0.03    -0.01  -0.04  -0.01    -0.01  -0.00   0.05
  88   1     0.00   0.00   0.02    -0.01  -0.04  -0.01    -0.00  -0.00   0.04
  89   1     0.00   0.04   0.06    -0.03  -0.03  -0.00    -0.02   0.00   0.04
  90   1    -0.00   0.05   0.04    -0.02  -0.03  -0.00    -0.03   0.01   0.03
  91   1     0.00   0.04   0.05    -0.03  -0.04  -0.00    -0.02   0.00   0.05
  92   1     0.00   0.01   0.06    -0.03  -0.04  -0.00    -0.00  -0.00   0.05
  93   1     0.01  -0.01   0.05    -0.03  -0.04  -0.00     0.01  -0.01   0.04
  94   1     0.00   0.00   0.07    -0.04  -0.03  -0.00    -0.00  -0.00   0.04
  95   1     0.00   0.01   0.06    -0.03  -0.02  -0.00    -0.01   0.00   0.03
  96   1     0.00   0.01   0.05    -0.03   0.00   0.00    -0.01   0.00   0.01
  97   1     0.00  -0.00   0.02    -0.01   0.03   0.01    -0.00   0.00  -0.03
  98   1    -0.00   0.00   0.00     0.00   0.04   0.01    -0.00   0.00  -0.03
  99   1     0.00   0.00   0.00     0.00   0.05   0.01    -0.01   0.00  -0.04
 100   1     0.00  -0.00   0.00     0.00   0.05   0.01    -0.01   0.00  -0.04
 101   1     0.00  -0.01   0.00     0.00   0.04   0.01    -0.00   0.00  -0.04
 102   1    -0.00   0.01  -0.02     0.01   0.03   0.00    -0.01   0.01  -0.04
 103   1     0.00  -0.01   0.02    -0.01   0.03   0.01     0.01   0.01  -0.04
 104   1     0.00  -0.03   0.06    -0.03  -0.00   0.01     0.01   0.01  -0.02
 105   1     0.00  -0.03   0.06    -0.04  -0.02   0.01     0.01  -0.00   0.02
 106   1    -0.00  -0.01   0.01    -0.01  -0.04  -0.00     0.01  -0.02   0.06
 107   1     0.00   0.00   0.02    -0.02  -0.04  -0.00    -0.01  -0.02   0.08
 108   1     0.01   0.02   0.02    -0.01  -0.03  -0.00    -0.02  -0.02   0.06
 109   1     0.01  -0.00   0.07    -0.04  -0.03   0.01    -0.01  -0.01   0.04
 110   1     0.01   0.01   0.06    -0.04  -0.04   0.00    -0.02  -0.02   0.06
 111   1     0.01   0.02   0.06    -0.03  -0.02   0.01    -0.03  -0.01   0.04
 112   1    -0.00  -0.04   0.03    -0.02  -0.04  -0.00     0.04  -0.01   0.05
 113   1     0.00  -0.03   0.04    -0.03  -0.05   0.00     0.02  -0.02   0.07
 114   1    -0.00  -0.04   0.05    -0.04  -0.04   0.00     0.03  -0.01   0.04
 115   1     0.00   0.00   0.01    -0.01  -0.02  -0.00    -0.00  -0.00   0.02
 116   1    -0.00   0.00  -0.01     0.01  -0.02  -0.00     0.00  -0.00   0.02
 117   1    -0.00   0.01  -0.06     0.03  -0.04  -0.01     0.02  -0.01   0.06
 118   1    -0.00   0.01  -0.07     0.04  -0.03  -0.01     0.01  -0.01   0.03
 119   1    -0.00  -0.01  -0.05     0.03  -0.03  -0.01     0.03  -0.01   0.04
 120   1    -0.00   0.04  -0.03     0.02  -0.03  -0.01    -0.03  -0.01   0.05
 121   1    -0.00   0.04  -0.05     0.03  -0.03  -0.01    -0.02  -0.01   0.04
 122   1    -0.00   0.03  -0.05     0.03  -0.04  -0.01    -0.02  -0.01   0.06
 123   1    -0.00   0.01  -0.02     0.01  -0.04  -0.01    -0.01  -0.01   0.05
 124   1    -0.00  -0.01  -0.03     0.01  -0.03  -0.01     0.02  -0.01   0.05
 125   1    -0.00   0.01  -0.03     0.02  -0.04  -0.01     0.01  -0.02   0.07
 126   1    -0.00   0.03  -0.06     0.04  -0.01  -0.01    -0.01  -0.00   0.02
 127   1    -0.00   0.03  -0.05     0.03   0.00  -0.00    -0.01   0.00  -0.01
 128   1     0.00  -0.00   0.00    -0.00   0.04   0.01     0.00   0.00  -0.04
 129   1     0.00  -0.00   0.00    -0.00   0.04   0.01     0.01   0.00  -0.04
 130   1    -0.00  -0.01  -0.00    -0.00   0.04   0.01     0.01   0.00  -0.04
 131   1    -0.00  -0.01  -0.00    -0.00   0.04   0.01     0.00   0.00  -0.03
 132   1    -0.00  -0.00  -0.02     0.02   0.03   0.00     0.00   0.00  -0.03
                      4                      5                      6
                        a                      a                      a 
 Frequencies --    16.5455                20.0175                20.1715
 Red. masses --    10.4471                11.2391                10.6020
 Frc consts  --     0.0000                 0.0000                 0.0000
 IR Inten    --    18.7236                 0.5123                 0.3312
 Raman Activ --     0.0000                 0.0000                 0.0000
 Depolar     --     0.0000                 0.0000                 0.0000
 Atom AN      X      Y      Z        X      Y      Z        X      Y      Z
   1   6    -0.00  -0.00   0.04     0.00   0.01  -0.15     0.02   0.00  -0.12
   2   6    -0.00   0.01   0.03    -0.05  -0.01  -0.10    -0.01  -0.02  -0.08
   3   6    -0.00   0.03   0.04    -0.12  -0.04  -0.12    -0.03  -0.06  -0.10
   4   6    -0.00   0.01   0.01    -0.05  -0.01  -0.12    -0.01  -0.02  -0.07
   5   6    -0.00   0.01   0.02    -0.04  -0.00  -0.02    -0.00  -0.01  -0.05
   6   6    -0.00   0.01   0.03    -0.04  -0.01   0.01    -0.00  -0.01  -0.05
   7   6    -0.00   0.00   0.03    -0.03  -0.00   0.07     0.00  -0.01  -0.02
   8   6    -0.00  -0.00   0.02    -0.02  -0.00   0.10     0.00  -0.00   0.00
   9   6     0.00   0.00   0.01    -0.01  -0.00   0.08     0.00  -0.00   0.00
  10   6     0.00   0.01   0.02    -0.03  -0.00   0.02    -0.00  -0.01  -0.02
  11   5     0.00  -0.00   0.01    -0.00  -0.00   0.10     0.00   0.00   0.02
  12   6     0.01  -0.00  -0.00     0.01  -0.00   0.07     0.01   0.00   0.03
  13   6     0.01  -0.01  -0.02     0.02  -0.00   0.01     0.01   0.01   0.03
  14   6     0.01  -0.01  -0.03     0.04  -0.01  -0.03     0.01   0.01   0.04
  15   6     0.02  -0.01  -0.05     0.05  -0.01  -0.10     0.01   0.02   0.04
  16   6     0.01  -0.01  -0.04     0.05  -0.01  -0.12     0.01   0.02   0.03
  17   6     0.03  -0.03  -0.06     0.12  -0.04  -0.12     0.01   0.03   0.05
  18   6     0.01   0.01  -0.07    -0.00   0.01  -0.15     0.01   0.00   0.05
  19   6     0.01  -0.01  -0.03     0.04  -0.01  -0.00     0.01   0.01   0.04
  20   6     0.01  -0.01  -0.02     0.03  -0.01   0.06     0.01   0.01   0.04
  21   6     0.01  -0.00  -0.00     0.02  -0.00   0.09     0.01   0.00   0.03
  22   8     0.01  -0.01   0.01     0.01  -0.01   0.16     0.01   0.00   0.03
  23   6     0.00  -0.01   0.02     0.01  -0.01   0.14     0.01   0.00   0.02
  24   6     0.00  -0.01   0.02     0.00  -0.02   0.14     0.01   0.00   0.02
  25   6     0.00  -0.01   0.02    -0.00  -0.02   0.13     0.00   0.00   0.02
  26   7     0.00  -0.01   0.02    -0.00  -0.03   0.08     0.01   0.00   0.02
  27   6    -0.00   0.06   0.02    -0.05  -0.02   0.05    -0.00  -0.09  -0.01
  28   6    -0.00   0.13   0.04    -0.10  -0.03   0.08    -0.01  -0.19  -0.02
  29   6    -0.01   0.20   0.05    -0.15  -0.02   0.05    -0.02  -0.27  -0.04
  30   6    -0.01   0.22   0.05    -0.15  -0.00  -0.01    -0.02  -0.26  -0.05
  31   6    -0.01   0.15   0.04    -0.10   0.01  -0.03    -0.01  -0.17  -0.04
  32   6    -0.00   0.07   0.02    -0.05   0.00  -0.01    -0.00  -0.09  -0.02
  33   7     0.00   0.00   0.00    -0.00   0.01  -0.03     0.01  -0.00   0.00
  34   6     0.00   0.00  -0.00    -0.00   0.04  -0.08     0.00   0.00  -0.00
  35   6     0.00  -0.03   0.06    -0.00   0.05  -0.11     0.00  -0.02   0.05
  36   6     0.00  -0.02   0.05    -0.00   0.06  -0.13     0.00  -0.02   0.05
  37   6    -0.00   0.01  -0.01     0.00   0.06  -0.12     0.00   0.00  -0.01
  38   6     0.00   0.04  -0.07     0.00   0.05  -0.10     0.00   0.03  -0.06
  39   6     0.00   0.04  -0.07     0.00   0.04  -0.08     0.00   0.03  -0.06
  40   8     0.01   0.08  -0.15     0.00   0.05  -0.10     0.01   0.08  -0.15
  41   6     0.00   0.05  -0.09    -0.00   0.04  -0.07     0.01   0.05  -0.10
  42   6     0.01   0.06  -0.12    -0.00   0.03  -0.05     0.01   0.08  -0.16
  43   6     0.00   0.03  -0.05    -0.01   0.01  -0.02     0.01   0.06  -0.12
  44   6    -0.01  -0.01   0.05    -0.01   0.01  -0.01    -0.01   0.01  -0.01
  45   6    -0.03  -0.06   0.15    -0.02  -0.02   0.04    -0.02  -0.03   0.06
  46   6    -0.05  -0.13   0.30    -0.02  -0.02   0.05    -0.04  -0.12   0.23
  47   6    -0.13  -0.12   0.08    -0.06  -0.01   0.06    -0.10  -0.11  -0.07
  48   6     0.09   0.02   0.18     0.02  -0.05   0.06     0.08   0.11   0.07
  49   6    -0.01  -0.02   0.06    -0.01   0.02  -0.04    -0.01  -0.01   0.02
  50   6    -0.00   0.01  -0.01    -0.00   0.03  -0.07    -0.00   0.01  -0.03
  51   5    -0.00   0.00  -0.00     0.00   0.04  -0.09    -0.00  -0.00   0.00
  52   6    -0.00  -0.00   0.00     0.00   0.04  -0.08     0.00  -0.01   0.03
  53   6    -0.01   0.02  -0.06     0.01   0.01  -0.02    -0.00   0.00  -0.01
  54   6    -0.01   0.02  -0.06     0.01   0.00   0.00    -0.00  -0.01   0.00
  55   6    -0.02   0.06  -0.14     0.03  -0.04   0.09    -0.01   0.02  -0.05
  56   6    -0.10   0.08  -0.12     0.12  -0.06   0.08    -0.07   0.06  -0.01
  57   6     0.07   0.03  -0.17    -0.06  -0.03   0.12     0.06  -0.03  -0.07
  58   6    -0.04   0.10  -0.23     0.04  -0.08   0.17    -0.03   0.06  -0.14
  59   6     0.00  -0.02   0.02     0.01   0.03  -0.06     0.01  -0.04   0.07
  60   6     0.01  -0.04   0.08    -0.00   0.06  -0.12     0.01  -0.06   0.11
  61   6     0.00  -0.03   0.06    -0.00   0.06  -0.12     0.01  -0.04   0.08
  62   8     0.01  -0.06   0.12    -0.00   0.09  -0.18     0.01  -0.06   0.12
  63   6     0.01  -0.08  -0.01     0.05  -0.01  -0.01     0.01   0.09   0.02
  64   6     0.02  -0.15  -0.03     0.10  -0.01  -0.04     0.01   0.16   0.04
  65   6     0.02  -0.22  -0.04     0.15  -0.03  -0.01     0.01   0.25   0.06
  66   6     0.02  -0.22  -0.03     0.15  -0.05   0.04     0.01   0.27   0.06
  67   6     0.02  -0.15  -0.01     0.10  -0.05   0.07     0.01   0.18   0.04
  68   6     0.01  -0.08  -0.00     0.05  -0.03   0.05     0.01   0.09   0.03
  69   6     0.00  -0.01   0.01    -0.01  -0.02   0.14     0.00   0.00   0.03
  70   6     0.00  -0.01   0.02    -0.01  -0.01   0.15     0.00   0.00   0.03
  71   6     0.00  -0.00   0.01    -0.00  -0.01   0.14     0.00   0.00   0.03
  72   8    -0.00  -0.00   0.02    -0.02  -0.01   0.17     0.01   0.00   0.03
  73   1    -0.00   0.00   0.01    -0.00   0.00  -0.06     0.00  -0.00  -0.04
  74   1    -0.00  -0.00   0.01     0.02   0.01  -0.04     0.01   0.01  -0.03
  75   1    -0.00  -0.00   0.02    -0.00   0.00  -0.04     0.01   0.00  -0.04
  76   1    -0.00   0.01   0.01    -0.05  -0.01  -0.02    -0.02  -0.02  -0.02
  77   1    -0.00   0.01   0.01    -0.04  -0.01  -0.03    -0.01  -0.02  -0.03
  78   1    -0.00   0.01   0.01    -0.04  -0.01  -0.05    -0.01  -0.02  -0.04
  79   1    -0.00   0.01   0.00    -0.03  -0.01  -0.03    -0.01  -0.01  -0.01
  80   1     0.00   0.00   0.00    -0.00   0.00  -0.03     0.00  -0.00  -0.02
  81   1    -0.00   0.00   0.00    -0.02  -0.00  -0.05    -0.00  -0.01  -0.03
  82   1    -0.00   0.00   0.01    -0.01  -0.00  -0.00    -0.00  -0.00  -0.02
  83   1    -0.00   0.00   0.01    -0.01  -0.00   0.03     0.00  -0.00  -0.00
  84   1     0.00   0.00   0.00    -0.01   0.00   0.00    -0.00  -0.00  -0.01
  85   1     0.00  -0.00  -0.01     0.01  -0.00   0.00     0.00   0.00   0.01
  86   1     0.01  -0.01  -0.01     0.02  -0.01  -0.03     0.00   0.01   0.00
  87   1     0.00  -0.00  -0.02     0.02  -0.00  -0.05     0.00   0.01   0.01
  88   1     0.00   0.00  -0.01     0.00   0.00  -0.03     0.00   0.00   0.01
  89   1     0.01  -0.01  -0.02     0.03  -0.01  -0.03     0.00   0.01   0.02
  90   1     0.01  -0.01  -0.01     0.05  -0.01  -0.03     0.00   0.01   0.01
  91   1     0.01  -0.01  -0.02     0.04  -0.01  -0.05     0.00   0.01   0.01
  92   1     0.00   0.00  -0.03     0.00   0.00  -0.06     0.00   0.00   0.02
  93   1    -0.00   0.01  -0.02    -0.02   0.01  -0.04     0.00  -0.00   0.01
  94   1     0.00   0.00  -0.02     0.00   0.00  -0.04     0.00   0.00   0.02
  95   1     0.00  -0.00  -0.01     0.01  -0.00  -0.01     0.00   0.00   0.01
  96   1     0.00  -0.00  -0.00     0.01  -0.00   0.02     0.00   0.00   0.01
  97   1     0.00  -0.00   0.01     0.00  -0.01   0.04     0.00  -0.00   0.00
  98   1    -0.00   0.03   0.01    -0.03  -0.01   0.03    -0.00  -0.05  -0.00
  99   1    -0.00   0.07   0.02    -0.05  -0.01   0.02    -0.01  -0.10  -0.01
 100   1    -0.00   0.08   0.02    -0.05   0.00  -0.01    -0.01  -0.09  -0.02
 101   1    -0.00   0.05   0.01    -0.03   0.01  -0.02    -0.00  -0.04  -0.02
 102   1    -0.00  -0.02   0.03    -0.00   0.02  -0.03     0.00  -0.01   0.02
 103   1     0.00   0.02  -0.03     0.00   0.01  -0.02     0.00   0.01  -0.03
 104   1     0.01   0.03  -0.05    -0.00   0.01  -0.02     0.01   0.03  -0.07
 105   1     0.00   0.01  -0.02    -0.00   0.00  -0.00     0.00   0.02  -0.05
 106   1     0.01  -0.03   0.10     0.00  -0.01   0.01     0.01  -0.02   0.09
 107   1    -0.02  -0.05   0.11    -0.01  -0.01   0.02    -0.02  -0.04   0.09
 108   1    -0.04  -0.05   0.08    -0.01  -0.00   0.01    -0.04  -0.06   0.06
 109   1    -0.03  -0.02  -0.01    -0.02  -0.00   0.02    -0.02  -0.02  -0.06
 110   1    -0.04  -0.04   0.05    -0.02  -0.01   0.03    -0.03  -0.04  -0.00
 111   1    -0.06  -0.05   0.02    -0.03   0.00   0.01    -0.05  -0.06  -0.02
 112   1     0.05   0.02   0.07     0.02  -0.02   0.01     0.04   0.05   0.05
 113   1     0.02  -0.01   0.07     0.00  -0.02   0.03     0.02   0.02   0.03
 114   1     0.03   0.02   0.02     0.01  -0.01   0.01     0.03   0.05  -0.01
 115   1    -0.01  -0.01   0.04    -0.00   0.01  -0.01    -0.01  -0.01   0.03
 116   1    -0.01   0.01  -0.03     0.01  -0.00   0.01    -0.00   0.01  -0.02
 117   1    -0.03   0.03  -0.05     0.04  -0.03   0.04    -0.02   0.02  -0.02
 118   1    -0.03   0.02  -0.02     0.03  -0.01   0.01    -0.02   0.01   0.01
 119   1    -0.05   0.03  -0.03     0.05  -0.02   0.02    -0.04   0.03   0.00
 120   1     0.04   0.00  -0.06    -0.04  -0.00   0.04     0.03  -0.01  -0.03
 121   1     0.02  -0.00  -0.03    -0.02  -0.00   0.02     0.02  -0.02  -0.00
 122   1     0.02   0.02  -0.07    -0.02  -0.02   0.05     0.02  -0.00  -0.03
 123   1     0.01   0.02  -0.07    -0.01  -0.02   0.05     0.01   0.01  -0.05
 124   1    -0.03   0.03  -0.06     0.03  -0.02   0.04    -0.02   0.03  -0.04
 125   1    -0.01   0.04  -0.09     0.02  -0.03   0.07    -0.01   0.02  -0.05
 126   1     0.00  -0.01   0.01     0.00   0.01  -0.02     0.00  -0.02   0.03
 127   1     0.01  -0.02   0.04    -0.00   0.02  -0.05     0.01  -0.02   0.05
 128   1     0.00  -0.04  -0.01     0.03   0.00  -0.02     0.00   0.04   0.01
 129   1     0.01  -0.08  -0.02     0.05  -0.01  -0.01     0.00   0.09   0.02
 130   1     0.01  -0.08  -0.01     0.05  -0.02   0.02     0.00   0.10   0.02
 131   1     0.00  -0.04   0.00     0.03  -0.02   0.03     0.00   0.05   0.01
 132   1    -0.00  -0.00   0.00    -0.00  -0.01   0.04     0.00   0.00   0.01
                      7                      8                      9
                        a                      a                      a 
 Frequencies --    25.8179                30.3414                31.4967
 Red. masses --     8.8135                11.2451                 8.8338
 Frc consts  --     0.0000                 0.0000                 0.0000
 IR Inten    --     1.2538                 0.3468                 0.0104
 Raman Activ --     0.0000                 0.0000                 0.0000
 Depolar     --     0.0000                 0.0000                 0.0000
 Atom AN      X      Y      Z        X      Y      Z        X      Y      Z
   1   6    -0.00  -0.00   0.02     0.11   0.01  -0.11    -0.07   0.27  -0.19
   2   6     0.00   0.00   0.01     0.06  -0.04  -0.04    -0.01   0.00   0.02
   3   6     0.01   0.01   0.01     0.03  -0.13  -0.08    -0.01  -0.30  -0.12
   4   6     0.00   0.00   0.01     0.03  -0.06   0.02     0.04   0.05   0.33
   5   6     0.00  -0.00  -0.00     0.06   0.01   0.02    -0.01   0.00   0.03
   6   6     0.00  -0.00  -0.00     0.08   0.03   0.01    -0.03  -0.01  -0.07
   7   6     0.00  -0.00  -0.01     0.08   0.06   0.04    -0.03  -0.02  -0.08
   8   6    -0.00  -0.00  -0.01     0.05   0.08   0.06    -0.02  -0.01  -0.01
   9   6    -0.00  -0.00  -0.01     0.03   0.06   0.07    -0.00   0.00   0.05
  10   6     0.00  -0.00  -0.00     0.03   0.02   0.05    -0.00   0.01   0.08
  11   5    -0.00  -0.00  -0.01    -0.00   0.07   0.08     0.00   0.00   0.05
  12   6    -0.00  -0.00  -0.01    -0.03   0.06   0.06     0.00  -0.00   0.04
  13   6    -0.00  -0.00  -0.01    -0.03   0.02   0.05    -0.00   0.01   0.07
  14   6    -0.00  -0.00  -0.00    -0.06   0.00   0.01     0.01  -0.00   0.02
  15   6    -0.01  -0.00   0.00    -0.06  -0.04  -0.03     0.01  -0.00   0.03
  16   6    -0.00  -0.00   0.00    -0.03  -0.06   0.02    -0.04   0.03   0.31
  17   6    -0.01   0.00   0.00    -0.04  -0.12  -0.07    -0.01  -0.28  -0.10
  18   6    -0.00  -0.00   0.01    -0.11   0.00  -0.10     0.07   0.23  -0.15
  19   6    -0.01  -0.00  -0.00    -0.08   0.02  -0.01     0.03  -0.02  -0.10
  20   6    -0.00   0.00  -0.00    -0.08   0.06   0.01     0.03  -0.02  -0.11
  21   6    -0.00   0.00  -0.01    -0.05   0.07   0.05     0.02  -0.01  -0.04
  22   8    -0.00   0.00  -0.01    -0.06   0.12   0.06     0.02  -0.02  -0.06
  23   6    -0.00   0.00  -0.01    -0.02   0.12   0.06     0.01  -0.02  -0.02
  24   6    -0.00   0.00  -0.00    -0.02   0.14   0.04     0.01  -0.03  -0.03
  25   6    -0.00   0.00  -0.00    -0.00   0.15   0.03     0.00  -0.03  -0.02
  26   7    -0.00   0.00   0.00    -0.00   0.15   0.00     0.00  -0.04  -0.02
  27   6     0.00   0.01   0.01    -0.01   0.09  -0.01     0.01  -0.02  -0.01
  28   6     0.01   0.02   0.01    -0.02   0.17   0.01     0.01  -0.04  -0.01
  29   6     0.02   0.03   0.01    -0.02   0.11  -0.01     0.02  -0.02  -0.01
  30   6     0.02   0.02   0.02    -0.01  -0.04  -0.05     0.02   0.02   0.01
  31   6     0.01   0.01   0.02    -0.01  -0.12  -0.07     0.01   0.04   0.01
  32   6     0.00   0.01   0.01    -0.01  -0.05  -0.05     0.01   0.02   0.01
  33   7    -0.00  -0.00   0.02    -0.00  -0.13  -0.07     0.00   0.04   0.01
  34   6    -0.00  -0.01   0.02    -0.00  -0.13  -0.06     0.00   0.04   0.02
  35   6    -0.00   0.01  -0.00    -0.02  -0.13  -0.05     0.01   0.03   0.02
  36   6    -0.00   0.00   0.00    -0.02  -0.11  -0.02     0.01   0.03   0.01
  37   6    -0.00  -0.01   0.04    -0.00  -0.10  -0.01     0.00   0.02   0.01
  38   6    -0.00  -0.02   0.05     0.02  -0.12  -0.02    -0.00   0.03   0.01
  39   6    -0.00  -0.02   0.04     0.02  -0.13  -0.04    -0.00   0.03   0.01
  40   8    -0.00  -0.02   0.06     0.05  -0.13   0.00    -0.01   0.03   0.01
  41   6     0.00  -0.01   0.03     0.05  -0.09   0.01    -0.01   0.02   0.00
  42   6     0.01   0.02  -0.04     0.08  -0.08   0.02    -0.02   0.02   0.00
  43   6     0.01   0.03  -0.06     0.09  -0.04   0.02    -0.02   0.01  -0.00
  44   6     0.00  -0.01   0.01     0.07  -0.02   0.02    -0.02   0.00  -0.00
  45   6     0.01   0.00  -0.03     0.08   0.03   0.00    -0.02  -0.01  -0.00
  46   6    -0.03  -0.13   0.23     0.05   0.05   0.01    -0.01  -0.01  -0.01
  47   6     0.02  -0.16  -0.31     0.13   0.02  -0.01    -0.03  -0.01  -0.00
  48   6     0.03   0.33  -0.06     0.08   0.06  -0.00    -0.02  -0.01  -0.00
  49   6    -0.00  -0.04   0.07     0.04  -0.03   0.02    -0.01   0.01   0.00
  50   6    -0.00  -0.03   0.08     0.03  -0.06   0.01    -0.01   0.01   0.01
  51   5    -0.00  -0.03   0.07    -0.00  -0.07   0.01     0.00   0.01   0.01
  52   6     0.00  -0.02   0.05    -0.03  -0.06   0.01     0.01   0.01   0.01
  53   6     0.01  -0.04   0.07    -0.04  -0.03   0.01     0.01   0.00   0.01
  54   6     0.00  -0.01  -0.00    -0.07  -0.02   0.01     0.02   0.00   0.00
  55   6     0.01  -0.02   0.01    -0.08   0.03   0.00     0.02  -0.01   0.00
  56   6     0.04  -0.19  -0.26    -0.13   0.03  -0.00     0.03  -0.01  -0.01
  57   6    -0.06   0.28  -0.01    -0.07   0.05  -0.00     0.02  -0.00  -0.00
  58   6     0.04  -0.16   0.28    -0.05   0.05  -0.01     0.01  -0.01   0.01
  59   6    -0.01   0.06  -0.12    -0.09  -0.04   0.02     0.02   0.01   0.00
  60   6    -0.01   0.07  -0.13    -0.08  -0.07   0.02     0.02   0.01   0.01
  61   6    -0.00   0.02  -0.04    -0.05  -0.08   0.01     0.01   0.02   0.01
  62   8    -0.00   0.03  -0.04    -0.06  -0.13  -0.00     0.02   0.03   0.01
  63   6    -0.01  -0.01   0.01     0.00  -0.06  -0.05    -0.00   0.02   0.01
  64   6    -0.01  -0.01   0.01     0.01  -0.14  -0.07    -0.01   0.03   0.01
  65   6    -0.02  -0.02   0.01     0.02  -0.07  -0.05    -0.01   0.01   0.01
  66   6    -0.02  -0.02   0.00     0.02   0.08  -0.01    -0.02  -0.02  -0.01
  67   6    -0.01  -0.01   0.00     0.02   0.15   0.00    -0.01  -0.04  -0.01
  68   6    -0.01  -0.01   0.01     0.01   0.08  -0.01    -0.01  -0.02  -0.01
  69   6    -0.00   0.00  -0.01     0.02   0.14   0.04    -0.01  -0.03  -0.02
  70   6    -0.00   0.00  -0.01     0.02   0.12   0.07    -0.01  -0.02  -0.01
  71   6    -0.00   0.00  -0.01    -0.00   0.11   0.07     0.00  -0.01   0.00
  72   8    -0.00  -0.00  -0.02     0.06   0.12   0.09    -0.02  -0.02  -0.02
  73   1    -0.00  -0.00   0.01     0.03  -0.01  -0.05    -0.02   0.07  -0.06
  74   1    -0.00  -0.00   0.00     0.04   0.02  -0.02    -0.02   0.14  -0.03
  75   1    -0.00  -0.00   0.00     0.04   0.01  -0.04    -0.03   0.07  -0.12
  76   1     0.00   0.00   0.00    -0.00  -0.05  -0.01     0.01  -0.14   0.01
  77   1     0.00   0.00   0.00     0.01  -0.03  -0.03    -0.02  -0.10  -0.10
  78   1     0.00   0.00   0.01     0.01  -0.05  -0.04    -0.01  -0.09  -0.04
  79   1     0.00   0.00   0.00     0.00  -0.03   0.02     0.04  -0.03   0.13
  80   1    -0.00  -0.00   0.00     0.01  -0.00   0.01    -0.01   0.07   0.12
  81   1     0.00   0.00   0.00     0.01  -0.03  -0.00     0.01   0.02   0.11
  82   1     0.00  -0.00  -0.00     0.03   0.00  -0.01    -0.01  -0.01  -0.04
  83   1     0.00  -0.00  -0.00     0.03   0.02   0.01    -0.01  -0.01  -0.04
  84   1     0.00  -0.00  -0.00     0.00   0.00   0.02     0.00   0.01   0.04
  85   1    -0.00  -0.00  -0.00    -0.00   0.00   0.02    -0.00   0.00   0.04
  86   1    -0.00   0.00  -0.00    -0.00  -0.03   0.02    -0.04  -0.03   0.12
  87   1    -0.00  -0.00   0.00    -0.01  -0.03  -0.00    -0.01   0.01   0.10
  88   1    -0.00  -0.00  -0.00    -0.01  -0.00   0.01     0.01   0.06   0.11
  89   1    -0.00   0.00   0.00    -0.02  -0.03  -0.03     0.01  -0.09  -0.09
  90   1    -0.00   0.00   0.00    -0.00  -0.04  -0.01    -0.02  -0.13   0.01
  91   1    -0.00   0.00   0.00    -0.01  -0.05  -0.03    -0.00  -0.08  -0.03
  92   1    -0.00  -0.00   0.00    -0.03  -0.01  -0.04     0.02   0.06  -0.05
  93   1     0.00  -0.00   0.00    -0.04   0.02  -0.02     0.03   0.13  -0.02
  94   1    -0.00  -0.00   0.00    -0.04   0.00  -0.04     0.03   0.06  -0.11
  95   1    -0.00  -0.00   0.00    -0.03   0.00  -0.01     0.01  -0.01  -0.05
  96   1    -0.00   0.00  -0.00    -0.03   0.02   0.00     0.01  -0.01  -0.05
  97   1    -0.00   0.00   0.00    -0.01   0.04   0.01     0.00  -0.01  -0.01
  98   1     0.00   0.01   0.00    -0.01   0.08   0.01     0.00  -0.02  -0.01
  99   1     0.01   0.01   0.00    -0.01   0.05   0.00     0.01  -0.01  -0.00
 100   1     0.01   0.01   0.01    -0.00  -0.02  -0.02     0.01   0.01   0.00
 101   1     0.00   0.00   0.01    -0.00  -0.07  -0.03     0.00   0.02   0.01
 102   1    -0.00   0.01  -0.01    -0.01  -0.04  -0.02     0.00   0.01   0.00
 103   1    -0.00  -0.01   0.01     0.01  -0.04  -0.01    -0.00   0.01   0.00
 104   1     0.00   0.01  -0.02     0.03  -0.03   0.01    -0.01   0.01   0.00
 105   1     0.00   0.02  -0.04     0.03  -0.01   0.01    -0.01   0.00  -0.00
 106   1     0.01  -0.01   0.12     0.01   0.02   0.00    -0.00  -0.00  -0.00
 107   1    -0.01  -0.04   0.07     0.02   0.02   0.00    -0.00  -0.00  -0.00
 108   1    -0.03  -0.09   0.07     0.01   0.01   0.00    -0.00  -0.00  -0.00
 109   1     0.02  -0.03  -0.15     0.05   0.00  -0.00    -0.01  -0.00   0.00
 110   1     0.01  -0.04  -0.10     0.04   0.02  -0.01    -0.01  -0.00  -0.00
 111   1    -0.00  -0.12  -0.08     0.04   0.00  -0.00    -0.01  -0.00  -0.00
 112   1     0.01   0.13   0.04     0.01   0.02   0.00    -0.00  -0.00  -0.00
 113   1     0.01   0.09  -0.03     0.02   0.03  -0.00    -0.01  -0.01  -0.00
 114   1     0.01   0.13  -0.07     0.03   0.01  -0.00    -0.01  -0.00  -0.00
 115   1    -0.00  -0.02   0.03     0.01  -0.00   0.00    -0.00   0.00   0.00
 116   1     0.00  -0.02   0.04    -0.01  -0.00   0.00     0.00   0.00   0.00
 117   1     0.01  -0.05  -0.07    -0.04   0.02  -0.00     0.01  -0.01  -0.00
 118   1    -0.00  -0.03  -0.13    -0.04   0.00   0.00     0.01  -0.00  -0.00
 119   1     0.03  -0.12  -0.07    -0.04   0.01   0.00     0.01  -0.00  -0.00
 120   1    -0.03   0.12   0.05    -0.01   0.01  -0.00     0.01   0.00   0.00
 121   1    -0.02   0.12  -0.06    -0.03   0.01  -0.00     0.01   0.00  -0.00
 122   1    -0.02   0.08  -0.00    -0.02   0.02  -0.00     0.01  -0.00  -0.00
 123   1    -0.01  -0.02   0.13    -0.01   0.02  -0.00     0.00  -0.00   0.00
 124   1     0.04  -0.10   0.08    -0.02   0.01  -0.00     0.00  -0.00   0.00
 125   1     0.01  -0.06   0.09    -0.02   0.03  -0.00     0.00  -0.01   0.00
 126   1    -0.00   0.03  -0.06    -0.03  -0.01   0.01     0.01   0.00   0.00
 127   1    -0.01   0.03  -0.06    -0.03  -0.03   0.01     0.01   0.01   0.00
 128   1    -0.00  -0.00   0.01     0.00  -0.07  -0.03    -0.00   0.02   0.01
 129   1    -0.01  -0.01   0.00     0.00  -0.04  -0.02    -0.01   0.01   0.00
 130   1    -0.01  -0.01  -0.00     0.01   0.04   0.00    -0.01  -0.01  -0.00
 131   1    -0.00  -0.00  -0.00     0.01   0.08   0.01    -0.00  -0.02  -0.01
 132   1    -0.00   0.00  -0.00     0.01   0.04   0.01    -0.00  -0.01  -0.01
                     10                     11                     12
                        a                      a                      a 
 Frequencies --    34.6606                35.2997                43.7650
 Red. masses --    11.0366                 9.5114                 8.9438
 Frc consts  --     0.0000                 0.0000                 0.0000
 IR Inten    --     0.3135                16.4991                 6.5388
 Raman Activ --     0.0000                 0.0000                 0.0000
 Depolar     --     0.0000                 0.0000                 0.0000
 Atom AN      X      Y      Z        X      Y      Z        X      Y      Z
   1   6    -0.08   0.01   0.19    -0.01  -0.00   0.04    -0.08   0.33  -0.14
   2   6     0.04   0.01   0.12     0.02  -0.00   0.02    -0.02   0.10   0.05
   3   6     0.18   0.01   0.14     0.05   0.00   0.03    -0.06  -0.16  -0.07
   4   6     0.05   0.02   0.21     0.02   0.00   0.04     0.05   0.16   0.30
   5   6     0.02  -0.01  -0.01     0.01  -0.00  -0.00    -0.01   0.06   0.07
   6   6     0.00  -0.02  -0.15     0.01  -0.00  -0.03    -0.04   0.04   0.03
   7   6    -0.01  -0.03  -0.24     0.01  -0.01  -0.05    -0.03   0.01   0.02
   8   6    -0.00  -0.02  -0.18     0.01  -0.00  -0.04    -0.00   0.01   0.03
   9   6     0.00  -0.01  -0.06     0.01  -0.00  -0.01     0.01   0.02   0.04
  10   6     0.02   0.00   0.02     0.01   0.00   0.00     0.01   0.05   0.07
  11   5     0.00   0.00   0.01     0.01   0.00   0.00     0.02  -0.00  -0.00
  12   6     0.00   0.01   0.07     0.01   0.00   0.02     0.01  -0.02  -0.05
  13   6     0.02   0.00  -0.01     0.01   0.00  -0.00     0.01  -0.05  -0.08
  14   6     0.02   0.01   0.01     0.01   0.00   0.00    -0.01  -0.06  -0.07
  15   6     0.04  -0.01  -0.13     0.02  -0.00  -0.03    -0.02  -0.10  -0.05
  16   6     0.05  -0.02  -0.17     0.02  -0.00  -0.04     0.06  -0.16  -0.34
  17   6     0.18  -0.06  -0.16     0.05  -0.00  -0.03    -0.05   0.19   0.08
  18   6    -0.08   0.02  -0.22    -0.01  -0.00  -0.04    -0.08  -0.36   0.16
  19   6     0.00   0.02   0.14     0.01   0.01   0.03    -0.04  -0.04  -0.01
  20   6    -0.01   0.03   0.23     0.00   0.01   0.05    -0.03  -0.01  -0.00
  21   6    -0.01   0.03   0.19     0.00   0.01   0.04    -0.00  -0.01  -0.03
  22   8    -0.01   0.03   0.30     0.00   0.01   0.07    -0.00  -0.00  -0.02
  23   6    -0.01   0.02   0.13     0.00   0.01   0.03     0.01   0.00  -0.01
  24   6    -0.01   0.02   0.13     0.01   0.01   0.03     0.01   0.00  -0.01
  25   6    -0.01   0.00   0.00     0.00   0.00   0.00     0.00  -0.00  -0.00
  26   7    -0.01   0.00   0.00     0.00   0.00   0.00     0.00  -0.00  -0.00
  27   6    -0.01  -0.01  -0.00     0.00  -0.01  -0.00     0.01   0.00  -0.00
  28   6    -0.02  -0.01   0.00     0.00  -0.02  -0.00     0.01   0.00  -0.00
  29   6    -0.02  -0.03  -0.00    -0.00  -0.03  -0.01     0.01   0.00  -0.00
  30   6    -0.02  -0.05  -0.01    -0.00  -0.03  -0.01     0.01   0.01   0.00
  31   6    -0.01  -0.05  -0.01     0.00  -0.02  -0.01     0.00   0.00   0.00
  32   6    -0.01  -0.02  -0.01     0.00  -0.01  -0.00     0.00   0.00  -0.00
  33   7    -0.01  -0.00  -0.00     0.00  -0.01  -0.00     0.01   0.00  -0.00
  34   6    -0.01  -0.00  -0.00     0.00  -0.01   0.00     0.01   0.00  -0.00
  35   6    -0.01   0.01  -0.02     0.00  -0.04   0.07     0.01  -0.00   0.00
  36   6    -0.01   0.01  -0.02     0.00  -0.04   0.07     0.01  -0.00   0.00
  37   6    -0.01  -0.00  -0.00     0.00  -0.01   0.01     0.01   0.00   0.00
  38   6    -0.01  -0.01   0.01     0.00   0.03  -0.06     0.01   0.00  -0.00
  39   6    -0.01  -0.01   0.01     0.00   0.03  -0.06     0.01   0.00  -0.00
  40   8    -0.01  -0.02   0.03     0.01   0.07  -0.14     0.01   0.00  -0.01
  41   6    -0.01  -0.01   0.02     0.00   0.05  -0.10     0.01   0.00  -0.00
  42   6    -0.01  -0.01   0.03    -0.00   0.06  -0.13     0.01   0.00  -0.00
  43   6    -0.01  -0.01   0.02    -0.01   0.03  -0.11     0.01   0.00  -0.00
  44   6    -0.01  -0.00   0.02    -0.01   0.01  -0.07     0.01   0.00  -0.00
  45   6    -0.01   0.01   0.00    -0.02  -0.04  -0.01     0.01   0.00  -0.00
  46   6    -0.02  -0.01   0.05     0.02   0.04  -0.20     0.01   0.00   0.00
  47   6     0.01  -0.02  -0.05    -0.10   0.09   0.22     0.01   0.00  -0.00
  48   6    -0.01   0.07  -0.01    -0.00  -0.32   0.03     0.01   0.01   0.00
  49   6    -0.01  -0.00   0.01    -0.00   0.00  -0.05     0.01   0.00   0.00
  50   6    -0.01  -0.00   0.01     0.00   0.02  -0.05     0.01   0.00  -0.00
  51   5    -0.01   0.00  -0.00     0.00  -0.01   0.01     0.01  -0.00   0.00
  52   6    -0.01   0.01  -0.02     0.00  -0.03   0.07     0.01  -0.00   0.00
  53   6    -0.01   0.00  -0.02    -0.00  -0.01   0.07     0.01  -0.00   0.00
  54   6    -0.01   0.00  -0.02    -0.01  -0.01   0.07     0.01  -0.00   0.00
  55   6    -0.01  -0.01  -0.00    -0.03   0.04   0.01     0.01  -0.00  -0.00
  56   6     0.01   0.03   0.06    -0.11  -0.12  -0.27     0.01  -0.00  -0.00
  57   6    -0.01  -0.09   0.01    -0.02   0.38  -0.04     0.01  -0.00  -0.00
  58   6    -0.02   0.02  -0.06     0.02  -0.07   0.24     0.01  -0.00  -0.00
  59   6    -0.01   0.00  -0.02    -0.02  -0.02   0.08     0.01  -0.00   0.01
  60   6    -0.01   0.01  -0.02    -0.01  -0.05   0.11     0.01  -0.00   0.01
  61   6    -0.01   0.01  -0.02    -0.00  -0.05   0.10     0.01  -0.00   0.01
  62   8    -0.01   0.02  -0.03    -0.00  -0.08   0.14     0.01  -0.00   0.01
  63   6    -0.01   0.02   0.00     0.00   0.01   0.00     0.00  -0.00  -0.00
  64   6    -0.01   0.04   0.01    -0.00   0.01   0.00     0.00  -0.00  -0.00
  65   6    -0.01   0.05   0.01    -0.00   0.02   0.01     0.00  -0.00  -0.00
  66   6    -0.01   0.03   0.00    -0.00   0.03   0.01     0.01  -0.00  -0.00
  67   6    -0.01   0.01  -0.00     0.00   0.03   0.00     0.01  -0.00  -0.00
  68   6    -0.01   0.01   0.00     0.00   0.01   0.00     0.01  -0.00  -0.00
  69   6    -0.00  -0.01  -0.12     0.01   0.00  -0.03     0.01  -0.00   0.01
  70   6    -0.00  -0.01  -0.12     0.01   0.00  -0.02     0.01  -0.00   0.01
  71   6     0.00   0.00   0.01     0.01   0.00   0.00     0.01  -0.00  -0.00
  72   8    -0.01  -0.02  -0.28     0.01  -0.00  -0.06    -0.00  -0.00   0.02
  73   1    -0.02   0.01   0.09    -0.00   0.00   0.02    -0.03   0.10  -0.05
  74   1    -0.06   0.00   0.05    -0.01  -0.00   0.01    -0.02   0.15  -0.01
  75   1    -0.03   0.00   0.04    -0.00  -0.00   0.01    -0.03   0.09  -0.09
  76   1     0.07   0.00   0.03     0.02   0.00   0.01    -0.00  -0.09   0.02
  77   1     0.05   0.00   0.02     0.01   0.00   0.01    -0.04  -0.06  -0.07
  78   1     0.06   0.01   0.07     0.02   0.00   0.01    -0.02  -0.04  -0.03
  79   1     0.04   0.00   0.05     0.01  -0.00   0.01     0.05   0.01   0.11
  80   1    -0.01   0.01   0.06     0.00   0.00   0.01    -0.00   0.08   0.10
  81   1     0.02   0.01   0.09     0.01   0.00   0.02     0.02   0.06   0.10
  82   1     0.00  -0.01  -0.05     0.00  -0.00  -0.01    -0.02   0.01  -0.00
  83   1    -0.01  -0.01  -0.10     0.00  -0.00  -0.02    -0.01  -0.00   0.00
  84   1     0.01   0.00   0.03     0.00   0.00   0.01     0.01   0.02   0.03
  85   1     0.01  -0.00  -0.03     0.00  -0.00  -0.01     0.01  -0.02  -0.04
  86   1     0.03  -0.01  -0.04     0.01  -0.00  -0.01     0.05  -0.00  -0.12
  87   1     0.02  -0.01  -0.08     0.01  -0.00  -0.02     0.02  -0.06  -0.11
  88   1    -0.01  -0.00  -0.05     0.00  -0.00  -0.01    -0.00  -0.09  -0.12
  89   1     0.05  -0.01  -0.04     0.01  -0.00  -0.01    -0.04   0.07   0.08
  90   1     0.08  -0.02  -0.03     0.02  -0.00  -0.01    -0.00   0.11  -0.02
  91   1     0.06  -0.02  -0.08     0.01  -0.00  -0.02    -0.02   0.05   0.03
  92   1    -0.02  -0.00  -0.10    -0.00  -0.00  -0.02    -0.03  -0.11   0.06
  93   1    -0.06   0.01  -0.06    -0.01   0.00  -0.01    -0.02  -0.17   0.02
  94   1    -0.03   0.01  -0.06    -0.00   0.00  -0.01    -0.03  -0.10   0.11
  95   1     0.00   0.01   0.04     0.00   0.00   0.01    -0.02  -0.01   0.01
  96   1    -0.01   0.01   0.09     0.00   0.00   0.02    -0.02   0.00   0.01
  97   1    -0.00   0.01   0.07     0.00   0.00   0.01     0.00  -0.00  -0.01
  98   1    -0.01   0.00   0.00     0.00  -0.01   0.00     0.00  -0.00  -0.00
  99   1    -0.01  -0.01  -0.00    -0.00  -0.01  -0.00     0.00   0.00  -0.00
 100   1    -0.01  -0.02  -0.01    -0.00  -0.01  -0.00     0.00   0.00   0.00
 101   1    -0.00  -0.02  -0.01     0.00  -0.00  -0.00     0.00   0.00   0.00
 102   1    -0.00   0.00  -0.01     0.00  -0.02   0.03     0.00  -0.00   0.00
 103   1    -0.00  -0.00   0.01     0.00   0.02  -0.03     0.00   0.00  -0.00
 104   1    -0.00  -0.01   0.01    -0.00   0.02  -0.05     0.00   0.00  -0.00
 105   1    -0.00  -0.00   0.01    -0.01   0.01  -0.03     0.00   0.00  -0.00
 106   1    -0.00   0.00   0.02    -0.00  -0.01  -0.09     0.00   0.00   0.00
 107   1    -0.00  -0.00   0.01     0.00   0.01  -0.06     0.00   0.00   0.00
 108   1    -0.01  -0.01   0.01     0.02   0.05  -0.06     0.00   0.00   0.00
 109   1     0.01  -0.00  -0.02    -0.05   0.02   0.11     0.00   0.00  -0.00
 110   1     0.00  -0.00  -0.02    -0.04   0.01   0.08     0.00   0.00  -0.00
 111   1     0.00  -0.02  -0.01    -0.03   0.09   0.06     0.00   0.00  -0.00
 112   1    -0.00   0.03   0.01     0.01  -0.12  -0.04     0.00   0.00   0.00
 113   1    -0.00   0.02  -0.01    -0.00  -0.10   0.03     0.00   0.00   0.00
 114   1    -0.00   0.03  -0.01     0.00  -0.12   0.05     0.00   0.00  -0.00
 115   1    -0.00   0.00   0.00     0.00  -0.01  -0.01     0.00   0.00   0.00
 116   1    -0.00   0.00  -0.00     0.00  -0.00   0.02     0.00  -0.00  -0.00
 117   1     0.00   0.01   0.02    -0.04  -0.01  -0.09     0.00  -0.00  -0.00
 118   1     0.01   0.01   0.03    -0.05  -0.02  -0.13     0.00  -0.00   0.00
 119   1     0.00   0.03   0.02    -0.03  -0.11  -0.07     0.00  -0.00  -0.00
 120   1    -0.00  -0.03  -0.01     0.00   0.15   0.05     0.00  -0.00  -0.00
 121   1    -0.00  -0.03   0.01    -0.00   0.14  -0.06     0.00  -0.00  -0.00
 122   1    -0.00  -0.03   0.01    -0.01   0.11  -0.03     0.00  -0.00  -0.00
 123   1    -0.00  -0.00  -0.03    -0.00   0.01   0.11     0.00  -0.00  -0.00
 124   1    -0.01   0.02  -0.02     0.03  -0.07   0.07     0.00  -0.00  -0.00
 125   1    -0.01   0.01  -0.02     0.01  -0.02   0.07     0.00  -0.00  -0.00
 126   1    -0.00  -0.00  -0.00    -0.01  -0.00   0.02     0.00  -0.00   0.00
 127   1    -0.00   0.00  -0.01    -0.01  -0.02   0.04     0.00  -0.00   0.00
 128   1    -0.00   0.01   0.00    -0.00  -0.00   0.00     0.00  -0.00  -0.00
 129   1    -0.00   0.02   0.00    -0.00   0.01   0.00     0.00  -0.00  -0.00
 130   1    -0.00   0.01   0.00    -0.00   0.01   0.00     0.00  -0.00  -0.00
 131   1    -0.00  -0.00  -0.00     0.00   0.01   0.00     0.00   0.00  -0.00
 132   1    -0.00  -0.00  -0.06     0.00   0.00  -0.01     0.00   0.00   0.01
                     13                     14                     15
                        a                      a                      a 
 Frequencies --    45.9601                55.0791                57.7549
 Red. masses --    10.9939                10.6116                11.0040
 Frc consts  --     0.0000                 0.0000                 0.0000
 IR Inten    --     1.3539                 0.2161                 2.2096
 Raman Activ --     0.0000                 0.0000                 0.0000
 Depolar     --     0.0000                 0.0000                 0.0000
 Atom AN      X      Y      Z        X      Y      Z        X      Y      Z
   1   6     0.03  -0.00  -0.07    -0.10   0.00   0.09    -0.08   0.03   0.00
   2   6    -0.04  -0.01  -0.03     0.01   0.01   0.02    -0.06   0.02   0.00
   3   6    -0.13  -0.01  -0.04     0.12   0.04   0.04    -0.08   0.02   0.00
   4   6    -0.05  -0.01  -0.09     0.03   0.03   0.08    -0.03   0.04   0.00
   5   6    -0.03  -0.00   0.06    -0.01  -0.01  -0.09    -0.05  -0.02   0.01
   6   6    -0.03  -0.00   0.10    -0.02  -0.02  -0.14    -0.06  -0.03   0.02
   7   6    -0.02  -0.01   0.13    -0.02  -0.03  -0.15    -0.06  -0.06   0.02
   8   6    -0.01  -0.01   0.11    -0.01  -0.02  -0.10    -0.03  -0.07   0.01
   9   6    -0.01  -0.01   0.10    -0.00  -0.02  -0.10    -0.02  -0.05  -0.00
  10   6    -0.01  -0.00   0.08    -0.00  -0.01  -0.09    -0.02  -0.03  -0.00
  11   5    -0.00  -0.01   0.10     0.00  -0.01  -0.08    -0.00  -0.06  -0.01
  12   6     0.01  -0.01   0.10     0.01  -0.02  -0.10     0.02  -0.05   0.00
  13   6     0.01  -0.00   0.08     0.00  -0.01  -0.09     0.02  -0.03   0.00
  14   6     0.03  -0.00   0.06     0.01  -0.01  -0.08     0.05  -0.01   0.01
  15   6     0.04  -0.00  -0.03    -0.01   0.01   0.02     0.05   0.02   0.00
  16   6     0.04  -0.01  -0.08    -0.03   0.03   0.08     0.02   0.04   0.00
  17   6     0.13  -0.02  -0.05    -0.12   0.04   0.05     0.08   0.02   0.00
  18   6    -0.03   0.00  -0.08     0.10   0.00   0.09     0.07   0.04  -0.00
  19   6     0.03  -0.00   0.10     0.02  -0.02  -0.14     0.06  -0.03   0.03
  20   6     0.02  -0.01   0.12     0.02  -0.02  -0.15     0.06  -0.05   0.03
  21   6     0.01  -0.01   0.11     0.01  -0.02  -0.10     0.03  -0.07   0.02
  22   8     0.02  -0.03   0.10     0.00  -0.02  -0.06     0.03  -0.10   0.01
  23   6     0.01  -0.03   0.03    -0.00  -0.01   0.02     0.01  -0.10  -0.01
  24   6     0.01  -0.05  -0.05    -0.00   0.00   0.11     0.01  -0.11  -0.02
  25   6     0.00  -0.05  -0.09     0.00   0.00   0.15    -0.00  -0.11  -0.03
  26   7     0.00  -0.05  -0.13     0.00   0.02   0.11    -0.00  -0.09  -0.03
  27   6    -0.01  -0.01  -0.12    -0.07   0.02   0.06     0.00   0.02  -0.01
  28   6    -0.01  -0.05  -0.12    -0.14   0.01   0.10     0.01   0.15   0.01
  29   6    -0.02  -0.01  -0.12    -0.21   0.02   0.06     0.02   0.32   0.05
  30   6    -0.03   0.07  -0.11    -0.21   0.03  -0.02     0.02   0.33   0.07
  31   6    -0.02   0.11  -0.11    -0.14   0.03  -0.06     0.01   0.17   0.05
  32   6    -0.01   0.07  -0.11    -0.07   0.03  -0.02     0.00   0.03   0.01
  33   7     0.00   0.12  -0.12     0.00   0.03  -0.07    -0.00  -0.08  -0.02
  34   6     0.00   0.11  -0.10    -0.00   0.04  -0.11    -0.00  -0.09  -0.02
  35   6     0.01   0.08  -0.05     0.00   0.03  -0.09    -0.01  -0.09  -0.03
  36   6     0.01   0.03   0.03    -0.00   0.01  -0.04    -0.01  -0.08  -0.04
  37   6    -0.00   0.01   0.06    -0.00  -0.00  -0.03    -0.00  -0.07  -0.04
  38   6    -0.01   0.03   0.02    -0.00   0.01  -0.05     0.01  -0.08  -0.04
  39   6    -0.01   0.09  -0.06    -0.00   0.03  -0.10     0.01  -0.09  -0.03
  40   8    -0.02  -0.00   0.10     0.00  -0.02   0.01     0.03  -0.08  -0.04
  41   6    -0.02  -0.03   0.12    -0.00  -0.04   0.05     0.03  -0.05  -0.04
  42   6    -0.04  -0.05   0.15    -0.01  -0.07   0.12     0.06  -0.04  -0.03
  43   6    -0.04  -0.05   0.13    -0.01  -0.07   0.12     0.06  -0.02  -0.02
  44   6    -0.02  -0.03   0.07    -0.00  -0.04   0.07     0.04  -0.01  -0.01
  45   6    -0.01   0.01  -0.03     0.01   0.01  -0.00     0.05   0.01   0.01
  46   6     0.01   0.01  -0.07     0.01   0.02  -0.02     0.02   0.03   0.03
  47   6     0.10  -0.02  -0.09     0.11  -0.01  -0.05     0.06   0.02   0.02
  48   6    -0.12   0.07  -0.08    -0.06   0.07  -0.04     0.08   0.01   0.03
  49   6    -0.01  -0.03   0.09    -0.00  -0.03   0.05     0.02  -0.01  -0.03
  50   6    -0.01  -0.03   0.11    -0.00  -0.03   0.04     0.02  -0.04  -0.04
  51   5    -0.00  -0.02   0.10    -0.00  -0.02   0.01    -0.00  -0.04  -0.04
  52   6     0.01  -0.03   0.11     0.00  -0.03   0.04    -0.02  -0.04  -0.04
  53   6     0.01  -0.03   0.09     0.00  -0.03   0.05    -0.02  -0.02  -0.03
  54   6     0.02  -0.03   0.07    -0.00  -0.04   0.07    -0.04  -0.01  -0.01
  55   6     0.01   0.01  -0.04    -0.01   0.01  -0.00    -0.05   0.01   0.01
  56   6    -0.10  -0.01  -0.09    -0.11  -0.01  -0.05    -0.05   0.01   0.02
  57   6     0.12   0.07  -0.08     0.06   0.07  -0.04    -0.08   0.01   0.02
  58   6    -0.01   0.01  -0.07    -0.01   0.02  -0.02    -0.02   0.02   0.03
  59   6     0.04  -0.05   0.13     0.00  -0.07   0.13    -0.06  -0.02  -0.02
  60   6     0.04  -0.05   0.15     0.00  -0.07   0.12    -0.05  -0.04  -0.03
  61   6     0.02  -0.03   0.12     0.00  -0.04   0.06    -0.03  -0.05  -0.04
  62   8     0.02  -0.01   0.10    -0.00  -0.02   0.01    -0.03  -0.08  -0.04
  63   6     0.01   0.07  -0.11     0.07   0.03  -0.02    -0.00   0.03   0.01
  64   6     0.02   0.10  -0.11     0.14   0.04  -0.06    -0.01   0.16   0.04
  65   6     0.03   0.06  -0.12     0.21   0.04  -0.02    -0.02   0.33   0.07
  66   6     0.03  -0.02  -0.12     0.21   0.02   0.06    -0.02   0.33   0.05
  67   6     0.02  -0.06  -0.12     0.14   0.01   0.10    -0.01   0.16   0.01
  68   6     0.01  -0.01  -0.12     0.07   0.02   0.06    -0.00   0.03  -0.01
  69   6    -0.01  -0.05  -0.06     0.00   0.00   0.12    -0.01  -0.11  -0.02
  70   6    -0.01  -0.03   0.03     0.00  -0.01   0.03    -0.01  -0.10  -0.01
  71   6    -0.00  -0.03   0.06     0.00  -0.01  -0.01    -0.00  -0.09  -0.01
  72   8    -0.02  -0.03   0.10    -0.00  -0.02  -0.05    -0.03  -0.10   0.01
  73   1     0.01   0.00  -0.04    -0.02   0.00   0.06    -0.02   0.02  -0.00
  74   1     0.03  -0.00  -0.02    -0.06  -0.00   0.02    -0.02   0.01   0.00
  75   1     0.01  -0.00  -0.01    -0.03   0.00   0.01    -0.03   0.01   0.00
  76   1    -0.06  -0.00  -0.00     0.06   0.01  -0.00    -0.02   0.00   0.00
  77   1    -0.04  -0.00  -0.00     0.03   0.01   0.00    -0.03   0.00   0.00
  78   1    -0.04  -0.01  -0.03     0.04   0.02   0.04    -0.03   0.01  -0.00
  79   1    -0.03  -0.00  -0.02     0.03   0.01   0.01    -0.00   0.01  -0.00
  80   1     0.01  -0.00  -0.03    -0.01   0.01   0.02    -0.00   0.01   0.00
  81   1    -0.02  -0.00  -0.05     0.01   0.01   0.05    -0.01   0.02   0.00
  82   1    -0.01   0.00   0.03    -0.01  -0.01  -0.05    -0.02  -0.01   0.01
  83   1    -0.01  -0.00   0.04    -0.01  -0.01  -0.05    -0.02  -0.02   0.01
  84   1    -0.00  -0.00   0.02     0.00  -0.00  -0.02    -0.00  -0.00  -0.00
  85   1     0.00   0.00   0.02    -0.00  -0.00  -0.02     0.00  -0.00  -0.00
  86   1     0.03  -0.00  -0.02    -0.03   0.01   0.01     0.00   0.01   0.00
  87   1     0.02  -0.00  -0.04    -0.01   0.01   0.05     0.01   0.02   0.00
  88   1    -0.01  -0.00  -0.02     0.01   0.01   0.02     0.00   0.01   0.00
  89   1     0.04  -0.00  -0.00    -0.03   0.01   0.00     0.03   0.00   0.00
  90   1     0.06  -0.00  -0.00    -0.06   0.01  -0.00     0.02   0.00   0.00
  91   1     0.04  -0.01  -0.03    -0.04   0.02   0.04     0.03   0.01  -0.00
  92   1    -0.00   0.00  -0.05     0.02   0.00   0.06     0.02   0.02  -0.00
  93   1    -0.03   0.00  -0.02     0.06  -0.00   0.02     0.02   0.01  -0.00
  94   1    -0.01   0.00  -0.01     0.03   0.00   0.01     0.03   0.01  -0.00
  95   1     0.01   0.00   0.03     0.01  -0.01  -0.04     0.02  -0.01   0.01
  96   1     0.01  -0.00   0.04     0.01  -0.01  -0.05     0.02  -0.02   0.01
  97   1     0.00  -0.02  -0.02    -0.00   0.00   0.04     0.00  -0.03  -0.00
  98   1    -0.00  -0.03  -0.04    -0.04   0.00   0.05     0.00   0.04  -0.00
  99   1    -0.01  -0.01  -0.04    -0.08   0.01   0.03     0.01   0.13   0.02
 100   1    -0.01   0.03  -0.03    -0.08   0.01  -0.02     0.01   0.13   0.03
 101   1    -0.01   0.05  -0.03    -0.04   0.01  -0.04     0.00   0.05   0.02
 102   1     0.00   0.03  -0.02     0.00   0.01  -0.03    -0.00  -0.03  -0.01
 103   1    -0.00   0.03  -0.02    -0.00   0.01  -0.03     0.00  -0.03  -0.01
 104   1    -0.01  -0.02   0.05    -0.00  -0.02   0.04     0.02  -0.02  -0.01
 105   1    -0.01  -0.02   0.04    -0.00  -0.02   0.05     0.02  -0.01  -0.00
 106   1    -0.02   0.01  -0.01    -0.01   0.01  -0.00     0.01   0.01   0.01
 107   1     0.01   0.01  -0.04     0.01   0.01  -0.02     0.01   0.01   0.01
 108   1     0.02  -0.01  -0.01     0.01  -0.00  -0.00    -0.00   0.01   0.01
 109   1     0.03  -0.01  -0.02     0.03  -0.01  -0.01     0.02   0.00   0.00
 110   1     0.03   0.01  -0.05     0.04   0.01  -0.03     0.02   0.01   0.01
 111   1     0.05  -0.02  -0.02     0.05  -0.02  -0.01     0.01   0.01   0.00
 112   1    -0.06   0.02  -0.01    -0.04   0.02  -0.00     0.02   0.00   0.01
 113   1    -0.03   0.03  -0.05    -0.01   0.03  -0.03     0.03   0.01   0.01
 114   1    -0.04   0.02  -0.02    -0.02   0.02  -0.01     0.03   0.00   0.01
 115   1    -0.00  -0.01   0.02    -0.00  -0.00   0.01     0.00  -0.00  -0.01
 116   1     0.00  -0.01   0.02     0.00  -0.00   0.01    -0.00  -0.00  -0.01
 117   1    -0.03   0.01  -0.05    -0.04   0.01  -0.03    -0.02   0.01   0.01
 118   1    -0.03  -0.01  -0.02    -0.04  -0.01  -0.01    -0.02   0.00   0.00
 119   1    -0.05  -0.02  -0.02    -0.05  -0.02  -0.01    -0.01   0.00   0.00
 120   1     0.06   0.02  -0.01     0.04   0.02  -0.00    -0.02   0.00   0.01
 121   1     0.04   0.02  -0.02     0.02   0.02  -0.01    -0.03   0.00   0.00
 122   1     0.03   0.03  -0.05     0.02   0.03  -0.03    -0.02   0.01   0.01
 123   1     0.01   0.01  -0.01     0.01   0.01  -0.00    -0.01   0.01   0.01
 124   1    -0.02  -0.01  -0.01    -0.01  -0.00  -0.00     0.00   0.01   0.01
 125   1    -0.01   0.01  -0.04    -0.01   0.01  -0.02    -0.01   0.01   0.01
 126   1     0.01  -0.02   0.04     0.00  -0.02   0.05    -0.02  -0.01  -0.00
 127   1     0.01  -0.02   0.05     0.00  -0.03   0.04    -0.02  -0.02  -0.01
 128   1     0.01   0.05  -0.03     0.04   0.01  -0.03    -0.00   0.04   0.02
 129   1     0.01   0.03  -0.03     0.08   0.01  -0.01    -0.01   0.13   0.03
 130   1     0.01  -0.02  -0.04     0.08   0.01   0.03    -0.01   0.13   0.02
 131   1     0.00  -0.03  -0.04     0.04  -0.00   0.05    -0.00   0.04  -0.00
 132   1    -0.00  -0.02  -0.02     0.00   0.00   0.04    -0.00  -0.03  -0.00
                     16                     17                     18
                        a                      a                      a 
 Frequencies --    60.7799                64.3901                73.3049
 Red. masses --    10.1525                10.0017                10.2388
 Frc consts  --     0.0000                 0.0000                 0.0000
 IR Inten    --     0.9364                 5.7532                 0.1828
 Raman Activ --     0.0000                 0.0000                 0.0000
 Depolar     --     0.0000                 0.0000                 0.0000
 Atom AN      X      Y      Z        X      Y      Z        X      Y      Z
   1   6     0.09  -0.04  -0.02    -0.11   0.14   0.00    -0.03  -0.01   0.02
   2   6     0.06  -0.08   0.03    -0.06   0.18  -0.07    -0.01  -0.00  -0.00
   3   6     0.07  -0.14   0.00    -0.11   0.30  -0.02     0.01   0.01   0.01
   4   6     0.04  -0.09   0.08    -0.00   0.23  -0.17    -0.00   0.00   0.00
   5   6     0.06  -0.04   0.03    -0.04   0.09  -0.06    -0.01  -0.01  -0.02
   6   6     0.07  -0.02   0.05    -0.08   0.06  -0.09    -0.01  -0.01  -0.04
   7   6     0.07  -0.01   0.05    -0.06   0.01  -0.07    -0.01  -0.01  -0.03
   8   6     0.04  -0.00   0.02    -0.01  -0.00  -0.04    -0.01  -0.01  -0.00
   9   6     0.03  -0.01   0.01     0.02   0.02  -0.01    -0.00  -0.00   0.01
  10   6     0.03  -0.03   0.01     0.01   0.08  -0.01    -0.00  -0.00   0.00
  11   5     0.02  -0.00  -0.00     0.04   0.00   0.00    -0.00  -0.00   0.02
  12   6     0.03   0.01  -0.01     0.02  -0.02   0.01     0.00  -0.00   0.01
  13   6     0.03   0.03  -0.01     0.02  -0.08   0.02     0.00  -0.00   0.00
  14   6     0.06   0.04  -0.03    -0.04  -0.09   0.06     0.01  -0.00  -0.02
  15   6     0.07   0.08  -0.03    -0.06  -0.19   0.07     0.01  -0.00  -0.00
  16   6     0.04   0.09  -0.08     0.00  -0.23   0.18     0.00   0.00   0.00
  17   6     0.08   0.14   0.00    -0.10  -0.30   0.02    -0.02   0.01   0.01
  18   6     0.09   0.04   0.02    -0.11  -0.14  -0.00     0.03  -0.01   0.02
  19   6     0.07   0.02  -0.05    -0.08  -0.06   0.08     0.01  -0.01  -0.04
  20   6     0.07   0.00  -0.04    -0.06  -0.01   0.07     0.01  -0.01  -0.04
  21   6     0.04  -0.00  -0.02    -0.01   0.00   0.04     0.01  -0.01  -0.00
  22   8     0.04  -0.01  -0.02    -0.00   0.01   0.03     0.00  -0.01   0.01
  23   6     0.03  -0.01  -0.01     0.02   0.01   0.01     0.00  -0.00   0.02
  24   6     0.03  -0.00  -0.01     0.02   0.01   0.01     0.00  -0.01   0.02
  25   6     0.02  -0.00  -0.00     0.02   0.00   0.00    -0.00  -0.01   0.02
  26   7     0.02  -0.00  -0.00     0.02   0.00   0.00    -0.00  -0.00  -0.01
  27   6     0.01   0.00  -0.00     0.02   0.00   0.00    -0.02   0.01  -0.02
  28   6     0.01   0.00  -0.00     0.03   0.00   0.00    -0.04   0.02  -0.00
  29   6     0.01   0.01  -0.00     0.03   0.00   0.00    -0.06   0.03  -0.01
  30   6     0.01   0.01   0.00     0.03  -0.00  -0.00    -0.06   0.02  -0.04
  31   6     0.01   0.00   0.00     0.03  -0.01   0.00    -0.04   0.01  -0.05
  32   6     0.01   0.00  -0.00     0.02  -0.00   0.00    -0.02   0.01  -0.04
  33   7    -0.00  -0.00  -0.00     0.03  -0.00  -0.00    -0.00   0.02  -0.06
  34   6    -0.01  -0.00  -0.00     0.03  -0.00  -0.00     0.00   0.02  -0.04
  35   6    -0.01   0.00  -0.02     0.03   0.00  -0.01    -0.01   0.02  -0.02
  36   6    -0.01  -0.00  -0.02     0.04  -0.00  -0.01    -0.01  -0.02   0.08
  37   6     0.00  -0.00  -0.00     0.04  -0.00  -0.00     0.00  -0.06   0.17
  38   6    -0.01  -0.00   0.02     0.04   0.00   0.01     0.01  -0.02   0.08
  39   6    -0.01  -0.01   0.02     0.03  -0.00   0.01     0.01   0.01  -0.01
  40   8    -0.03  -0.02   0.05     0.03  -0.01   0.03     0.03   0.00   0.07
  41   6    -0.03  -0.02   0.03     0.02  -0.01   0.01     0.03   0.01   0.05
  42   6    -0.09  -0.05   0.05    -0.01  -0.02   0.02     0.05   0.13  -0.21
  43   6    -0.11  -0.09   0.02    -0.01  -0.05   0.01     0.05   0.14  -0.25
  44   6    -0.07  -0.10  -0.03     0.01  -0.05  -0.02     0.03   0.02  -0.03
  45   6    -0.09  -0.18  -0.07    -0.01  -0.11  -0.04     0.02  -0.02  -0.04
  46   6    -0.02  -0.26  -0.05     0.04  -0.15  -0.03     0.06  -0.01  -0.11
  47   6    -0.14  -0.22  -0.13    -0.04  -0.13  -0.06    -0.05   0.02   0.04
  48   6    -0.14  -0.16  -0.09    -0.03  -0.11  -0.05     0.03  -0.13  -0.02
  49   6    -0.01  -0.06  -0.06     0.04  -0.03  -0.03     0.01  -0.09   0.22
  50   6    -0.01  -0.02  -0.02     0.04  -0.01  -0.01     0.01  -0.08   0.24
  51   5     0.01  -0.00  -0.00     0.05  -0.00  -0.00     0.00  -0.11   0.29
  52   6    -0.01   0.02   0.01     0.04   0.01   0.01    -0.01  -0.08   0.24
  53   6    -0.01   0.06   0.06     0.04   0.03   0.03    -0.01  -0.09   0.22
  54   6    -0.07   0.10   0.03     0.01   0.05   0.02    -0.03   0.02  -0.03
  55   6    -0.09   0.18   0.07    -0.00   0.11   0.04    -0.02  -0.01  -0.03
  56   6    -0.14   0.22   0.13    -0.04   0.13   0.06     0.05   0.03   0.05
  57   6    -0.14   0.16   0.09    -0.02   0.11   0.04    -0.04  -0.13  -0.01
  58   6    -0.02   0.26   0.05     0.04   0.15   0.03    -0.06   0.00  -0.11
  59   6    -0.11   0.09  -0.02    -0.01   0.05  -0.00    -0.05   0.14  -0.24
  60   6    -0.09   0.05  -0.04    -0.00   0.02  -0.02    -0.05   0.13  -0.21
  61   6    -0.04   0.02  -0.03     0.03   0.01  -0.01    -0.03   0.02   0.04
  62   8    -0.03   0.01  -0.05     0.03   0.01  -0.03    -0.03   0.01   0.06
  63   6     0.01  -0.00   0.00     0.03   0.00  -0.00     0.02   0.01  -0.04
  64   6     0.01  -0.00   0.00     0.03   0.01  -0.00     0.04   0.02  -0.05
  65   6     0.01   0.00   0.00     0.03   0.01   0.00     0.07   0.02  -0.04
  66   6     0.01   0.00   0.00     0.03   0.00  -0.00     0.07   0.02  -0.01
  67   6     0.01   0.00   0.00     0.03  -0.00  -0.00     0.04   0.01  -0.00
  68   6     0.01  -0.00   0.00     0.02  -0.00  -0.00     0.02   0.00  -0.02
  69   6     0.03  -0.00   0.01     0.02  -0.01  -0.01    -0.00  -0.01   0.02
  70   6     0.03   0.00   0.01     0.02  -0.01  -0.01    -0.00  -0.00   0.02
  71   6     0.02  -0.00  -0.00     0.03   0.00   0.00    -0.00  -0.00   0.02
  72   8     0.04   0.00   0.02    -0.00  -0.01  -0.03    -0.00  -0.01   0.01
  73   1     0.03  -0.02  -0.01    -0.04   0.06   0.00    -0.01  -0.00   0.01
  74   1     0.02   0.00   0.00    -0.02   0.02  -0.01    -0.01  -0.00   0.00
  75   1     0.03  -0.01  -0.02    -0.05   0.03   0.02    -0.01  -0.00   0.00
  76   1     0.02  -0.05   0.01    -0.03   0.10  -0.02     0.01   0.00  -0.00
  77   1     0.02  -0.04  -0.01    -0.04   0.08   0.02     0.00   0.00   0.00
  78   1     0.02  -0.05  -0.00    -0.03   0.10  -0.01     0.01   0.00   0.01
  79   1     0.01  -0.03   0.03    -0.00   0.07  -0.05     0.00   0.00   0.00
  80   1     0.00  -0.02   0.03     0.02   0.05  -0.06    -0.00  -0.00   0.00
  81   1     0.01  -0.03   0.03    -0.01   0.08  -0.06    -0.00   0.00   0.00
  82   1     0.03  -0.01   0.02    -0.03   0.02  -0.03    -0.00  -0.00  -0.02
  83   1     0.02   0.00   0.02    -0.03  -0.01  -0.02    -0.00  -0.00  -0.01
  84   1     0.00  -0.01  -0.00     0.02   0.03   0.01    -0.00  -0.00   0.00
  85   1     0.00   0.01   0.00     0.02  -0.03  -0.01     0.00   0.00   0.00
  86   1     0.01   0.03  -0.03    -0.00  -0.07   0.05    -0.00   0.00  -0.00
  87   1     0.02   0.03  -0.03    -0.01  -0.08   0.06     0.00   0.00   0.00
  88   1     0.00   0.02  -0.03     0.02  -0.05   0.06     0.00  -0.00   0.00
  89   1     0.02   0.04   0.01    -0.04  -0.09  -0.02    -0.00   0.00   0.00
  90   1     0.02   0.05  -0.01    -0.03  -0.10   0.02    -0.01   0.00  -0.00
  91   1     0.02   0.05   0.00    -0.03  -0.10   0.01    -0.01   0.00   0.01
  92   1     0.03   0.02   0.01    -0.03  -0.06  -0.00     0.01  -0.00   0.01
  93   1     0.02  -0.00  -0.00    -0.02  -0.01   0.01     0.01  -0.00   0.00
  94   1     0.03   0.01   0.02    -0.05  -0.03  -0.03     0.01  -0.00   0.00
  95   1     0.03   0.01  -0.02    -0.03  -0.02   0.03     0.00  -0.00  -0.02
  96   1     0.02  -0.00  -0.01    -0.03   0.01   0.02     0.00  -0.00  -0.01
  97   1     0.01  -0.00  -0.00     0.01   0.00   0.01     0.00  -0.00   0.00
  98   1     0.00   0.00  -0.00     0.01   0.00   0.00    -0.01   0.00   0.00
  99   1     0.00   0.00  -0.00     0.01   0.00   0.00    -0.02   0.01  -0.00
 100   1     0.00   0.00   0.00     0.01  -0.00  -0.00    -0.02   0.01  -0.01
 101   1     0.00   0.00   0.00     0.01  -0.00   0.00    -0.01   0.00  -0.02
 102   1    -0.00   0.00  -0.01     0.01   0.00  -0.01    -0.01   0.01  -0.02
 103   1    -0.00  -0.00   0.01     0.01  -0.00   0.00     0.01   0.01  -0.02
 104   1    -0.04  -0.01   0.02    -0.01  -0.00   0.01     0.02   0.06  -0.11
 105   1    -0.04  -0.03   0.01    -0.01  -0.02   0.00     0.02   0.07  -0.13
 106   1     0.01  -0.07  -0.01     0.02  -0.04  -0.00    -0.00  -0.00  -0.03
 107   1    -0.01  -0.09  -0.02     0.01  -0.06  -0.01     0.02   0.00  -0.06
 108   1    -0.00  -0.08  -0.01     0.01  -0.04  -0.01     0.05  -0.00  -0.02
 109   1    -0.05  -0.05  -0.05    -0.02  -0.03  -0.02    -0.04   0.01   0.03
 110   1    -0.04  -0.08  -0.04    -0.01  -0.05  -0.02    -0.02  -0.02   0.00
 111   1    -0.04  -0.07  -0.04    -0.01  -0.04  -0.02     0.00   0.03   0.02
 112   1    -0.02  -0.04  -0.01     0.00  -0.03  -0.01     0.00  -0.05  -0.03
 113   1    -0.05  -0.07  -0.04    -0.01  -0.05  -0.02     0.01  -0.03   0.01
 114   1    -0.06  -0.03  -0.03    -0.02  -0.02  -0.02     0.02  -0.05   0.01
 115   1     0.01  -0.02  -0.04     0.02  -0.01  -0.02    -0.00  -0.06   0.12
 116   1     0.01   0.02   0.03     0.02   0.01   0.02     0.00  -0.05   0.11
 117   1    -0.04   0.08   0.04    -0.01   0.05   0.02     0.02  -0.02   0.01
 118   1    -0.05   0.05   0.04    -0.02   0.03   0.02     0.04   0.01   0.04
 119   1    -0.04   0.07   0.03    -0.01   0.04   0.02    -0.00   0.04   0.02
 120   1    -0.02   0.04   0.02     0.00   0.03   0.01    -0.01  -0.05  -0.03
 121   1    -0.06   0.03   0.03    -0.02   0.02   0.02    -0.02  -0.05   0.01
 122   1    -0.05   0.07   0.04    -0.01   0.05   0.02    -0.01  -0.03   0.01
 123   1     0.01   0.07   0.01     0.02   0.04   0.00     0.00  -0.00  -0.03
 124   1    -0.00   0.08   0.01     0.01   0.04   0.01    -0.04   0.00  -0.02
 125   1    -0.01   0.09   0.02     0.01   0.06   0.01    -0.02   0.00  -0.06
 126   1    -0.04   0.03  -0.01    -0.01   0.02  -0.00    -0.02   0.07  -0.12
 127   1    -0.04   0.01  -0.02    -0.01   0.00  -0.01    -0.02   0.06  -0.11
 128   1     0.00  -0.00   0.00     0.01   0.00  -0.00     0.01   0.01  -0.02
 129   1     0.00   0.00   0.00     0.01   0.00   0.00     0.02   0.01  -0.01
 130   1     0.00   0.00   0.00     0.01  -0.00  -0.00     0.02   0.01  -0.00
 131   1     0.00   0.00   0.00     0.01  -0.00  -0.00     0.01   0.00   0.00
 132   1     0.01  -0.00   0.00     0.01  -0.00  -0.01    -0.00  -0.00   0.00
                     19                     20                     21
                        a                      a                      a 
 Frequencies --    79.0092                84.1171                89.3734
 Red. masses --    10.2214                11.0628                11.1666
 Frc consts  --     0.0000                 0.0000                 0.0000
 IR Inten    --     0.0633                 3.0101                15.9421
 Raman Activ --     0.0000                 0.0000                 0.0000
 Depolar     --     0.0000                 0.0000                 0.0000
 Atom AN      X      Y      Z        X      Y      Z        X      Y      Z
   1   6    -0.06  -0.12   0.07    -0.13  -0.08   0.05     0.12   0.03  -0.05
   2   6    -0.03  -0.04  -0.01    -0.09  -0.08   0.03     0.03   0.02   0.01
   3   6     0.06   0.03   0.03    -0.02  -0.10   0.03    -0.08   0.02  -0.01
   4   6    -0.07  -0.07  -0.06    -0.12  -0.10   0.08     0.03   0.02  -0.06
   5   6    -0.04  -0.01  -0.05    -0.11  -0.04  -0.02     0.04   0.02   0.08
   6   6    -0.06  -0.03  -0.30    -0.09  -0.03  -0.04     0.04   0.02   0.11
   7   6    -0.06  -0.01  -0.26    -0.09  -0.00  -0.02     0.03   0.01   0.05
   8   6    -0.04   0.04   0.01    -0.10   0.01   0.01     0.03  -0.00  -0.03
   9   6    -0.02   0.06   0.23    -0.12  -0.01  -0.00     0.03   0.00   0.01
  10   6    -0.02   0.04   0.22    -0.12  -0.03  -0.02     0.04   0.02   0.06
  11   5    -0.00   0.07   0.29    -0.11   0.00   0.00     0.03  -0.00   0.00
  12   6     0.02   0.06   0.23    -0.12   0.01   0.00     0.03  -0.00  -0.01
  13   6     0.02   0.04   0.21    -0.12   0.03   0.02     0.04  -0.02  -0.06
  14   6     0.04  -0.01  -0.05    -0.11   0.04   0.02     0.04  -0.03  -0.08
  15   6     0.03  -0.04  -0.01    -0.10   0.07  -0.03     0.03  -0.02  -0.01
  16   6     0.07  -0.07  -0.07    -0.12   0.09  -0.09     0.03  -0.02   0.06
  17   6    -0.06   0.04   0.03    -0.02   0.10  -0.03    -0.07  -0.01   0.01
  18   6     0.06  -0.12   0.08    -0.13   0.08  -0.05     0.13  -0.03   0.05
  19   6     0.06  -0.03  -0.30    -0.09   0.03   0.04     0.04  -0.03  -0.11
  20   6     0.06  -0.01  -0.27    -0.09   0.01   0.02     0.04  -0.01  -0.06
  21   6     0.04   0.04   0.01    -0.10  -0.01  -0.01     0.03   0.00   0.03
  22   8     0.04   0.04   0.04    -0.11  -0.02  -0.07     0.02   0.01   0.17
  23   6     0.02   0.03   0.08    -0.09  -0.01  -0.04     0.02   0.01   0.09
  24   6     0.02   0.00  -0.01    -0.08  -0.01  -0.04     0.01   0.01   0.11
  25   6    -0.00  -0.01  -0.04    -0.06   0.00  -0.00     0.00  -0.00  -0.00
  26   7     0.00  -0.03  -0.05    -0.04  -0.00  -0.00     0.00   0.00  -0.00
  27   6     0.02  -0.02  -0.03    -0.01   0.01   0.01    -0.01   0.03   0.00
  28   6     0.04  -0.02  -0.05     0.00   0.03   0.01    -0.02   0.11   0.02
  29   6     0.05   0.01  -0.03     0.00   0.02   0.01    -0.01   0.07   0.01
  30   6     0.05   0.04   0.00     0.00  -0.01   0.00    -0.01  -0.06  -0.02
  31   6     0.03   0.03   0.01    -0.00  -0.03   0.00    -0.00  -0.10  -0.03
  32   6     0.02   0.00  -0.01     0.00  -0.01   0.01    -0.01  -0.03  -0.01
  33   7     0.00  -0.00   0.00     0.03  -0.00  -0.00    -0.02   0.00  -0.00
  34   6     0.00  -0.01   0.01     0.05   0.00   0.00    -0.02   0.00   0.00
  35   6     0.00  -0.01   0.01     0.08   0.03  -0.08    -0.03   0.09  -0.16
  36   6     0.00  -0.01   0.00     0.08   0.03  -0.06    -0.03   0.07  -0.13
  37   6     0.00  -0.00  -0.01     0.10   0.00  -0.00    -0.03   0.00   0.00
  38   6    -0.00  -0.00   0.00     0.08  -0.02   0.06    -0.03  -0.07   0.13
  39   6    -0.00  -0.01   0.01     0.08  -0.03   0.08    -0.03  -0.09   0.17
  40   8    -0.00  -0.01  -0.00     0.10  -0.05   0.12    -0.05  -0.14   0.25
  41   6    -0.00  -0.00  -0.01     0.10  -0.01   0.03    -0.03  -0.03   0.05
  42   6    -0.00  -0.01   0.01     0.10   0.02  -0.03    -0.01   0.03  -0.07
  43   6    -0.00  -0.01   0.02     0.10   0.02  -0.08     0.01   0.08  -0.16
[...]
  18   6     0.00  -0.00  -0.00     0.00  -0.00   0.00    -0.00  -0.00   0.00
  19   6     0.00  -0.00   0.00     0.00  -0.00   0.00     0.00   0.00  -0.00
  20   6    -0.00  -0.00  -0.00    -0.00  -0.00   0.00     0.00   0.00  -0.00
  21   6     0.00   0.00   0.00    -0.00   0.00  -0.00     0.00   0.00  -0.00
  22   8     0.00  -0.00   0.00     0.00   0.00   0.00    -0.00  -0.00   0.00
  23   6    -0.00  -0.00  -0.00     0.00  -0.00  -0.00     0.00  -0.00   0.00
  24   6    -0.00  -0.00  -0.00    -0.00  -0.01   0.00    -0.00  -0.00   0.00
  25   6    -0.00   0.00  -0.00    -0.00   0.00  -0.00    -0.00  -0.00   0.00
  26   7     0.00  -0.00  -0.00     0.00   0.00   0.00     0.00   0.00   0.00
  27   6     0.00   0.00  -0.00     0.00   0.00  -0.00     0.00  -0.00  -0.00
  28   6     0.12   0.01   0.00     0.12   0.01   0.00    -0.00   0.00   0.00
  29   6     0.05  -0.01   0.08     0.04  -0.01   0.07     0.00   0.00   0.00
  30   6    -0.04  -0.02   0.07    -0.04  -0.02   0.07     0.00   0.00  -0.00
  31   6    -0.10  -0.00  -0.00    -0.10  -0.00  -0.00     0.00   0.00   0.00
  32   6    -0.00   0.00  -0.00    -0.00   0.00  -0.00    -0.00  -0.00  -0.00
  33   7     0.00   0.00  -0.00    -0.00   0.00  -0.00     0.00   0.00   0.00
  34   6    -0.00  -0.00  -0.00     0.00   0.00   0.00     0.00  -0.00  -0.00
  35   6    -0.00   0.00   0.00     0.00  -0.01  -0.00    -0.00   0.00   0.00
  36   6     0.00   0.00  -0.00    -0.00  -0.00  -0.00     0.00  -0.00   0.00
  37   6    -0.00  -0.00  -0.00    -0.00   0.00   0.00    -0.00  -0.00  -0.00
  38   6     0.00   0.00  -0.00    -0.00   0.00   0.00     0.00   0.00   0.00
  39   6     0.00   0.00   0.00     0.00   0.01   0.00     0.00   0.00   0.00
  40   8     0.00   0.00   0.00    -0.00  -0.00  -0.00    -0.00  -0.00  -0.00
  41   6    -0.00   0.00  -0.00     0.00   0.00   0.00     0.00   0.00   0.00
  42   6     0.00   0.00   0.00     0.00   0.00   0.00     0.00   0.00   0.00
  43   6    -0.00   0.00   0.00    -0.00   0.00   0.00    -0.00   0.00   0.00
  44   6     0.00   0.00   0.00    -0.00   0.00  -0.00     0.00   0.00   0.00
  45   6    -0.00   0.00  -0.00    -0.00   0.00   0.00    -0.00   0.00  -0.00
  46   6     0.00   0.00  -0.00    -0.00   0.00   0.00     0.00   0.00  -0.00
  47   6     0.00   0.00  -0.00    -0.00   0.00   0.00    -0.00   0.00  -0.00
  48   6    -0.00   0.00  -0.00    -0.00   0.00  -0.00    -0.00   0.00  -0.00
  49   6     0.00   0.00   0.00     0.00   0.00   0.00     0.00   0.00   0.00
  50   6    -0.00   0.00   0.00    -0.00   0.00   0.00     0.00  -0.00   0.00
  51   5     0.00  -0.00   0.00    -0.00   0.00   0.00     0.00  -0.00   0.00
  52   6     0.00   0.00   0.00    -0.00  -0.00  -0.00     0.00   0.00  -0.00
  53   6    -0.00   0.00   0.00     0.00  -0.00  -0.00     0.00  -0.00  -0.00
  54   6    -0.00   0.00   0.00    -0.00  -0.00   0.00     0.00  -0.00  -0.00
  55   6    -0.00   0.00  -0.00    -0.00  -0.00  -0.00    -0.00   0.00  -0.00
  56   6    -0.00   0.00  -0.00    -0.00  -0.00  -0.00     0.00   0.00   0.00
  57   6    -0.00  -0.00   0.00    -0.00  -0.00   0.00     0.00  -0.00   0.00
  58   6    -0.00   0.00  -0.00    -0.00  -0.00  -0.00    -0.00   0.00   0.00
  59   6     0.00   0.00   0.00    -0.00  -0.00  -0.00    -0.00  -0.00  -0.00
  60   6    -0.00   0.00   0.00     0.00  -0.00  -0.00     0.00  -0.00  -0.00
  61   6     0.00  -0.00  -0.00     0.00  -0.00  -0.00    -0.00  -0.00  -0.00
  62   8     0.00   0.00   0.00    -0.00   0.00   0.00     0.00  -0.00  -0.00
  63   6     0.00   0.00  -0.00    -0.00  -0.00   0.00    -0.00  -0.00   0.00
  64   6     0.12  -0.01  -0.00    -0.12   0.01   0.00    -0.00   0.00  -0.00
  65   6     0.04  -0.02   0.08    -0.05   0.02  -0.08    -0.00   0.00  -0.00
  66   6    -0.04  -0.01   0.07     0.04   0.01  -0.07     0.00   0.00  -0.00
  67   6    -0.10   0.01   0.00     0.11  -0.01  -0.00     0.00   0.00   0.00
  68   6    -0.00   0.00  -0.00     0.00  -0.00   0.00     0.00  -0.00  -0.00
  69   6     0.00  -0.00  -0.00    -0.00   0.01  -0.00     0.00  -0.00   0.00
  70   6     0.00  -0.00  -0.00     0.00   0.00   0.00    -0.00  -0.00   0.00
  71   6    -0.00   0.00   0.00     0.00   0.00   0.00     0.00   0.00  -0.00
  72   8    -0.00  -0.00   0.00     0.00  -0.00  -0.00     0.00  -0.00   0.00
  73   1     0.00   0.00  -0.00    -0.00  -0.00   0.00    -0.00  -0.00   0.00
  74   1    -0.00  -0.00   0.00     0.00  -0.00   0.00     0.00   0.00  -0.00
  75   1    -0.00   0.00  -0.00    -0.00   0.00  -0.00    -0.00   0.00  -0.00
  76   1     0.00   0.00   0.00    -0.00  -0.00  -0.00     0.00   0.00   0.00
  77   1     0.00  -0.00   0.00     0.00   0.00   0.00    -0.00   0.00  -0.00
  78   1    -0.00  -0.00   0.00    -0.00  -0.00   0.00    -0.00  -0.00   0.00
  79   1     0.00   0.00   0.00    -0.00  -0.00  -0.00     0.00   0.01   0.01
  80   1    -0.00  -0.00   0.00     0.00   0.00  -0.00     0.00   0.01  -0.01
  81   1     0.00   0.00  -0.00     0.00   0.00  -0.00     0.00   0.00  -0.00
  82   1     0.00   0.00  -0.00    -0.00  -0.00   0.00    -0.00  -0.02   0.00
  83   1     0.00  -0.00   0.00     0.00  -0.00   0.00     0.00  -0.00   0.00
  84   1    -0.00   0.00   0.00     0.00  -0.00   0.00    -0.45   0.55  -0.00
  85   1     0.00   0.00   0.00     0.00   0.00  -0.00     0.40   0.51   0.00
  86   1    -0.00   0.00   0.00    -0.00   0.00   0.00    -0.00   0.01   0.01
  87   1    -0.00   0.00  -0.00     0.00  -0.00   0.00    -0.00   0.00  -0.00
  88   1    -0.00  -0.00   0.00     0.00  -0.00  -0.00    -0.00   0.00  -0.01
  89   1    -0.00   0.00  -0.00     0.00  -0.00  -0.00     0.00   0.00  -0.00
  90   1    -0.00   0.00   0.00    -0.00   0.00   0.00    -0.00   0.00   0.00
  91   1    -0.00   0.00  -0.00    -0.00   0.00  -0.00     0.00  -0.00   0.00
  92   1    -0.00   0.00  -0.00    -0.00   0.00  -0.00     0.00  -0.00   0.00
  93   1     0.00  -0.00   0.00     0.00   0.00  -0.00    -0.00   0.00  -0.00
  94   1     0.00   0.00  -0.00    -0.00  -0.00   0.00     0.00   0.00  -0.00
  95   1    -0.00   0.00  -0.00    -0.00   0.00  -0.00     0.00  -0.02   0.00
  96   1     0.00   0.00   0.00     0.00   0.00  -0.00    -0.00  -0.00   0.00
  97   1     0.00   0.01  -0.00     0.01   0.03  -0.00     0.00   0.00  -0.00
  98   1    -0.42  -0.02  -0.00    -0.40  -0.02  -0.00     0.00  -0.00  -0.00
  99   1    -0.15   0.04  -0.25    -0.14   0.04  -0.24    -0.00  -0.00  -0.00
 100   1     0.14   0.06  -0.24     0.14   0.06  -0.23    -0.00  -0.00   0.00
 101   1     0.36   0.02   0.00     0.36   0.02   0.00    -0.00  -0.00   0.00
 102   1     0.00  -0.01  -0.00    -0.02   0.03   0.01     0.00  -0.00  -0.00
 103   1    -0.00  -0.01  -0.00    -0.02  -0.02  -0.01    -0.00  -0.00  -0.00
 104   1    -0.00  -0.00  -0.00    -0.00  -0.00  -0.00    -0.00  -0.00  -0.00
 105   1     0.00  -0.00  -0.00     0.00  -0.00  -0.00     0.00  -0.00  -0.00
 106   1    -0.00  -0.00   0.00    -0.00  -0.00   0.00     0.00  -0.00   0.00
 107   1     0.00  -0.00  -0.00     0.00  -0.00   0.00     0.00  -0.00   0.00
 108   1    -0.00   0.00   0.00     0.00  -0.00  -0.00    -0.00   0.00   0.00
 109   1    -0.00  -0.00  -0.00     0.00   0.00   0.00     0.00   0.00   0.00
 110   1     0.00  -0.00   0.00     0.00  -0.00   0.00     0.00  -0.00   0.00
 111   1    -0.00   0.00   0.00     0.00  -0.00  -0.00    -0.00   0.00   0.00
 112   1     0.00   0.00   0.00     0.00  -0.00   0.00     0.00  -0.00   0.00
 113   1     0.00  -0.00  -0.00     0.00   0.00   0.00     0.00  -0.00   0.00
 114   1    -0.00  -0.00  -0.00     0.00   0.00   0.00    -0.00  -0.00  -0.00
 115   1    -0.00  -0.00  -0.00    -0.00  -0.00  -0.00    -0.00  -0.00  -0.00
 116   1     0.00  -0.00  -0.00    -0.00   0.00   0.00    -0.00   0.00   0.00
 117   1     0.00   0.00  -0.00     0.00   0.00  -0.00    -0.00  -0.00   0.00
 118   1     0.00  -0.00  -0.00    -0.00  -0.00  -0.00     0.00  -0.00  -0.00
 119   1     0.00   0.00   0.00     0.00   0.00   0.00    -0.00  -0.00  -0.00
 120   1    -0.00   0.00  -0.00     0.00   0.00  -0.00     0.00   0.00  -0.00
 121   1     0.00  -0.00  -0.00     0.00  -0.00  -0.00    -0.00   0.00  -0.00
 122   1     0.00   0.00  -0.00     0.00  -0.00  -0.00    -0.00  -0.00  -0.00
 123   1    -0.00  -0.00   0.00    -0.00   0.00  -0.00    -0.00  -0.00   0.00
 124   1     0.00   0.00   0.00     0.00   0.00   0.00    -0.00  -0.00  -0.00
 125   1    -0.00   0.00  -0.00     0.00   0.00  -0.00     0.00   0.00  -0.00
 126   1    -0.00  -0.00  -0.00     0.00   0.00   0.00     0.00   0.00   0.00
 127   1     0.00  -0.00  -0.00    -0.00   0.00   0.00    -0.00   0.00   0.00
 128   1    -0.41   0.02   0.00     0.41  -0.02  -0.00     0.00  -0.00  -0.00
 129   1    -0.15   0.06  -0.24     0.15  -0.06   0.25     0.00  -0.00   0.00
 130   1     0.14   0.04  -0.23    -0.14  -0.04   0.24    -0.00  -0.00   0.00
 131   1     0.35  -0.02  -0.00    -0.36   0.02   0.00    -0.00  -0.00  -0.00
 132   1    -0.00   0.00  -0.00     0.01  -0.03   0.00    -0.00   0.00  -0.00
                    388                    389                    390
                        a                      a                      a 
 Frequencies --  3140.5774              3143.5026              3146.8640
 Red. masses --     1.8148                 1.7892                 1.7863
 Frc consts  --     0.0000                 0.0000                 0.0000
 IR Inten    --    18.8946                14.4470                15.5802
 Raman Activ --     0.0000                 0.0000                 0.0000
 Depolar     --     0.0000                 0.0000                 0.0000
 Atom AN      X      Y      Z        X      Y      Z        X      Y      Z
   1   6     0.00   0.00   0.00     0.00   0.00   0.00     0.00   0.00   0.00
   2   6     0.00   0.00   0.00     0.00  -0.00   0.00     0.00  -0.00  -0.00
   3   6     0.00   0.00  -0.00     0.00  -0.00  -0.00     0.00   0.00  -0.00
   4   6    -0.00   0.00   0.00     0.00  -0.00   0.00     0.00   0.00  -0.00
   5   6    -0.00   0.00  -0.00     0.01  -0.00  -0.00     0.00  -0.00  -0.00
   6   6     0.00   0.00  -0.00    -0.00   0.00  -0.00     0.00   0.00  -0.00
   7   6    -0.00   0.00  -0.00    -0.00   0.00  -0.00    -0.00   0.00  -0.00
   8   6     0.00   0.00  -0.00    -0.00   0.00  -0.00    -0.00   0.00  -0.00
   9   6    -0.00   0.00   0.00     0.00  -0.01   0.00    -0.00  -0.00   0.00
  10   6    -0.00   0.00   0.00     0.11  -0.14  -0.00     0.00  -0.00  -0.00
  11   5    -0.00  -0.00  -0.00    -0.00   0.00  -0.00    -0.00   0.00   0.00
  12   6    -0.00   0.00   0.00     0.00   0.01  -0.00    -0.00   0.00  -0.00
  13   6    -0.00  -0.00   0.00     0.12   0.15   0.00     0.00   0.00   0.00
  14   6    -0.00  -0.00  -0.00     0.01   0.00   0.00     0.00   0.00   0.00
  15   6     0.00   0.00   0.00     0.00   0.00  -0.00     0.00   0.00   0.00
  16   6     0.00   0.00   0.00     0.00   0.00  -0.00     0.00  -0.00   0.00
  17   6    -0.00  -0.00  -0.00     0.00   0.00   0.00     0.00  -0.00   0.00
  18   6     0.00   0.00   0.00     0.00  -0.00  -0.00     0.00  -0.00  -0.00
  19   6     0.00  -0.00   0.00    -0.00  -0.00   0.00     0.00  -0.00   0.00
  20   6     0.00   0.00  -0.00    -0.00  -0.00   0.00    -0.00  -0.00   0.00
  21   6     0.00  -0.00  -0.00    -0.00  -0.00   0.00    -0.00  -0.00   0.00
  22   8    -0.00  -0.00   0.00     0.00   0.00  -0.00     0.00  -0.00  -0.00
  23   6    -0.00  -0.00  -0.00    -0.00   0.00  -0.00    -0.00  -0.00   0.00
  24   6     0.00   0.00   0.00    -0.00  -0.00   0.00    -0.00  -0.00   0.00
  25   6    -0.00  -0.00  -0.00    -0.00   0.00  -0.00    -0.00  -0.00   0.00
  26   7    -0.00   0.00  -0.00     0.00   0.00  -0.00    -0.00  -0.00  -0.00
  27   6     0.00  -0.00  -0.00     0.00   0.00  -0.00     0.00   0.00  -0.00
  28   6     0.00   0.00   0.00     0.00   0.00   0.00     0.00   0.00   0.00
  29   6    -0.00   0.00  -0.00     0.00  -0.00   0.00     0.00  -0.00   0.00
  30   6    -0.00  -0.00   0.00    -0.00  -0.00   0.00    -0.00  -0.00   0.00
  31   6    -0.00   0.00   0.00    -0.00  -0.00   0.00    -0.00  -0.00   0.00
  32   6    -0.00  -0.00  -0.00    -0.00   0.00  -0.00    -0.00  -0.00  -0.00
  33   7    -0.00   0.00   0.00     0.00  -0.00   0.00    -0.00  -0.00   0.00
  34   6    -0.00  -0.00  -0.00     0.00  -0.00   0.00     0.00   0.00   0.00
  35   6     0.00   0.00   0.00     0.00  -0.00  -0.00     0.00  -0.00  -0.00
  36   6    -0.00  -0.00  -0.00     0.00  -0.00  -0.00     0.00   0.00   0.00
  37   6    -0.00   0.00   0.00    -0.00   0.00   0.00    -0.00   0.00   0.00
  38   6     0.00  -0.00  -0.00     0.00   0.00   0.00     0.00  -0.00  -0.00
  39   6    -0.00   0.00   0.00     0.00   0.00   0.00     0.00   0.00   0.00
  40   8    -0.00  -0.00  -0.00    -0.00   0.00   0.00    -0.00  -0.00  -0.00
  41   6     0.00   0.00   0.00     0.00   0.00   0.00     0.00   0.00   0.00
  42   6     0.00   0.00   0.00     0.00   0.00   0.00     0.00   0.00   0.00
  43   6     0.00   0.00   0.00    -0.00   0.00   0.00     0.00   0.00   0.00
  44   6    -0.01  -0.00  -0.00     0.00   0.00   0.00    -0.01  -0.00  -0.00
  45   6    -0.00  -0.00  -0.00    -0.00   0.00   0.00    -0.00  -0.00  -0.00
  46   6     0.00  -0.00  -0.00    -0.00   0.00  -0.00    -0.00  -0.00  -0.00
  47   6    -0.00  -0.00  -0.00    -0.00   0.00   0.00    -0.00   0.00  -0.00
  48   6    -0.00  -0.00   0.00    -0.00   0.00   0.00    -0.00  -0.00   0.00
  49   6    -0.12  -0.13  -0.08     0.00   0.00   0.00    -0.12  -0.12  -0.08
  50   6    -0.00  -0.00  -0.00     0.00   0.00   0.00    -0.00  -0.01  -0.00
  51   5     0.00  -0.00  -0.00     0.00  -0.00   0.00     0.00   0.00  -0.00
  52   6     0.00  -0.00  -0.00     0.00  -0.00  -0.00    -0.00   0.01   0.00
  53   6     0.12  -0.13  -0.08     0.00  -0.00  -0.00    -0.12   0.13   0.08
  54   6     0.01  -0.00  -0.00     0.00  -0.00  -0.00    -0.01   0.00   0.00
  55   6     0.00  -0.00  -0.00    -0.00  -0.00  -0.00    -0.00   0.00   0.00
  56   6     0.00  -0.00  -0.00    -0.00  -0.00  -0.00    -0.00  -0.00   0.00
  57   6     0.00  -0.00   0.00    -0.00  -0.00  -0.00    -0.00   0.00  -0.00
  58   6    -0.00  -0.00  -0.00    -0.00  -0.00   0.00    -0.00   0.00   0.00
  59   6    -0.00   0.00   0.00    -0.00  -0.00  -0.00     0.00  -0.00  -0.00
  60   6    -0.00   0.00   0.00     0.00  -0.00  -0.00     0.00  -0.00  -0.00
  61   6    -0.00   0.00   0.00     0.00  -0.00  -0.00     0.00  -0.00  -0.00
  62   8     0.00  -0.00  -0.00     0.00  -0.00  -0.00    -0.00   0.00   0.00
  63   6     0.00  -0.00  -0.00    -0.00  -0.00   0.00    -0.00   0.00   0.00
  64   6     0.00   0.00   0.00    -0.00   0.00  -0.00    -0.00   0.00  -0.00
  65   6     0.00  -0.00   0.00    -0.00   0.00  -0.00    -0.00   0.00  -0.00
  66   6     0.00   0.00  -0.00     0.00   0.00  -0.00     0.00   0.00  -0.00
  67   6     0.00   0.00   0.00     0.00  -0.00  -0.00     0.00   0.00  -0.00
  68   6     0.00  -0.00   0.00     0.00  -0.00   0.00     0.00  -0.00   0.00
  69   6    -0.00   0.00  -0.00    -0.00   0.00  -0.00    -0.00   0.00  -0.00
  70   6    -0.00   0.00  -0.00    -0.00  -0.00   0.00    -0.00   0.00  -0.00
  71   6     0.00   0.00   0.00     0.00  -0.00   0.00     0.00   0.00  -0.00
  72   8     0.00   0.00   0.00     0.00  -0.00   0.00     0.00   0.00   0.00
  73   1    -0.00  -0.00   0.00    -0.00  -0.00   0.00    -0.00  -0.00   0.00
  74   1     0.00   0.00  -0.00     0.00  -0.00  -0.00     0.00   0.00  -0.00
  75   1     0.00  -0.00  -0.00     0.00  -0.00  -0.00     0.00  -0.00   0.00
  76   1     0.00   0.00   0.00     0.00   0.00   0.00     0.00  -0.00  -0.00
  77   1     0.00  -0.00  -0.00     0.00  -0.00  -0.00     0.00  -0.00  -0.00
  78   1    -0.00  -0.00   0.00    -0.00  -0.00   0.00    -0.00  -0.00   0.00
  79   1    -0.00  -0.00  -0.00     0.00   0.00   0.00     0.00   0.00  -0.00
  80   1     0.00  -0.00   0.00     0.00   0.00  -0.00     0.00   0.00   0.00
  81   1     0.00  -0.00  -0.00     0.00   0.00  -0.00    -0.00  -0.00   0.00
  82   1    -0.00  -0.00   0.00    -0.00  -0.01   0.00    -0.00  -0.00   0.00
  83   1     0.00  -0.00   0.00     0.00  -0.00   0.00     0.00  -0.00   0.00
  84   1     0.00  -0.00   0.00    -0.41   0.50  -0.00    -0.00   0.01  -0.00
  85   1     0.00   0.00  -0.00    -0.44  -0.56   0.00    -0.01  -0.01   0.00
  86   1     0.00  -0.00  -0.00     0.00  -0.00  -0.00     0.00  -0.00  -0.00
  87   1    -0.00   0.00  -0.00     0.00  -0.00   0.00    -0.00   0.00  -0.00
  88   1    -0.00   0.00  -0.00     0.00  -0.00   0.00     0.00  -0.00  -0.00
  89   1    -0.00   0.00  -0.00     0.00  -0.00   0.00     0.00   0.00   0.00
  90   1    -0.00   0.00   0.00     0.00  -0.00  -0.00     0.00   0.00   0.00
  91   1     0.00  -0.00   0.00    -0.00   0.00  -0.00    -0.00   0.00  -0.00
  92   1     0.00  -0.00   0.00    -0.00   0.00  -0.00    -0.00   0.00  -0.00
  93   1    -0.00   0.00  -0.00     0.00   0.00   0.00     0.00  -0.00   0.00
  94   1    -0.00  -0.00  -0.00     0.00  -0.00   0.00     0.00   0.00  -0.00
  95   1    -0.00   0.00  -0.00    -0.00   0.02  -0.00    -0.00   0.00  -0.00
  96   1    -0.00  -0.00  -0.00     0.00   0.00  -0.00     0.00   0.00  -0.00
  97   1    -0.00  -0.00   0.00     0.00   0.00  -0.00     0.00   0.00  -0.00
  98   1    -0.00  -0.00  -0.00    -0.00  -0.00  -0.00    -0.00  -0.00   0.00
  99   1     0.00  -0.00   0.00    -0.00   0.00  -0.00    -0.00   0.00  -0.00
 100   1     0.00   0.00  -0.00     0.00   0.00  -0.00     0.00   0.00  -0.00
 101   1     0.00  -0.00  -0.00     0.00   0.00   0.00     0.00   0.00   0.00
 102   1    -0.00   0.00   0.00    -0.00   0.00   0.00    -0.00   0.00   0.00
 103   1     0.00   0.00   0.00    -0.00  -0.00  -0.00    -0.00  -0.00  -0.00
 104   1    -0.00  -0.00  -0.00    -0.00  -0.00  -0.00    -0.00  -0.00  -0.00
 105   1     0.00  -0.01  -0.01     0.00  -0.00  -0.00     0.00  -0.01  -0.01
 106   1    -0.00   0.01  -0.00     0.00  -0.00   0.00    -0.00   0.00  -0.00
 107   1    -0.00   0.00   0.00     0.00  -0.00  -0.00    -0.00   0.00   0.00
 108   1    -0.00   0.00   0.01     0.00  -0.00  -0.00    -0.00   0.00   0.00
 109   1     0.00   0.00   0.00    -0.00  -0.00  -0.00    -0.00   0.00   0.00
 110   1     0.00  -0.00   0.00     0.00  -0.00  -0.00     0.00  -0.00   0.00
 111   1    -0.00  -0.00   0.00    -0.00   0.00  -0.00    -0.00  -0.00   0.00
 112   1    -0.00   0.00  -0.00    -0.00   0.00   0.00    -0.00   0.00  -0.00
 113   1     0.00  -0.00   0.00     0.00  -0.00  -0.00     0.00  -0.00   0.00
 114   1     0.00   0.00   0.00    -0.00  -0.00  -0.00    -0.00   0.00   0.00
 115   1     0.44   0.44   0.29    -0.01  -0.01  -0.00     0.43   0.44   0.28
 116   1    -0.42   0.44   0.29    -0.01   0.01   0.00     0.43  -0.45  -0.29
 117   1    -0.00  -0.00   0.00     0.00   0.00   0.00     0.00   0.00  -0.00
 118   1    -0.00   0.00   0.00    -0.00   0.00   0.00    -0.00  -0.00  -0.00
 119   1     0.00  -0.00   0.00    -0.00  -0.00   0.00    -0.00   0.00  -0.00
 120   1     0.00   0.00  -0.00    -0.00  -0.00  -0.00    -0.00  -0.00   0.00
 121   1    -0.00   0.00   0.00    -0.00   0.00   0.00    -0.00  -0.00  -0.00
 122   1    -0.00  -0.00   0.00     0.00   0.00   0.00     0.00   0.00  -0.00
 123   1     0.00   0.01  -0.00     0.00   0.00  -0.00    -0.00  -0.00   0.00
 124   1     0.00   0.00   0.01     0.00   0.00   0.00    -0.00  -0.00  -0.00
 125   1     0.00   0.00   0.00     0.00   0.00   0.00    -0.00  -0.00  -0.00
 126   1    -0.00  -0.01  -0.01     0.00   0.00   0.00     0.00   0.01   0.01
 127   1     0.00  -0.00  -0.00    -0.00   0.00   0.00    -0.00   0.00   0.00
 128   1    -0.00  -0.00  -0.00     0.00  -0.00  -0.00     0.00  -0.00  -0.00
 129   1    -0.00   0.00  -0.00     0.00  -0.00   0.00     0.00  -0.00   0.00
 130   1    -0.00  -0.00   0.00    -0.00  -0.00   0.00    -0.00  -0.00   0.00
 131   1    -0.00  -0.00  -0.00    -0.00   0.00   0.00    -0.00   0.00  -0.00
 132   1     0.00  -0.00   0.00     0.00  -0.00   0.00     0.00  -0.00   0.00
