$hessian                                                                        
        0.5111083901  -0.0221411928  -0.0224362313  -0.0753770636  -0.0264948708
       -0.0316374481   0.0006642697   0.0002882143  -0.0015591784   0.0028009296
        0.0102023532   0.0084650436  -0.0182098978  -0.0203711443  -0.0162799068
       -0.0010488342  -0.0002233995  -0.0004488736   0.0008136875   0.0000526749
        0.0005630120   0.0003514315  -0.0004614930   0.0001837716  -0.0006699653
       -0.0003923165   0.0016587663  -0.0024084947   0.0008301610  -0.0006015905
       -0.0000200457   0.0003231361  -0.0000326709   0.0000319807  -0.0001464217
        0.0000460567  -0.0000432480   0.0000033513   0.0000002895  -0.0000168460
        0.0000254728  -0.0000053237  -0.0000114816  -0.0000160304  -0.0000042968
        0.0000007242   0.0000455818  -0.0000170025   0.0000042885   0.0000150483
       -0.0000091535   0.0000056992   0.0000191741  -0.0000042634  -0.0000457610
        0.0000088874  -0.0000064162   0.0000663620  -0.0000638339   0.0000119469
       -0.0000482910   0.0001113581  -0.0000333765   0.0000568115  -0.0000225529
        0.0000213807   0.0000990320   0.0001033457   0.0000295240  -0.0001004923
        0.0000444552  -0.0000138744   0.0001061948   0.0000491295  -0.0000091565
       -0.0000148609  -0.0000009976   0.0000083838   0.0001621629   0.0000028542
       -0.0000030896  -0.0000217632  -0.0000026508   0.0000289153   0.0001474791
        0.0000132433  -0.0000203851  -0.0001406104  -0.0000031626  -0.0000198744
        0.0000259550  -0.0000085726   0.0000361618  -0.0001684730   0.0000018583
       -0.0000367242   0.0000180736   0.0000022387  -0.0000005073   0.0001160232
       -0.0000002178   0.0000002603  -0.0001291225  -0.0000432504  -0.0000166497
        0.0001820476   0.0001043284   0.0000583526  -0.0001285319   0.0000008297
        0.0000002765   0.0001796882  -0.0001053753  -0.0000582037  -0.0001272462
        0.0000469428   0.0000177474   0.0000077956   0.0001191691   0.0000793926
       -0.0000962417   0.0000645965   0.0000157577   0.0000903232  -0.0000763040
       -0.0000321302  -0.0001132557   0.0000077666  -0.0000109667   0.0000316388
        0.0000297412   0.0000182759   0.0000130275   0.0000040546   0.0000033437
       -0.0000096083   0.0000111388   0.0000029985  -0.0000123478   0.0000015723
       -0.0000000949  -0.0000120428   0.0000030608  -0.0000031971  -0.0000150144
        0.0000169280   0.0000047586   0.0000333786  -0.0000556399  -0.0000093956
        0.0000558772  -0.0000002228  -0.0000001166   0.0000342161   0.0000550269
        0.0000087256  -0.0000143781  -0.0000167425  -0.0000047971   0.0000315683
       -0.0000297819  -0.0000183234   0.0000125095  -0.0000035525  -0.0000045427
       -0.0000131307  -0.0000001137  -0.0000005290  -0.0000126390  -0.0000018926
        0.0000025567  -0.0000106113  -0.0000094724  -0.0000032128  -0.0001141083
       -0.0000050423   0.0000114529   0.0000917596   0.0000758202   0.0000316181
       -0.0000988077  -0.0000630918  -0.0000151886   0.0000050217  -0.0001222920
       -0.0000805000  -0.0001626519  -0.0000045836   0.0000412216   0.0000226676
        0.0000075898  -0.0000396603  -0.0001330051   0.0000027202   0.0000216119
        0.0001419133  -0.0000087852   0.0000165010  -0.0000120255   0.0000024046
       -0.0000240827   0.0001591348   0.0000018046  -0.0000017532  -0.0002648503
       -0.0001494278   0.0000380273   0.0004651172   0.0004799085  -0.0000658237
       -0.0001991669  -0.0001517731  -0.0000517072  -0.0006779185  -0.0005748628
       -0.0001137888  -0.2644295142  -0.0429466184   0.0415636211  -0.0461295382
       -0.0088639705   0.0211259614  -0.1068182515   0.1064726423  -0.0022215792
        0.0005274178   0.0000813768   0.0004442688   0.0001458157  -0.0003521365
       -0.0001138815   0.0005841150   0.0003947549   0.0007047129  -0.0011946293
        0.0033997150   0.0007515290   0.0002923891   0.0000294167   0.0004020215
        0.0008302461   0.0011869781   0.0006636258  -0.0010448094  -0.0006250253
       -0.0006648609   0.0000092181  -0.0000289583  -0.0000073928  -0.0001570434
       -0.0000128285  -0.0003818385  -0.0000490043  -0.0000068945  -0.0000053478
       -0.0000113650  -0.0000138648   0.0000215016   0.0000178768  -0.0000093841
        0.0000063038  -0.0000066593  -0.0000439697  -0.0000003285   0.0000042114
        0.0000050209   0.0000021686  -0.0000043944  -0.0000044539   0.0000057129
        0.0000087926  -0.0000104427   0.0000091884   0.0000095769  -0.0000126116
        0.0000008529  -0.0000053066  -0.0000110737   0.0000018956   0.0000054536
        0.0000067220  -0.0000001964  -0.0000013655  -0.0000115643   0.0000040477
       -0.0000006048  -0.0000105848   0.0000025582  -0.0000190192  -0.0000046682
       -0.0000065521   0.0000029136  -0.0000004683   0.0000037074  -0.0000001351
       -0.0000015780   0.0000070634  -0.0000056014  -0.0000022789   0.0000049322
       -0.0000060713  -0.0000001318  -0.0000049952   0.0000065645  -0.0000043647
       -0.0000025798   0.0000067784   0.0000027364   0.0000027461   0.0000062384
        0.0000054751   0.0000043565  -0.0000029625   0.0000089856   0.0000057444
        0.0000055778  -0.0000017187  -0.0000035392  -0.0000082238   0.0000024820
       -0.0000002395   0.0000044076  -0.0000038312   0.0000023031   0.0000048100
       -0.0000044272   0.0000017146  -0.0000073708   0.0000024561  -0.0000029453
        0.0000035091  -0.0000026138   0.0000018372   0.0000035365  -0.0000011789
       -0.0000021832  -0.0000080038   0.0000008307   0.0000008937   0.0000054397
       -0.0000019487  -0.0000028983   0.0000010560  -0.0000062077  -0.0000031246
        0.0000012217   0.0000059556   0.0000026406  -0.0000071287  -0.0000023113
        0.0000024239   0.0000046990   0.0000038214  -0.0000018281   0.0000036461
        0.0000022622  -0.0000019510   0.0000039990   0.0000009140   0.0000020907
        0.0000053938   0.0000018347   0.0000024923  -0.0000074238  -0.0000005580
       -0.0000013357   0.0000061404   0.0000012594   0.0000028736   0.0000043995
        0.0000034998  -0.0000028734  -0.0000078842  -0.0000031566  -0.0000002395
       -0.0000026960  -0.0000091397  -0.0000061680   0.0000065587  -0.0000065230
       -0.0000046898  -0.0000069367  -0.0000008911   0.0000062957  -0.0000065170
        0.0000007976  -0.0000043822   0.0000004729   0.0000005754  -0.0000040314
        0.0000039388   0.0000010671  -0.0000039328  -0.0000123014  -0.0000060807
       -0.0000002945
       -0.0221411928   0.4952525766  -0.0343705899  -0.0224612329  -0.1089438592
       -0.0532532916   0.0026030294   0.0046626869   0.0050657444  -0.0042116980
       -0.0255392967  -0.0193476008  -0.0111728878  -0.0064674075  -0.0045685889
        0.0008813550  -0.0009057162  -0.0005428203  -0.0002882110  -0.0001405180
        0.0004192594  -0.0000406275  -0.0000626352   0.0001002523  -0.0003501341
       -0.0000964817   0.0005206223  -0.0004114592   0.0006132538  -0.0002735326
        0.0000072072  -0.0000386340   0.0000001576   0.0000208711  -0.0000028831
        0.0000190640   0.0000437097   0.0000721836   0.0000125196   0.0000050578
        0.0000130410  -0.0000067451   0.0000298654   0.0000438678  -0.0000020753
       -0.0000252296   0.0000761821  -0.0000221572  -0.0000124273   0.0000045126
       -0.0000026430  -0.0000194082   0.0000186885  -0.0000004054  -0.0000300114
        0.0000038899  -0.0000028934   0.0000231097  -0.0000196164   0.0000074978
        0.0000057059   0.0000183073  -0.0000074523  -0.0000801406   0.0000738345
       -0.0000035906   0.0000459109  -0.0001112918   0.0000108619  -0.0000352370
        0.0000120239   0.0000041311   0.0000039277  -0.0000409669   0.0000131133
       -0.0000142269  -0.0000033287  -0.0000046724  -0.0000160806   0.0000033493
       -0.0000107073   0.0000106358  -0.0000011768   0.0000046881  -0.0000072185
       -0.0000014122  -0.0000027439   0.0000111217   0.0000016118   0.0000013060
       -0.0000023666   0.0000010513  -0.0000007780   0.0000094090   0.0000011375
       -0.0000086130   0.0000030548  -0.0000007790   0.0000019830   0.0000103919
       -0.0000016401  -0.0000008718  -0.0000047481  -0.0000045327  -0.0000018335
        0.0000098399   0.0000048121   0.0000031930  -0.0000083157   0.0000009316
        0.0000005959   0.0000133664  -0.0000123506  -0.0000069147  -0.0000075041
        0.0000042363   0.0000025937  -0.0000059327   0.0000144494   0.0000085050
       -0.0000029193   0.0000045497   0.0000013064   0.0000070553  -0.0000044866
       -0.0000005910  -0.0000072848   0.0000021504   0.0000004505   0.0000005764
        0.0000022890   0.0000010654   0.0000009595  -0.0000007814   0.0000004484
       -0.0000007808   0.0000000265   0.0000000760  -0.0000010777  -0.0000004652
       -0.0000000884  -0.0000013195  -0.0000005522   0.0000002516   0.0000014763
       -0.0000009370  -0.0000011724  -0.0000001407  -0.0000046056  -0.0000005397
        0.0000033600  -0.0000015626  -0.0000007179   0.0000000826   0.0000054665
        0.0000019115   0.0000007000   0.0000011741   0.0000002798  -0.0000005317
       -0.0000017867  -0.0000007652   0.0000015161  -0.0000004058  -0.0000004170
        0.0000001384  -0.0000006878  -0.0000003640   0.0000001030  -0.0000004477
       -0.0000003218  -0.0000000188  -0.0000014779  -0.0000005694  -0.0000041614
       -0.0000033358  -0.0000011420   0.0000064273   0.0000010372   0.0000003762
       -0.0000004212  -0.0000036164  -0.0000023722  -0.0000037357  -0.0000061584
       -0.0000032964   0.0000121050  -0.0000023817   0.0000060980  -0.0000027471
        0.0000003513   0.0000022285   0.0000141829   0.0000008362   0.0000003707
       -0.0000087315  -0.0000021414   0.0000041318   0.0000113177   0.0000006797
       -0.0000050148  -0.0000208305   0.0000002489   0.0000078737   0.0000489431
        0.0000330008   0.0000054502  -0.0000426096  -0.0001208599  -0.0000130124
       -0.0000257913   0.0000277709  -0.0000121751   0.0001766952   0.0001302110
       -0.0000970306  -0.0426499377  -0.0513877771   0.0090907530  -0.0086980096
       -0.0842068578   0.0900625254   0.1065619870  -0.2200753283   0.0055528143
        0.0000504113  -0.0000826906   0.0026660862   0.0001625900   0.0008958022
        0.0008509650   0.0003484280   0.0003255089   0.0003292684   0.0027267339
       -0.0052635258  -0.0009301901  -0.0006130341   0.0006155643  -0.0009790101
       -0.0010970979   0.0005883988  -0.0001345530   0.0006837834   0.0000941397
        0.0000918385   0.0000144112   0.0000052077  -0.0000321509  -0.0000135005
        0.0000819283  -0.0002082410  -0.0000060016  -0.0000378443  -0.0000246399
       -0.0000020226  -0.0000372614   0.0000072594  -0.0000016107  -0.0000122306
        0.0000020928   0.0000059819   0.0000007874  -0.0000144188  -0.0000004761
       -0.0000175980   0.0000149879  -0.0000026246  -0.0000035846   0.0000063759
        0.0000030875  -0.0000063597   0.0000020106   0.0000020323  -0.0000012371
       -0.0000013456   0.0000052614   0.0000093280   0.0000085485   0.0000001516
       -0.0000233490  -0.0000025328  -0.0000042921  -0.0000148517   0.0000013417
       -0.0000076963  -0.0000091093  -0.0000002185  -0.0000064746  -0.0000006057
       -0.0000048139  -0.0000003472  -0.0000001660  -0.0000001969  -0.0000009077
       -0.0000006233   0.0000017622  -0.0000029807  -0.0000004216   0.0000018012
       -0.0000022789  -0.0000002954   0.0000005700   0.0000003380   0.0000002706
       -0.0000010066  -0.0000004791   0.0000012740   0.0000003143  -0.0000002025
        0.0000011730   0.0000005249  -0.0000003841   0.0000003813   0.0000005085
        0.0000005726  -0.0000000135  -0.0000001456  -0.0000004164   0.0000005388
       -0.0000001847  -0.0000001082  -0.0000000321   0.0000004648  -0.0000001025
        0.0000001919   0.0000003344  -0.0000000270  -0.0000002410  -0.0000011451
       -0.0000000267   0.0000000364   0.0000004139  -0.0000000934  -0.0000001552
       -0.0000003936  -0.0000000430  -0.0000008170   0.0000001569  -0.0000001041
        0.0000000025  -0.0000000196   0.0000003013   0.0000000120   0.0000000826
       -0.0000002757   0.0000004726   0.0000001942  -0.0000007738  -0.0000003412
        0.0000010354   0.0000006767   0.0000007415  -0.0000005947   0.0000002468
       -0.0000000439  -0.0000001935   0.0000000705   0.0000003253  -0.0000002543
        0.0000007548   0.0000003077   0.0000000325  -0.0000009201   0.0000000951
       -0.0000002553   0.0000000319   0.0000003330  -0.0000000296   0.0000001132
        0.0000002443   0.0000001856  -0.0000007663  -0.0000006879  -0.0000002495
       -0.0000001520  -0.0000000167  -0.0000002559  -0.0000003777   0.0000007055
       -0.0000001669  -0.0000018659   0.0000005955  -0.0000003910  -0.0000023278
        0.0000010284  -0.0000009586  -0.0000001143   0.0000002608   0.0000006380
        0.0000000211   0.0000017827  -0.0000020662  -0.0000029482   0.0000014247
       -0.0000025605
       -0.0224362313  -0.0343705899   0.4813685057  -0.0255977677  -0.0509362075
       -0.1171028200  -0.0092706767  -0.0152307313  -0.0286359461   0.0002093874
       -0.0053941873  -0.0028858557  -0.0037247558   0.0000358640   0.0026162274
        0.0009230615   0.0000579419   0.0001723359  -0.0002746999  -0.0002094029
        0.0000372178  -0.0002258334   0.0000563603   0.0000091795  -0.0001744383
        0.0000592153  -0.0001945870   0.0010398320   0.0004984629  -0.0006495384
        0.0000131028  -0.0000783896   0.0000281993  -0.0000308545   0.0000615248
       -0.0000316752   0.0000252999   0.0000023605  -0.0000276477  -0.0000050909
       -0.0000004273   0.0000088917  -0.0000133562  -0.0000273380  -0.0000133928
        0.0000007713  -0.0000307075  -0.0000357348  -0.0000014752  -0.0000154727
       -0.0000101889   0.0000044804  -0.0000002390  -0.0000223612   0.0000237277
       -0.0000147456   0.0000069998  -0.0000380070   0.0000278781  -0.0000024904
        0.0000111253  -0.0000585940   0.0000138885  -0.0000097180   0.0000072750
        0.0000027444  -0.0000503587  -0.0000557460  -0.0000036251   0.0000414106
       -0.0000286860   0.0000096068  -0.0000490164  -0.0000315958   0.0000074970
       -0.0000012608  -0.0000013958   0.0000028957  -0.0000987354   0.0000005869
       -0.0000052783   0.0000116424   0.0000007281  -0.0000155491  -0.0000866558
       -0.0000053580   0.0000093872   0.0000816749   0.0000009933   0.0000124500
       -0.0000106470   0.0000087637  -0.0000272054   0.0000913492  -0.0000017941
        0.0000132771  -0.0000095829  -0.0000011433   0.0000040224  -0.0000407874
       -0.0000004673   0.0000002705   0.0000508837   0.0000180805   0.0000075950
       -0.0000681352  -0.0000360685  -0.0000195901   0.0000522180   0.0000002309
        0.0000000144  -0.0000647526   0.0000321208   0.0000140954   0.0000473549
       -0.0000191900  -0.0000061771  -0.0000074480  -0.0000369408  -0.0000238086
        0.0000362447  -0.0000232046  -0.0000074698  -0.0000330362   0.0000231543
        0.0000159065   0.0000406382  -0.0000022320   0.0000041104  -0.0000114841
       -0.0000114483  -0.0000054857  -0.0000035336  -0.0000012034  -0.0000017077
        0.0000038000  -0.0000033654  -0.0000011324   0.0000045615  -0.0000007300
        0.0000002116   0.0000036139  -0.0000017080   0.0000019579   0.0000082823
       -0.0000053389  -0.0000026479  -0.0000132147   0.0000237620   0.0000032251
       -0.0000216989  -0.0000009335   0.0000011325  -0.0000139344  -0.0000216261
       -0.0000033954   0.0000081160   0.0000056954   0.0000023294  -0.0000118996
        0.0000123806   0.0000051950  -0.0000028941   0.0000015192   0.0000001422
        0.0000048712   0.0000005184  -0.0000019835   0.0000043952   0.0000019867
       -0.0000028911   0.0000034944   0.0000030881  -0.0000003177   0.0000433688
       -0.0000000075  -0.0000042721  -0.0000338024  -0.0000249757  -0.0000171301
        0.0000398237   0.0000227290   0.0000072876  -0.0000057564   0.0000430645
        0.0000294083   0.0001019151  -0.0000004335  -0.0000156671  -0.0000143546
       -0.0000061200   0.0000225763   0.0000879120  -0.0000023251  -0.0000112399
       -0.0000848315   0.0000048074  -0.0000091586   0.0000195496   0.0000024491
        0.0000125785  -0.0001106945   0.0000007567  -0.0000077644   0.0001308770
        0.0000824131  -0.0000127681  -0.0001876548  -0.0001924873   0.0000102530
        0.0000747725   0.0000622656   0.0000124409   0.0003362625   0.0001922807
        0.0000094082   0.0420202956   0.0093732458  -0.0508647890   0.0210045779
        0.0897095340  -0.2378867371  -0.0024025877   0.0059265220  -0.0430578293
        0.0000361999   0.0015121039  -0.0061699843   0.0000056678  -0.0011237569
        0.0010194319  -0.0007273948  -0.0007361209   0.0007766450   0.0001015006
       -0.0001551792   0.0004793324  -0.0002464005   0.0008895397   0.0008304910
       -0.0003832418   0.0002367284   0.0000545278  -0.0001092804  -0.0001490616
       -0.0000355223   0.0000173658  -0.0000209991  -0.0000189766  -0.0000846563
       -0.0000082726   0.0001047716   0.0000092396   0.0000071412   0.0000248582
        0.0000071023   0.0000430915   0.0000093018   0.0000016275   0.0000034526
        0.0000068665   0.0000007152  -0.0000081597   0.0000157107  -0.0000002645
        0.0000029104  -0.0000009384   0.0000028029   0.0000086050   0.0000072794
        0.0000006132   0.0000034706   0.0000033901  -0.0000027365   0.0000023691
        0.0000033649  -0.0000005122   0.0000004872   0.0000165163  -0.0000000871
        0.0000073529   0.0000067672   0.0000027927   0.0000053512  -0.0000003665
        0.0000043917   0.0000018825  -0.0000002256   0.0000050189  -0.0000002999
        0.0000006163   0.0000020678   0.0000000528  -0.0000005633   0.0000017058
       -0.0000009109   0.0000010189   0.0000009142  -0.0000001941   0.0000006784
        0.0000018011  -0.0000015100   0.0000034697  -0.0000004637   0.0000012637
       -0.0000009037  -0.0000008718   0.0000008729   0.0000007750  -0.0000011890
       -0.0000013013  -0.0000008351   0.0000007166  -0.0000020391  -0.0000010391
       -0.0000020032   0.0000000982   0.0000008848   0.0000020419  -0.0000006026
       -0.0000001405  -0.0000013145   0.0000012471  -0.0000006698  -0.0000013694
        0.0000020813  -0.0000003668   0.0000016787  -0.0000003920   0.0000009110
       -0.0000010958   0.0000009880   0.0000005650  -0.0000013553  -0.0000004646
        0.0000014083   0.0000019421  -0.0000010174  -0.0000002465  -0.0000016602
        0.0000005193   0.0000009902  -0.0000005650   0.0000019820   0.0000005977
       -0.0000009958  -0.0000017141  -0.0000004095   0.0000013591   0.0000001499
       -0.0000011220  -0.0000013897  -0.0000016286   0.0000003488  -0.0000014062
       -0.0000013767   0.0000009158  -0.0000012833   0.0000003609  -0.0000011534
       -0.0000010013  -0.0000005725  -0.0000005353   0.0000019930   0.0000006432
        0.0000003025  -0.0000015931   0.0000000892  -0.0000010605  -0.0000020528
       -0.0000006947   0.0000009525   0.0000019186   0.0000005802  -0.0000002267
        0.0000003562   0.0000023452   0.0000009635  -0.0000020326   0.0000024903
        0.0000008842  -0.0000015756  -0.0000008090  -0.0000009312  -0.0000007551
        0.0000001796   0.0000004950   0.0000011184   0.0000006495   0.0000043629
       -0.0000010341   0.0000000094  -0.0000003315   0.0000038986  -0.0000010136
        0.0000005475
       -0.0753770636  -0.0224612329  -0.0255977677   0.4831231355  -0.0149283068
       -0.0020760947  -0.0618502167  -0.0009022736   0.0051045644  -0.1025089282
        0.0553450233  -0.0010590297  -0.1702335540  -0.0211861671   0.0218002683
       -0.0273160633   0.0043766823   0.0035595963  -0.0002834454   0.0030451255
        0.0006109187  -0.0011760479  -0.0001963597   0.0002499402   0.0012871513
       -0.0003701719   0.0010801474  -0.0130133553  -0.0103937998   0.0039522828
       -0.0003717032  -0.0002437089   0.0000574380  -0.0000106700   0.0001970740
       -0.0000552349   0.0000002252   0.0000436082  -0.0000114802  -0.0000042983
        0.0000147071  -0.0000051982  -0.0000441858  -0.0000420445  -0.0000018223
       -0.0000454848  -0.0001421220   0.0000503220  -0.0000019762  -0.0000173716
        0.0000189118  -0.0000112755  -0.0000308407   0.0000138990   0.0000273251
       -0.0000318851   0.0000102692  -0.0000664435   0.0000549814  -0.0000091246
        0.0000075133  -0.0001113336   0.0000253313   0.0000152389  -0.0000110527
       -0.0000001639  -0.0000617735  -0.0000212278   0.0000304464   0.0000211266
       -0.0000409458   0.0000168835  -0.0000423343  -0.0000526438   0.0000042540
        0.0000242834   0.0000051443   0.0000050356  -0.0003078235  -0.0000119068
        0.0000204054   0.0000464631   0.0000110447  -0.0000572103  -0.0002585186
       -0.0000202087   0.0000344830   0.0002596004   0.0000021347   0.0000517637
       -0.0000305804   0.0000216716  -0.0000942326   0.0002951332  -0.0000121199
        0.0000847260  -0.0000581584   0.0000010647  -0.0000013446  -0.0001084867
        0.0000010265   0.0000009686   0.0001223751   0.0000427715   0.0000173843
       -0.0001578764  -0.0000937611  -0.0000526208   0.0001172027  -0.0000011441
       -0.0000005157  -0.0001567038   0.0000985765   0.0000544466   0.0001228805
       -0.0000437633  -0.0000180721  -0.0000126076  -0.0001077014  -0.0000704031
        0.0000875228  -0.0000580411  -0.0000129685  -0.0000750763   0.0000693212
        0.0000281433   0.0001064851  -0.0000039181   0.0000111065  -0.0000284315
       -0.0000280963  -0.0000168552  -0.0000109864  -0.0000015603  -0.0000042765
        0.0000118005  -0.0000091511  -0.0000026628   0.0000131249  -0.0000012625
       -0.0000002587   0.0000130121  -0.0000029561   0.0000020219   0.0000074276
       -0.0000141570  -0.0000039582  -0.0000212508   0.0000532514   0.0000105684
       -0.0000526895   0.0000008828   0.0000004582  -0.0000225496  -0.0000528241
       -0.0000109449   0.0000081855   0.0000141264   0.0000041089  -0.0000277030
        0.0000288656   0.0000169462  -0.0000112845   0.0000022016   0.0000040316
        0.0000127316   0.0000015744  -0.0000000556   0.0000126072   0.0000031082
       -0.0000024616   0.0000115392   0.0000095949   0.0000025928   0.0001054685
        0.0000023387  -0.0000115293  -0.0000762961  -0.0000668023  -0.0000279546
        0.0000871944   0.0000560525   0.0000131370  -0.0000101645   0.0001056811
        0.0000689011   0.0002957645   0.0000095867  -0.0000836234  -0.0000313168
       -0.0000208132   0.0000896366   0.0002612192  -0.0000028635  -0.0000506853
       -0.0002580735   0.0000229091  -0.0000355361   0.0000503710  -0.0000055822
        0.0000606193  -0.0003044515   0.0000083519  -0.0000226883   0.0001469979
        0.0001199615  -0.0000203681  -0.0002115099  -0.0001680701  -0.0000007844
        0.0001332716  -0.0000363550  -0.0000461816   0.0008583475   0.0001651697
       -0.0003389590  -0.0150183028  -0.0197142103  -0.0197930649   0.0004585447
        0.0013112417  -0.0000773077   0.0044466352   0.0093056807   0.0097681244
        0.0007147611   0.0038937851  -0.0097588275   0.0002958972   0.0069215363
       -0.0131222682  -0.0061419166  -0.0121485002   0.0267570725   0.0048771643
       -0.0058246274   0.0007166867   0.0000589017   0.0007748480  -0.0016224057
       -0.0228581893   0.0234135092   0.0006189149   0.0004927056  -0.0012673244
       -0.0002774574  -0.0005893878  -0.0002289485   0.0001374504   0.0001177140
        0.0014182720  -0.0006441109   0.0000299577  -0.0000427869   0.0000062461
        0.0000275049   0.0000389677  -0.0000235531   0.0000210943   0.0000261950
       -0.0000040214   0.0000218292   0.0001009889  -0.0000139766  -0.0000003372
        0.0000064138  -0.0000143530   0.0000092854   0.0000062076  -0.0000121846
        0.0000018692   0.0000082830  -0.0000019349   0.0000064883   0.0000090880
       -0.0000059749   0.0000113690   0.0000179724  -0.0000019146  -0.0000065311
        0.0000055734   0.0000060334   0.0000116507   0.0000053545  -0.0000020628
        0.0000142685  -0.0000052671  -0.0000006518   0.0000024804  -0.0000064798
       -0.0000074077  -0.0000028424  -0.0000037302  -0.0000043061  -0.0000005227
       -0.0000000919  -0.0000039924   0.0000007832  -0.0000001612  -0.0000011365
        0.0000023065  -0.0000011419   0.0000073013  -0.0000086565   0.0000014449
        0.0000019125  -0.0000089187  -0.0000024714  -0.0000017738  -0.0000066256
       -0.0000055300  -0.0000037614   0.0000009385  -0.0000067560  -0.0000051363
       -0.0000060793   0.0000002505   0.0000037012   0.0000057051  -0.0000025690
       -0.0000000803  -0.0000054039   0.0000036466  -0.0000035911  -0.0000041071
        0.0000045419  -0.0000005919   0.0000065840  -0.0000021987   0.0000009199
       -0.0000031066   0.0000032933  -0.0000020823  -0.0000043756  -0.0000000551
        0.0000029113   0.0000066987  -0.0000017278  -0.0000008987  -0.0000047609
        0.0000028549   0.0000031483  -0.0000018554   0.0000049625   0.0000022144
       -0.0000019195  -0.0000049052  -0.0000022971   0.0000065343   0.0000022965
       -0.0000010280  -0.0000044590  -0.0000046991   0.0000006094  -0.0000032554
       -0.0000031712   0.0000023044  -0.0000044170   0.0000003439  -0.0000027808
       -0.0000050006  -0.0000027081  -0.0000031835   0.0000069004   0.0000019319
        0.0000008538  -0.0000058185  -0.0000000659  -0.0000038137  -0.0000055887
       -0.0000034041   0.0000034040   0.0000058409   0.0000025643   0.0000000362
        0.0000009552   0.0000066055   0.0000049602  -0.0000062961   0.0000050392
        0.0000036399   0.0000020587   0.0000002336  -0.0000067746  -0.0000001377
       -0.0000006821   0.0000012605  -0.0000022955  -0.0000006507   0.0000044284
       -0.0000060990  -0.0000018235   0.0000062958   0.0000104129  -0.0000043068
        0.0000063857
       -0.0264948708  -0.1089438592  -0.0509362075  -0.0149283068   0.4752676504
       -0.0000984745  -0.0036352582  -0.0814183796   0.0434834308   0.0575620453
       -0.1467300772   0.0019916752  -0.0173999270  -0.0681473300   0.0045150099
        0.0174277655   0.0051779694  -0.0037239760   0.0037886559  -0.0025907083
        0.0006457426  -0.0000471924  -0.0009908056   0.0002171060  -0.0009573364
       -0.0039534165   0.0018687791  -0.0241148575  -0.0062621570   0.0049851213
       -0.0007579363   0.0000574657   0.0000918633   0.0000813999  -0.0000301372
       -0.0000007336  -0.0000340906   0.0000184059  -0.0000607212   0.0000357772
        0.0000147445   0.0000151781   0.0000407258   0.0000260943   0.0000097678
        0.0000374056   0.0001820429  -0.0000944327  -0.0000066190   0.0000126923
       -0.0000292022   0.0000152074   0.0000436860  -0.0000270051  -0.0000115024
        0.0000238254  -0.0000024368   0.0000393444  -0.0000379450   0.0000060862
        0.0000168128   0.0000758795  -0.0000106878  -0.0000104127  -0.0000041715
        0.0000073292  -0.0000039148   0.0000940475   0.0000180893  -0.0000528526
       -0.0000133100  -0.0000109352   0.0000396220   0.0000131872  -0.0000112491
        0.0000144039   0.0000008011   0.0000070955   0.0000229507  -0.0000030999
        0.0000334580  -0.0000089742  -0.0000014751  -0.0000021692   0.0000405048
        0.0000002755   0.0000040501  -0.0000403372  -0.0000007241   0.0000040757
        0.0000170826   0.0000025947  -0.0000096116  -0.0000585695  -0.0000013645
       -0.0000033521  -0.0000028770  -0.0000000986  -0.0000015688   0.0000231904
        0.0000008073   0.0000000890  -0.0000214971   0.0000087953   0.0000067358
        0.0000415899   0.0000398429   0.0000223150  -0.0000055513  -0.0000002048
       -0.0000002657   0.0000405889  -0.0000413597  -0.0000227265  -0.0000212229
       -0.0000093509  -0.0000068225   0.0000062125   0.0000384038   0.0000261377
       -0.0000385121   0.0000073425  -0.0000025813   0.0000205692  -0.0000230738
       -0.0000084929  -0.0000284470  -0.0000039100  -0.0000059247   0.0000142691
        0.0000046289   0.0000045840   0.0000034464   0.0000030023   0.0000015425
       -0.0000044268   0.0000032468   0.0000009837  -0.0000057733  -0.0000002242
        0.0000001307  -0.0000057912   0.0000003146  -0.0000009351   0.0000025155
        0.0000103716   0.0000039945   0.0000092537  -0.0000007031   0.0000022360
        0.0000059687  -0.0000003404   0.0000001388   0.0000097292   0.0000005087
       -0.0000018682   0.0000009955  -0.0000097105  -0.0000050180   0.0000139680
       -0.0000051113  -0.0000046965   0.0000036230  -0.0000034650  -0.0000014574
       -0.0000052870  -0.0000003434  -0.0000003278  -0.0000051619  -0.0000005210
        0.0000007450  -0.0000037271  -0.0000042815  -0.0000014917  -0.0000277347
        0.0000033856   0.0000058633   0.0000212227   0.0000218802   0.0000091395
       -0.0000392608  -0.0000065515   0.0000019471   0.0000073082  -0.0000367163
       -0.0000249057  -0.0000591192  -0.0000009311   0.0000053070   0.0000154896
       -0.0000033583   0.0000104670  -0.0000327965   0.0000048806  -0.0000043870
        0.0000344809  -0.0000018953  -0.0000054849  -0.0000029102  -0.0000027035
        0.0000042234   0.0000278144   0.0000088920  -0.0000293446  -0.0001209667
       -0.0000377788   0.0000066033   0.0002586581   0.0001717731  -0.0000293020
       -0.0001792983  -0.0002775797  -0.0000010859  -0.0002619970  -0.0002667172
       -0.0001475804  -0.0054184449  -0.0059170311  -0.0052272360   0.0034976234
        0.0063760016   0.0063151139  -0.0066804076  -0.0205309101  -0.0177939788
        0.0012105226   0.0063195084  -0.0157800259  -0.0001351213  -0.0141151177
        0.0233693804  -0.0023534631  -0.0031793920   0.0065201768   0.0107849226
       -0.0203387751  -0.0027265106   0.0082341238  -0.0137096697   0.0036611524
       -0.0008471359   0.0038556120  -0.0003895266   0.0003735582  -0.0000143523
       -0.0003638257   0.0013296115  -0.0000275019  -0.0000724740  -0.0001147606
        0.0001797803  -0.0003854159  -0.0000813353  -0.0001192346   0.0000646129
       -0.0000042125  -0.0000660241   0.0000393090  -0.0000501688  -0.0000161629