$hessian                                                                        
        0.5269591050   0.0051095003   0.0020373028  -0.0645023558   0.0125882411
        0.0007530305  -0.0109579439   0.0279484958   0.0001193041   0.0007979048
       -0.0024937281  -0.0009566694   0.0015589033  -0.0181062864   0.0007878572
       -0.0013913919  -0.0003878570   0.0001639129   0.0005050352   0.0005932621
       -0.0002002952   0.0002534933  -0.0001196025   0.0002341703  -0.0002490600
        0.0003403789   0.0010567642  -0.0013965059  -0.0010117729   0.0004539520
       -0.0000484237   0.0000889041   0.0000256786  -0.0000931518  -0.0000046129
       -0.0000153216  -0.0000353090  -0.0000023325   0.0000055880  -0.0000229051
       -0.0000079213   0.0000110904   0.0000134023  -0.0000075245   0.0000072010
        0.0000245603  -0.0000104233   0.0000017312   0.0000258828  -0.0000013997
        0.0000106691   0.0000622264  -0.0000275591   0.0000222897   0.0000082599
        0.0000467565  -0.0000805263  -0.0001345800  -0.0000790871   0.0000710505
        0.0000196506  -0.0002305421   0.0000338030  -0.0000156682  -0.0000480973
        0.0000124955   0.0000480549   0.0000143514   0.0000015680  -0.0000778510
        0.0000243948   0.0000558326   0.0002821769   0.0000547414  -0.0000297291
       -0.0001788097  -0.0000326275  -0.0000381685   0.0000085235   0.0000230070
       -0.0000091294  -0.0000401697   0.0000137985   0.0000110533   0.0000173918
        0.0000241872   0.0000223754  -0.0000297288   0.0001001514   0.0001217867
        0.0000089264  -0.0000112279  -0.0000192882  -0.0000200131   0.0000028770
       -0.0000134732  -0.0000183491  -0.0000079619  -0.0000037393  -0.0000027423
       -0.0000079071  -0.0000129486  -0.0000193796  -0.0001300333  -0.0001494614
        0.0000545333   0.0001033888   0.0001325984   0.0001013369  -0.0001096765
       -0.0001195525  -0.0000208155   0.0001437333   0.0001673619  -0.0000276325
       -0.0001127952  -0.0001312015   0.0000087653   0.0000185760   0.0000171336
       -0.0000211349  -0.0000022202   0.0000109648  -0.0000209619   0.0000139221
       -0.0000005047  -0.0000049953   0.0000108307   0.0000113670   0.0000089169
       -0.0000279292  -0.0000352169  -0.0000488747  -0.0000455688  -0.0000358479
       -0.0000450055   0.0000042114   0.0000775333  -0.0002299548   0.0001939534
       -0.0000375738   0.0003403351  -0.0000216025  -0.0000086667  -0.0002397603
       -0.0002446054  -0.0000090744   0.0000672642  -0.0000490654   0.0000416741
       -0.0000079762   0.0000006689  -0.0000108498   0.0000264471  -0.0000325146
        0.0000018444   0.0000079831   0.0000188064  -0.0000140027   0.0000145564
       -0.0000198224   0.0000000316   0.0000162025   0.0000236084  -0.0000061532
        0.0002183175  -0.0001929622  -0.0000594797   0.0000251897  -0.0000148657
       -0.0000017762   0.0000062032  -0.0000238907  -0.0000124947  -0.0000051038
        0.0000128690   0.0000096633  -0.0000056018  -0.0000531315  -0.0000173201
        0.0000932810   0.0000233150  -0.0000807153   0.0000052268  -0.0000465863
       -0.0001239243  -0.0003311792  -0.0000727935  -0.0000389910   0.0002277474
        0.0003649726   0.0001183307  -0.2464054826   0.0576641622  -0.0662268478
       -0.0478479193  -0.0076136511  -0.0271364946  -0.1531077098  -0.0769544922
        0.0904987968  -0.0054972076   0.0030060943  -0.0014610658   0.0005967973
        0.0005807425   0.0006655006   0.0006467404   0.0013813305  -0.0002912196
        0.0001049488   0.0004562287   0.0000704034   0.0003645694  -0.0002731257
       -0.0007262808   0.0004803022  -0.0008242740  -0.0001312713  -0.0006459734
       -0.0012952901   0.0001971981   0.0000128186  -0.0000272739   0.0000141012
       -0.0000572815  -0.0002193197  -0.0000684336   0.0000051244  -0.0000020131
        0.0000023893  -0.0000064676   0.0000059025   0.0000053157   0.0000055009
       -0.0000021962   0.0000040324  -0.0000084022  -0.0000058979  -0.0000023021
       -0.0000049649   0.0000027775   0.0000004430   0.0000014331   0.0000034027
       -0.0000081531   0.0000030181  -0.0000022579   0.0000142861  -0.0000056685
       -0.0000002387  -0.0000033781   0.0000028194  -0.0000121562   0.0000048212
        0.0000018830   0.0000082680  -0.0000048801   0.0000005710  -0.0000102109
        0.0000130770  -0.0000172948  -0.0000008628   0.0000135449   0.0000082506
       -0.0000260743  -0.0000086923  -0.0000127198  -0.0000204079  -0.0000095550
        0.0000073429  -0.0000029335   0.0000021708   0.0000022861  -0.0000095226
       -0.0000119434  -0.0000049393  -0.0000119260  -0.0000037456   0.0000044976
        0.0000051140   0.0000028868   0.0000032108   0.0000020877   0.0000035522
        0.0000039894   0.0000008149   0.0000065761   0.0000018783   0.0000003545
        0.0000040412  -0.0000044643  -0.0000016772  -0.0000124322   0.0000046543
        0.0000008986   0.0000048516   0.0000043888   0.0000045693   0.0000031041
       -0.0000072486  -0.0000044177  -0.0000050790  -0.0000055249   0.0000032163
        0.0000032935  -0.0000091154   0.0000005399  -0.0000062232   0.0000013096
       -0.0000055493  -0.0000025293  -0.0000064796   0.0000145395   0.0000054512
        0.0000037850  -0.0000030175  -0.0000012540   0.0000026828  -0.0000029227
       -0.0000048081   0.0000035485  -0.0000040314  -0.0000037880  -0.0000048165
        0.0000013822   0.0000146963   0.0000048038  -0.0000031670  -0.0000049416
        0.0000055730  -0.0000052143  -0.0000012702  -0.0000072253   0.0000043770
        0.0000055080   0.0000014856   0.0000091722   0.0000123382   0.0000036568
       -0.0000011117  -0.0000021772  -0.0000213566   0.0000036684   0.0000187648
       -0.0000091696   0.0000204293  -0.0000044392  -0.0000182833   0.0000145331
        0.0000021217  -0.0000205345   0.0000018976   0.0000067186  -0.0000069830
       -0.0000073467   0.0000028761  -0.0000322801   0.0000095513   0.0000235306
       -0.0000264883   0.0000224033   0.0000270175   0.0000001339   0.0000407509
        0.0000225235  -0.0000293382  -0.0000499581   0.0000243543  -0.0000351338
        0.0000259605   0.0001060037
        0.0051095003   0.4408982298  -0.0086786189   0.0186514987  -0.1753194031
       -0.0135128043   0.0078897604  -0.0150911557   0.0003880500   0.0016557597
       -0.0153755455  -0.0073163467  -0.0063309158  -0.0231728104   0.0062707381
        0.0011459406  -0.0003855441  -0.0001837428   0.0000584616   0.0001683882
        0.0005682443   0.0002968300   0.0001154980   0.0000272590  -0.0005357117
        0.0000850925   0.0011640378  -0.0011219829  -0.0002572599  -0.0011128341
       -0.0000854633   0.0001387572   0.0000171412   0.0000548913   0.0000065967
        0.0000007817   0.0000061596  -0.0000102563   0.0000055727   0.0000012540
        0.0000090278  -0.0000168846  -0.0000048300   0.0000096335  -0.0000252784
       -0.0000023840   0.0000005564  -0.0000077017  -0.0000021965   0.0000098743
       -0.0000085638  -0.0000152311  -0.0000044076   0.0000131954  -0.0000132498
       -0.0000398251   0.0000297309  -0.0000630046  -0.0000661152  -0.0000327913
       -0.0001196495  -0.0001810616   0.0001247227   0.0001202741  -0.0000465469
       -0.0000204576  -0.0000173647  -0.0000158301   0.0000151564   0.0000235736
       -0.0000448170  -0.0000093640  -0.0000519268   0.0000199087   0.0000086167
        0.0000338993   0.0000111556   0.0000107510  -0.0000215701  -0.0000192684
       -0.0000129959   0.0000241291  -0.0000109328  -0.0000113914  -0.0000035337
       -0.0000056263  -0.0000052523   0.0000051804  -0.0000174988  -0.0000202203
        0.0000006735   0.0000006487   0.0000048056   0.0000065560  -0.0000019566
        0.0000013136   0.0000069785  -0.0000013117   0.0000013247   0.0000034895
        0.0000017095   0.0000047514  -0.0000034850   0.0000181338   0.0000212058
       -0.0000036268  -0.0000177134  -0.0000216333  -0.0000185287   0.0000182158
        0.0000201907   0.0000006250  -0.0000196789  -0.0000235629   0.0000055702
        0.0000162020   0.0000180297  -0.0000008167  -0.0000046767  -0.0000034217
        0.0000015241   0.0000005475  -0.0000019156   0.0000025988  -0.0000001892
       -0.0000016449   0.0000016282  -0.0000033679  -0.0000041808  -0.0000052107
        0.0000073986   0.0000070597   0.0000172439   0.0000113449   0.0000074339
       -0.0000015049   0.0000112432  -0.0000031513   0.0000233623  -0.0000322416
        0.0000256095  -0.0000120891   0.0001181788  -0.0000091471  -0.0000233013
       -0.0000460047   0.0000169748  -0.0000112283  -0.0000054039  -0.0000087407
       -0.0000144652  -0.0000032256   0.0000071714  -0.0000071493  -0.0000009407
        0.0000050080  -0.0000067309   0.0000018822   0.0000023352  -0.0000031411
       -0.0000021407   0.0000013913  -0.0000020445   0.0000027136   0.0000001772
        0.0000393068  -0.0000160524   0.0000019579  -0.0000414359  -0.0000219537
       -0.0000015596   0.0000099837   0.0000445022   0.0000202117  -0.0000567261
       -0.0000350923   0.0000001341   0.0000297273   0.0000742456   0.0000150503
       -0.0002457833  -0.0000167664   0.0000599095   0.0000245665  -0.0000609259
       -0.0000320915  -0.0000242005   0.0000230492  -0.0000130341  -0.0000045830
        0.0000388790  -0.0000168376   0.0575194828  -0.0583002358   0.0187781076
       -0.0075158692  -0.0588514804  -0.0591592308  -0.0766233581  -0.0949389513
        0.0630339477   0.0019034854  -0.0004148179   0.0005978726  -0.0008842731
        0.0004278915  -0.0003044945  -0.0010745860   0.0005498494  -0.0002095110
       -0.0000301551   0.0006332119   0.0008364686  -0.0001479916  -0.0005275117
       -0.0021617547   0.0002522755   0.0005806052   0.0009919586   0.0000954000
       -0.0004460522   0.0000369135   0.0000284088  -0.0000456818  -0.0000315576
       -0.0001122875  -0.0001723410  -0.0001799556  -0.0000292115  -0.0000095855
        0.0000025184  -0.0000002802  -0.0000013075   0.0000016796   0.0000013538
       -0.0000003359   0.0000078667  -0.0000059368   0.0000049349   0.0000123656
        0.0000011414   0.0000060203   0.0000036776  -0.0000026889   0.0000014315
        0.0000085002  -0.0000000884   0.0000036751   0.0000105578   0.0000009452
        0.0000063851   0.0000067014   0.0000012045  -0.0000036761   0.0000045286
       -0.0000022878  -0.0000036071   0.0000050674  -0.0000037983  -0.0000017786
        0.0000087419  -0.0000057204  -0.0000057537   0.0000111431  -0.0000034533
        0.0000219075   0.0000018335  -0.0000036945   0.0000083995   0.0000004563
       -0.0000062090   0.0000023219   0.0000011165  -0.0000017636   0.0000035596
        0.0000067748   0.0000016858  -0.0000009800   0.0000030680  -0.0000004192
       -0.0000000778   0.0000009309  -0.0000009457  -0.0000012140   0.0000028899
       -0.0000013366  -0.0000015952   0.0000007514  -0.0000007889   0.0000004428
       -0.0000014725   0.0000026535   0.0000001451   0.0000006178  -0.0000022176
        0.0000019373  -0.0000007181  -0.0000015547  -0.0000014915   0.0000016206
        0.0000022640  -0.0000000866   0.0000015276  -0.0000004435  -0.0000023697
       -0.0000008017   0.0000019390   0.0000018965   0.0000016651   0.0000002681
        0.0000020886   0.0000023319   0.0000018518   0.0000020321  -0.0000022091
       -0.0000021772   0.0000018950  -0.0000018402   0.0000007803   0.0000015370
        0.0000009371  -0.0000006628   0.0000029202  -0.0000001335   0.0000020375
        0.0000013371   0.0000002244   0.0000003991   0.0000019931   0.0000003522
       -0.0000015707   0.0000012064  -0.0000011981   0.0000008373   0.0000006286
       -0.0000017796  -0.0000022582  -0.0000006137  -0.0000018446  -0.0000020903
        0.0000002630  -0.0000002911   0.0000115358  -0.0000078310  -0.0000087102
       -0.0000001819   0.0000039980  -0.0000072211   0.0000034100  -0.0000014446
       -0.0000036033   0.0000062695   0.0000016223  -0.0000059733   0.0000039403
        0.0000041887  -0.0000041079   0.0000237089   0.0000102057  -0.0000115434
        0.0000315147  -0.0000030972  -0.0000177075   0.0000059217   0.0000116292
        0.0000057390   0.0001365260  -0.0000733845  -0.0000194385   0.0000531791
        0.0000070759  -0.0000242305
        0.0020373028  -0.0086786189   0.5213040431   0.0007577646  -0.0081506564
       -0.0604538766  -0.0027438962   0.0079060026   0.0004166892   0.0028117429
       -0.0284765223  -0.0086299718   0.0008933721   0.0162936212  -0.0005894947
       -0.0000213398   0.0009153995   0.0000088459  -0.0000783598  -0.0003849392
       -0.0001675811  -0.0002917726  -0.0000601259  -0.0000263220   0.0001593289
       -0.0003015120  -0.0009536266   0.0014795197   0.0006611761  -0.0007654271
        0.0000793341  -0.0000345888  -0.0000268442   0.0000183271  -0.0000104773
       -0.0000016800   0.0000170070  -0.0000030163   0.0000052691   0.0000069864
       -0.0000026194  -0.0000041341  -0.0000039213  -0.0000109314  -0.0000004011
       -0.0000141554  -0.0000037830  -0.0000010745  -0.0000129826  -0.0000086961
       -0.0000089500  -0.0000336963   0.0000207523  -0.0000177464   0.0000079260
       -0.0000124058   0.0000363029   0.0000627677   0.0000617909  -0.0000413360
        0.0000478712   0.0001868063  -0.0000398139   0.0000397795   0.0000235311
       -0.0000069905  -0.0000294036   0.0000022473   0.0000078231   0.0000575188
       -0.0000092058  -0.0000431790  -0.0002134844  -0.0000200985   0.0000135257
        0.0001300788   0.0000285582   0.0000216161  -0.0000035747  -0.0000211472
        0.0000150582   0.0000278761  -0.0000070298  -0.0000101643  -0.0000103369
       -0.0000129069  -0.0000142163   0.0000192112  -0.0000654237  -0.0000797468
       -0.0000015872   0.0000112202   0.0000113546   0.0000142616   0.0000008263
        0.0000054141   0.0000146479   0.0000070949   0.0000001826   0.0000045738
        0.0000055057   0.0000049602   0.0000134226   0.0000848064   0.0000933521
       -0.0000325618  -0.0000676108  -0.0000856118  -0.0000661709   0.0000698279
        0.0000787454   0.0000174627  -0.0000901779  -0.0001066667   0.0000170469
        0.0000682128   0.0000825044  -0.0000016724  -0.0000132764  -0.0000150205
        0.0000110093   0.0000010475  -0.0000079032   0.0000104769  -0.0000095193
       -0.0000023033   0.0000030790  -0.0000066800  -0.0000083279  -0.0000087586
        0.0000162825   0.0000213742   0.0000222959   0.0000255150   0.0000203056
        0.0000313432  -0.0000041498  -0.0000523148   0.0002432459  -0.0002274455
        0.0000570214  -0.0003706057   0.0000587291  -0.0000140110   0.0002361120
        0.0001792268   0.0000190103  -0.0000649060   0.0000458072  -0.0000384509
        0.0000083585  -0.0000074664  -0.0000031885  -0.0000136282   0.0000193231
       -0.0000051760   0.0000065435  -0.0000106858   0.0000078812  -0.0000108576
        0.0000201069  -0.0000033203  -0.0000005630  -0.0000191561   0.0000035735
       -0.0002656137   0.0002154312   0.0000483507  -0.0000272282  -0.0000281060
        0.0000196968  -0.0000023005   0.0000213892   0.0000141791  -0.0000305771
       -0.0000300371  -0.0000030759  -0.0000261249   0.0000540426   0.0000445026
       -0.0001194651   0.0000307297   0.0000153894  -0.0001028804   0.0000920589
        0.0000348869   0.0003808639  -0.0000007612  -0.0000056009  -0.0002186813
       -0.0002742723  -0.0000611202  -0.0666698149   0.0189478084  -0.0656977470
       -0.0271523335  -0.0594080105  -0.2627143430   0.0904191187   0.0635175413
       -0.1189683754  -0.0017820826   0.0008731192  -0.0000719642  -0.0002706151
        0.0009035776   0.0005817641   0.0003392931  -0.0003471353   0.0001867494
       -0.0002634992  -0.0008710806   0.0008651116  -0.0003737700  -0.0032679165
       -0.0055651264   0.0005710286  -0.0005234570   0.0009876860  -0.0001142697
        0.0000566154   0.0001119816   0.0000000345   0.0000102373   0.0000140501
       -0.0000035214   0.0001619025   0.0002716977   0.0000042603   0.0000068836
        0.0000095369   0.0000051400   0.0000085911  -0.0000002051  -0.0000039835
        0.0000040150  -0.0000025406   0.0000026752  -0.0000010238   0.0000026224
        0.0000020056   0.0000032027   0.0000021134   0.0000032505   0.0000008357
        0.0000004401  -0.0000029994   0.0000031280  -0.0000099632   0.0000016339
        0.0000006668   0.0000051846  -0.0000029437   0.0000105467  -0.0000032886
        0.0000048050   0.0000011358   0.0000008078   0.0000074054   0.0000088212
       -0.0000107941   0.0000159840   0.0000021441  -0.0000092942  -0.0000026071
        0.0000151109   0.0000069509   0.0000089039   0.0000115852   0.0000053999
       -0.0000025600   0.0000004439  -0.0000018492  -0.0000002012   0.0000048037
        0.0000061777   0.0000022226   0.0000068283   0.0000006933  -0.0000019095
       -0.0000026511  -0.0000033085  -0.0000016778  -0.0000020130  -0.0000013254
       -0.0000022966  -0.0000003331  -0.0000040725  -0.0000010608   0.0000005009
       -0.0000024667   0.0000034715   0.0000005463   0.0000065996  -0.0000025921
        0.0000008538  -0.0000033009  -0.0000036059  -0.0000029984   0.0000003392
        0.0000024272   0.0000023109   0.0000015878   0.0000015805  -0.0000009488
       -0.0000004737   0.0000046121  -0.0000008895   0.0000032982   0.0000005375
        0.0000032877   0.0000033030   0.0000038109  -0.0000087138  -0.0000024238
       -0.0000031199   0.0000007675   0.0000014083   0.0000010305   0.0000008621
        0.0000042307  -0.0000018087   0.0000010662   0.0000025691   0.0000033862
       -0.0000016630  -0.0000076941  -0.0000027018   0.0000015092   0.0000031955
       -0.0000027092   0.0000026590   0.0000010464   0.0000028643  -0.0000032832
       -0.0000027903  -0.0000002193  -0.0000050503  -0.0000042164   0.0000042660
        0.0000010693   0.0000044346  -0.0000041557  -0.0000008152   0.0000058514
        0.0000007339  -0.0000095162   0.0000080146   0.0000079356  -0.0000080529
        0.0000010810   0.0000110419  -0.0000022604  -0.0000013807   0.0000049231
        0.0000025546   0.0000011483   0.0000271944  -0.0000077475  -0.0000108525
        0.0000269029  -0.0000137667  -0.0000183832   0.0000171341  -0.0000341245
       -0.0000184950   0.0002148462  -0.0000868266  -0.0001009779   0.0000792461
       -0.0000302751   0.0000133880
       -0.0645023558   0.0186514987   0.0007577646   0.4935484683  -0.0003650334
        0.0013969616  -0.1696018222   0.0240660538  -0.0311527882  -0.0641013464
       -0.0036128048  -0.0156023106  -0.1193265004  -0.0386923234   0.0452983796
       -0.0271573706  -0.0120897286   0.0138859034  -0.0037841656   0.0010623048
       -0.0018598267  -0.0008248686  -0.0002060951   0.0001067987   0.0003561449
        0.0012181814  -0.0017731749   0.0052410352  -0.0010860589   0.0015405440
        0.0001651673   0.0002056952  -0.0002834472   0.0001570560  -0.0000770236
        0.0001040039   0.0000816879   0.0000672959  -0.0000823325   0.0000003394
       -0.0000065436   0.0000072808  -0.0000365723   0.0000115895  -0.0000131945
       -0.0000233888   0.0000092705   0.0000012981  -0.0000232066  -0.0000033480
       -0.0000013866  -0.0001050131   0.0000322529  -0.0000377342   0.0000062828
       -0.0000670598   0.0000815355   0.0001174370   0.0001596120  -0.0001480830
        0.0003200658   0.0003998290  -0.0002942599  -0.0002311408   0.0000295180
       -0.0000007407   0.0000179126  -0.0000445963  -0.0000338949   0.0000410877
       -0.0000595168  -0.0000144114  -0.0000497872  -0.0000647776   0.0000163459
        0.0000249528   0.0000287154   0.0000391818  -0.0000276733  -0.0000194801
       -0.0000335984   0.0000443682  -0.0000259593  -0.0000300068  -0.0000091363
       -0.0000159625  -0.0000075958   0.0000169325  -0.0000496728  -0.0000608970
       -0.0000007910   0.0000095170   0.0000089723   0.0000083697   0.0000024021
       -0.0000052241   0.0000076921   0.0000016927   0.0000004623   0.0000081261
        0.0000223571   0.0000238536   0.0000012338   0.0000578712   0.0000675603
       -0.0000256731  -0.0000493128  -0.0000645897  -0.0000585096   0.0000527488
        0.0000536603   0.0000045349  -0.0000680935  -0.0000855724   0.0000182074
        0.0000571002   0.0000677102  -0.0000021236  -0.0000121240  -0.0000120456
        0.0000092757   0.0000008975  -0.0000015388   0.0000160714   0.0000083411
       -0.0000038500   0.0000082388  -0.0000191470  -0.0000219882  -0.0000036474
        0.0000216719   0.0000193333   0.0000543253   0.0000515128   0.0000298148
        0.0000082597  -0.0000082136  -0.0000167276  -0.0001906680   0.0001426287
       -0.0000404670   0.0002539400   0.0000098544   0.0000306381  -0.0001773419
       -0.0000455984   0.0000222931   0.0000084839   0.0000345145  -0.0000290641
        0.0000200437  -0.0000129479   0.0000031638   0.0000024108   0.0000011232
       -0.0000088539   0.0000024169  -0.0000040444   0.0000008279  -0.0000075485
        0.0000085015   0.0000066651   0.0000128748  -0.0000308551   0.0000119816
        0.0001987830  -0.0001520898   0.0000373524  -0.0000049613   0.0000158339
       -0.0000227974  -0.0000059545  -0.0000319421  -0.0000207878   0.0000118162
        0.0000055154   0.0000105400  -0.0000019007   0.0000009248   0.0000005344
        0.0000189298  -0.0000111005  -0.0000234213   0.0000055113   0.0000027720
       -0.0000144009  -0.0003095464   0.0000602491  -0.0000025547   0.0002378617
        0.0000239224  -0.0000085982  -0.0064828484   0.0270670545   0.0015072516
        0.0002966772  -0.0031442405  -0.0005562233   0.0008131481  -0.0200612564
       -0.0005961562  -0.0074777888   0.0049756938  -0.0017135634  -0.0067887199
        0.0004905490  -0.0050870809  -0.0248219501   0.0019703702  -0.0028218935
        0.0002728104   0.0045451530   0.0204489468   0.0001723362   0.0010642140
        0.0026152869  -0.0057163363  -0.0063436572  -0.0260229539   0.0006213776
       -0.0004285157   0.0006357593  -0.0009502161  -0.0005480520   0.0005438741
       -0.0004683681   0.0006478216  -0.0007201928  -0.0000156520  -0.0000048105
       -0.0000047850   0.0000208696   0.0000098995  -0.0000150915  -0.0000138312
        0.0000176934  -0.0000175131   0.0000155847   0.0000197120  -0.0000062856
        0.0000141204  -0.0000016605   0.0000052964   0.0000127171  -0.0000007183
       -0.0000020946  -0.0000285283   0.0000254322   0.0000016423   0.0000118981
        0.0000044010  -0.0000010088  -0.0000256174  -0.0000003890  -0.0000234580
        0.0000134919   0.0000050115  -0.0000013395   0.0000237584   0.0000140548
       -0.0000146164   0.0000396129   0.0000209997  -0.0000185822  -0.0000162586
        0.0000219768   0.0000021583   0.0000050530   0.0000230452   0.0000063858
       -0.0000081830   0.0000147938  -0.0000044345  -0.0000083260   0.0000047800
        0.0000031829   0.0000206011  -0.0000080632   0.0000110468   0.0000060246
        0.0000012232   0.0000003985  -0.0000006062  -0.0000024116   0.0000051258
       -0.0000010831   0.0000009232  -0.0000018564  -0.0000032619   0.0000040656
       -0.0000101664   0.0000228351   0.0000167126  -0.0000126716  -0.0000042038
        0.0000067533  -0.0000048474   0.0000008502   0.0000000119  -0.0000013742
        0.0000145127   0.0000108113   0.0000080128   0.0000040576  -0.0000213820
       -0.0000113970   0.0000053510   0.0000099360   0.0000078141   0.0000010413
        0.0000086685   0.0000138810   0.0000187329   0.0000146645  -0.0000107616
       -0.0000049036   0.0000086404  -0.0000004506   0.0000022520  -0.0000021853
        0.0000102168   0.0000020598  -0.0000032651   0.0000005644   0.0000230805
       -0.0000101269   0.0000128881   0.0000036580   0.0000001410   0.0000001891
       -0.0000028190   0.0000005565  -0.0000001396   0.0000139757  -0.0000045612
       -0.0000106355  -0.0000125810  -0.0000114111  -0.0000087938  -0.0000033468
       -0.0000082268   0.0000006254  -0.0000126367   0.0000054955   0.0000001350
        0.0000028037  -0.0000116511  -0.0000015996  -0.0000011911  -0.0000018233
        0.0000131741   0.0000131961  -0.0000124847  -0.0000053743  -0.0000046687
        0.0000088581   0.0000019155   0.0000088702   0.0000046902   0.0000007755
       -0.0000006718  -0.0000127587   0.0000023635   0.0000035325  -0.0000078137
       -0.0000165737   0.0000024724   0.0000270139   0.0000158966  -0.0000920962
       -0.0000226728   0.0000299117
        0.0125882411  -0.1753194031  -0.0081506564  -0.0003650334   0.4580408327
       -0.0038498621   0.0253984774  -0.0691869432   0.0080592089  -0.0023538633
       -0.0685037298  -0.0339057028  -0.0347825121  -0.0830108647   0.0334281909
       -0.0045647651   0.0009472163  -0.0025244772   0.0016922457   0.0040962015
        0.0016987185  -0.0004224895  -0.0006455157   0.0011223835   0.0015180958
        0.0028268796   0.0051400834  -0.0101318127  -0.0097080945   0.0137395284
       -0.0005270727  -0.0000225951   0.0003292878   0.0000285874  -0.0000009818
       -0.0000113518   0.0000088076  -0.0000005209   0.0000301324   0.0000055629
       -0.0000009455  -0.0000064601   0.0000026171   0.0000336683  -0.0000475145
        0.0000045480  -0.0000007566  -0.0000144230   0.0000046304   0.0000068536
        0.0000006200   0.0000481637   0.0000003836  -0.0000133799  -0.0000578532
       -0.0000117949  -0.0000734035   0.0000349187  -0.0003087074   0.0000072350
        0.0004085832  -0.0002416926  -0.0009051922  -0.0000663498  -0.0000870168
       -0.0000656649   0.0000538557   0.0000516096   0.0000405281  -0.0000330302
        0.0000230031   0.0000110877   0.0000691827   0.0000195440  -0.0000365891
       -0.0000737331  -0.0000053932   0.0000133455   0.0000047905  -0.0000037416
       -0.0000002816  -0.0000058034  -0.0000144172  -0.0000194795   0.0000007696
        0.0000121506   0.0000168261  -0.0000036306   0.0000278589   0.0000325014
        0.0000134978   0.0000013438   0.0000010892  -0.0000116151  -0.0000019631
       -0.0000178506  -0.0000108854  -0.0000105235  -0.0000020048   0.0000034867
        0.0000107866   0.0000120296   0.0000017209  -0.0000422503  -0.0000490014
        0.0000123318   0.0000298575   0.0000362053   0.0000192523  -0.0000332644
       -0.0000336226   0.0000025680   0.0000451532   0.0000524977  -0.0000072913
       -0.0000363778  -0.0000429328   0.0000121907  -0.0000044917  -0.0000023861
       -0.0000183402  -0.0000044797   0.0000131489  -0.0000082153   0.0000182009
       -0.0000011724  -0.0000016321  -0.0000119854  -0.0000092444  -0.0000051979
       -0.0000091527  -0.0000131319  -0.0000126717   0.0000007226   0.0000089044
       -0.0000188348  -0.0000027008   0.0000195194   0.0001892513  -0.0001594900
        0.0000321506  -0.0002649371   0.0001068991  -0.0000892110   0.0001190599
       -0.0000082680   0.0000625271  -0.0000190732  -0.0000339715   0.0000112453
       -0.0000142433  -0.0000075972   0.0000014212  -0.0000035616  -0.0000102618
        0.0000058349  -0.0000052537  -0.0000035376   0.0000048725  -0.0000002171
       -0.0000047992   0.0000108381  -0.0000065976   0.0000133350   0.0000013186
       -0.0000059125   0.0000318171  -0.0000379393  -0.0000130775  -0.0000373840
       -0.0000127179   0.0000244714   0.0000085947  -0.0000061759  -0.0000343356
       -0.0000334841  -0.0000017693  -0.0000093004   0.0000173253   0.0000100892
       -0.0000998266  -0.0000341873   0.0000298369  -0.0000027915  -0.0000346620
        0.0000230883   0.0001430108  -0.0000511844  -0.0000849406  -0.0001276677
        0.0000884324   0.0000676903   0.0046245821  -0.0106225398   0.0002541068
        0.0006414293  -0.0122332036  -0.0045602275  -0.0008069003  -0.0206211117
        0.0012956058   0.0281440391  -0.0097016602   0.0074518573  -0.0069368358
        0.0011881088  -0.0022685779  -0.0139078552   0.0022284676  -0.0030154774
        0.0003932638   0.0030403686   0.0114799074  -0.0022888590  -0.0115113098
       -0.0286130459   0.0007840932   0.0015211017   0.0066381395   0.0007009741
       -0.0014606871  -0.0009543203   0.0004166369   0.0001997545  -0.0000326909
       -0.0002659382  -0.0009825313  -0.0017033715  -0.0000240722  -0.0000456210
        0.0000193556  -0.0000011641   0.0000029636   0.0000096711  -0.0000212405
        0.0000142438  -0.0000086002  -0.0000055573  -0.0000013864   0.0000111100
        0.0000002068   0.0000058055   0.0000107441   0.0000049787   0.0000057567
        0.0000019806  -0.0000255242   0.0000201987   0.0000189731   0.0000007634
        0.0000000823  -0.0000024318  -0.0000242849  -0.0000132227  -0.0000130260
        0.0000072650   0.0000018715  -0.0000028770   0.0000081084   0.0000021443
        0.0000048020  -0.0000078195   0.0000218096   0.0000066561  -0.0000080292
       -0.0000010845  -0.0000008952  -0.0000095462   0.0000085692  -0.0000139830
        0.0000000016   0.0000121834  -0.0000013162  -0.0000046676  -0.0000047055
       -0.0000096132   0.0000147563  -0.0000173227   0.0000081426   0.0000093946
        0.0000093153   0.0000038034   0.0000020515   0.0000033771   0.0000084519
        0.0000022071   0.0000036027   0.0000050922   0.0000001592   0.0000058944
       -0.0000061036   0.0000177521   0.0000161472  -0.0000236227   0.0000004914
        0.0000096722   0.0000005979   0.0000060566   0.0000067673   0.0000004290
        0.0000104054   0.0000073284   0.0000020731  -0.0000016751  -0.0000136412
       -0.0000071826  -0.0000009501   0.0000111969  -0.0000007889   0.0000050565
        0.0000051852   0.0000104332   0.0000148718   0.0000291250  -0.0000065050
        0.0000016367   0.0000071482  -0.0000029866   0.0000058843  -0.0000035783
        0.0000036618   0.0000065487  -0.0000032660  -0.0000059276   0.0000191825
       -0.0000057362   0.0000249584   0.0000114988   0.0000004883  -0.0000056758
        0.0000041145  -0.0000033316  -0.0000019036   0.0000100388   0.0000022379
       -0.0000060150  -0.0000038024   0.0000012691   0.0000031695   0.0000102796
       -0.0000022947  -0.0000007180   0.0000157379   0.0000013208  -0.0000098513
        0.0000135653  -0.0000059654  -0.0000112497  -0.0000005248   0.0000013727
        0.0000093610   0.0000106060  -0.0000110173  -0.0000048562   0.0000064963