$hessian                                                                        
        0.4836867142   0.0175956515   0.0271818485  -0.1348617452   0.0357396509
        0.0582409218  -0.0259439508   0.0053675832   0.0152523815   0.0005213910
        0.0000807205  -0.0000867911   0.0001056295   0.0001177659   0.0002290042
       -0.0001171378  -0.0000824915  -0.0000605829   0.0000482755   0.0000179911
       -0.0000019655   0.0000174999  -0.0000512386  -0.0000007157  -0.0000350673
        0.0000845103  -0.0000170814   0.0000881585  -0.0001462022   0.0000007464
       -0.0000865079   0.0000687422  -0.0000120554  -0.0000280580   0.0000764248
        0.0000052835  -0.0000427710  -0.0000476992  -0.0000051452   0.0000408348
        0.0000190889   0.0000002479  -0.0000244765  -0.0000052674   0.0000002072
       -0.0000009971   0.0000243089  -0.0000005227  -0.0000609321  -0.0000360344
       -0.0000007328   0.0000746641   0.0000331324   0.0000019253   0.0000013458
       -0.0000339120   0.0000069701  -0.0000015724   0.0000066878  -0.0000069595
       -0.0000059355  -0.0000089423   0.0000023468   0.0000052450  -0.0000014299
        0.0000013868  -0.0000030275   0.0000053293  -0.0000035769   0.0000101683
       -0.0000031829   0.0000040171   0.0000035107   0.0000140758  -0.0000071643
       -0.0000035674  -0.0000008573  -0.0000040346   0.0000011485   0.0000063636
       -0.0000036821  -0.0000155837   0.0000031170  -0.0000040774  -0.0000028412
       -0.0000097320   0.0000008839  -0.0000347121   0.0000203757  -0.0000091230
        0.0000289048  -0.0000053811   0.0000015405  -0.0000135173  -0.0000266433
       -0.0000040333  -0.0000164797   0.0000279685   0.0000038286   0.0000392607
       -0.0000234317  -0.0000029424  -0.0000230560   0.0000089031   0.0000006798
        0.0000169966   0.0000060987  -0.0000005637  -0.0000077403   0.0000125307
        0.0000033667   0.0000422964  -0.0000080358  -0.0000016215  -0.0000420095
        0.0000094242   0.0000024217   0.0000085911  -0.0000181033  -0.0000074737
        0.0000006597   0.0000033322   0.0000040583   0.0000051977  -0.0000021524
       -0.0000029542  -0.0000014649  -0.0000015171  -0.0000014919   0.0000030657
        0.0000020507   0.0000009700  -0.0000050618  -0.0000037048  -0.0000040992
       -0.0000022305   0.0000044849   0.0000046560   0.0000012335  -0.0000030478
       -0.0000021681  -0.0000008521   0.0000019180   0.0000016947   0.0000055561
        0.0000010413   0.0000016708   0.0000008602  -0.0000040290  -0.0000044932
        0.0000132166   0.0000134887   0.0000067194  -0.0000143371  -0.0000073137
       -0.0000033595   0.0000107808  -0.0000176167  -0.0000016187   0.0000043473
        0.0000842305   0.0000059486   0.0000800574  -0.0001136531   0.0000027178
       -0.0000282155   0.0000331156  -0.0000100669  -0.0455055584   0.0223529654
       -0.0041471571  -0.0525776561   0.0090924698  -0.0481402229  -0.2171950464
       -0.0929403099  -0.0527084952  -0.0057475892   0.0051114375   0.0046721790
        0.0027435996  -0.0015185279  -0.0004398526   0.0011737137   0.0011820163
        0.0000444903  -0.0050007775  -0.0020980819  -0.0002464068  -0.0002319676
        0.0000246840   0.0000441739  -0.0010023263  -0.0000338683   0.0002338639
       -0.0000332651   0.0000001489  -0.0000008414  -0.0000421847   0.0000442434
        0.0000318277   0.0000533868   0.0000584375  -0.0000587808  -0.0000726817
        0.0000149922  -0.0000063165  -0.0000116855  -0.0001023479   0.0000142226
       -0.0000086413  -0.0000050870  -0.0000087219  -0.0000091586  -0.0000083788
        0.0000134149  -0.0000071221   0.0000050379  -0.0000137085  -0.0000104594
       -0.0000086054   0.0000059376   0.0000107668   0.0000049796   0.0000005358
        0.0000025843   0.0000002065   0.0000006959   0.0000011868   0.0000009388
       -0.0000009215   0.0000024610   0.0000007779  -0.0000004299   0.0000033683
        0.0000009975   0.0000002010   0.0000038954  -0.0000009566   0.0000006704
        0.0000061122  -0.0000024889   0.0000024881   0.0000050574  -0.0000105107
        0.0000028822   0.0000087243   0.0000038040   0.0000032218   0.0000029315
        0.0000030039   0.0000008907   0.0000047059   0.0000005040  -0.0000011076
        0.0000039903  -0.0000054476  -0.0000004698  -0.0000006146  -0.0000009532
        0.0000007377  -0.0000010656  -0.0000007167  -0.0000004090   0.0000002882
        0.0000003371   0.0000007779  -0.0000009027   0.0000008861   0.0000010990
       -0.0000013564   0.0000000598  -0.0000000348  -0.0000019839   0.0000004788
        0.0000007124  -0.0000016814  -0.0000005776  -0.0000004779  -0.0000003206
       -0.0000005717   0.0000000284  -0.0000010324   0.0000004919   0.0000009848
       -0.0000019038   0.0000024135  -0.0000001275  -0.0000015535   0.0000026303
        0.0000010989
        0.0175956515   0.5146702795  -0.0133005398   0.0350694950  -0.0843653214
       -0.0276823355  -0.0081481810   0.0038315313   0.0069614306   0.0000064312
       -0.0000414065   0.0001473229   0.0000004285   0.0000325170   0.0000279969
       -0.0000617800  -0.0000760614  -0.0000948094  -0.0000856462  -0.0000508871
       -0.0000499196  -0.0000070665   0.0000025997  -0.0000011647   0.0000972718
        0.0000222164  -0.0000113956  -0.0002572998   0.0000026599   0.0000064942
        0.0001782205  -0.0000262290   0.0000151390   0.0000157747  -0.0000117689
        0.0000040285  -0.0000017859  -0.0000047175   0.0000005591  -0.0000112134
        0.0000015381   0.0000018926   0.0000012745   0.0000214205   0.0000075077
       -0.0000130065   0.0000012526   0.0000012556   0.0000210227   0.0000236432
        0.0000038113  -0.0000194976  -0.0000440229   0.0000180460   0.0000143953
        0.0000395709  -0.0000158123  -0.0000044355  -0.0000048890   0.0000011788
        0.0000058780   0.0000047597  -0.0000015950  -0.0000021345  -0.0000023343
        0.0000004727   0.0000064178   0.0000073544  -0.0000023363  -0.0000164881
       -0.0000054972  -0.0000023807   0.0000112888  -0.0000038998   0.0000044962
       -0.0000131718   0.0000022305  -0.0000046952   0.0000055659   0.0000043435
       -0.0000006169   0.0000108645   0.0000120499   0.0000022084   0.0000141824
        0.0000243332  -0.0000042953  -0.0000086661   0.0000000116  -0.0000097971
       -0.0000064477  -0.0000062090  -0.0000027586   0.0000105361   0.0000075160
        0.0000006486   0.0000115636  -0.0000059740  -0.0000028963  -0.0000234160
        0.0000062317   0.0000010309   0.0000189712  -0.0000054037  -0.0000011822
       -0.0000145643  -0.0000107922  -0.0000006651   0.0000077614  -0.0000108812
       -0.0000041902  -0.0000437528   0.0000062479   0.0000022429   0.0000460198
       -0.0000055522  -0.0000009892  -0.0000066878   0.0000171287   0.0000064623
       -0.0000000308  -0.0000035912  -0.0000035357  -0.0000054136   0.0000038782
        0.0000025751   0.0000020193   0.0000009833   0.0000010674  -0.0000010690
       -0.0000018889  -0.0000024606   0.0000033854   0.0000043053   0.0000044380
        0.0000032672  -0.0000052073  -0.0000045490  -0.0000017477   0.0000024809
        0.0000006154   0.0000018739  -0.0000017963  -0.0000013490  -0.0000060053
       -0.0000005117  -0.0000025980   0.0000014547   0.0000027403   0.0000034406
       -0.0000159468  -0.0000146786  -0.0000081405   0.0000139244   0.0000088398
        0.0000039844  -0.0000103293   0.0000149796   0.0000012789   0.0000033677
       -0.0000292796  -0.0000002564  -0.0000535134   0.0000273819   0.0000045208
        0.0000439000   0.0000163735   0.0000044460   0.0224572760  -0.2749934939
        0.0303336339   0.0091943645  -0.0543592758   0.0460362990  -0.0930307087
       -0.0933565640  -0.0263076155   0.0233092404  -0.0144004223  -0.0183999913
       -0.0017258021   0.0019928675   0.0013102421  -0.0011714915   0.0012498415
        0.0006044595  -0.0033608861  -0.0005636194   0.0002061515  -0.0001001739
        0.0000895835  -0.0001063249   0.0000379409   0.0001781422   0.0002100355
       -0.0000234025   0.0000102749  -0.0000085776   0.0000143526   0.0000911194
        0.0000335143   0.0000478901   0.0000249991   0.0000132137  -0.0000453609
        0.0000329196   0.0000052873  -0.0000184163  -0.0000294839   0.0000052190
        0.0000075503   0.0000293427   0.0000207178   0.0000042673  -0.0000135486
        0.0000107280   0.0000165331  -0.0000005430   0.0000161703  -0.0000059014
        0.0000053234  -0.0000095578   0.0000075274  -0.0000001739  -0.0000047634
        0.0000010677  -0.0000024189   0.0000006443   0.0000006347  -0.0000061908
        0.0000019424  -0.0000007214  -0.0000068925   0.0000020077  -0.0000041365
       -0.0000052835   0.0000003540  -0.0000060848  -0.0000101525   0.0000020056
       -0.0000103466  -0.0000088026  -0.0000004157   0.0000038854  -0.0000121937
        0.0000057289  -0.0000081430  -0.0000052434   0.0000020266   0.0000029503
       -0.0000089783  -0.0000030298   0.0000067859  -0.0000109088  -0.0000026055
       -0.0000017010   0.0000026559   0.0000020538   0.0000038366   0.0000006421
       -0.0000005645   0.0000011496   0.0000010725  -0.0000000458   0.0000004687
       -0.0000000873  -0.0000008960   0.0000014310   0.0000000172  -0.0000009851
        0.0000020650   0.0000000506  -0.0000002824   0.0000015737   0.0000004826
       -0.0000001846   0.0000016488   0.0000007559   0.0000009416   0.0000002894
        0.0000011050   0.0000013132   0.0000007601  -0.0000003431  -0.0000004706
        0.0000027672  -0.0000015624  -0.0000001260   0.0000021096   0.0000003887
       -0.0000015814
        0.0271818485  -0.0133005398   0.5043934691   0.0564142894  -0.0277439483
       -0.1155833934   0.0012214346   0.0023206634   0.0024895850   0.0004066243
       -0.0000955654  -0.0001220848   0.0000626975   0.0001329082  -0.0000073982
       -0.0000482052  -0.0000669542  -0.0001692125  -0.0000592012  -0.0000166485
       -0.0000688788   0.0000147764   0.0000105792  -0.0000314283  -0.0000225178
       -0.0000219047  -0.0000189029   0.0000447385   0.0000113761   0.0000194780
       -0.0000448560   0.0000043986   0.0000070260  -0.0000038273  -0.0000044791
        0.0000029681   0.0000131202   0.0000064118  -0.0000010583  -0.0000053166
       -0.0000075778  -0.0000004063   0.0000103030   0.0000003884  -0.0000046605
        0.0000047647  -0.0000103231  -0.0000061902   0.0000122341   0.0000007739
        0.0000012052  -0.0000105313  -0.0000134856  -0.0000020159   0.0000013315
        0.0000135541   0.0000010250  -0.0000004852  -0.0000046784  -0.0000000814
       -0.0000004601   0.0000022603  -0.0000019641  -0.0000030551   0.0000030829
        0.0000017023   0.0000044446  -0.0000018303  -0.0000029028  -0.0000054511
        0.0000020773   0.0000025277   0.0000017316  -0.0000044217  -0.0000002258
       -0.0000087471   0.0000081385   0.0000017469   0.0000033512  -0.0000008516
       -0.0000033072   0.0000010166   0.0000047850  -0.0000008751   0.0000022103
        0.0000074450  -0.0000087803   0.0000009306   0.0000058199   0.0000038490
       -0.0000032327   0.0000038123  -0.0000020363  -0.0000013119   0.0000049869
       -0.0000002701  -0.0000104868   0.0000065217  -0.0000013512  -0.0000052064
        0.0000008339  -0.0000016987   0.0000019795  -0.0000014713  -0.0000039930
       -0.0000067959   0.0000029153  -0.0000017877   0.0000046706  -0.0000026416
        0.0000000185  -0.0000107694  -0.0000029960   0.0000037365   0.0000127318
       -0.0000003661   0.0000002091  -0.0000020470   0.0000034998   0.0000007892
       -0.0000001501  -0.0000028351   0.0000003463  -0.0000042529   0.0000018717
        0.0000011994   0.0000005390  -0.0000019401   0.0000030285   0.0000000246
        0.0000001642  -0.0000016294   0.0000007616   0.0000003517   0.0000022253
        0.0000016894  -0.0000020995  -0.0000008927  -0.0000011937   0.0000017878
       -0.0000037821   0.0000010988  -0.0000020401   0.0000021739  -0.0000011454
        0.0000012854  -0.0000008348  -0.0000005827  -0.0000008705   0.0000018164
       -0.0000063415  -0.0000035163  -0.0000045396   0.0000042729   0.0000019465
        0.0000040552  -0.0000066052   0.0000026631  -0.0000028992   0.0000030207
       -0.0000127692   0.0000064938   0.0000304032   0.0000216865   0.0000001611
       -0.0000153069  -0.0000180947   0.0000113674  -0.0041956765   0.0304486356
       -0.0484796617  -0.0481489099   0.0463780103  -0.2640550387  -0.0524854677
       -0.0261994767  -0.0581382825  -0.0007669230  -0.0002490213   0.0018836704
        0.0227539311  -0.0111176786  -0.0239351506  -0.0002640865   0.0000029785
        0.0002256560  -0.0008874770  -0.0003158232   0.0010678263  -0.0000393464
        0.0000704784   0.0000813281  -0.0010700959  -0.0002918519   0.0002036687
       -0.0000448777   0.0000144364   0.0000089634   0.0000089712   0.0000050599
        0.0000403906   0.0000121404  -0.0000213374   0.0000494706  -0.0000562210
        0.0000039737   0.0000461715   0.0000289427   0.0000147859   0.0000162532
       -0.0000050392   0.0000202506   0.0000295173  -0.0000088822   0.0000067263
        0.0000189283   0.0000066159  -0.0000059213   0.0000196242  -0.0000032548
        0.0000029281  -0.0000017536  -0.0000022635   0.0000044496   0.0000033733
       -0.0000014464   0.0000000353   0.0000001270  -0.0000001611  -0.0000000308
       -0.0000000395  -0.0000005302  -0.0000003095   0.0000005994  -0.0000010834
       -0.0000010243   0.0000000328  -0.0000008120  -0.0000022717   0.0000011905
       -0.0000027131  -0.0000033082  -0.0000001626   0.0000013812  -0.0000078552
       -0.0000012584   0.0000007901  -0.0000079239   0.0000024553  -0.0000031723
       -0.0000001626   0.0000028855  -0.0000002828   0.0000006161   0.0000013874
       -0.0000012897   0.0000019384  -0.0000011156   0.0000004156   0.0000004260
       -0.0000001899   0.0000009782   0.0000056208   0.0000005108   0.0000001220
       -0.0000009831   0.0000005314   0.0000008783  -0.0000001779   0.0000000089
        0.0000008357  -0.0000004011   0.0000019857   0.0000000890   0.0000002955
       -0.0000004597   0.0000004904   0.0000007355   0.0000017683  -0.0000014883
        0.0000016953   0.0000006965  -0.0000006801   0.0000013001   0.0000008906
        0.0000008613  -0.0000022712   0.0000006962  -0.0000002197  -0.0000016866
       -0.0000002168
       -0.1348617452   0.0350694950   0.0564142894   0.4597462400  -0.0140770588
        0.0124126715  -0.1581021321  -0.0521413304  -0.0138341883  -0.0146419226
       -0.0052381977  -0.0085374145  -0.0003876462   0.0005067056  -0.0020465774
        0.0000788454  -0.0001520754   0.0000687161   0.0001411349  -0.0000635620
        0.0000902861   0.0000398852  -0.0000796791   0.0000333106   0.0000049865
        0.0001367621   0.0000222164  -0.0000317033  -0.0001160811  -0.0000405204
       -0.0000242128   0.0000085511   0.0000239665  -0.0000241164   0.0000844526
        0.0000059078  -0.0000575731  -0.0000569724  -0.0000076538   0.0000408509
        0.0000230219   0.0000024185  -0.0000347762   0.0000061835   0.0000102678
       -0.0000058682   0.0000273248   0.0000019185  -0.0000668171  -0.0000362391
       -0.0000029633   0.0000816395   0.0000253849   0.0000133219   0.0000079153
       -0.0000243391   0.0000013212  -0.0000036678   0.0000072057  -0.0000047397
       -0.0000070528  -0.0000070887   0.0000034242   0.0000042365  -0.0000001778
        0.0000026440  -0.0000022139   0.0000094091  -0.0000026984   0.0000034075
       -0.0000050909   0.0000045439   0.0000071294   0.0000144593  -0.0000047491
       -0.0000087670  -0.0000001567  -0.0000039007   0.0000040480   0.0000062395
       -0.0000012977  -0.0000142792   0.0000123151  -0.0000090200   0.0000051631
        0.0000011874   0.0000007293  -0.0000472943   0.0000260405  -0.0000158939
        0.0000286157  -0.0000052499   0.0000036290  -0.0000133583  -0.0000343486
       -0.0000051986  -0.0000078974   0.0000526411   0.0000040270   0.0000428284
       -0.0000286456  -0.0000055625  -0.0000224046   0.0000069659   0.0000008441
        0.0000162167   0.0000034845   0.0000011976  -0.0000055362   0.0000075375
        0.0000021693   0.0000370484  -0.0000095396  -0.0000023869  -0.0000354868
        0.0000088857   0.0000070311   0.0000078523  -0.0000159364  -0.0000083957
       -0.0000008655   0.0000009203   0.0000034566   0.0000048403  -0.0000033386
       -0.0000023865  -0.0000008711  -0.0000021420  -0.0000007399   0.0000032664
       -0.0000002456   0.0000003283  -0.0000055392  -0.0000032431  -0.0000031420
       -0.0000011203   0.0000028119   0.0000036422   0.0000011129  -0.0000031505
       -0.0000016555   0.0000003514   0.0000004196   0.0000008621   0.0000059679
       -0.0000000028   0.0000011826   0.0000023226  -0.0000047669  -0.0000027185
        0.0000084317   0.0000117170   0.0000035852  -0.0000108166  -0.0000052676
       -0.0000030133   0.0000102581  -0.0000185845  -0.0000002629   0.0000089703
        0.0000872624   0.0000113843   0.0000271731  -0.0001226080  -0.0000281936
        0.0000183796   0.0000550105  -0.0000052767  -0.0049907041   0.0053718443
        0.0033798037   0.0038476823  -0.0015992235  -0.0001051150  -0.0246485490
        0.0082644534   0.0163302721  -0.0454373761   0.0277535669  -0.0059698073
       -0.0571139701   0.0093639168  -0.0586729570   0.0002492186  -0.0022890502
        0.0000003586  -0.0240797742  -0.0105492779  -0.0002541119   0.0004089873
       -0.0003966272   0.0005800890   0.0003717684   0.0000346557   0.0005781304
       -0.0005433429  -0.0003381381  -0.0001218902  -0.0000922452   0.0002150768
       -0.0000659647   0.0000764715   0.0001093275  -0.0001152824   0.0000786984
        0.0000703596  -0.0000423305  -0.0001304070   0.0000129119  -0.0000116517
        0.0000273774   0.0000188620  -0.0000490675  -0.0000391879  -0.0000108198
       -0.0000210540   0.0000222318   0.0000182118  -0.0000245468  -0.0000017511
       -0.0000054258  -0.0000015549   0.0000135190   0.0000059029  -0.0000052010
        0.0000038683   0.0000019652   0.0000009351   0.0000016676  -0.0000000570
        0.0000014617   0.0000007875  -0.0000006632   0.0000015813   0.0000007633
        0.0000014447   0.0000006459   0.0000010657  -0.0000036868   0.0000020452
        0.0000028181  -0.0000020932   0.0000021276   0.0000093006  -0.0000081207
        0.0000080804   0.0000029023   0.0000064180   0.0000017119   0.0000050604
        0.0000008689  -0.0000005684   0.0000093915   0.0000020020  -0.0000018118
        0.0000013705  -0.0000053312  -0.0000020205  -0.0000010816   0.0000014779
       -0.0000002504  -0.0000022240   0.0000003063   0.0000001952  -0.0000009630
        0.0000002101   0.0000012552  -0.0000014389   0.0000001100   0.0000013030
       -0.0000015378  -0.0000003402   0.0000003760  -0.0000023304  -0.0000000161
        0.0000005276  -0.0000018577  -0.0000005391  -0.0000006067  -0.0000009416
        0.0000000517  -0.0000000298  -0.0000025996   0.0000010753  -0.0000001905
       -0.0000019713   0.0000022378  -0.0000002114  -0.0000041308   0.0000048773
        0.0000005811
        0.0357396509  -0.0843653214  -0.0277439483  -0.0140770588   0.5131707809
       -0.0206902009  -0.0520134980  -0.0968472543  -0.0078751511   0.0023496301
        0.0018505839  -0.0016304855   0.0005659536  -0.0001009645   0.0009471616
        0.0000700910  -0.0001014398   0.0001133766  -0.0000146379  -0.0000950684
        0.0000413714  -0.0000153019  -0.0000297588  -0.0000022180   0.0000151428
       -0.0000136975  -0.0000280131  -0.0000832929   0.0000121185   0.0000685681
        0.0001137727  -0.0000130730  -0.0001238229  -0.0000235995   0.0000414720
        0.0000112487  -0.0000073407  -0.0000238673  -0.0000024680   0.0000063449
        0.0000174014   0.0000048898  -0.0000219932   0.0000063717  -0.0000254718
       -0.0000114597   0.0000284652  -0.0000198611  -0.0000178349  -0.0000082405
        0.0000094383   0.0000124464  -0.0000196850   0.0000292667   0.0000129550
        0.0000165580  -0.0000145451  -0.0000068200   0.0000048165  -0.0000042449
        0.0000066649   0.0000039805  -0.0000005849   0.0000014841  -0.0000008868
        0.0000005415   0.0000055908   0.0000131958  -0.0000058181  -0.0000081996
       -0.0000035514  -0.0000005349   0.0000126914   0.0000085612  -0.0000021399
       -0.0000081069   0.0000036257  -0.0000030970   0.0000085752   0.0000160987
       -0.0000086653   0.0000155874   0.0000268918  -0.0000036220   0.0000079606
        0.0000202708   0.0000132557  -0.0000142602  -0.0000018629  -0.0000093380
       -0.0000022082  -0.0000003798   0.0000001330   0.0000080862   0.0000040836
        0.0000023893   0.0000408740  -0.0000154273  -0.0000024429  -0.0000267082
        0.0000112473   0.0000018338   0.0000024624  -0.0000064067  -0.0000016158
       -0.0000087310  -0.0000122391   0.0000002802   0.0000000235  -0.0000042880
       -0.0000020362  -0.0000229203   0.0000006045   0.0000015928   0.0000175910
        0.0000001099   0.0000037030   0.0000008624   0.0000052052  -0.0000012654
        0.0000009419  -0.0000005529   0.0000002795  -0.0000020673   0.0000026134
        0.0000009534  -0.0000007490   0.0000005371   0.0000001982  -0.0000004572
       -0.0000000252  -0.0000016776  -0.0000007484   0.0000018494   0.0000012243
        0.0000015758  -0.0000012112  -0.0000011669  -0.0000027432   0.0000010723
       -0.0000011745   0.0000000280  -0.0000012691  -0.0000003565  -0.0000016452
       -0.0000003932  -0.0000011703   0.0000023340  -0.0000024580   0.0000003341
       -0.0000057945  -0.0000042750  -0.0000039340   0.0000036183   0.0000031354
        0.0000021229  -0.0000069134   0.0000158281  -0.0000005209   0.0000005329
       -0.0000118656  -0.0000006218  -0.0000887077  -0.0000070380   0.0000072654
        0.0000671743   0.0000325866   0.0000055566   0.0236688624  -0.0150348396
       -0.0182489378  -0.0034888758   0.0020456930   0.0018140912  -0.0096527620
        0.0043678746   0.0069762652   0.0272662774  -0.2596379912   0.0384917506
        0.0093060809  -0.0506416437   0.0309755881  -0.0272293756  -0.0199632964
       -0.0039915179   0.0058225677   0.0036397744   0.0001164153   0.0013127866
        0.0008188753   0.0007262657  -0.0000227019   0.0001990920  -0.0000796307
        0.0003099260   0.0002684062   0.0002204593   0.0000227523   0.0002153641
        0.0000510238  -0.0000635238  -0.0000349302  -0.0001049012   0.0000740899
        0.0000441374  -0.0000156007   0.0000762416   0.0001165298  -0.0000034193
        0.0000097401   0.0000262311  -0.0000178228   0.0000065782   0.0000442586
        0.0000051704  -0.0000244607   0.0000175107   0.0000092494   0.0000340998
       -0.0000046247   0.0000162938  -0.0000149647  -0.0000270166   0.0000067847
        0.0000051127  -0.0000069923   0.0000033367   0.0000006738  -0.0000057152
        0.0000008562   0.0000005639  -0.0000051656   0.0000004856  -0.0000030701
       -0.0000049811   0.0000003147  -0.0000055798  -0.0000084926   0.0000010821
       -0.0000087086  -0.0000049560  -0.0000006490  -0.0000198660  -0.0000175178
       -0.0000014226  -0.0000077371  -0.0000367405  -0.0000032586   0.0000019835
       -0.0000057707  -0.0000010996   0.0000065222  -0.0000038618  -0.0000015903
        0.0000037456   0.0000022297   0.0000006475   0.0000003247  -0.0000003394
        0.0000002091   0.0000033318   0.0000021013  -0.0000005845   0.0000018552
        0.0000018713   0.0000003265   0.0000002202   0.0000023502   0.0000001208
       -0.0000003689   0.0000009540  -0.0000002710  -0.0000011797   0.0000019523
        0.0000004513  -0.0000012956   0.0000003337  -0.0000000718   0.0000001724
        0.0000000712  -0.0000001444   0.0000025951   0.0000014301   0.0000003318
        0.0000017835   0.0000027640  -0.0000005896   0.0000087349  -0.0000024947
       -0.0000007794
        0.0582409218  -0.0276823355  -0.1155833934   0.0124126715  -0.0206902009
        0.5095439189  -0.0173335690  -0.0090301054  -0.0673403493  -0.0239750695
       -0.0105684661  -0.0069281070  -0.0020271870   0.0009060304  -0.0046674100
        0.0002798811   0.0000640934  -0.0000677915  -0.0000167012  -0.0000436733
       -0.0000212944   0.0000141202   0.0000526295  -0.0000136898   0.0000370009
       -0.0000176881   0.0000182333  -0.0000450596   0.0000347030  -0.0000063881
        0.0000297724  -0.0000320656   0.0000514904   0.0000077687  -0.0000324479
       -0.0000048159   0.0000090089   0.0000145967  -0.0000008912  -0.0000034362
       -0.0000090705  -0.0000017604   0.0000098445  -0.0000025950   0.0000037548
        0.0000004041  -0.0000109377   0.0000017745   0.0000169008   0.0000096312
        0.0000021409  -0.0000092207  -0.0000217280  -0.0000019652   0.0000049885
        0.0000231120  -0.0000010670   0.0000004529  -0.0000057871   0.0000003591
        0.0000006666   0.0000011676  -0.0000018437  -0.0000013772   0.0000013012
        0.0000020070   0.0000058749  -0.0000015307  -0.0000032734  -0.0000093834
        0.0000015627   0.0000008362   0.0000039417  -0.0000044415   0.0000011329
       -0.0000061483   0.0000074102   0.0000017887   0.0000059736  -0.0000059813
       -0.0000021574   0.0000047992   0.0000008869  -0.0000080071   0.0000096667
        0.0000047358  -0.0000154125  -0.0000066514   0.0000064896   0.0000048596
       -0.0000036606   0.0000032113  -0.0000022677  -0.0000012892   0.0000065788
       -0.0000001141  -0.0000064869   0.0000041274  -0.0000008189  -0.0000103610
        0.0000015945  -0.0000013985   0.0000062566  -0.0000014766  -0.0000036975
       -0.0000080593  -0.0000029656  -0.0000013241   0.0000088325  -0.0000063438
       -0.0000017396  -0.0000196527  -0.0000017597   0.0000040831   0.0000225983
       -0.0000020789  -0.0000020389  -0.0000043159   0.0000086842   0.0000034929
        0.0000006163  -0.0000028514  -0.0000010947  -0.0000042375   0.0000024128
        0.0000009414   0.0000019406  -0.0000012471   0.0000023569  -0.0000000710
        0.0000001464  -0.0000021920   0.0000026513   0.0000014906   0.0000026519
        0.0000021927  -0.0000031085  -0.0000023613  -0.0000001215   0.0000026605
       -0.0000032720   0.0000021417  -0.0000022494   0.0000012832  -0.0000018753
        0.0000012485  -0.0000013885   0.0000002997   0.0000002736   0.0000023802
       -0.0000083839  -0.0000070570  -0.0000057922   0.0000086994   0.0000061939
        0.0000038527  -0.0000074773   0.0000060411  -0.0000017867   0.0000080072
       -0.0000229149   0.0000060590  -0.0000460650   0.0000271145  -0.0000049326
        0.0000194986  -0.0000008744   0.0000091581  -0.0009208321  -0.0011917345
        0.0017436254   0.0222435883  -0.0102597808  -0.0227455281  -0.0029462430
        0.0018928944   0.0029903600  -0.0056407147   0.0378918602  -0.0519659522
       -0.0588701101   0.0309329040  -0.2479762039   0.0014360777   0.0005019731
        0.0009907028   0.0187049617   0.0088703771   0.0011899885  -0.0002009951
       -0.0006140303   0.0005474757  -0.0000403317  -0.0004724158   0.0005765637
       -0.0013444288  -0.0005865943  -0.0005183111   0.0000319858   0.0000945796
       -0.0000571987  -0.0001003794  -0.0000926006   0.0000689017   0.0000242300
        0.0000047624   0.0001280646   0.0000065590   0.0000861367   0.0000046540
       -0.0000029216   0.0000085871   0.0000023260  -0.0000253865  -0.0000465935
        0.0000210185   0.0000347695  -0.0000137058   0.0000244547  -0.0000093655
        0.0000041088  -0.0000080317   0.0000013020   0.0000089683  -0.0000023590
       -0.0000012553   0.0000010274  -0.0000002117   0.0000004338  -0.0000006008
        0.0000002618  -0.0000005503  -0.0000011651   0.0000009428  -0.0000013133
       -0.0000002200  -0.0000000884  -0.0000026255  -0.0000028738   0.0000018368
       -0.0000043915  -0.0000008727   0.0000009275   0.0000049915  -0.0000040913
        0.0000096944  -0.0000063552   0.0000006124   0.0000064898  -0.0000021263
       -0.0000024519   0.0000018667   0.0000027112  -0.0000019651   0.0000004454
       -0.0000018824   0.0000028812   0.0000000518   0.0000015059   0.0000005110
       -0.0000002212   0.0000012345   0.0000053272   0.0000005119   0.0000004565
       -0.0000009495  -0.0000001750   0.0000012071  -0.0000001638  -0.0000007341
        0.0000011980  -0.0000005161   0.0000011789   0.0000006243   0.0000002000
       -0.0000008422   0.0000009570   0.0000002120   0.0000011234  -0.0000004006
        0.0000007674   0.0000001138   0.0000005505   0.0000001518   0.0000000621
        0.0000015475  -0.0000023067   0.0000004683  -0.0000008167   0.0000006437
       -0.0000009727
       -0.0259439508  -0.0081481810   0.0012214346  -0.1581021321  -0.0520134980
       -0.0173335690   0.4739074248  -0.0224167196  -0.0279683977  -0.0817152079
        0.0141562501  -0.0402802811  -0.0146520821   0.0027760023  -0.0241104006
        0.0005776475  -0.0000214100   0.0002069868   0.0001633915  -0.0002360744
        0.0001489411   0.0000586696  -0.0000579177   0.0001366489  -0.0000456074
        0.0001991832   0.0000718881  -0.0000509952  -0.0001359599  -0.0000734802
       -0.0000098647   0.0000273482   0.0000175912  -0.0000392055   0.0001168257
        0.0000191705  -0.0000518569  -0.0000650407  -0.0000072773   0.0000399664
        0.0000267720   0.0000053310  -0.0000335997   0.0000051943   0.0000028238
       -0.0000018384   0.0000313115  -0.0000035103  -0.0000626716  -0.0000357202
       -0.0000009295   0.0000718937   0.0000174863   0.0000164936   0.0000087057
       -0.0000191798  -0.0000017881  -0.0000036154   0.0000062337  -0.0000050529
       -0.0000048099  -0.0000059458   0.0000019724   0.0000056037  -0.0000008568
        0.0000018296   0.0000001432   0.0000102476  -0.0000037854   0.0000014247
       -0.0000060677   0.0000034965   0.0000088413   0.0000144455  -0.0000045555
       -0.0000065340   0.0000004687  -0.0000032583   0.0000057006   0.0000073614
       -0.0000020258  -0.0000083309   0.0000181089  -0.0000102809   0.0000078101
        0.0000051106   0.0000054227  -0.0000453032   0.0000219044  -0.0000156730
        0.0000255287  -0.0000070915   0.0000033390  -0.0000087053  -0.0000284846