$hessian                                                                        
        0.0170118732  -0.0000926012  -0.0000214745  -0.0316977387   0.0000906837
        0.0000195007   0.0177039529   0.0000017501  -0.0000091973  -0.0015330235
       -0.0024804070  -0.0012374908   0.0002804722   0.0000404819   0.0000377998
       -0.0002228326   0.0000623185  -0.0000074287   0.0000732921   0.0004827389
       -0.0000848331  -0.0004200814  -0.0004575316  -0.0000015201   0.0002915684
        0.0002422421  -0.0000479109   0.0000917544  -0.0000427430  -0.0000940926
        0.0000702473   0.0001096112   0.0000064054  -0.0001024409   0.0000393539
        0.0000094355  -0.0000012501   0.0002127339   0.0000334621   0.0001423020
       -0.0002589020  -0.0000585898  -0.0002732367   0.0001568859   0.0000745258
        0.0000255216  -0.0002651801  -0.0000324195  -0.0001624219   0.0002623800
        0.0000564732   0.0001654707  -0.0001220330  -0.0000433830  -0.0000558856
       -0.0000924639  -0.0000113614   0.0002713557   0.0000266328  -0.0000469545
       -0.0000009806  -0.0000265726   0.0000986076   0.0004680459   0.0000706524
       -0.0000967654  -0.0005831495  -0.0000845735   0.0015150760   0.0008376493
       -0.0000858973  -0.0002165558  -0.0003498599   0.0000084918  -0.0000001520
        0.0008424374   0.0000798532   0.0002177536  -0.0015292712   0.0024803606
        0.0012435113   0.0002779099  -0.0000427453  -0.0000402550  -0.0005847969
        0.0000795215  -0.0015089179   0.0004650997  -0.0000692669   0.0000961168
       -0.0004180622   0.0004518750   0.0000013111   0.0002897808  -0.0002394304
        0.0000478005  -0.0000007214   0.0000258378  -0.0000988091   0.0002698616
       -0.0000248053   0.0000470958  -0.0000556011   0.0000920084   0.0000112847
        0.0001642110   0.0001227013   0.0000431407  -0.0001612834  -0.0002625561
       -0.0000562261   0.0000242834   0.0002652668   0.0000319487  -0.0002719623
       -0.0001580668  -0.0000746071   0.0001404324   0.0002597231   0.0000582410
       -0.0000007329  -0.0002127882  -0.0000332491  -0.0001022428  -0.0000400646
       -0.0000085451   0.0000709824  -0.0001097205  -0.0000061221   0.0000911346
        0.0000432858   0.0000941530   0.0000728241  -0.0004802340   0.0000850301
       -0.0002199604  -0.0000615538   0.0000066332  -0.0000365580  -0.0000475695
       -0.0000518256   0.0000130432  -0.0000200769  -0.0000659645   0.0000084475
       -0.0000346048   0.0000030670   0.0000024757  -0.0000148226  -0.0000060463
        0.0000065901  -0.0000034965   0.0000018061   0.0000106245   0.0000100447
       -0.0000023794   0.0000008108   0.0000041731  -0.0000064331  -0.0000119062
        0.0000038146   0.0000060001  -0.0000083716   0.0000434680   0.0000084671
        0.0000135297   0.0000552697   0.0000121971   0.0000347715   0.0000518525
       -0.0000624011  -0.0008007028   0.0004272353   0.0000438178   0.0000669690
       -0.0002532356   0.0002441185   0.0000664911   0.0002531687  -0.0002460454
       -0.0007952018  -0.0004251656  -0.0000388430   0.0000348210  -0.0000512750
        0.0000621435   0.0000131894  -0.0000552820  -0.0000124357  -0.0000082189
       -0.0000433164  -0.0000078022  -0.0000116929  -0.0000040526  -0.0000062045
        0.0000010306  -0.0000042585   0.0000064534   0.0000108264  -0.0000101710
        0.0000023086   0.0000067394   0.0000034925  -0.0000017921   0.0000023474
        0.0000149469   0.0000052066   0.0000082768   0.0000347884  -0.0000031038
        0.0000132590   0.0000201258   0.0000656883  -0.0000365181   0.0000476929
        0.0000515569
       -0.0000926012   1.0955363669   0.2181389886   0.0000865621  -1.0252117422
       -0.2012550153  -0.0000927650  -0.0743094883  -0.0168313149  -0.0042563087
        0.0051289846   0.0008441840  -0.0052039093  -0.0047924816   0.0000996740
        0.0049712403   0.0003479392   0.0014391157  -0.0022992132  -0.0032079742
        0.0016708138   0.0020036769   0.0010941991  -0.0004244894   0.0006700625
        0.0004021565  -0.0001276314  -0.0010601254   0.0000848520  -0.0000107723
        0.0002325706   0.0000505905  -0.0000241527  -0.0004538828  -0.0002486527
        0.0000573070   0.0002184580   0.0006143615   0.0000502489   0.0002032252
       -0.0004321456  -0.0000279497   0.0000420028   0.0012321732   0.0002569601
        0.0009842473  -0.0005951253  -0.0003203920  -0.0002501867   0.0004727254
        0.0000408082   0.0005131720  -0.0001047397  -0.0000936024  -0.0005085526
       -0.0003113549   0.0000311725   0.0001983905   0.0002238608  -0.0000252938
       -0.0004848894  -0.0010083015   0.0001700363  -0.0038241195   0.0001110147
       -0.0008078333   0.0022833264   0.0039617975  -0.0014093862   0.0055088982
       -0.0007437949   0.0002332715   0.0000827743   0.0005752880   0.0004041132
       -0.0055859904  -0.0006815073   0.0002117526   0.0044608935   0.0050906726
        0.0007731268   0.0050356520  -0.0046962932   0.0000948117  -0.0021972247
        0.0038645880  -0.0013567619   0.0036825235   0.0000850207  -0.0008305316
       -0.0017497922   0.0009522899  -0.0003994076  -0.0007437145   0.0004332511
       -0.0001294917   0.0004580155  -0.0008849686   0.0002185285  -0.0002089329
        0.0002116684  -0.0000302879   0.0005233877  -0.0003178183   0.0000327798
       -0.0005814584  -0.0001284344  -0.0001091126   0.0002697226   0.0005867807
        0.0000579443  -0.0009579000  -0.0007017716  -0.0003304391   0.0000478815
        0.0012671419   0.0002766570  -0.0002820621  -0.0005116544  -0.0000511407
       -0.0002409568   0.0006803546   0.0000559116   0.0004681142  -0.0002519516
        0.0000562830  -0.0002295115   0.0000645735  -0.0000216793   0.0009472116
        0.0000478999  -0.0000661051   0.0022372205  -0.0030693907   0.0016624907
       -0.0048321335   0.0003389234   0.0014267982  -0.0000318126  -0.0001506662
       -0.0000610175   0.0001246316  -0.0000078498   0.0000181966  -0.0000704562
       -0.0000215394   0.0000146322   0.0000297474  -0.0001071964  -0.0000406663
        0.0000781566  -0.0000448910  -0.0000248730   0.0000937185   0.0000480265
        0.0000086569   0.0000787676   0.0000362584  -0.0000246858   0.0000476602
        0.0000759748   0.0000074776   0.0000172144   0.0001465317   0.0000357003
        0.0001573313  -0.0000940567  -0.0000229117   0.0001398873   0.0000468140
       -0.0001864555   0.0004162104  -0.0002606704  -0.0010675767   0.0002904589
       -0.0002869335  -0.0004871191  -0.0002971638  -0.0002911895  -0.0004554382
       -0.0004181838  -0.0002586036  -0.0010475020  -0.0001369675   0.0000429466
       -0.0001742225  -0.0001639054  -0.0000935091  -0.0000249266  -0.0000223795
        0.0001390500   0.0000276421  -0.0000457822   0.0000661291   0.0000068515
       -0.0000708917   0.0000337130  -0.0000257976  -0.0000879606   0.0000424879
        0.0000099261  -0.0000689624  -0.0000402509  -0.0000226303  -0.0000277966
       -0.0000999273  -0.0000372615   0.0000645606  -0.0000149486   0.0000165904
       -0.0001214332  -0.0000111614   0.0000071227   0.0000323519  -0.0001444216
       -0.0000706993
       -0.0000214745   0.2181389886   0.0602706426   0.0000210354  -0.2018808136
       -0.0670222518  -0.0000017516  -0.0140239694   0.0035462420  -0.0004575540
        0.0000416032   0.0023711846  -0.0000249429  -0.0006088533  -0.0000374137
        0.0002673830   0.0000844878   0.0001484248  -0.0001684783  -0.0002067821
        0.0002258288   0.0000605333   0.0002373281  -0.0000987771  -0.0000571531
       -0.0001404339   0.0000637477   0.0000680483  -0.0000605539  -0.0000632577
        0.0000574681   0.0001653263   0.0000207052  -0.0000824661   0.0000615328
        0.0000231430  -0.0000215645   0.0002428947   0.0000414213   0.0001299628
       -0.0003086598  -0.0000613665  -0.0002275706   0.0001548655   0.0000638949
       -0.0000186841  -0.0002826931  -0.0000404637  -0.0001849269   0.0003064941
        0.0000810683   0.0001759074  -0.0001502600  -0.0000456174  -0.0000044410
       -0.0001324333   0.0000109909   0.0001822108  -0.0000431426   0.0000414967
       -0.0000414172   0.0001064935  -0.0000230055   0.0001118132  -0.0001075361
        0.0001880418  -0.0001882663   0.0003500133  -0.0010597681   0.0007968272
       -0.0005528253   0.0003665885  -0.0000034914   0.0005593259  -0.0001945132
       -0.0007852223  -0.0005424131   0.0003550647   0.0004874188   0.0000048437
        0.0023384579  -0.0000108483  -0.0005912433  -0.0000364942   0.0002162988
        0.0003339049  -0.0010389189  -0.0001561075  -0.0001236848   0.0001714402
        0.0000675228   0.0001637108  -0.0000891673   0.0000168296  -0.0001196263
        0.0000661036   0.0000270826   0.0001785194   0.0000057002  -0.0001912324
       -0.0000512335   0.0000375713   0.0000152082  -0.0001391663   0.0000119820
       -0.0002208519  -0.0001673354  -0.0000557693   0.0001980605   0.0003796164
        0.0000917788   0.0000251260  -0.0003485765  -0.0000483369   0.0002827805
        0.0001871826   0.0000789019  -0.0001795055  -0.0003615006  -0.0000757640
        0.0000085565   0.0002887998   0.0000461508   0.0000929991   0.0000567053
        0.0000214217  -0.0000582441   0.0001762328   0.0000227394  -0.0001308372
       -0.0000908798  -0.0000977995   0.0001491115  -0.0001581236   0.0002316046
       -0.0002352182   0.0000787924   0.0001475572   0.0000383646  -0.0000860724
        0.0000354528   0.0000580557  -0.0000171823  -0.0000357205  -0.0000080595
       -0.0000098654  -0.0000167810   0.0000165457  -0.0000754405  -0.0000143204
        0.0000272853  -0.0000228356  -0.0000151704   0.0000471116   0.0000382804
       -0.0000047128   0.0000418690   0.0000222534  -0.0000012130   0.0000228948
        0.0000273370  -0.0000088658  -0.0000363419   0.0000752548  -0.0000060990
        0.0000154366  -0.0000012223  -0.0000932474  -0.0000460149  -0.0000534285
        0.0000325062   0.0006619084  -0.0004151545  -0.0000238905   0.0000365038
       -0.0000310025  -0.0003568266  -0.0000399037  -0.0000327292  -0.0003409339
       -0.0006548414  -0.0004108236  -0.0000152698   0.0000479160  -0.0000531979
        0.0000349476  -0.0000165350  -0.0000006069  -0.0000931291   0.0000346464
        0.0000735109  -0.0000144836  -0.0000228967   0.0000256326  -0.0000086889
       -0.0000288607   0.0000213012  -0.0000031649  -0.0000463076   0.0000366226
       -0.0000037937  -0.0000262609  -0.0000222035  -0.0000144202  -0.0000176921
       -0.0000739375  -0.0000097454   0.0000064684  -0.0000095465  -0.0000155917
       -0.0000580699  -0.0000218225  -0.0000394276  -0.0000391565  -0.0000880436
        0.0000313788
       -0.0316977387   0.0000865621   0.0000210354   0.1048781973  -0.0000544818
       -0.0000473481  -0.0603652051  -0.0000125055   0.0000157489   0.0006548034
        0.0248345681   0.0054535378  -0.0013056785   0.0010617264   0.0001469491
        0.0007607391  -0.0002982487  -0.0001594676  -0.0003791909  -0.0007979010
        0.0002129811   0.0003848408   0.0005097018  -0.0002525810  -0.0000162108
       -0.0001076392  -0.0000324394  -0.0002805334   0.0001695974   0.0000959994
       -0.0000570419  -0.0001680655  -0.0000100200   0.0000669690  -0.0000498497
        0.0000089116   0.0000074874  -0.0002374501  -0.0000402858  -0.0001820647
        0.0003049948   0.0000815939   0.0003437041  -0.0001180404  -0.0000794856
        0.0000449880   0.0003179273   0.0000255244   0.0001641986  -0.0003110274
       -0.0000700754  -0.0001790890   0.0001434488   0.0000488749   0.0000224767
        0.0000636003   0.0000182128  -0.0002223859   0.0000372696   0.0000469860
       -0.0000211283  -0.0002473715  -0.0000964711  -0.0005698324  -0.0000392160
        0.0002047247  -0.0008636132   0.0010006177  -0.0004114836  -0.0053606157
        0.0014204121   0.0004528628   0.0022121891   0.0000211181  -0.0000055646
       -0.0053490922  -0.0014555751  -0.0004424121   0.0006502946  -0.0248281363
       -0.0054595240  -0.0013010898  -0.0010618089  -0.0001407236  -0.0008606663
       -0.0009961233   0.0004102072  -0.0005675117   0.0000365457  -0.0002041175
        0.0003887625  -0.0005071168   0.0002509482  -0.0000148181   0.0001058237
        0.0000335766  -0.0000229647   0.0002522078   0.0000970359  -0.0002223669
       -0.0000394700  -0.0000476281   0.0000229964  -0.0000641619  -0.0000182576
       -0.0001807441  -0.0001456106  -0.0000494060   0.0001632336   0.0003154575
        0.0000702321   0.0000468879  -0.0003215949  -0.0000255325   0.0003457229
        0.0001212586   0.0000803713  -0.0001833595  -0.0003089846  -0.0000824908
        0.0000056870   0.0002398093   0.0000397687   0.0000673924   0.0000492567
       -0.0000074064  -0.0000578515   0.0001684255   0.0000094227  -0.0002827464
       -0.0001733939  -0.0000982143  -0.0003777557   0.0007939038  -0.0002121728
        0.0007565487   0.0002964376   0.0001580697   0.0001224916   0.0000104070
        0.0000652848  -0.0000059976   0.0000560794   0.0001123548  -0.0000071585
        0.0000392170  -0.0000067534   0.0000014280   0.0000227336   0.0000010778
        0.0000061430   0.0000080278  -0.0000025433  -0.0000067462  -0.0000174163
        0.0000026121  -0.0000036361  -0.0000005649   0.0000070826   0.0000051119
        0.0000054519  -0.0000038613   0.0000233371  -0.0000225574  -0.0000040471
        0.0000415554  -0.0000472502  -0.0000242300   0.0000438247  -0.0000155804
        0.0000175742  -0.0005136007  -0.0001277821   0.0015466913  -0.0002438309
        0.0013470086  -0.0003096263  -0.0002441598  -0.0013481461   0.0003151287
       -0.0005147895   0.0001268260  -0.0015395972   0.0000442660   0.0000153488
       -0.0000174332   0.0000413369   0.0000463245   0.0000239730   0.0000228422
        0.0000219667   0.0000041694   0.0000050435  -0.0000057114   0.0000032668
        0.0000044967   0.0000000509  -0.0000068415  -0.0000066146   0.0000168703
       -0.0000026775   0.0000062202  -0.0000080924   0.0000022529   0.0000023935
       -0.0000226972  -0.0000023092  -0.0000069989  -0.0000396851   0.0000064334
       -0.0000065884  -0.0000570175  -0.0001123117   0.0001228062  -0.0000107092
       -0.0000661374
        0.0000906837  -1.0252117422  -0.2018808136  -0.0000544818   1.3933974302
        0.2728250079   0.0001603143  -0.2978637846  -0.0579633859   0.0242155217
       -0.0403762524  -0.0072561920   0.0052991024   0.0062573546  -0.0001851422
       -0.0077097815  -0.0005237245  -0.0018131510   0.0032895593   0.0052328220
       -0.0025727047  -0.0040128388  -0.0016558305   0.0003702728  -0.0010642657
       -0.0006881351   0.0001675372   0.0020364700  -0.0002294810  -0.0001114589
       -0.0002763406   0.0002020815   0.0000329748   0.0006086133   0.0005698036
       -0.0000638912  -0.0003919966  -0.0005614580  -0.0000140406  -0.0000423479
        0.0001297288  -0.0000955112  -0.0006084468  -0.0018822175  -0.0003038238
       -0.0017992487   0.0004454978   0.0004702721   0.0000711118  -0.0001562936
        0.0000871308  -0.0005291461  -0.0001078942   0.0000572241   0.0008443876
        0.0002664925  -0.0000745207  -0.0000191482  -0.0004012646  -0.0000134068
        0.0008654337   0.0019839029  -0.0001829705   0.0067712985  -0.0004404805
        0.0015831080  -0.0037916354  -0.0057821097   0.0014370813  -0.0046202058
        0.0022786983   0.0002773395  -0.0001291855  -0.0003783006  -0.0012802880
        0.0047215473   0.0021607998   0.0003090617  -0.0246324228  -0.0402711979
       -0.0070596267  -0.0049478476   0.0060681054  -0.0001810826   0.0035862641
       -0.0055889050   0.0013243355  -0.0064397665  -0.0003649558   0.0016452291
        0.0033277245  -0.0012771825   0.0003096222   0.0012696423  -0.0007826249
        0.0001769458  -0.0007970069   0.0016411838  -0.0003194627   0.0000541723
       -0.0003702131   0.0000007319  -0.0008894934   0.0002914155  -0.0000787532
        0.0007296076  -0.0000385848   0.0001029954  -0.0001367461  -0.0004847114
        0.0000373152   0.0017452121   0.0007481839   0.0005042943   0.0003492339
       -0.0019969527  -0.0003636419   0.0002724186   0.0003598563  -0.0000282358
        0.0004475077  -0.0007593262  -0.0000331153  -0.0006539685   0.0005835666
       -0.0000663127   0.0002683443   0.0001553313   0.0000239856  -0.0017283002
       -0.0001137024   0.0000483566  -0.0031445943   0.0049064612  -0.0025681832
        0.0073905095  -0.0005047044  -0.0017884598  -0.0000522753   0.0002388792
        0.0000447253  -0.0002160123  -0.0000523900  -0.0001446021   0.0001168325
        0.0000220490  -0.0000287814  -0.0000294789   0.0000542059   0.0000528552
       -0.0001052920   0.0000384003   0.0000239083  -0.0000867413  -0.0000248533
       -0.0000232670  -0.0000773436  -0.0000323001   0.0000436772  -0.0000411850
       -0.0001006164  -0.0000208367  -0.0000683992  -0.0001095194  -0.0000497036
       -0.0001560985   0.0001193105   0.0000273153  -0.0002573403  -0.0000633239
        0.0003944212   0.0001289968   0.0006680285   0.0011071479  -0.0004277255
       -0.0002001465   0.0008753465   0.0004429245  -0.0001915598   0.0007970975
       -0.0001268497   0.0006576475   0.0010664830   0.0002467499  -0.0000609944
        0.0003703411   0.0001673942   0.0001181519   0.0000331211   0.0000757432
       -0.0000971965  -0.0000494890   0.0000369959  -0.0000838943  -0.0000200861
        0.0000887168  -0.0000283931   0.0000446864   0.0000758117  -0.0000167601
       -0.0000253663   0.0000885409   0.0000303131   0.0000204138   0.0000219337
        0.0000410652   0.0000539384  -0.0001058757   0.0000109051  -0.0000342537
        0.0002124603  -0.0000376612  -0.0001186349   0.0000520523   0.0002339668
        0.0000668958
        0.0000195007  -0.2012550153  -0.0670222518  -0.0000473481   0.2728250079
        0.1112171691   0.0000260272  -0.0649986970  -0.0415646996   0.0003113443
       -0.0047772879  -0.0017638336   0.0002128181   0.0008125330  -0.0001756025
       -0.0000715804  -0.0000025686   0.0000324184   0.0001100305  -0.0002878383
       -0.0001685516   0.0001747645   0.0000388783   0.0000779517   0.0004646280
        0.0004191149  -0.0000415307  -0.0006993342   0.0003510553   0.0001280810
       -0.0000802708  -0.0004801206  -0.0000450992   0.0001654642  -0.0001891268
       -0.0000191845   0.0000645803  -0.0006611369  -0.0001078391  -0.0004592050
        0.0008834705   0.0002218554   0.0008109232  -0.0002507316  -0.0001761969
        0.0002666571   0.0008333637   0.0000663942   0.0004859186  -0.0009279516
       -0.0002371572  -0.0005070250   0.0004226364   0.0001363767  -0.0000427219
        0.0002854353   0.0000033106  -0.0004677582   0.0001823896   0.0000537780
       -0.0000467207  -0.0007991237  -0.0000196151  -0.0002587287   0.0002131202
       -0.0002776002   0.0014259282  -0.0006976730   0.0001956707   0.0003353927
        0.0021575900   0.0009183352  -0.0000558368  -0.0019587863   0.0002761726
       -0.0002419010   0.0021512257   0.0009214109  -0.0002849202  -0.0048335460
       -0.0018397825  -0.0002829347   0.0008421419  -0.0001850351  -0.0013404551
       -0.0007138910   0.0002257702   0.0001499651   0.0001740087  -0.0003249705
        0.0001730211  -0.0001515989   0.0001063125  -0.0005736237   0.0004731987
       -0.0000526819   0.0000134590  -0.0006080843   0.0000571542   0.0004526180
        0.0001687439   0.0000478494   0.0000783169   0.0002709248   0.0000073546
        0.0003829979   0.0003915370   0.0001100606  -0.0004474328  -0.0007378926
       -0.0002086119  -0.0002558316   0.0006579039   0.0000415545  -0.0006590961
       -0.0001691485  -0.0001376380   0.0003189565   0.0007553980   0.0001828006
       -0.0001009462  -0.0005419749  -0.0000963525  -0.0001354045  -0.0002086917
       -0.0000140295   0.0000884727  -0.0004566193  -0.0000386818   0.0005288719
        0.0002777455   0.0000361390  -0.0001623705  -0.0001737964  -0.0001445599
        0.0001689386  -0.0000227112   0.0000364599  -0.0000774764   0.0000983920
       -0.0000705216  -0.0000787320   0.0000122688   0.0001046984  -0.0000119139
        0.0000363885   0.0000185609  -0.0000348510   0.0001624343   0.0000242426
       -0.0000489916   0.0000483801   0.0000207839  -0.0000946606  -0.0000845131
        0.0000122549  -0.0000836634  -0.0000460704  -0.0000083234  -0.0000441485
       -0.0000453804   0.0000137706   0.0000887621  -0.0001542407  -0.0000107145
       -0.0000371422  -0.0000119223   0.0000453488  -0.0000196337   0.0000374056
       -0.0001130084   0.0006467619   0.0003544894  -0.0008842552  -0.0000696445
       -0.0002440024   0.0005967251   0.0000609904  -0.0002447467   0.0006411756
       -0.0006469278   0.0003553939  -0.0008594344   0.0000246555   0.0000346772
       -0.0001019403   0.0000266056  -0.0000112811   0.0000396978  -0.0000936215
       -0.0001632543   0.0000076621   0.0000485761  -0.0000572735   0.0000125319
        0.0000655092  -0.0000481944  -0.0000048862   0.0001040373  -0.0000898149
        0.0000131935   0.0000615910   0.0000521710   0.0000233060   0.0000433041
        0.0001732501   0.0000144400   0.0000053281   0.0000454061   0.0000227879
        0.0000819540   0.0000059744   0.0000896134   0.0000751828   0.0001006520
       -0.0000865835
        0.0177039529  -0.0000927650  -0.0000017516  -0.0603652051   0.0001603143
        0.0000260272   0.4420151589   0.0000769785  -0.0002721813  -0.1377773853
        0.0642241754   0.0112842865  -0.0648568319  -0.0103409889   0.0007136580
        0.0175203036  -0.0044567965   0.0057816047  -0.0075667326  -0.0110916290
        0.0027664787   0.0094071444   0.0051500053  -0.0009292089  -0.0022959040
       -0.0012368744   0.0001841264  -0.0008509088   0.0001395897   0.0006974173
       -0.0002082177  -0.0005456948  -0.0000221328   0.0000254178  -0.0004509033
       -0.0000523323   0.0002259060  -0.0005760011  -0.0001404863  -0.0005659775
        0.0010572475   0.0003023047   0.0014937446   0.0001943619  -0.0000694279
        0.0008890214   0.0011681583  -0.0001960502   0.0006799336  -0.0011205810
       -0.0002862812  -0.0003752913   0.0006047219   0.0001602565  -0.0004023712
        0.0002878388   0.0001599270  -0.0006241020   0.0001180477   0.0001302873
       -0.0003131888  -0.0008956174  -0.0007007607  -0.0134546317   0.0011363916
       -0.0018886911   0.0081927891   0.0185061187  -0.0077319757  -0.0328576922
        0.0179356009   0.0057113940   0.0464858931  -0.0001170656  -0.0000233786
       -0.0328483802  -0.0181490992  -0.0056801314  -0.1380499350  -0.0639908903
       -0.0111425811  -0.0647543955   0.0103279409  -0.0005800634   0.0082003461
       -0.0184492784   0.0077441343  -0.0134239494  -0.0011470780   0.0019043011
        0.0093633033  -0.0050936676   0.0009203901  -0.0022815102   0.0012245253
       -0.0001729869  -0.0003152644   0.0008681108   0.0006922709  -0.0006239661
       -0.0001195530  -0.0001294356  -0.0004041859  -0.0002912230  -0.0001615489
       -0.0003587032  -0.0006058309  -0.0001549351   0.0006707534   0.0011006242
        0.0002826903   0.0008897596  -0.0011462822   0.0002022842   0.0014784651
       -0.0001946549   0.0000668883  -0.0005444519  -0.0010489064  -0.0002990520
        0.0002305340   0.0005661623   0.0001356600   0.0000243174   0.0004528140
        0.0000573390  -0.0002162538   0.0005429373   0.0000167752  -0.0008248993
       -0.0001378744  -0.0006917953  -0.0075653651   0.0110494743  -0.0027804452
        0.0174639172   0.0044524825  -0.0058057363   0.0002321341   0.0001433738
        0.0003206935  -0.0002884036   0.0000074814   0.0005425851  -0.0001389528
        0.0000029460   0.0000339471  -0.0000419504   0.0000989076  -0.0000035397
        0.0000495090   0.0000111943   0.0000371515  -0.0000766060  -0.0000657912
       -0.0000035126  -0.0000210773  -0.0000423967   0.0000413486  -0.0000394092
        0.0000476273  -0.0000221079   0.0000688655  -0.0001049433   0.0000066155
       -0.0000348595  -0.0000617131  -0.0000631007   0.0001570936  -0.0001232859
       -0.0006442785   0.0000142149   0.0000667050  -0.0000477080   0.0009765175
       -0.0007499437  -0.0017231620   0.0009888988   0.0007282124   0.0017306607
        0.0000156953  -0.0000733642   0.0000385318   0.0001538484   0.0001208847
        0.0006380821  -0.0000342642   0.0000600633   0.0000647294   0.0000634853
        0.0001022414  -0.0000168791  -0.0000399881  -0.0000473695   0.0000232587
        0.0000299262   0.0000410179  -0.0000397654  -0.0000777156   0.0000649310
       -0.0000004768   0.0000478680  -0.0000065869  -0.0000391627  -0.0000313055
       -0.0000977700   0.0000123037  -0.0001381450  -0.0000063932  -0.0000369801
       -0.0003021711  -0.0000128348  -0.0005486284   0.0002318301  -0.0001485601
       -0.0003277377
        0.0000017501  -0.0743094883  -0.0140239694  -0.0000125055  -0.2978637846
       -0.0649986970   0.0000769785   0.6416938194   0.0842245335   0.0753088032
       -0.0992682300  -0.0017234456  -0.0071897675   0.0043964432   0.0012880623
        0.0027212505  -0.0006634736   0.0022967438  -0.0029002339  -0.0043319943
        0.0015873595   0.0038442837   0.0016326402  -0.0000598668   0.0005533394
        0.0004310199   0.0000908378  -0.0018666113   0.0002515530   0.0000908272
        0.0001796393  -0.0002984622  -0.0001253716  -0.0004297681  -0.0005474890
        0.0000280981   0.0003144507   0.0001207831  -0.0000389362  -0.0001991115
        0.0002879040   0.0001752757   0.0008373071   0.0013572218   0.0001397638
        0.0015256414  -0.0000177646  -0.0003773593   0.0001191018  -0.0003226013
       -0.0001591110   0.0002190035   0.0002072917   0.0000045622  -0.0006620091
       -0.0000881445   0.0000588308  -0.0001376189   0.0003252909   0.0001323874
       -0.0007426153  -0.0016992845   0.0001071992  -0.0053973958   0.0000769858
       -0.0016199999   0.0010360656   0.0034045397  -0.0024018379   0.0265464334
       -0.0388156629  -0.0030169563   0.0000422611   0.0085101907   0.0020759013
       -0.0265458650  -0.0387268865  -0.0030429595  -0.0750293574  -0.0995917421
       -0.0019135629   0.0067531753   0.0046165177   0.0012774604  -0.0007192636
        0.0031921020  -0.0022441049   0.0048966888  -0.0000704957  -0.0017599554
       -0.0025892894   0.0009354890   0.0000411936  -0.0009328873   0.0006164388
        0.0000877458   0.0006099714  -0.0010207085   0.0003739628   0.0000641944
        0.0002622041   0.0001041425   0.0007607565  -0.0001430962   0.0000691612
       -0.0006364626   0.0000704420  -0.0000874091   0.0000085724   0.0003403448
       -0.0000585788  -0.0014555716  -0.0006268516  -0.0004519902  -0.0003179027
        0.0016217873   0.0002701147  -0.0002731562  -0.0001785444   0.0000399960
       -0.0004330674   0.0005297220   0.0000020793   0.0005234834  -0.0005946474
        0.0000211353  -0.0001676868  -0.0002052042  -0.0001045909   0.0012605024
       -0.0000087867  -0.0002276668   0.0026798890  -0.0038303714   0.0016264663
       -0.0022978966  -0.0007165835   0.0022723575   0.0001542624  -0.0001989946
        0.0002440424  -0.0001042234  -0.0000631997  -0.0000168951  -0.0000248361
        0.0000410105  -0.0000429066   0.0000163439  -0.0002343645  -0.0000620556
        0.0000404903  -0.0000799401  -0.0000714258   0.0001535399   0.0001324674
        0.0000262955   0.0001125377   0.0000808374  -0.0000220442   0.0000702724
        0.0000367615   0.0000117368  -0.0001471720   0.0001967990   0.0000508215
        0.0000758463  -0.0001018076  -0.0000034065  -0.0000539821  -0.0000919502
       -0.0001436182  -0.0008703576  -0.0000877963   0.0000983987   0.0000823498
       -0.0050659578  -0.0001690174  -0.0001147928  -0.0050784963  -0.0000170997
        0.0008649305  -0.0000765444   0.0001635757   0.0000715804  -0.0000977825
       -0.0001062375  -0.0001016411  -0.0000957711  -0.0000154854   0.0001263012
        0.0001717126   0.0000038728  -0.0000652745   0.0000057957   0.0000104334
       -0.0000216475   0.0000709789  -0.0000312410  -0.0001349155   0.0001127834
        0.0000328441  -0.0000141062  -0.0000718580  -0.0000631383  -0.0000164747
       -0.0002091056  -0.0000320058   0.0000029651   0.0000573826  -0.0000313670
        0.0001101563  -0.0000953602  -0.0000621238  -0.0001596520  -0.0001980330
        0.0001982180
       -0.0000091973  -0.0168313149   0.0035462420   0.0000157489  -0.0579633859
       -0.0415646996  -0.0002721813   0.0842245335   0.0973845902   0.0118609016
       -0.0012016388  -0.0387034060  -0.0012801363  -0.0033901821   0.0017817558
        0.0002193035   0.0006310835   0.0010564325  -0.0002520558  -0.0004974316
        0.0003643982   0.0001411519   0.0003109357  -0.0002668856  -0.0002750698
       -0.0001640752   0.0001129898   0.0002589646  -0.0001444661   0.0000372539
        0.0000364762   0.0001748607  -0.0000056489  -0.0000727953   0.0000675283
       -0.0000129826  -0.0000171509   0.0002369374   0.0000364749   0.0001548524
       -0.0003061618  -0.0000858084  -0.0002705310   0.0000868086   0.0000736470
       -0.0000633451  -0.0002687516  -0.0000257953  -0.0001661114   0.0003005807
        0.0000870993   0.0001781303  -0.0001415274  -0.0000425172   0.0000026282
       -0.0001074149   0.0000028692   0.0001608128  -0.0000524202  -0.0000166642
        0.0000085275   0.0002363193  -0.0000224336  -0.0002779922  -0.0003817504
        0.0001229979   0.0005035369   0.0015203055  -0.0008223907  -0.0008195648
       -0.0014023878   0.0026203124   0.0000062428  -0.0007159380  -0.0062889914
        0.0008088873  -0.0013402003   0.0026343431  -0.0116866195  -0.0011224108
       -0.0386534134   0.0013659698  -0.0033890927   0.0017793426  -0.0005209103
        0.0015372250  -0.0008309754   0.0003028676  -0.0003743780   0.0001284488
       -0.0001939058   0.0003371920  -0.0002709790   0.0002915973  -0.0001718524
        0.0001168364  -0.0000051939   0.0002136231  -0.0000326242  -0.0001589480
       -0.0000520342  -0.0000163759  -0.0000073704  -0.0001050309   0.0000022606
       -0.0001624433  -0.0001383543  -0.0000389926   0.0001598264   0.0002770065
        0.0000834317   0.0000620962  -0.0002467537  -0.0000226217   0.0002504704