$hessian                                                                        
        0.4912180604  -0.0281063243  -0.0312040873  -0.1266823995  -0.0441699829
       -0.0430645001  -0.0281038298  -0.0148566860  -0.0070794525  -0.0078064809
       -0.0034260314  -0.0087809044   0.0000098237  -0.0002834801   0.0006429818
        0.0001039668  -0.0002261837  -0.0000282791  -0.0000259476  -0.0000521609
       -0.0000641891  -0.0001712740  -0.0003475960  -0.0005068782   0.0000287769
        0.0011418858  -0.0010257553   0.0006780543  -0.0000136791   0.0002489480
       -0.0004990123  -0.0002266138   0.0000256474   0.0001998029   0.0000027854
        0.0000003469  -0.0000486006  -0.0000488198   0.0000071496   0.0001105936
        0.0000357380  -0.0000034548  -0.0000792270  -0.0000111449   0.0000090704
        0.0000249002   0.0000078432  -0.0000096362  -0.0000306713   0.0000104044
        0.0000005329  -0.0000018494  -0.0000026159  -0.0000004969   0.0000042455
        0.0000030162  -0.0000027978   0.0000009091   0.0000033826  -0.0000011085
        0.0000011888  -0.0000013587  -0.0000012874  -0.0000006552   0.0000011363
       -0.0000009239   0.0000031637   0.0000006721  -0.0000017612   0.0000058051
       -0.0000240556  -0.0000009812  -0.0000018142   0.0000109690   0.0000057520
       -0.0000049838  -0.0000004184  -0.0000004422   0.0000006521   0.0000004683
       -0.0000016936   0.0000008344  -0.0000014448  -0.0000005178   0.0000031999
        0.0000018402  -0.0000008900  -0.0000012158  -0.0000029547   0.0000005798
        0.0000173874   0.0000062873   0.0000000899   0.0000235298  -0.0000281534
       -0.0000021013  -0.0000880005  -0.0000300983   0.0000003658   0.0001149467
        0.0001399705  -0.0000855099  -0.0006223261   0.0015773588   0.0002783710
        0.0051525421   0.0008587647   0.0019564005  -0.0005747235   0.0011152486
       -0.0003202749   0.0003685122  -0.0000157442   0.0002542972   0.0001461840
       -0.0002962389  -0.0001116303  -0.0000057893   0.0002412195   0.0002652496
       -0.0000237002  -0.0000029318   0.0000229434  -0.0001168897   0.0000654899
       -0.0000641093   0.0000067727   0.0000292144   0.0000158755   0.0000029752
       -0.0000053338  -0.0000025830   0.0000251980  -0.0000519938  -0.0000165521
       -0.0001387665   0.0000775802  -0.0000399225   0.0000117091   0.0004016414
        0.0002579916   0.0001421604  -0.0000964721   0.0000559578  -0.0000320124
        0.0000123891   0.0000039607   0.0000145759  -0.0000211702   0.0000031880
       -0.0000058234   0.0000067143  -0.0000059396   0.0000135126  -0.0000101407
        0.0000068413  -0.0000239213   0.0000248474  -0.0000222073  -0.0545181953
        0.0249849908  -0.0445671246  -0.0710465566   0.0755916772   0.0198155725
       -0.2038996541  -0.0136727852   0.1122810354  -0.0049694806  -0.0009213732
        0.0028505143   0.0006316584   0.0001422116  -0.0011227985   0.0005186990
       -0.0008730923  -0.0009348977  -0.0001351649   0.0001689516  -0.0006542895
       -0.0000070302  -0.0000169940   0.0000263642  -0.0000224446   0.0000139901
        0.0000453256  -0.0000435207   0.0000854817  -0.0000733311   0.0000158208
       -0.0000470358   0.0000248718  -0.0000002486  -0.0000097116   0.0000017873
       -0.0000038820   0.0000045623   0.0000011309  -0.0000014642   0.0000005189
        0.0000005230   0.0000011059  -0.0000049592  -0.0000017581  -0.0000019770
       -0.0000059150  -0.0000002860  -0.0000037295  -0.0000023328   0.0000010539
       -0.0000016225   0.0000002029   0.0000008493  -0.0000040742  -0.0000036069
       -0.0000009244  -0.0000071157  -0.0000016219  -0.0000008067  -0.0000062604
        0.0000026318  -0.0000005803   0.0000004646   0.0000006192   0.0000003292
        0.0000006731  -0.0000015643   0.0000023523  -0.0000067585   0.0000075100
       -0.0000025703  -0.0000509678   0.0000059347   0.0000048404   0.0001688021
        0.0011308426   0.0005995879  -0.0000113773  -0.0000064199   0.0000228166
        0.0000333248  -0.0000230053   0.0000244535   0.0000207825   0.0000032522
        0.0000206185   0.0000115420   0.0000049562   0.0000151127  -0.0000046942
        0.0000223579   0.0000019517   0.0000032387  -0.0000065331  -0.0000064040
       -0.0000017085   0.0000027086  -0.0000046136  -0.0000020970   0.0000033542
       -0.0000002031  -0.0000061263   0.0000050053   0.0000051108   0.0000059698
       -0.0000018482   0.0000127121
       -0.0281063243   0.5034720361  -0.0195360005  -0.0448940782  -0.0972879876
       -0.0285576720  -0.0067305703  -0.0025933769  -0.0011319652   0.0073376514
        0.0064565184   0.0038994073   0.0004108208  -0.0012365847   0.0000536836
        0.0000391699   0.0005962712  -0.0000556871   0.0000145682  -0.0000604610
        0.0000812259   0.0000353273   0.0004578493   0.0004118320   0.0001770012
       -0.0016160858   0.0023725244  -0.0000781817   0.0009365007  -0.0000821547
       -0.0001196015   0.0000166486   0.0000009827   0.0000389565  -0.0000364897
       -0.0000001172  -0.0000473668   0.0000012675  -0.0000123125  -0.0000113260
        0.0000165417  -0.0000076290   0.0000232342   0.0000193510  -0.0000020152
       -0.0000081228  -0.0000188157   0.0000002981   0.0000222141   0.0000017760
       -0.0000023626  -0.0000032483  -0.0000043233   0.0000011304   0.0000022470
        0.0000020107  -0.0000041701   0.0000000212   0.0000017530   0.0000031810
        0.0000004718  -0.0000000461   0.0000002878   0.0000023483   0.0000018890
        0.0000028381   0.0000019852  -0.0000026327  -0.0000036672  -0.0000254547
        0.0000076534  -0.0000011467   0.0000230512  -0.0000070931   0.0000010335
       -0.0000083785   0.0000034451   0.0000007149   0.0000041084   0.0000044127
       -0.0000002662   0.0000017452   0.0000010562   0.0000008524   0.0000019173
       -0.0000004720  -0.0000007288  -0.0000013719  -0.0000047885  -0.0000001612
        0.0000020636  -0.0000028618  -0.0000018153  -0.0000310586   0.0000029694
       -0.0000003677   0.0000011273   0.0000103827  -0.0000079977   0.0000972802
       -0.0000036050   0.0000485675   0.0023723894  -0.0045752435   0.0000066717
       -0.0176014707  -0.0193377724  -0.0148785848   0.0002094573  -0.0006678942
        0.0003916737  -0.0006484794   0.0003454388  -0.0005340958  -0.0001870556
        0.0000953273  -0.0001072940  -0.0003821112  -0.0007590120  -0.0013349001
        0.0001698938  -0.0001919684  -0.0000377944   0.0000512082  -0.0000510454
        0.0000143416   0.0000119643  -0.0000146653   0.0000043834  -0.0000108680
        0.0000145887  -0.0000049416  -0.0000103791   0.0000140813   0.0000093482
        0.0000352488  -0.0001631805  -0.0000765770  -0.0000241526  -0.0002947888
       -0.0001694594  -0.0001604613   0.0001187979  -0.0000589637   0.0000266179
       -0.0000103741   0.0000361774  -0.0000171207   0.0000248735  -0.0000167744
        0.0000015090  -0.0000007667   0.0000070491  -0.0000146277   0.0000071132
        0.0000051527   0.0000286868  -0.0000323446   0.0000120199   0.0249107089
       -0.0943359362   0.0974177591   0.0758008885  -0.2431714030  -0.0493705872
       -0.0137516285  -0.0448000708   0.0103064632  -0.0006458676   0.0003874152
        0.0004049191  -0.0000913298   0.0001235860  -0.0005403727   0.0009141842
        0.0006692204  -0.0001014618   0.0007520508  -0.0001499252   0.0020999878
       -0.0000112722   0.0000152063   0.0000214953   0.0001152724   0.0000248411
        0.0000976924   0.0001221115  -0.0000029941   0.0002433341  -0.0000571461
        0.0000050095  -0.0000023323  -0.0000155756   0.0000016747  -0.0000018046
        0.0000007647   0.0000038706  -0.0000013969   0.0000016537  -0.0000002487
        0.0000006215   0.0000017487  -0.0000018151  -0.0000004707  -0.0000019249
       -0.0000027460   0.0000006091  -0.0000035308  -0.0000023146   0.0000023677
       -0.0000019994   0.0000016774   0.0000016760   0.0000003387  -0.0000009559
        0.0000001077  -0.0000032533   0.0000006107  -0.0000004745  -0.0000033341
        0.0000021939  -0.0000000155  -0.0000003258   0.0000036488   0.0000005895
       -0.0000004642  -0.0000018802   0.0000005525  -0.0000029808   0.0000065131
       -0.0000066603   0.0000190802   0.0000755637  -0.0000508414  -0.0000636102
       -0.0024030965  -0.0011431709  -0.0000308520   0.0000337142  -0.0000117418
        0.0000056412  -0.0000165149  -0.0000007549  -0.0000219092  -0.0000176409
       -0.0000326907  -0.0000066084  -0.0000286238  -0.0000255598   0.0000067051
       -0.0000397749  -0.0000119028   0.0000028210   0.0000047693  -0.0000240043
        0.0000101882  -0.0000130732   0.0000088506   0.0000164531  -0.0000151944
       -0.0000025185   0.0000160539  -0.0000115765  -0.0000114476  -0.0000055282
        0.0000003959  -0.0000045710
       -0.0312040873  -0.0195360005   0.5104739988  -0.0445470089  -0.0291801970
       -0.0901565839   0.0111660170   0.0062827336   0.0045219865  -0.0200680127
       -0.0096589775  -0.0179837793  -0.0001308576   0.0003107629  -0.0007679553
       -0.0001540277  -0.0007872083   0.0000799358  -0.0001575479  -0.0002038937
       -0.0001714169  -0.0005006982  -0.0006500797  -0.0011934956  -0.0012826480
        0.0032699616  -0.0032466814   0.0000893762  -0.0001772624   0.0005112820
        0.0003451579   0.0001350134   0.0000149394  -0.0001267844   0.0000918555
       -0.0000008775   0.0000452397   0.0000472462  -0.0000076870  -0.0001075284
       -0.0000607931   0.0000158227   0.0001118468   0.0000377492  -0.0000075511
       -0.0000518349  -0.0000425905   0.0000127605   0.0000626845   0.0000045859
       -0.0000031778  -0.0000029250  -0.0000045762   0.0000007065  -0.0000024066
        0.0000040212   0.0000038973  -0.0000030386   0.0000006370  -0.0000025134
        0.0000021884   0.0000013488  -0.0000019992   0.0000013189  -0.0000013095
       -0.0000068309   0.0000083908  -0.0000025789   0.0000036767  -0.0000447456
        0.0000065324   0.0000062766   0.0000431415   0.0000008293  -0.0000113247
       -0.0000055891   0.0000062428  -0.0000034067   0.0000020714   0.0000062028
        0.0000025536   0.0000029517   0.0000024856  -0.0000001116   0.0000002153
       -0.0000000624   0.0000038943   0.0000011419  -0.0000024446  -0.0000018180
        0.0000004914  -0.0000024654   0.0000048356  -0.0000613993   0.0000124943
        0.0000058327   0.0000358171  -0.0000223876   0.0000066724  -0.0000611936
       -0.0000937468   0.0000598173   0.0000817037  -0.0012247155   0.0004251100
       -0.0043108299  -0.0083504690  -0.0045291022   0.0000335050  -0.0001969052
       -0.0008618711  -0.0001382348   0.0000702329  -0.0000064796  -0.0000777285
       -0.0001842740  -0.0001296286  -0.0001743062  -0.0002895077  -0.0002745860
        0.0000718903  -0.0000777071  -0.0000118558  -0.0000483561   0.0000178881
       -0.0000263049   0.0000106547   0.0000046602   0.0000203762  -0.0000027115
        0.0000014601  -0.0000024545   0.0000135794  -0.0000120638   0.0000049802
       -0.0000760885  -0.0000283275  -0.0000807302   0.0000338411   0.0001514578
        0.0000761782   0.0000080844  -0.0000026591   0.0000046522  -0.0000054036
       -0.0000027574   0.0000040942   0.0000072581  -0.0000057305  -0.0000042226
       -0.0000011619   0.0000009875  -0.0000070439   0.0000008726   0.0000024487
        0.0000004647   0.0000009573   0.0000039624  -0.0000064685  -0.0442129832
        0.0972550819  -0.2198753391   0.0198672050  -0.0491109644  -0.0542385766
        0.1121346300   0.0102263636  -0.1214466843   0.0034712914   0.0006516867
       -0.0012408004   0.0010932853   0.0002443648   0.0008586530   0.0003726856
        0.0005727447   0.0003617312  -0.0010630719   0.0001645072  -0.0012902113
        0.0000000159  -0.0000185487   0.0000184329  -0.0000785600  -0.0000146391
       -0.0000757206  -0.0001120272   0.0000891438  -0.0003867053   0.0000661589
       -0.0000234909  -0.0000024302  -0.0000056844  -0.0000009738  -0.0000037838
        0.0000033953  -0.0000022795   0.0000013731   0.0000001315   0.0000017351
        0.0000001761   0.0000003283  -0.0000022033  -0.0000006170  -0.0000011525
       -0.0000031308   0.0000013439  -0.0000034260  -0.0000014740   0.0000013755
       -0.0000008762   0.0000015859  -0.0000012216  -0.0000000155  -0.0000019470
        0.0000005607  -0.0000033647  -0.0000006144  -0.0000002667  -0.0000027993
        0.0000017273  -0.0000007785   0.0000001768   0.0000025102  -0.0000015905
        0.0000001479  -0.0000012180  -0.0000033483  -0.0000104399  -0.0000135936
        0.0000036921   0.0000066686  -0.0000008000  -0.0000027816  -0.0003826346
        0.0003383322   0.0005356690  -0.0000071591   0.0000059326   0.0000144548
        0.0000299279  -0.0000059405   0.0000060402  -0.0000012844  -0.0000039016
       -0.0000030423   0.0000027540  -0.0000081453  -0.0000043028  -0.0000005770
       -0.0000087183  -0.0000031804  -0.0000004743   0.0000046972  -0.0000004028
        0.0000001762  -0.0000011381   0.0000066117   0.0000021216  -0.0000033911
        0.0000041559   0.0000025891  -0.0000028259   0.0000026820  -0.0000004013
       -0.0000025842   0.0000080457
       -0.1266823995  -0.0448940782  -0.0445470089   0.4472379161   0.0165506099
        0.0357657211  -0.1284527847  -0.0052225620   0.0557513795  -0.0649263727
        0.0103170681  -0.0328283386   0.0027054824  -0.0001809349   0.0041731363
        0.0047923621  -0.0033034079  -0.0016181104  -0.0004548775  -0.0005864053
       -0.0000293785   0.0022547871  -0.0030126896  -0.0041517165  -0.0063243694
        0.0037746751  -0.0166796684  -0.0002071343   0.0020801864   0.0013869740
       -0.0006327512  -0.0006419538  -0.0004245936   0.0002100187   0.0000017073
        0.0001827478  -0.0000993465  -0.0000916223   0.0000309356   0.0002434240
        0.0000897523  -0.0000036056  -0.0002057743  -0.0000814633   0.0000103490
        0.0000939767   0.0000863574  -0.0000168319  -0.0000991231   0.0000000808
       -0.0000015230   0.0000022239   0.0000037212   0.0000034055   0.0000037062
        0.0000045313   0.0000038526   0.0000058565   0.0000027367  -0.0000037958
       -0.0000001855  -0.0000015300   0.0000005767  -0.0000046908   0.0000069233
        0.0000029946  -0.0000022178   0.0000069993   0.0000003238   0.0000716888
       -0.0000299865  -0.0000045448  -0.0000556298   0.0000212403  -0.0000006320
        0.0000073250  -0.0000041726   0.0000010068  -0.0000001441  -0.0000061770
       -0.0000005615  -0.0000000974  -0.0000066958  -0.0000010119   0.0000049814
        0.0000056945  -0.0000012676   0.0000106123   0.0000010276   0.0000003697
        0.0000114386   0.0000064517  -0.0000008145   0.0001022407  -0.0000381179
        0.0000080817  -0.0001651323   0.0000017645   0.0000045545   0.0001111497
        0.0002265499  -0.0000015419   0.0059647593  -0.0104623088  -0.0016151352
       -0.0697572176   0.0289232206   0.0004993059  -0.0079500109   0.0207635579
        0.0050673090  -0.0013296276   0.0023236097  -0.0037408961  -0.0004787918
       -0.0002085239  -0.0005721401  -0.0000112343  -0.0011098859  -0.0046797225
        0.0005290039  -0.0005300135  -0.0003331116  -0.0000372517  -0.0000636655
       -0.0000081640  -0.0000124253  -0.0000017197   0.0000220789  -0.0000186234
        0.0000198823  -0.0000304636   0.0000613587   0.0000100927   0.0001031179
       -0.0003917354  -0.0002516019  -0.0002057213  -0.0002465816   0.0003889032
        0.0005301507   0.0000708443  -0.0000711888   0.0000195767  -0.0000082804
        0.0000558523  -0.0000432880   0.0000244245  -0.0000188872   0.0000228820
       -0.0000036999  -0.0000081557   0.0000308075   0.0000028366   0.0000105625
       -0.0000191695  -0.0000257585   0.0000157187  -0.0000085886  -0.0075461251
       -0.0036092939  -0.0072492213   0.0056024809   0.0024431629   0.0033715539
       -0.0217853681  -0.0135654954  -0.0104781600  -0.0206828989  -0.0027725971
        0.0121396161   0.0028459104  -0.0006670017  -0.0005309787  -0.0108974421
        0.0021242683   0.0086438436  -0.0017787720   0.0003778438   0.0008634893
        0.0000730100  -0.0003004661   0.0003694361  -0.0009853077   0.0003791878
        0.0004894653  -0.0003587980   0.0002892859  -0.0008284171   0.0000045378
        0.0000317252  -0.0000661828   0.0000245412  -0.0000050943  -0.0000115018
       -0.0000073607  -0.0000108393  -0.0000015611   0.0000012832  -0.0000065091
       -0.0000034239  -0.0000001499  -0.0000023763  -0.0000000231   0.0000007227
       -0.0000004704   0.0000002863   0.0000015203  -0.0000002388  -0.0000004632
       -0.0000019420  -0.0000032098   0.0000021078  -0.0000065640  -0.0000007067
       -0.0000011394  -0.0000013732  -0.0000001482  -0.0000004758  -0.0000018960
       -0.0000003175  -0.0000008518  -0.0000038012  -0.0000006419  -0.0000005708
       -0.0000081621   0.0000042548   0.0000016983   0.0000192534   0.0000144534
       -0.0000182000   0.0000683091  -0.0000445446  -0.0000136018  -0.0002191127
       -0.0005892440   0.0011726151  -0.0002839562   0.0010585652   0.0001108746
        0.0000075524  -0.0000019053  -0.0000351796   0.0000098821   0.0000003101
       -0.0000126321   0.0000059360   0.0000049855   0.0000008673  -0.0000112595
       -0.0000354871   0.0000047379  -0.0000084255  -0.0000088977   0.0000303293
        0.0000020531   0.0000067059  -0.0000056754  -0.0000098861   0.0000073113
        0.0000002833  -0.0000059287   0.0000072700   0.0000072562  -0.0000006112
        0.0000044254  -0.0000004928
       -0.0441699829  -0.0972879876  -0.0291801970   0.0165506099   0.4618713746
        0.0232734951  -0.0084593153  -0.0562968909   0.0037991853   0.0080337016
       -0.0827928336   0.0406359024   0.0054325347  -0.0141794066   0.0240023460
       -0.0039899255  -0.0030758233   0.0006310847   0.0001928909  -0.0002410813
        0.0005138202  -0.0035221876  -0.0008318838  -0.0017344407   0.0007135231
        0.0077268880  -0.0069063069   0.0027751707  -0.0014921143   0.0021121941
       -0.0007066477   0.0001660798  -0.0003135770   0.0002243705  -0.0000411461
       -0.0000277445  -0.0000734034  -0.0000830443   0.0000161814   0.0001851073
        0.0000525701   0.0000049293  -0.0001456037  -0.0000606344   0.0000088784
        0.0000699370   0.0000607534  -0.0000087114  -0.0000702113  -0.0000081070
        0.0000003602   0.0000013604   0.0000021097   0.0000006221   0.0000094747
       -0.0000001309  -0.0000033968   0.0000052132   0.0000006163  -0.0000032242
        0.0000007405  -0.0000033512  -0.0000023998  -0.0000026117   0.0000019746
        0.0000025835  -0.0000060549   0.0000044536  -0.0000026894   0.0000447709
       -0.0000105084  -0.0000016857  -0.0000419798   0.0000074282   0.0000035777
        0.0000042026  -0.0000037683   0.0000004099  -0.0000029814  -0.0000050196
        0.0000002323  -0.0000014898  -0.0000047312   0.0000004686  -0.0000001253
        0.0000007964  -0.0000000293   0.0000038855   0.0000020232   0.0000012534
        0.0000040753   0.0000024348  -0.0000016806   0.0000655170  -0.0000295625
        0.0000033094  -0.0001444554   0.0000377361   0.0000010058   0.0002181946
        0.0002280259   0.0000728578  -0.0031603467  -0.0220409523  -0.0135691640
        0.0329944362  -0.1584391906  -0.0289680425   0.0107018113  -0.0163754210
       -0.0001558688   0.0022890921   0.0019117145  -0.0001753768  -0.0000249019
       -0.0007287472  -0.0005326726  -0.0002824997   0.0005599734  -0.0030969608
        0.0004058661  -0.0004620274  -0.0000866835  -0.0001052161  -0.0000187399
       -0.0000710191  -0.0000184407   0.0000901134   0.0000410215   0.0000883818
       -0.0000105741   0.0000474174  -0.0000055403  -0.0001314776  -0.0000680831
       -0.0000585014  -0.0001274396   0.0000759766  -0.0003048795   0.0002542715
        0.0002895392   0.0000247052  -0.0000665627   0.0000591844  -0.0000397284
        0.0000407590   0.0000331957   0.0000220473  -0.0000247732  -0.0000105877
       -0.0000255020   0.0000168654   0.0000096788  -0.0000023001   0.0000064505
        0.0000049725  -0.0000213953   0.0000093288  -0.0000497316   0.0088016899
        0.0068322016   0.0058710441  -0.0193259831  -0.0190091665  -0.0155692192
       -0.0039917298  -0.0021693910  -0.0007675009  -0.0119839047  -0.0016212489
        0.0081960370  -0.0101488146  -0.0008151725   0.0090737091   0.0210266168
       -0.0008874702  -0.0166492090   0.0009087426   0.0005375105  -0.0004062932
        0.0003887298  -0.0006583843   0.0010794585   0.0004650672  -0.0002064267
       -0.0002248118  -0.0003357609   0.0001236011  -0.0008163725   0.0000258555
        0.0000130622  -0.0000108165   0.0000094581   0.0000091062   0.0000099547
       -0.0000072703  -0.0000027247  -0.0000019519  -0.0000027916  -0.0000032968
       -0.0000018664  -0.0000022977   0.0000002701  -0.0000006865  -0.0000013182
        0.0000009314  -0.0000015296  -0.0000001570  -0.0000004597  -0.0000015575
       -0.0000025040  -0.0000015861   0.0000014561  -0.0000025361   0.0000012631
       -0.0000005513   0.0000017084   0.0000009043   0.0000002023   0.0000010330
       -0.0000010088   0.0000012648  -0.0000004693  -0.0000016750   0.0000020020
       -0.0000022311   0.0000042321   0.0000021107   0.0000141406   0.0000139143
       -0.0000184278  -0.0000226796  -0.0000314677  -0.0000348602  -0.0015854735
        0.0000271483  -0.0001542407   0.0000403711  -0.0002800933  -0.0002438562
        0.0000397306  -0.0000324039   0.0000042927   0.0000075020  -0.0000006925
       -0.0000008354   0.0000046343  -0.0000021129   0.0000016328  -0.0000287982
        0.0000029501  -0.0000014897   0.0000201754  -0.0000151226  -0.0000234052
        0.0000032903   0.0000012065  -0.0000029001   0.0000045793  -0.0000070845
       -0.0000029071  -0.0000030548   0.0000034465  -0.0000009200   0.0000090573
       -0.0000055700   0.0000176339
       -0.0430645001  -0.0285576720  -0.0901565839   0.0357657211   0.0232734951
        0.4654786346   0.0477075887   0.0008510215  -0.0967509558  -0.0309606546
        0.0462379345  -0.1454220400  -0.0005973117   0.0108768635  -0.0078712347
       -0.0018726916   0.0012836967   0.0025703265  -0.0001605017   0.0003671538
       -0.0007943653  -0.0030467378  -0.0016148332  -0.0000078946  -0.0121977210
        0.0010680054  -0.0253300107   0.0032394612   0.0028572862  -0.0001620462
       -0.0005112192  -0.0003944327   0.0001950422   0.0003680988   0.0000645485
        0.0000443307  -0.0000446822  -0.0000884699   0.0000444849   0.0001281468
        0.0000559357  -0.0000121553  -0.0001354156  -0.0000703115  -0.0000053873
        0.0000727709   0.0000455777  -0.0000077853  -0.0000714943  -0.0000156786
        0.0000029035   0.0000044001   0.0000069120   0.0000002914   0.0000144347
       -0.0000005710  -0.0000008542   0.0000026539  -0.0000011405  -0.0000071042
        0.0000014311  -0.0000018839  -0.0000020728  -0.0000034131  -0.0000013978
       -0.0000027216  -0.0000060128   0.0000060026   0.0000043424   0.0000436916
       -0.0000066085   0.0000059719  -0.0000543605   0.0000069563   0.0000021740
        0.0000121892  -0.0000066764  -0.0000045483  -0.0000083956  -0.0000068883
        0.0000029938  -0.0000004513  -0.0000039346   0.0000005670  -0.0000029928
       -0.0000006198   0.0000037500   0.0000061029   0.0000033936  -0.0000008759
        0.0000009167   0.0000048717  -0.0000002969   0.0000705713  -0.0000069720
        0.0000083976  -0.0000981095   0.0000208699   0.0000121787   0.0002673911
        0.0001821546  -0.0000951957   0.0028388392  -0.0184433324  -0.0089148837
        0.0037587329  -0.0327410015  -0.0627835671  -0.0016858592   0.0087109184
        0.0043227328  -0.0042227524  -0.0010042547   0.0021405315   0.0003223980
       -0.0005062380   0.0001769625  -0.0043957174  -0.0023472273   0.0006045371
       -0.0000530905  -0.0008068240   0.0000432171  -0.0000303338   0.0000217618
       -0.0000666261   0.0000048183   0.0000288170  -0.0000129216   0.0000125248
       -0.0000031805   0.0000394820   0.0000400367  -0.0000796046  -0.0000655766
        0.0000670144   0.0000643483  -0.0002732276   0.0001091335   0.0005797521
       -0.0003176005   0.0002197113  -0.0000837566   0.0000694002  -0.0000260477
       -0.0000188381   0.0000185570  -0.0000162985  -0.0000164821   0.0000046974
       -0.0000025691   0.0000053599  -0.0000383558   0.0000284471  -0.0000347800
        0.0000251300  -0.0000288016   0.0000398077  -0.0000176635  -0.0198076403
       -0.0117412182  -0.0168529763  -0.0045229702  -0.0062670919  -0.0043650599
        0.0104616158   0.0077292510   0.0074249045  -0.0080999397  -0.0001182745
        0.0066437163   0.0206590730   0.0030463292  -0.0206055374   0.0084828106
       -0.0020932154  -0.0065296446   0.0004821016  -0.0015315073  -0.0004194337
       -0.0000591843  -0.0002244953  -0.0000718290   0.0004912169  -0.0002586956
       -0.0000207574  -0.0002071377   0.0003305099  -0.0006154208  -0.0000044756
       -0.0000335072  -0.0000213656   0.0000148379  -0.0000020257   0.0000044136
       -0.0000059420   0.0000062996  -0.0000014575  -0.0000041979  -0.0000019480
       -0.0000000137  -0.0000030953   0.0000020079   0.0000009173  -0.0000003874
        0.0000011368   0.0000011531   0.0000009468   0.0000010146  -0.0000003646
       -0.0000011163  -0.0000019261   0.0000014842  -0.0000003728   0.0000020636
        0.0000007069   0.0000041557   0.0000009744   0.0000016094   0.0000035955
       -0.0000009756   0.0000012055   0.0000007619  -0.0000016946   0.0000002742
        0.0000000933   0.0000036667   0.0000006453   0.0000108823   0.0000190542
       -0.0000015197  -0.0000108953   0.0000104137  -0.0000324984   0.0006652972
        0.0006768451  -0.0013647968  -0.0004063800   0.0006514734   0.0001243884
        0.0000293011  -0.0000093241   0.0000133956   0.0000012160  -0.0000074812
        0.0000209618   0.0000027515   0.0000031813   0.0000100980   0.0000066378
        0.0000264638  -0.0000310161   0.0000102304  -0.0000097755  -0.0000110237
       -0.0000044410   0.0000014964  -0.0000087660   0.0000017006   0.0000011068
       -0.0000032372  -0.0000054255  -0.0000012570   0.0000004833   0.0000052844
       -0.0000087094   0.0000092753
       -0.0281038298  -0.0067305703   0.0111660170  -0.1284527847  -0.0084593153
        0.0477075887   0.4704365577   0.0020397151   0.0479642343   0.0042634187
       -0.0024603724   0.0038872788  -0.0002231954   0.0009196218  -0.0007477598
       -0.0001668188  -0.0000936524   0.0003384847  -0.0000036818   0.0001464863
       -0.0000677231   0.0000838945  -0.0003309256   0.0005673255  -0.0003897771
        0.0002324041  -0.0019292868  -0.0001860633  -0.0000468071   0.0014448684
       -0.0002403682  -0.0002417113  -0.0004884996  -0.0000797252   0.0001422008
        0.0000712796   0.0000427102   0.0000599738   0.0000033604   0.0000314153
       -0.0000157121   0.0000103510   0.0000542030   0.0000233291  -0.0000026628
       -0.0000420054  -0.0000198368  -0.0000014002   0.0000521364   0.0000206434
       -0.0000028357  -0.0000051626  -0.0000080785   0.0000007585  -0.0000135892
        0.0000074653   0.0000054480   0.0000011073   0.0000047049   0.0000007862
        0.0000011159   0.0000001234  -0.0000000828   0.0000010589   0.0000057694
       -0.0000011078   0.0000124478  -0.0000031825  -0.0000028899  -0.0000260194
       -0.0000209563  -0.0000084575   0.0000613987   0.0000317479  -0.0000027230
       -0.0000116030   0.0000069911   0.0000013567   0.0000115790   0.0000058865
       -0.0000028880   0.0000030346  -0.0000037627  -0.0000025369   0.0000098739
        0.0000063592  -0.0000028465   0.0000051046  -0.0000052862  -0.0000014126
        0.0000184460  -0.0000031847   0.0000004534  -0.0000423653  -0.0000296661
       -0.0000054578  -0.0000542742  -0.0000182891   0.0000220977   0.0000005899
        0.0000684803   0.0001368395  -0.0008355531  -0.0011730840  -0.0015015692
       -0.0121006064   0.0096645979   0.0102761926   0.0005054456  -0.0001222110
        0.0009171687   0.0000511939   0.0007848854  -0.0003136834  -0.0001718263
       -0.0000357109  -0.0001405241   0.0003249488   0.0003698295  -0.0002647148
        0.0000233947  -0.0000035935  -0.0000418022   0.0000155630   0.0000247477
        0.0000533092   0.0000069634  -0.0000174738  -0.0000022535  -0.0000267160
        0.0000192727  -0.0000149053   0.0000166889   0.0000411753   0.0000430932
       -0.0000558365  -0.0000141360  -0.0000413497   0.0000683318  -0.0001025378
        0.0001067818  -0.0000956318   0.0000603420  -0.0000234023   0.0000157521
       -0.0000037656  -0.0000022118  -0.0000060701   0.0000124691   0.0000049699
        0.0000087486  -0.0000066581   0.0000085934  -0.0000079627   0.0000121741
       -0.0000119074   0.0000138779  -0.0000151562   0.0000098755   0.0004357638
        0.0001259601   0.0012346426   0.0006067213   0.0008481229   0.0006948852
       -0.0043544076  -0.0026837762  -0.0016201549  -0.1779113018  -0.0910538542
       -0.0799116141  -0.0583166029   0.0293403971  -0.0539597829  -0.0654437634
        0.0688006849   0.0144566841   0.0000885427   0.0000462738  -0.0000413119
        0.0000285888   0.0000831438  -0.0000554422   0.0000252742   0.0000130995
       -0.0000578718   0.0000160415  -0.0000120429  -0.0000513943   0.0000115347
       -0.0000523043  -0.0000105176   0.0000206422  -0.0000086132  -0.0000107282
       -0.0000019138  -0.0000182670   0.0000019947   0.0000016335  -0.0000048327
       -0.0000000982   0.0000016564  -0.0000068922  -0.0000002117  -0.0000001161
       -0.0000046769   0.0000001377  -0.0000020133  -0.0000034415   0.0000004642
       -0.0000001498  -0.0000012027  -0.0000012839  -0.0000066085  -0.0000050769
       -0.0000013611  -0.0000089635  -0.0000018843  -0.0000021500  -0.0000086099
        0.0000011793  -0.0000025284  -0.0000036906  -0.0000000612  -0.0000017031
       -0.0000115782  -0.0000003975   0.0000002447   0.0000146297  -0.0000069098
       -0.0000080160   0.0000201641  -0.0000753003   0.0000103282  -0.0000481780
       -0.0000899849   0.0002258013   0.0000451063   0.0000636235  -0.0000055848