 Entering Gaussian System
 *********************************************
 Gaussian 98:
 frequency output generated by the xtb code
 *********************************************
                         Standard orientation:
 --------------------------------------------------------------------
  Center     Atomic     Atomic              Coordinates (Angstroms)
  Number     Number      Type              X           Y           Z
 --------------------------------------------------------------------
    1          6             0        6.348121    2.460604   -0.697405
    2          6             0        5.161724    2.433919    0.285349
    3          6             0        5.640866    2.783995    1.707732
    4          6             0        4.138779    3.472659   -0.125545
    5          6             0        4.527149    4.805457   -0.186966
    6          6             0        3.624536    5.826262   -0.412721
    7          6             0        2.282388    5.513193   -0.525376
    8          6             0        1.876355    4.195311   -0.492690
    9          6             0        2.796417    3.150369   -0.355668
   10          7             0        2.383215    1.815495   -0.423712
   11          6             0        1.008139    1.517783   -0.290108
   12          6             0        0.076654    1.946920   -1.236695
   13          6             0       -1.262502    1.659455   -1.077211
   14          6             0       -1.711890    0.938789    0.028117
   15          6             0       -3.143030    0.647969    0.162600
   16          6             0       -3.760227    0.465460    1.400094
   17          6             0       -5.131423    0.213014    1.399828
   18          6             0       -5.897339    0.022623    2.639202
   19          6             0       -5.310790   -0.514104    3.783490
   20          6             0       -6.056346   -0.680890    4.936145
   21          6             0       -7.391402   -0.311294    4.963524
   22          6             0       -7.984112    0.217711    3.827823
   23          6             0       -7.244434    0.379300    2.671922
   24          7             0       -5.815733    0.154511    0.258100
   25          6             0       -5.150050    0.338299   -0.877496
   26          6             0       -5.910213    0.263843   -2.129725
   27          6             0       -5.256315    0.377318   -3.355657
   28          6             0       -5.973105    0.305825   -4.534901
   29          6             0       -7.346702    0.120382   -4.504372
   30          6             0       -8.002903    0.004620   -3.288540
   31          6             0       -7.290721    0.073698   -2.106204
   32          7             0       -3.847589    0.584658   -0.966555
   33          6             0       -0.778644    0.500022    0.964802
   34          6             0        0.561741    0.787261    0.808016
   35          6             0        3.293469    0.777447   -0.213328
   36          6             0        4.578066    1.034931    0.271430
   37          6             0        5.381644   -0.018011    0.710357
   38          6             0        4.956708   -1.327670    0.712093
   39          6             0        3.736291   -1.593414    0.111715
   40          6             0        2.938059   -0.570547   -0.450927
   41          6             0        1.894637   -1.252668   -1.179697
   42          6             0        0.938108   -0.872540   -2.116944
   43          6             0        0.091646   -1.823540   -2.650226
   44          6             0        0.184090   -3.162118   -2.279851
   45          6             0        1.182151   -3.587740   -1.426321
   46          6             0        2.057276   -2.636826   -0.921039
   47          7             0        3.166312   -2.824978   -0.129209
   48          6             0        3.679902   -4.057147    0.307149
   49          6             0        3.965857   -4.250132    1.655684
   50          6             0        4.478497   -5.459860    2.087326
   51          6             0        4.700178   -6.486198    1.183612
   52          6             0        4.413476   -6.296471   -0.158411
   53          6             0        3.910398   -5.086292   -0.600738
   54          1             0        6.850434    3.423601   -0.676803
   55          1             0        5.993847    2.277562   -1.710545
   56          1             0        7.074262    1.692427   -0.445474
   57          1             0        4.816056    2.687726    2.412004
   58          1             0        6.442899    2.123459    2.024125
   59          1             0        6.008320    3.805500    1.751096
   60          1             0        5.565607    5.059879   -0.039174
   61          1             0        3.959878    6.851153   -0.464148
   62          1             0        1.543802    6.293067   -0.640296
   63          1             0        0.821664    3.985609   -0.554340
   64          1             0        0.410060    2.484180   -2.113206
   65          1             0       -1.983751    1.984635   -1.810885
   66          1             0       -3.209327    0.564303    2.320134
   67          1             0       -4.276454   -0.825064    3.766481
   68          1             0       -5.594351   -1.103261    5.816694
   69          1             0       -7.969198   -0.439692    5.866908
   70          1             0       -9.025464    0.504101    3.844395
   71          1             0       -7.691395    0.790427    1.779659
   72          1             0       -4.186332    0.516451   -3.361288
   73          1             0       -5.460930    0.393047   -5.482160
   74          1             0       -7.905254    0.065563   -5.427418
   75          1             0       -9.073053   -0.141523   -3.264341
   76          1             0       -7.785493   -0.019883   -1.151969
   77          1             0       -1.095564   -0.084262    1.815611
   78          1             0        1.275414    0.445212    1.543307
   79          1             0        6.363776    0.198046    1.099666
   80          1             0        5.569793   -2.116962    1.117119
   81          1             0        0.866296    0.147002   -2.451788
   82          1             0       -0.656731   -1.522695   -3.368712
   83          1             0       -0.511768   -3.879783   -2.689465
   84          1             0        1.287665   -4.630816   -1.168074
   85          1             0        3.776660   -3.451823    2.358161
   86          1             0        4.698778   -5.603781    3.134952
   87          1             0        5.096650   -7.430971    1.524180
   88          1             0        4.590244   -7.092107   -0.867259
   89          1             0        3.705572   -4.926988   -1.649018
 --------------------------------------------------------------------
     1 basis functions        1 primitive gaussians
     1 alpha electrons        1 beta electrons
 
 Harmonic frequencies (cm**-1), IR intensities (km*mol⁻¹),
 Raman scattering activities (A**4/amu), Raman depolarization ratios,
 reduced masses (AMU), force constants (mDyne/A) and normal coordinates:
                      1                      2                      3
                        a                      a                      a 
 Frequencies --     6.2440                10.4773                15.9335
 Red. masses --    11.0631                11.2245                10.6565
 Frc consts  --     0.0000                 0.0000                 0.0000
 IR Inten    --     0.0436                 0.0528                 0.0262
 Raman Activ --     0.0000                 0.0000                 0.0000
 Depolar     --     0.0000                 0.0000                 0.0000
 Atom AN      X      Y      Z        X      Y      Z        X      Y      Z
   1   6    -0.01   0.02   0.11     0.05  -0.02   0.02     0.04   0.01   0.23
   2   6    -0.03  -0.00   0.09     0.04  -0.01   0.01    -0.05   0.01   0.13
   3   6    -0.06  -0.03   0.10     0.04  -0.03   0.02    -0.17   0.03   0.16
   4   6    -0.03  -0.01   0.09     0.07   0.02   0.01    -0.02   0.00   0.03
   5   6    -0.04  -0.00   0.12     0.09   0.01   0.02    -0.02  -0.00   0.03
   6   6    -0.04  -0.00   0.12     0.12   0.03   0.02     0.00  -0.01  -0.07
   7   6    -0.04  -0.01   0.08     0.11   0.06   0.01     0.01  -0.01  -0.18
   8   6    -0.03  -0.02   0.05     0.08   0.07   0.00     0.01  -0.01  -0.18
   9   6    -0.02  -0.01   0.06     0.06   0.05   0.00    -0.00  -0.00  -0.07
  10   7    -0.01  -0.02   0.03     0.03   0.07  -0.00     0.00  -0.01  -0.07
  11   6    -0.01  -0.03   0.02     0.03   0.08   0.01     0.00  -0.02  -0.07
  12   6    -0.01  -0.03   0.01     0.02   0.09   0.03    -0.00  -0.06  -0.09
  13   6    -0.01  -0.03   0.00     0.02   0.08   0.03     0.00  -0.07  -0.08
  14   6    -0.01  -0.03   0.00     0.03   0.07   0.03     0.01  -0.03  -0.05
  15   6    -0.01  -0.02   0.00     0.04   0.03   0.03     0.01  -0.02  -0.03
  16   6    -0.02   0.04   0.01     0.04   0.03   0.02     0.03  -0.02  -0.02
  17   6    -0.02   0.06   0.02     0.04  -0.03   0.02     0.03  -0.01   0.01
  18   6    -0.03   0.15   0.02     0.04  -0.03   0.01     0.06  -0.02   0.03
  19   6    -0.05   0.21   0.06     0.05  -0.00   0.02     0.09  -0.03   0.01
  20   6    -0.06   0.30   0.07     0.05  -0.01   0.02     0.11  -0.04   0.03
  21   6    -0.05   0.33   0.04     0.04  -0.05   0.01     0.12  -0.03   0.07
  22   6    -0.04   0.27   0.00     0.03  -0.09  -0.00     0.09  -0.02   0.08
  23   6    -0.03   0.18  -0.01     0.03  -0.08  -0.00     0.06  -0.01   0.07
  24   7    -0.02   0.01   0.02     0.06  -0.08   0.01     0.00  -0.00   0.03
  25   6    -0.01  -0.06   0.01     0.06  -0.07   0.01    -0.02   0.00   0.02
  26   6    -0.00  -0.11   0.01     0.08  -0.13   0.01    -0.05   0.02   0.03
  27   6    -0.00  -0.15   0.01     0.09  -0.16   0.01    -0.08   0.02   0.02
  28   6     0.00  -0.20   0.01     0.10  -0.21   0.01    -0.11   0.04   0.03
  29   6     0.01  -0.21   0.01     0.11  -0.25  -0.01    -0.11   0.06   0.07
  30   6     0.00  -0.18   0.01     0.10  -0.23  -0.01    -0.08   0.06   0.08
  31   6    -0.00  -0.13   0.01     0.08  -0.17  -0.00    -0.05   0.04   0.06
  32   7    -0.01  -0.08   0.00     0.05  -0.02   0.02    -0.02  -0.02  -0.01
  33   6    -0.01  -0.04   0.00     0.04   0.08   0.03     0.01  -0.00  -0.04
  34   6    -0.01  -0.03   0.01     0.03   0.08   0.02     0.01   0.01  -0.05
  35   6    -0.01  -0.01   0.03     0.01   0.04  -0.02    -0.00   0.00   0.00
  36   6    -0.02  -0.01   0.05     0.01   0.00  -0.01    -0.04   0.01   0.09
  37   6    -0.01  -0.01   0.04    -0.02  -0.02  -0.02    -0.07   0.01   0.16
  38   6    -0.00  -0.01   0.01    -0.05  -0.01  -0.03    -0.07   0.01   0.13
  39   6     0.01  -0.01  -0.02    -0.06   0.03  -0.03    -0.02   0.00   0.03
  40   6     0.01  -0.01  -0.01    -0.03   0.05  -0.03     0.02   0.00  -0.02
  41   6     0.03  -0.00  -0.04    -0.04   0.09  -0.04     0.08   0.01  -0.10
  42   6     0.04   0.01  -0.04    -0.02   0.12  -0.04     0.14   0.02  -0.17
  43   6     0.06   0.01  -0.08    -0.06   0.15  -0.05     0.19   0.02  -0.24
  44   6     0.07   0.00  -0.12    -0.11   0.15  -0.04     0.17   0.02  -0.25
  45   6     0.06  -0.01  -0.11    -0.12   0.11  -0.04     0.10   0.01  -0.18
  46   6     0.04  -0.01  -0.07    -0.09   0.08  -0.04     0.06   0.01  -0.10
  47   7     0.03  -0.02  -0.07    -0.11   0.05  -0.04     0.00   0.00  -0.02
  48   6     0.05  -0.02  -0.10    -0.15   0.03  -0.02    -0.04   0.00   0.02
  49   6     0.03  -0.06  -0.10    -0.16   0.03  -0.02    -0.14   0.01   0.05
  50   6     0.05  -0.07  -0.14    -0.22   0.01  -0.01    -0.18   0.01   0.09
  51   6     0.09  -0.03  -0.17    -0.27  -0.01   0.01    -0.12   0.00   0.11
  52   6     0.10   0.01  -0.17    -0.26  -0.01   0.00    -0.02  -0.00   0.09
  53   6     0.08   0.02  -0.13    -0.20   0.01  -0.01     0.03  -0.00   0.05
  54   1    -0.01   0.01   0.04     0.02  -0.01   0.01     0.01   0.00   0.08
  55   1     0.00   0.01   0.03     0.02  -0.00   0.00     0.04  -0.00   0.06
  56   1    -0.00   0.01   0.03     0.01  -0.01   0.00     0.00   0.00   0.09
  57   1    -0.02  -0.01   0.03     0.01  -0.01   0.00    -0.07   0.01   0.03
  58   1    -0.02  -0.01   0.03     0.01  -0.02   0.00    -0.06   0.01   0.07
  59   1    -0.02  -0.01   0.04     0.02  -0.01   0.01    -0.05   0.01   0.05
  60   1    -0.01   0.00   0.04     0.03  -0.00   0.01    -0.01   0.00   0.03
  61   1    -0.01  -0.00   0.04     0.04   0.01   0.01     0.00  -0.00  -0.02
  62   1    -0.01  -0.01   0.02     0.04   0.02   0.00     0.01  -0.00  -0.08
  63   1    -0.01  -0.01   0.01     0.02   0.03  -0.00     0.00  -0.00  -0.08
  64   1    -0.00  -0.01   0.01     0.00   0.03   0.01    -0.00  -0.03  -0.03
  65   1    -0.00  -0.01   0.00     0.00   0.02   0.01    -0.00  -0.03  -0.02
  66   1    -0.01   0.02   0.00     0.01   0.02   0.01     0.01  -0.01  -0.01
  67   1    -0.02   0.06   0.03     0.02   0.01   0.01     0.02  -0.01  -0.01
  68   1    -0.02   0.10   0.03     0.02   0.00   0.01     0.04  -0.01   0.00
  69   1    -0.02   0.12   0.01     0.01  -0.02   0.00     0.04  -0.01   0.02
  70   1    -0.01   0.09  -0.01     0.01  -0.03  -0.00     0.03  -0.00   0.03
  71   1    -0.00   0.04  -0.01     0.01  -0.03  -0.00     0.01  -0.00   0.02
  72   1    -0.00  -0.04   0.00     0.02  -0.04   0.01    -0.02   0.00  -0.00
  73   1     0.00  -0.06   0.00     0.03  -0.07   0.00    -0.04   0.01   0.01
  74   1     0.00  -0.07   0.00     0.04  -0.09  -0.00    -0.04   0.02   0.02
  75   1     0.00  -0.05   0.00     0.03  -0.07  -0.00    -0.02   0.02   0.03
  76   1    -0.00  -0.03   0.00     0.02  -0.04  -0.00    -0.01   0.01   0.02
  77   1    -0.01  -0.01   0.00     0.01   0.02   0.01     0.01   0.01  -0.01
  78   1    -0.00  -0.01   0.00     0.01   0.02   0.00     0.00   0.01  -0.01
  79   1    -0.01  -0.00   0.02    -0.00  -0.01  -0.00    -0.03   0.00   0.07
  80   1     0.00  -0.00   0.00    -0.02  -0.01  -0.01    -0.03   0.00   0.05
  81   1     0.01   0.01  -0.01     0.00   0.04  -0.01     0.05   0.01  -0.04
  82   1     0.02   0.01  -0.03    -0.01   0.05  -0.01     0.07   0.01  -0.08
  83   1     0.03   0.00  -0.04    -0.04   0.05  -0.01     0.06   0.00  -0.09
  84   1     0.02  -0.00  -0.04    -0.05   0.03  -0.01     0.03   0.00  -0.05
  85   1     0.00  -0.03  -0.02    -0.04   0.01  -0.01    -0.05   0.00   0.01
  86   1     0.01  -0.03  -0.04    -0.07   0.00  -0.00    -0.08   0.00   0.03
  87   1     0.03  -0.01  -0.06    -0.09  -0.01   0.01    -0.04  -0.00   0.04
  88   1     0.04   0.01  -0.06    -0.09  -0.01   0.00     0.01  -0.00   0.03
  89   1     0.03   0.01  -0.04    -0.05   0.00  -0.00     0.03  -0.00   0.01
                      4                      5                      6
                        a                      a                      a 
 Frequencies --    24.8324                33.2955                38.5912
 Red. masses --    10.7789                11.0861                 9.9685
 Frc consts  --     0.0000                 0.0000                 0.0000
 IR Inten    --     0.0992                 0.0616                 0.2182
 Raman Activ --     0.0000                 0.0000                 0.0000
 Depolar     --     0.0000                 0.0000                 0.0000
 Atom AN      X      Y      Z        X      Y      Z        X      Y      Z
   1   6     0.05  -0.10   0.13     0.02  -0.02   0.09    -0.01  -0.03  -0.06
   2   6    -0.02  -0.02   0.05     0.00  -0.02   0.07     0.02  -0.02  -0.02
   3   6    -0.10   0.05   0.07    -0.01  -0.05   0.08     0.06  -0.03  -0.04
   4   6     0.03  -0.02  -0.07     0.02  -0.01   0.07     0.01  -0.02   0.00
   5   6     0.08  -0.04  -0.16     0.03  -0.01   0.11     0.01  -0.02   0.02
   6   6     0.12  -0.03  -0.28     0.05   0.00   0.11     0.01  -0.01   0.05
   7   6     0.12   0.01  -0.31     0.05   0.01   0.07     0.01  -0.01   0.06
   8   6     0.07   0.02  -0.21     0.04   0.02   0.03     0.01  -0.02   0.04
   9   6     0.03   0.00  -0.09     0.03   0.01   0.03     0.01  -0.02   0.01
  10   7    -0.01   0.01   0.00     0.02   0.01  -0.00     0.01  -0.02  -0.01
  11   6    -0.01   0.05   0.03     0.00   0.04  -0.06     0.01  -0.01  -0.01
  12   6    -0.02   0.01   0.01     0.04   0.06  -0.09     0.02   0.01  -0.01
  13   6    -0.02   0.03   0.04     0.03   0.08  -0.13     0.01   0.04  -0.01
  14   6    -0.02   0.09   0.07    -0.02   0.08  -0.15    -0.01   0.07   0.00
  15   6    -0.02   0.08   0.07    -0.02   0.10  -0.16    -0.01   0.09   0.01
  16   6    -0.04   0.07   0.06     0.02   0.13  -0.13    -0.01   0.14   0.02
  17   6    -0.03   0.03   0.03     0.03   0.07  -0.09    -0.00   0.07   0.03
  18   6    -0.05  -0.00   0.02     0.09   0.03  -0.06    -0.02   0.03   0.01
  19   6    -0.05   0.00   0.02     0.18   0.05  -0.09     0.05   0.36   0.13
  20   6    -0.07  -0.05   0.00     0.26   0.00  -0.05     0.01   0.31   0.10
  21   6    -0.09  -0.10  -0.02     0.24  -0.05   0.03    -0.10  -0.08  -0.05
  22   6    -0.08  -0.11  -0.03     0.15  -0.07   0.06    -0.17  -0.41  -0.17
  23   6    -0.06  -0.06  -0.01     0.08  -0.03   0.02    -0.12  -0.35  -0.13
  24   7    -0.01   0.02   0.03    -0.00   0.03  -0.07     0.01   0.01   0.02
  25   6     0.00   0.03   0.03    -0.04   0.04  -0.09    -0.01   0.03   0.02
  26   6     0.03   0.01   0.02    -0.09  -0.01  -0.06    -0.02   0.02   0.03
  27   6     0.05   0.00   0.03    -0.15   0.00  -0.09    -0.04   0.07   0.02
  28   6     0.08  -0.02   0.02    -0.21  -0.05  -0.06    -0.06   0.07   0.03
  29   6     0.08  -0.03  -0.01    -0.20  -0.12   0.01    -0.05   0.01   0.05
  30   6     0.05  -0.02  -0.02    -0.13  -0.13   0.04    -0.03  -0.04   0.06
  31   6     0.03   0.00  -0.01    -0.08  -0.07   0.01    -0.01  -0.04   0.04
  32   7    -0.00   0.06   0.06    -0.05   0.07  -0.15    -0.01   0.06   0.01
  33   6    -0.02   0.13   0.09    -0.05   0.05  -0.13    -0.02   0.04  -0.00
  34   6    -0.02   0.11   0.07    -0.04   0.03  -0.08    -0.01   0.01  -0.01
  35   6    -0.03  -0.00   0.06    -0.01  -0.01   0.03     0.01  -0.02  -0.01
  36   6    -0.04  -0.01   0.09    -0.01  -0.02   0.05     0.01  -0.02  -0.01
  37   6    -0.07  -0.01   0.14    -0.02  -0.02   0.05     0.01  -0.02  -0.02
  38   6    -0.09  -0.01   0.15    -0.03  -0.02   0.05     0.01  -0.02  -0.02
  39   6    -0.07  -0.00   0.10    -0.03  -0.01   0.06     0.01  -0.02  -0.02
  40   6    -0.05  -0.00   0.08    -0.02  -0.01   0.05     0.01  -0.02  -0.01
  41   6    -0.04  -0.00   0.07    -0.04  -0.01   0.07     0.02  -0.02  -0.02
  42   6    -0.03  -0.00   0.06    -0.05  -0.03   0.07     0.02  -0.02  -0.02
  43   6    -0.02  -0.00   0.04    -0.08  -0.03   0.12     0.04  -0.02  -0.05
  44   6    -0.01  -0.00   0.03    -0.09  -0.02   0.15     0.06  -0.03  -0.08
  45   6    -0.02  -0.00   0.04    -0.08  -0.01   0.14     0.06  -0.03  -0.07
  46   6    -0.04  -0.00   0.06    -0.05  -0.01   0.10     0.03  -0.02  -0.04
  47   7    -0.06  -0.00   0.09    -0.05  -0.01   0.09     0.03  -0.02  -0.03
  48   6     0.00  -0.02  -0.01    -0.01  -0.01   0.03     0.02  -0.01  -0.00
  49   6     0.01  -0.12  -0.03     0.04  -0.05   0.02    -0.02   0.01   0.01
  50   6     0.09  -0.12  -0.14     0.09  -0.05  -0.04    -0.02   0.02   0.04
  51   6     0.16  -0.03  -0.23     0.09  -0.01  -0.09     0.01   0.01   0.06
  52   6     0.14   0.07  -0.21     0.04   0.03  -0.07     0.05  -0.02   0.05
  53   6     0.06   0.08  -0.10    -0.01   0.03  -0.01     0.05  -0.03   0.02
  54   1     0.02  -0.03   0.03     0.01  -0.01   0.03    -0.00  -0.01  -0.02
  55   1     0.03  -0.04   0.03     0.01  -0.00   0.02    -0.01  -0.01  -0.01
  56   1     0.00  -0.03   0.06     0.00  -0.01   0.03    -0.00  -0.01  -0.02
  57   1    -0.04   0.03   0.01    -0.01  -0.02   0.02     0.02  -0.01  -0.00
  58   1    -0.04   0.01   0.04    -0.01  -0.02   0.03     0.02  -0.01  -0.02
  59   1    -0.02   0.01   0.01    -0.00  -0.02   0.03     0.02  -0.01  -0.01
  60   1     0.02  -0.02  -0.04     0.01  -0.01   0.04     0.00  -0.01   0.00
  61   1     0.05  -0.01  -0.10     0.02   0.00   0.04     0.00  -0.00   0.02
  62   1     0.04   0.01  -0.12     0.02   0.01   0.02     0.00  -0.00   0.02
  63   1     0.02   0.02  -0.06     0.01   0.01  -0.00     0.00  -0.00   0.01
  64   1    -0.01  -0.01  -0.01     0.02   0.02  -0.02     0.01   0.00  -0.00
  65   1    -0.01   0.00   0.01     0.02   0.03  -0.04     0.00   0.02  -0.00
  66   1    -0.02   0.02   0.02     0.01   0.05  -0.04    -0.00   0.06   0.00
  67   1    -0.01   0.01   0.01     0.06   0.03  -0.05     0.04   0.18   0.08
  68   1    -0.02  -0.01   0.00     0.09   0.00  -0.02     0.02   0.16   0.06
  69   1    -0.03  -0.04  -0.01     0.09  -0.02   0.02    -0.04  -0.04  -0.02
  70   1    -0.03  -0.04  -0.01     0.04  -0.03   0.04    -0.07  -0.21  -0.08
  71   1    -0.02  -0.02  -0.00     0.00  -0.01   0.02    -0.05  -0.17  -0.06
  72   1     0.02   0.00   0.02    -0.05   0.02  -0.04    -0.01   0.03   0.00
  73   1     0.03  -0.01   0.01    -0.07  -0.01  -0.02    -0.02   0.03   0.01
  74   1     0.03  -0.01  -0.01    -0.07  -0.05   0.01    -0.02   0.00   0.02
  75   1     0.02  -0.01  -0.01    -0.04  -0.05   0.03    -0.01  -0.02   0.02
  76   1     0.00   0.00  -0.00    -0.01  -0.02   0.01     0.00  -0.02   0.01
  77   1    -0.01   0.05   0.04    -0.03   0.01  -0.04    -0.01   0.02   0.00
  78   1    -0.00   0.04   0.02    -0.02   0.00  -0.02    -0.00  -0.00  -0.00
  79   1    -0.03  -0.00   0.05    -0.01  -0.01   0.02     0.00  -0.01  -0.01
  80   1    -0.03  -0.00   0.05    -0.01  -0.01   0.02     0.00  -0.01  -0.01
  81   1    -0.01   0.00   0.02    -0.01  -0.01   0.01     0.00  -0.00  -0.00
  82   1    -0.00   0.00   0.01    -0.02  -0.01   0.04     0.01  -0.01  -0.02
  83   1    -0.00  -0.00   0.00    -0.03  -0.01   0.06     0.02  -0.01  -0.03
  84   1    -0.00  -0.00   0.01    -0.02  -0.00   0.05     0.02  -0.01  -0.03
  85   1    -0.01  -0.06   0.01     0.01  -0.02   0.01    -0.01   0.01  -0.00
  86   1     0.03  -0.06  -0.04     0.04  -0.02  -0.02    -0.01   0.01   0.01
  87   1     0.06  -0.01  -0.09     0.04  -0.00  -0.04     0.00   0.00   0.03
  88   1     0.06   0.04  -0.08     0.01   0.02  -0.03     0.02  -0.01   0.02
  89   1     0.01   0.05  -0.03    -0.02   0.02   0.00     0.02  -0.01   0.00
                      7                      8                      9
                        a                      a                      a 
 Frequencies --    42.1958                43.5415                45.3284
 Red. masses --    10.2512                10.2722                10.3269
 Frc consts  --     0.0000                 0.0000                 0.0000
 IR Inten    --     0.1574                 0.0917                 0.0966
 Raman Activ --     0.0000                 0.0000                 0.0000
 Depolar     --     0.0000                 0.0000                 0.0000
 Atom AN      X      Y      Z        X      Y      Z        X      Y      Z
   1   6    -0.08  -0.14  -0.25     0.03   0.07   0.11     0.05   0.05   0.12
   2   6     0.04  -0.04  -0.09    -0.03  -0.01   0.04    -0.01  -0.02   0.04
   3   6     0.25   0.02  -0.18    -0.12  -0.07   0.09    -0.13  -0.08   0.09
   4   6     0.03  -0.03  -0.02    -0.03  -0.01   0.04    -0.00  -0.02   0.02
   5   6     0.04  -0.03  -0.06    -0.04  -0.00   0.11    -0.01  -0.02   0.06
   6   6     0.04  -0.02   0.01    -0.04  -0.00   0.09     0.00  -0.02   0.04
   7   6     0.02  -0.00   0.13    -0.03  -0.02   0.00     0.01  -0.02  -0.04
   8   6     0.01   0.00   0.15    -0.01  -0.02  -0.06     0.01  -0.02  -0.07
   9   6     0.01  -0.01   0.07    -0.01  -0.02  -0.03     0.01  -0.02  -0.04
  10   7    -0.01  -0.00   0.07     0.00  -0.02  -0.07     0.01  -0.03  -0.06
  11   6    -0.01   0.02   0.04    -0.00  -0.01  -0.05     0.01  -0.01  -0.03
  12   6     0.00   0.06   0.04    -0.00  -0.02  -0.05     0.00  -0.01  -0.03
  13   6    -0.00   0.09   0.02    -0.01   0.02  -0.02    -0.00   0.05   0.01
  14   6    -0.03   0.09   0.01    -0.01   0.08   0.01    -0.01   0.09   0.04
  15   6    -0.04   0.11   0.00    -0.02   0.12   0.03    -0.01   0.12   0.05
  16   6    -0.04   0.12   0.00    -0.02   0.15   0.03    -0.02   0.12   0.05
  17   6    -0.04   0.12   0.00    -0.02   0.14   0.03    -0.02   0.12   0.03
  18   6    -0.03   0.06  -0.00    -0.01   0.07   0.02    -0.03   0.07   0.02
  19   6    -0.04  -0.10  -0.07     0.00   0.01  -0.01    -0.07  -0.07  -0.03
  20   6    -0.04  -0.20  -0.08     0.01  -0.11  -0.03    -0.10  -0.16  -0.06
  21   6    -0.02  -0.14  -0.02    -0.01  -0.17  -0.01    -0.08  -0.11  -0.04
  22   6    -0.00   0.04   0.05    -0.03  -0.10   0.03    -0.04   0.05   0.01
  23   6    -0.01   0.13   0.06    -0.03   0.02   0.05    -0.02   0.14   0.04
  24   7    -0.05   0.13   0.00    -0.02   0.15   0.03    -0.01   0.12   0.03
  25   6    -0.04   0.10   0.00    -0.01   0.11   0.03    -0.00   0.11   0.03
  26   6    -0.04   0.04   0.01     0.01   0.06   0.02     0.01   0.05   0.03
  27   6    -0.04  -0.04  -0.00     0.08  -0.29   0.02    -0.02   0.29   0.04
  28   6    -0.04  -0.15   0.00     0.11  -0.38   0.01    -0.01   0.21   0.03
  29   6    -0.04  -0.18   0.02     0.08  -0.12  -0.01     0.04  -0.12   0.02
  30   6    -0.04  -0.09   0.03     0.01   0.24  -0.02     0.07  -0.37   0.02
  31   6    -0.04   0.01   0.02    -0.03   0.33   0.00     0.06  -0.28   0.02
  32   7    -0.04   0.12   0.00    -0.01   0.10   0.03    -0.01   0.13   0.05
  33   6    -0.05   0.04   0.01    -0.01   0.08   0.01    -0.00   0.08   0.03
  34   6    -0.04   0.00   0.02    -0.00   0.03  -0.02     0.00   0.03  -0.01
  35   6    -0.02  -0.01   0.06     0.00  -0.02  -0.06     0.01  -0.03  -0.06
  36   6    -0.01  -0.02   0.04    -0.00  -0.02  -0.05     0.01  -0.03  -0.06
  37   6    -0.03  -0.02   0.08     0.02  -0.02  -0.09     0.03  -0.03  -0.10
  38   6    -0.06  -0.01   0.12     0.04  -0.02  -0.12     0.05  -0.03  -0.13
  39   6    -0.04  -0.01   0.08     0.03  -0.02  -0.09     0.04  -0.03  -0.11
  40   6    -0.03  -0.01   0.07     0.01  -0.02  -0.07     0.01  -0.03  -0.07
  41   6     0.01  -0.00   0.01    -0.01  -0.03  -0.04    -0.00  -0.04  -0.05
  42   6     0.05   0.02  -0.02    -0.04  -0.05  -0.01    -0.04  -0.04  -0.01
  43   6     0.12   0.01  -0.13    -0.05  -0.05   0.02    -0.05  -0.05   0.02
  44   6     0.15  -0.01  -0.20    -0.03  -0.05   0.02    -0.02  -0.05  -0.00
  45   6     0.10  -0.01  -0.15    -0.00  -0.04  -0.01     0.02  -0.05  -0.04
  46   6     0.03  -0.01  -0.04     0.01  -0.03  -0.05     0.02  -0.04  -0.06
  47   7    -0.02  -0.01   0.03     0.04  -0.03  -0.09     0.05  -0.04  -0.11
  48   6    -0.01  -0.01   0.03     0.03  -0.01  -0.04     0.04  -0.02  -0.04
  49   6    -0.12  -0.04   0.05     0.06   0.05  -0.03     0.05   0.07  -0.03
  50   6    -0.09  -0.03   0.05     0.06   0.07   0.02     0.05   0.09   0.04
  51   6     0.05   0.02   0.04     0.04   0.03   0.06     0.03   0.03   0.11
  52   6     0.15   0.05   0.02     0.01  -0.04   0.06     0.02  -0.05   0.10
  53   6     0.13   0.04   0.01     0.01  -0.06   0.01     0.02  -0.07   0.02
  54   1    -0.02  -0.04  -0.11     0.00   0.02   0.06     0.01   0.02   0.06
  55   1    -0.06  -0.06  -0.06     0.03   0.04   0.02     0.04   0.03   0.03
  56   1    -0.02  -0.04  -0.08     0.01   0.02   0.03     0.01   0.01   0.04
  57   1     0.10   0.01  -0.02    -0.05  -0.03   0.01    -0.05  -0.03   0.01
  58   1     0.09   0.01  -0.08    -0.04  -0.03   0.03    -0.05  -0.03   0.04
  59   1     0.07   0.01  -0.08    -0.03  -0.02   0.05    -0.03  -0.02   0.05
  60   1     0.02  -0.01  -0.05    -0.01   0.00   0.05    -0.00  -0.00   0.04
  61   1     0.01  -0.01  -0.01    -0.01   0.00   0.04    -0.00  -0.00   0.02
  62   1     0.01   0.00   0.06    -0.01  -0.01  -0.01     0.00  -0.01  -0.02
  63   1     0.00   0.00   0.07    -0.00  -0.01  -0.04     0.00  -0.01  -0.04
  64   1     0.01   0.02   0.02     0.00  -0.02  -0.02     0.00  -0.01  -0.01
  65   1     0.00   0.04   0.01    -0.00   0.00  -0.01    -0.00   0.02   0.00
  66   1    -0.01   0.03   0.00    -0.01   0.04   0.01    -0.01   0.03   0.02
  67   1    -0.02  -0.04  -0.04     0.00   0.02  -0.01    -0.02  -0.03  -0.02
  68   1    -0.01  -0.10  -0.04     0.01  -0.04  -0.02    -0.04  -0.08  -0.03
  69   1    -0.00  -0.06  -0.01    -0.00  -0.08  -0.01    -0.03  -0.05  -0.02
  70   1     0.00   0.03   0.03    -0.01  -0.04   0.01    -0.01   0.03   0.01
  71   1    -0.00   0.07   0.03    -0.01   0.02   0.02     0.00   0.07   0.02
  72   1    -0.01  -0.01  -0.00     0.03  -0.14   0.01    -0.02   0.16   0.01
  73   1    -0.01  -0.06  -0.00     0.05  -0.19   0.00    -0.01   0.12   0.01
  74   1    -0.01  -0.08   0.01     0.03  -0.06  -0.01     0.01  -0.05   0.01
  75   1    -0.01  -0.03   0.01    -0.01   0.13  -0.01     0.03  -0.18   0.00
  76   1    -0.01   0.02   0.01    -0.02   0.17  -0.00     0.02  -0.14   0.00
  77   1    -0.02   0.01  -0.00    -0.00   0.04   0.01    -0.00   0.03   0.01
  78   1    -0.02  -0.01   0.01     0.00   0.01  -0.01     0.00   0.01  -0.00
  79   1    -0.01  -0.01   0.02     0.01  -0.00  -0.03     0.01  -0.01  -0.03
  80   1    -0.02  -0.00   0.04     0.02  -0.01  -0.04     0.02  -0.01  -0.05
  81   1     0.01   0.01   0.01    -0.02  -0.01  -0.00    -0.02  -0.01   0.00
  82   1     0.04   0.01  -0.05    -0.02  -0.02   0.01    -0.02  -0.02   0.01
  83   1     0.06  -0.00  -0.09    -0.01  -0.02   0.01    -0.01  -0.02   0.00
  84   1     0.04  -0.01  -0.06     0.00  -0.01  -0.00     0.01  -0.01  -0.01
  85   1    -0.06  -0.02   0.02     0.02   0.03  -0.02     0.02   0.03  -0.02
  86   1    -0.05  -0.01   0.02     0.02   0.04   0.01     0.02   0.05   0.01
  87   1     0.02   0.01   0.01     0.01   0.01   0.03     0.01   0.02   0.05
  88   1     0.08   0.02   0.00    -0.00  -0.02   0.03     0.00  -0.03   0.04
  89   1     0.06   0.02   0.00    -0.00  -0.03   0.00     0.00  -0.04   0.00
                     10                     11                     12
                        a                      a                      a 
 Frequencies --    52.8255                55.6611                64.6612
 Red. masses --    10.7475                10.7320                10.4813
 Frc consts  --     0.0000                 0.0000                 0.0000
 IR Inten    --     0.1311                 0.0444                 0.7806
 Raman Activ --     0.0000                 0.0000                 0.0000
 Depolar     --     0.0000                 0.0000                 0.0000
 Atom AN      X      Y      Z        X      Y      Z        X      Y      Z
   1   6     0.08   0.05   0.05     0.08  -0.09   0.07     0.09  -0.00   0.13
   2   6     0.05   0.05   0.02     0.04  -0.08   0.03     0.00   0.01   0.02
   3   6     0.02   0.07   0.02    -0.01  -0.13   0.05    -0.13   0.05   0.06
   4   6     0.05   0.03  -0.02     0.08  -0.04   0.01     0.03  -0.00  -0.06
   5   6     0.04   0.03  -0.07     0.14  -0.06   0.02     0.06  -0.02  -0.22
   6   6     0.04   0.02  -0.10     0.18  -0.02   0.01     0.07  -0.02  -0.23
   7   6     0.04   0.01  -0.06     0.17   0.03   0.00     0.05   0.01  -0.02
   8   6     0.04   0.01   0.00     0.11   0.05   0.00     0.01   0.03   0.14
   9   6     0.04   0.02   0.01     0.07   0.01   0.01    -0.00   0.01   0.08
  10   7     0.05   0.01   0.06     0.02   0.03   0.02    -0.03   0.02   0.18
  11   6     0.05  -0.01   0.03     0.01   0.05   0.02    -0.03   0.02   0.12
  12   6     0.05   0.00   0.03    -0.00   0.07   0.05    -0.01   0.14   0.16
  13   6     0.05  -0.02   0.00     0.00   0.03   0.04    -0.02   0.14   0.10
  14   6     0.04  -0.05  -0.02     0.02  -0.04  -0.00    -0.04   0.02   0.01
  15   6     0.03  -0.03  -0.03     0.02  -0.08  -0.02    -0.05   0.01  -0.03
  16   6     0.04  -0.02  -0.02     0.03  -0.13  -0.01    -0.05  -0.02  -0.03
  17   6     0.03   0.04  -0.00     0.03  -0.10  -0.01    -0.04  -0.03  -0.04
  18   6    -0.02   0.04  -0.03    -0.00  -0.06  -0.02    -0.01  -0.04  -0.02
  19   6    -0.11  -0.03  -0.02    -0.07  -0.06   0.01     0.04   0.00  -0.02
  20   6    -0.21  -0.09  -0.09    -0.12  -0.00  -0.02     0.09   0.05   0.02
  21   6    -0.21  -0.09  -0.17    -0.10   0.06  -0.07     0.09   0.05   0.06
  22   6    -0.11   0.00  -0.18    -0.04   0.07  -0.10     0.04  -0.00   0.07
  23   6    -0.02   0.07  -0.11     0.01   0.01  -0.08    -0.02  -0.05   0.03
  24   7     0.02   0.08   0.00     0.03  -0.09  -0.01    -0.05  -0.02  -0.04
  25   6     0.01   0.03  -0.01     0.02  -0.08  -0.01    -0.04   0.01  -0.03
  26   6    -0.05   0.01   0.04    -0.02  -0.05   0.01    -0.04   0.01  -0.04
  27   6    -0.15  -0.06  -0.02    -0.07  -0.08  -0.02    -0.03  -0.01  -0.03
  28   6    -0.24  -0.12   0.04    -0.13  -0.04   0.02    -0.01  -0.03  -0.04
  29   6    -0.24  -0.09   0.16    -0.14   0.04   0.08    -0.01  -0.03  -0.05
  30   6    -0.15  -0.01   0.21    -0.09   0.07   0.11    -0.03   0.00  -0.06
  31   6    -0.06   0.04   0.15    -0.03   0.03   0.08    -0.04   0.02  -0.05
  32   7     0.02  -0.01  -0.03     0.02  -0.07  -0.02    -0.05   0.04  -0.03
  33   6     0.04  -0.06  -0.03     0.03  -0.04  -0.02    -0.06  -0.11  -0.04
  34   6     0.04  -0.05   0.00     0.02  -0.00  -0.01    -0.05  -0.11   0.03
  35   6     0.07   0.03   0.03    -0.01  -0.01  -0.02    -0.01   0.01   0.06
  36   6     0.07   0.04   0.02    -0.00  -0.06  -0.02     0.01   0.01   0.01
  37   6     0.09   0.04   0.01    -0.02  -0.09  -0.05     0.05   0.01  -0.05
  38   6     0.11   0.04  -0.00    -0.06  -0.07  -0.07     0.09   0.00  -0.11
  39   6     0.10   0.02   0.01    -0.08  -0.02  -0.06     0.09   0.00  -0.10
  40   6     0.09   0.02   0.02    -0.06   0.00  -0.04     0.01   0.01   0.01
  41   6     0.09   0.03   0.03    -0.08   0.03  -0.04    -0.01  -0.00   0.04
  42   6     0.09   0.04   0.03    -0.08   0.06  -0.02    -0.13   0.01   0.16
  43   6     0.07   0.05   0.05    -0.09   0.08  -0.03    -0.12  -0.01   0.17
  44   6     0.04   0.05   0.08    -0.10   0.07  -0.07     0.01  -0.04   0.04
  45   6     0.05   0.05   0.07    -0.10   0.04  -0.08     0.13  -0.04  -0.10
  46   6     0.08   0.03   0.03    -0.10   0.02  -0.06     0.09  -0.01  -0.08
  47   7     0.11   0.03   0.01    -0.12  -0.00  -0.06     0.16  -0.01  -0.18
  48   6     0.06   0.00  -0.01    -0.06   0.03  -0.01     0.10  -0.01  -0.10
  49   6     0.13  -0.02  -0.03    -0.06   0.13   0.01    -0.10   0.00  -0.05
  50   6     0.02  -0.07  -0.05     0.12   0.23   0.07    -0.22  -0.01   0.04
  51   6    -0.16  -0.11  -0.06     0.28   0.23   0.12    -0.14  -0.04   0.09
  52   6    -0.21  -0.09  -0.04     0.25   0.11   0.11     0.08  -0.04   0.04
  53   6    -0.10  -0.03  -0.02     0.06   0.02   0.05     0.20  -0.02  -0.05
  54   1     0.02   0.02   0.02     0.03  -0.03   0.04     0.03  -0.00   0.05
  55   1     0.03   0.01   0.01     0.03  -0.01   0.02     0.05   0.00   0.03
  56   1     0.02   0.02   0.02     0.01  -0.04   0.02     0.02  -0.00   0.05
  57   1    -0.00   0.03   0.00    -0.01  -0.03   0.00    -0.06   0.03  -0.01
  58   1     0.00   0.02   0.02    -0.01  -0.05   0.02    -0.05   0.01   0.05
  59   1     0.00   0.02   0.00     0.01  -0.04   0.03    -0.03   0.01   0.01
  60   1     0.01   0.01  -0.03     0.04  -0.03   0.01     0.02  -0.01  -0.09
  61   1     0.01   0.00  -0.04     0.06  -0.01   0.00     0.03  -0.01  -0.11
  62   1     0.01   0.00  -0.02     0.06   0.02  -0.00     0.02   0.01   0.00
  63   1     0.01   0.00   0.01     0.03   0.03   0.00    -0.00   0.02   0.09
  64   1     0.02   0.01   0.01    -0.01   0.03   0.02     0.00   0.06   0.06
  65   1     0.02  -0.00  -0.00    -0.00   0.01   0.01    -0.00   0.07   0.04
  66   1     0.02  -0.02  -0.01     0.01  -0.04  -0.00    -0.01  -0.01  -0.01
  67   1    -0.03  -0.01   0.01    -0.02  -0.03   0.01     0.01   0.00  -0.02
  68   1    -0.08  -0.05  -0.02    -0.05  -0.00   0.00     0.04   0.03   0.00
  69   1    -0.08  -0.04  -0.07    -0.04   0.03  -0.03     0.04   0.03   0.03
  70   1    -0.03   0.01  -0.07    -0.01   0.03  -0.04     0.01  -0.00   0.03
  71   1     0.02   0.04  -0.03     0.02   0.00  -0.03    -0.02  -0.02   0.01
  72   1    -0.04  -0.02  -0.03    -0.02  -0.04  -0.02    -0.01  -0.01  -0.01
  73   1    -0.09  -0.05  -0.00    -0.05  -0.02  -0.00    -0.00  -0.02  -0.01
  74   1    -0.09  -0.04   0.06    -0.05   0.02   0.03    -0.00  -0.01  -0.02
  75   1    -0.04   0.00   0.09    -0.03   0.04   0.05    -0.01   0.00  -0.02
  76   1     0.00   0.03   0.06     0.00   0.01   0.03    -0.01   0.01  -0.02
  77   1     0.01  -0.03  -0.01     0.01  -0.03  -0.01    -0.02  -0.06  -0.03
  78   1     0.01  -0.02   0.00     0.01  -0.01  -0.01    -0.02  -0.06  -0.00
  79   1     0.03   0.02   0.00    -0.00  -0.03  -0.02     0.01   0.01  -0.02
  80   1     0.04   0.01  -0.00    -0.02  -0.03  -0.03     0.03  -0.00  -0.05
  81   1     0.03   0.01   0.00    -0.02   0.02   0.00    -0.07   0.01   0.07
  82   1     0.02   0.02   0.02    -0.03   0.03  -0.01    -0.06   0.00   0.08
  83   1     0.00   0.02   0.03    -0.03   0.02  -0.03     0.01  -0.01   0.01
  84   1     0.01   0.01   0.02    -0.03   0.01  -0.03     0.07  -0.01  -0.06
  85   1     0.07   0.00  -0.01    -0.05   0.04  -0.01    -0.05   0.01  -0.03
  86   1     0.02  -0.03  -0.02     0.04   0.09   0.02    -0.11  -0.00   0.02
  87   1    -0.07  -0.05  -0.02     0.13   0.09   0.05    -0.07  -0.02   0.05
  88   1    -0.10  -0.03  -0.01     0.11   0.03   0.04     0.05  -0.02   0.02
  89   1    -0.04  -0.00  -0.00     0.01  -0.02   0.01     0.10  -0.01  -0.02
                     13                     14                     15
                        a                      a                      a 
 Frequencies --    66.7222                83.7174                93.5131
 Red. masses --    10.2317                10.8646                10.9330
 Frc consts  --     0.0000                 0.0000                 0.0000
 IR Inten    --     0.7496                 1.7423                 1.7490
 Raman Activ --     0.0000                 0.0000                 0.0000
 Depolar     --     0.0000                 0.0000                 0.0000
 Atom AN      X      Y      Z        X      Y      Z        X      Y      Z
   1   6     0.01  -0.08   0.03    -0.07  -0.03  -0.07    -0.04  -0.02  -0.03
   2   6    -0.00  -0.03   0.02    -0.00  -0.01   0.02    -0.01   0.00   0.01
   3   6    -0.02   0.03   0.01     0.11  -0.04  -0.01     0.03  -0.00  -0.00
   4   6     0.00  -0.04  -0.02     0.01   0.01   0.07    -0.00   0.01   0.02
   5   6     0.03  -0.05  -0.14     0.03   0.01   0.13     0.01   0.01   0.08
   6   6     0.03  -0.05  -0.15     0.06   0.03   0.08     0.02   0.02   0.07
   7   6     0.02  -0.02  -0.02     0.07   0.04  -0.07     0.03   0.03  -0.02
   8   6    -0.01  -0.01   0.09     0.05   0.04  -0.11     0.02   0.03  -0.08
   9   6    -0.02  -0.02   0.07     0.02   0.02  -0.02     0.01   0.01  -0.05
  10   7    -0.03  -0.02   0.14    -0.01   0.03  -0.01     0.00   0.01  -0.09
  11   6    -0.03  -0.02   0.09    -0.03   0.10   0.02    -0.00   0.03  -0.07
  12   6    -0.01   0.03   0.09    -0.01   0.04  -0.03    -0.03   0.08  -0.02
  13   6    -0.02   0.03   0.05    -0.02   0.08  -0.02    -0.03   0.11   0.03
  14   6    -0.05  -0.01   0.01    -0.05   0.20   0.05    -0.01   0.05   0.00
  15   6    -0.06   0.02  -0.01    -0.04   0.11   0.02    -0.00   0.03   0.01
  16   6    -0.07   0.03  -0.02    -0.06   0.08   0.00     0.06  -0.34  -0.01
  17   6    -0.06   0.02  -0.02    -0.02  -0.12  -0.03     0.03  -0.22  -0.00
  18   6    -0.03  -0.00  -0.00    -0.03  -0.11  -0.03     0.02  -0.23  -0.01
  19   6     0.03   0.02  -0.02    -0.04  -0.11  -0.03    -0.03  -0.13   0.06
  20   6     0.09   0.03   0.02    -0.02   0.00  -0.00    -0.05   0.09   0.08
  21   6     0.09   0.01   0.08     0.01   0.11   0.02    -0.02   0.20   0.03
  22   6     0.02  -0.03   0.09     0.01   0.09   0.00     0.01   0.05  -0.06
  23   6    -0.04  -0.03   0.06    -0.00  -0.03  -0.02     0.03  -0.17  -0.07
  24   7    -0.07   0.02  -0.02     0.02  -0.29  -0.05    -0.00   0.03   0.00
  25   6    -0.06   0.03  -0.02     0.02  -0.16  -0.03    -0.04   0.24   0.02
  26   6    -0.04   0.02  -0.03     0.01  -0.14  -0.02    -0.04   0.24   0.02
  27   6    -0.01   0.02  -0.02    -0.03  -0.11  -0.04    -0.02   0.15   0.02
  28   6     0.03  -0.00  -0.04    -0.08   0.03  -0.02     0.02  -0.11   0.01
  29   6     0.03  -0.03  -0.07    -0.09   0.14   0.02     0.04  -0.25  -0.00
  30   6     0.00  -0.02  -0.09    -0.05   0.09   0.03     0.01  -0.09  -0.00
  31   6    -0.03   0.00  -0.07    -0.00  -0.06   0.01    -0.03   0.16   0.01
  32   7    -0.06   0.02  -0.01    -0.01   0.01  -0.00    -0.07   0.38   0.03
  33   6    -0.07  -0.07   0.00    -0.07   0.32   0.13     0.03  -0.03  -0.07
  34   6    -0.06  -0.08   0.04    -0.06   0.27   0.11     0.02  -0.03  -0.10
  35   6    -0.02  -0.02   0.09    -0.04   0.00   0.04    -0.01   0.00  -0.02
  36   6    -0.01  -0.02   0.06    -0.03   0.00   0.03    -0.03   0.01   0.02
  37   6    -0.01  -0.03   0.03    -0.01   0.01   0.01    -0.04   0.02   0.06
  38   6    -0.01  -0.03   0.02     0.03   0.00  -0.03    -0.03   0.02   0.06
  39   6    -0.01  -0.03   0.03     0.02  -0.00  -0.01    -0.01   0.01   0.02
  40   6    -0.01  -0.01   0.06    -0.03  -0.01   0.05    -0.01  -0.00  -0.00
  41   6     0.02   0.02   0.00    -0.01  -0.04   0.04     0.00  -0.02  -0.01
  42   6     0.08   0.08  -0.04    -0.07  -0.06   0.09    -0.02  -0.04   0.01
  43   6     0.10   0.11  -0.13    -0.00  -0.08   0.04    -0.00  -0.05   0.01
  44   6     0.05   0.10  -0.15     0.11  -0.11  -0.07     0.03  -0.05  -0.00
  45   6    -0.02   0.05  -0.10     0.15  -0.08  -0.10     0.04  -0.04  -0.01
  46   6    -0.00   0.01  -0.03     0.08  -0.05  -0.05     0.02  -0.02  -0.00
  47   7    -0.02  -0.03  -0.01     0.11  -0.03  -0.08     0.02  -0.00   0.01
  48   6    -0.01  -0.01  -0.01     0.09  -0.02  -0.05     0.02  -0.00   0.01
  49   6     0.31   0.12  -0.05     0.14   0.02  -0.05     0.05  -0.00   0.00
  50   6     0.38   0.16  -0.04     0.05  -0.00  -0.01     0.04  -0.01  -0.01
  51   6     0.11   0.04   0.03    -0.08  -0.07   0.04    -0.02  -0.03  -0.01
  52   6    -0.23  -0.11   0.08    -0.10  -0.11   0.04    -0.05  -0.03   0.00
  53   6    -0.28  -0.13   0.06    -0.00  -0.08  -0.01    -0.02  -0.01   0.01
  54   1     0.01  -0.02   0.00    -0.02  -0.01  -0.04    -0.01  -0.01  -0.02
  55   1     0.01  -0.03   0.01    -0.04  -0.01  -0.01    -0.02  -0.01  -0.00
  56   1    -0.00  -0.02   0.02    -0.02  -0.01  -0.03    -0.01  -0.01  -0.01
  57   1    -0.01   0.03   0.00     0.05  -0.01   0.01     0.02  -0.01   0.01
  58   1    -0.01   0.01   0.02     0.04  -0.01  -0.02     0.01   0.00  -0.01
  59   1     0.00   0.01  -0.01     0.03  -0.01  -0.00     0.01  -0.00  -0.00
  60   1     0.01  -0.02  -0.06     0.01  -0.00   0.06     0.00  -0.00   0.04
  61   1     0.01  -0.02  -0.07     0.02   0.01   0.04     0.01   0.01   0.04
  62   1     0.01  -0.00  -0.00     0.03   0.01  -0.04     0.01   0.01  -0.01
  63   1    -0.00   0.00   0.06     0.02   0.02  -0.07     0.01   0.01  -0.04
  64   1     0.00   0.02   0.03     0.00  -0.02  -0.02    -0.02   0.03  -0.01
  65   1    -0.00   0.02   0.01    -0.00   0.00  -0.02    -0.02   0.05   0.02
  66   1    -0.02   0.01  -0.00    -0.03   0.06   0.01     0.03  -0.19  -0.00
  67   1     0.01   0.01  -0.02    -0.02  -0.05  -0.01    -0.01  -0.06   0.03
  68   1     0.04   0.02   0.00    -0.01   0.00   0.00    -0.02   0.06   0.04
  69   1     0.04   0.01   0.03     0.01   0.06   0.01    -0.01   0.12   0.02
  70   1     0.00  -0.01   0.04     0.01   0.05   0.01     0.01   0.03  -0.03
  71   1    -0.03  -0.02   0.02     0.00  -0.01  -0.01     0.02  -0.08  -0.04
  72   1    -0.00   0.01   0.00    -0.01  -0.05  -0.02    -0.01   0.07   0.01
  73   1     0.02  -0.00  -0.01    -0.03   0.02  -0.01     0.01  -0.06   0.00
  74   1     0.02  -0.01  -0.03    -0.04   0.08   0.01     0.02  -0.14  -0.00
  75   1     0.00  -0.01  -0.03    -0.02   0.05   0.02     0.01  -0.05  -0.00
  76   1    -0.02   0.00  -0.02     0.01  -0.03   0.01    -0.01   0.07   0.00
  77   1    -0.03  -0.03  -0.01    -0.03   0.13   0.06     0.02  -0.02  -0.03
  78   1    -0.02  -0.04   0.01    -0.02   0.10   0.05     0.01  -0.02  -0.04
  79   1    -0.00  -0.01   0.01    -0.00   0.01  -0.00    -0.02   0.01   0.03
  80   1     0.01  -0.01  -0.00     0.02   0.00  -0.02    -0.01   0.01   0.02
  81   1     0.03   0.03   0.00    -0.05  -0.01   0.05    -0.02  -0.01   0.01
  82   1     0.04   0.04  -0.05    -0.01  -0.03   0.02    -0.01  -0.02   0.01
  83   1     0.02   0.04  -0.06     0.05  -0.04  -0.03     0.01  -0.02  -0.00
  84   1    -0.02   0.01  -0.03     0.06  -0.03  -0.05     0.02  -0.01  -0.00
  85   1     0.14   0.06  -0.03     0.06   0.02  -0.02     0.03  -0.00   0.00
  86   1     0.19   0.08  -0.02     0.02   0.01  -0.00     0.02  -0.00  -0.00
  87   1     0.05   0.02   0.01    -0.05  -0.03   0.02    -0.01  -0.01  -0.00
  88   1    -0.13  -0.06   0.04    -0.06  -0.05   0.02    -0.03  -0.01   0.00
  89   1    -0.14  -0.07   0.03    -0.00  -0.03  -0.00    -0.01  -0.00   0.00
                     16                     17                     18
                        a                      a                      a 
 Frequencies --   101.0003               104.5161               115.2966
 Red. masses --    10.3453                10.4453                10.2504
 Frc consts  --     0.0000                 0.0000                 0.0000
 IR Inten    --     0.0722                 0.5286                 0.5763
 Raman Activ --     0.0000                 0.0000                 0.0000
 Depolar     --     0.0000                 0.0000                 0.0000
 Atom AN      X      Y      Z        X      Y      Z        X      Y      Z
   1   6    -0.18  -0.04  -0.13     0.07   0.16  -0.00    -0.06  -0.13   0.01
   2   6    -0.00  -0.00   0.10     0.05  -0.00  -0.03    -0.04  -0.00   0.04
   3   6     0.28  -0.03   0.01     0.02  -0.11   0.01    -0.01   0.16  -0.02
   4   6    -0.02   0.01   0.19     0.01  -0.02   0.03    -0.05  -0.03  -0.03
   5   6    -0.00   0.01   0.23    -0.02  -0.01   0.02    -0.11  -0.02  -0.11
   6   6     0.06   0.01   0.01    -0.03  -0.03  -0.04    -0.17  -0.06  -0.07
   7   6     0.08   0.01  -0.30    -0.02  -0.05  -0.10    -0.18  -0.10   0.07
   8   6     0.06   0.02  -0.27    -0.00  -0.06  -0.04    -0.12  -0.12   0.11
   9   6     0.01   0.01   0.01     0.01  -0.03   0.05    -0.05  -0.07   0.03
  10   7    -0.01   0.01   0.07     0.01  -0.04   0.15     0.02  -0.08  -0.00
  11   6    -0.01  -0.01   0.05     0.01  -0.04   0.14     0.03  -0.07   0.02
  12   6    -0.01  -0.08   0.03     0.05  -0.18   0.04     0.07  -0.14  -0.05
  13   6    -0.00  -0.14  -0.00     0.04  -0.17  -0.00     0.07  -0.09  -0.04
  14   6    -0.00  -0.16  -0.01    -0.03  -0.01   0.08     0.05   0.06   0.05
  15   6    -0.01  -0.13  -0.02    -0.04   0.00   0.01     0.06   0.07   0.02
  16   6    -0.02  -0.06  -0.02    -0.08  -0.07  -0.02     0.04   0.02   0.00
  17   6    -0.05   0.07  -0.00    -0.08  -0.06  -0.05     0.06  -0.03  -0.04
  18   6    -0.03   0.07   0.01    -0.07  -0.09  -0.05     0.05  -0.06  -0.05
  19   6     0.01   0.07  -0.01    -0.02  -0.05  -0.05     0.04  -0.04  -0.04
  20   6     0.04   0.01  -0.00     0.05   0.05   0.01     0.03   0.02  -0.04
  21   6     0.02  -0.06   0.03     0.07   0.09   0.07     0.04   0.06  -0.05
  22   6    -0.02  -0.06   0.05     0.00  -0.00   0.06     0.05   0.03  -0.07
  23   6    -0.05   0.02   0.05    -0.07  -0.09   0.00     0.05  -0.04  -0.08
  24   7    -0.08   0.17   0.00    -0.07   0.02  -0.07     0.09  -0.04  -0.05
  25   6    -0.05   0.04  -0.01    -0.04   0.08  -0.04     0.09   0.05  -0.03
  26   6    -0.04   0.05  -0.01    -0.04   0.10  -0.05     0.07   0.05  -0.02
  27   6    -0.02   0.05  -0.00    -0.06   0.06  -0.06     0.02   0.03  -0.05
  28   6     0.01  -0.00  -0.02    -0.07  -0.04  -0.05    -0.05  -0.02  -0.01
  29   6     0.01  -0.05  -0.05    -0.06  -0.10  -0.03    -0.04  -0.05   0.06
  30   6    -0.01  -0.04  -0.06    -0.05  -0.04  -0.02     0.02  -0.01   0.10
  31   6    -0.04   0.02  -0.04    -0.03   0.06  -0.03     0.08   0.04   0.06
  32   7    -0.02  -0.12  -0.02    -0.03   0.09  -0.01     0.09   0.11  -0.00
  33   6     0.01  -0.12   0.00    -0.07   0.16   0.20     0.01   0.17   0.15
  34   6    -0.00  -0.04   0.04    -0.05   0.13   0.23     0.02   0.10   0.12
  35   6    -0.01   0.01   0.09     0.05  -0.01   0.03     0.02  -0.04   0.02
  36   6    -0.02   0.01   0.15     0.11  -0.02  -0.12    -0.02  -0.02   0.14
  37   6    -0.01   0.00   0.11     0.16  -0.05  -0.27    -0.07  -0.02   0.21
  38   6     0.02  -0.01  -0.00     0.14  -0.04  -0.19    -0.04  -0.03   0.09
  39   6     0.05   0.00  -0.05     0.04  -0.02  -0.00     0.03  -0.05  -0.06
  40   6     0.02   0.02   0.01     0.03  -0.00   0.04     0.06  -0.03  -0.06
  41   6     0.02   0.04  -0.00     0.01   0.04   0.05     0.05   0.01  -0.09
  42   6    -0.03   0.06   0.06     0.12   0.06  -0.05     0.03   0.07  -0.04
  43   6    -0.11   0.09   0.13     0.13   0.09  -0.10    -0.12   0.13   0.09
  44   6    -0.09   0.08   0.09     0.02   0.10  -0.03    -0.19   0.13   0.11
  45   6     0.00   0.05  -0.03    -0.07   0.07   0.07    -0.10   0.06  -0.02
  46   6     0.04   0.03  -0.07    -0.05   0.04   0.09     0.02   0.01  -0.11
  47   7     0.09   0.01  -0.15    -0.05   0.01   0.09     0.05  -0.04  -0.17
  48   6     0.05   0.01  -0.09    -0.05  -0.00   0.05    -0.00  -0.04  -0.10
  49   6     0.01   0.06  -0.08    -0.10  -0.05   0.06    -0.05   0.03  -0.08
  50   6    -0.03   0.07  -0.00    -0.07  -0.05   0.02    -0.02   0.07  -0.00
  51   6    -0.02   0.03   0.05     0.03   0.01  -0.02     0.05   0.04   0.05
  52   6     0.02  -0.02   0.03     0.08   0.06  -0.02     0.06  -0.04   0.04
  53   6     0.06  -0.03  -0.04     0.03   0.05   0.01     0.03  -0.08  -0.04
  54   1    -0.05  -0.01  -0.07     0.03   0.04   0.05    -0.06  -0.01  -0.09
  55   1    -0.11  -0.02  -0.02     0.03   0.10  -0.01    -0.01  -0.15   0.02
  56   1    -0.04  -0.01  -0.07     0.02   0.03  -0.04     0.02   0.02   0.07
  57   1     0.13  -0.03   0.05     0.00  -0.06  -0.00    -0.01   0.11  -0.00
  58   1     0.11   0.00  -0.05     0.01  -0.03  -0.01    -0.03   0.03   0.03
  59   1     0.07  -0.00  -0.01    -0.01  -0.03   0.03     0.04   0.03  -0.05
  60   1    -0.01   0.00   0.12    -0.01   0.01   0.01    -0.03   0.01  -0.06
  61   1     0.02   0.00   0.01    -0.01  -0.01  -0.02    -0.06  -0.01  -0.04
  62   1     0.03   0.00  -0.16    -0.01  -0.02  -0.05    -0.06  -0.04   0.04
  63   1     0.02   0.01  -0.14     0.00  -0.02  -0.02    -0.03  -0.05   0.06
  64   1    -0.01  -0.03   0.00     0.02  -0.08  -0.00     0.03  -0.06  -0.02
  65   1     0.00  -0.05  -0.01     0.02  -0.08  -0.03     0.02  -0.05  -0.02
  66   1    -0.00  -0.03  -0.01    -0.03  -0.04   0.00     0.00   0.01   0.00
  67   1     0.01   0.03  -0.01    -0.01  -0.02  -0.03     0.01  -0.02  -0.01
  68   1     0.02   0.00  -0.01     0.03   0.03   0.00     0.01   0.01  -0.01
  69   1     0.01  -0.04   0.01     0.04   0.05   0.03     0.01   0.04  -0.01
  70   1    -0.01  -0.03   0.02     0.00   0.00   0.03     0.02   0.01  -0.02
  71   1    -0.02   0.01   0.02    -0.03  -0.04   0.00     0.02  -0.02  -0.03
  72   1    -0.01   0.02   0.00    -0.02   0.03  -0.03     0.00   0.01  -0.03
  73   1     0.01  -0.00  -0.00    -0.02  -0.02  -0.02    -0.03  -0.01  -0.01
  74   1     0.01  -0.03  -0.02    -0.02  -0.06  -0.01    -0.02  -0.03   0.03
  75   1    -0.00  -0.02  -0.02    -0.01  -0.02   0.00     0.01  -0.01   0.05
  76   1    -0.02   0.01  -0.01    -0.01   0.03  -0.01     0.04   0.02   0.02
  77   1     0.01  -0.04  -0.00    -0.03   0.09   0.08    -0.01   0.09   0.06
  78   1    -0.00  -0.00   0.02    -0.03   0.07   0.09     0.00   0.05   0.05
  79   1    -0.01   0.00   0.04     0.07  -0.02  -0.12    -0.03  -0.01   0.10
  80   1     0.01  -0.01  -0.01     0.05  -0.02  -0.08    -0.02  -0.01   0.04
  81   1    -0.01   0.02   0.02     0.07   0.01  -0.03     0.03   0.02  -0.02
  82   1    -0.05   0.03   0.06     0.07   0.03  -0.06    -0.05   0.05   0.05
  83   1    -0.04   0.03   0.04     0.01   0.03  -0.02    -0.09   0.05   0.07
  84   1     0.01   0.01  -0.02    -0.04   0.02   0.03    -0.04   0.02  -0.01
  85   1    -0.00   0.03  -0.03    -0.04  -0.02   0.02    -0.03   0.02  -0.04
  86   1    -0.02   0.03   0.00    -0.03  -0.03   0.01    -0.01   0.04   0.00
  87   1    -0.02   0.01   0.03     0.02   0.00  -0.01     0.03   0.02   0.03
  88   1     0.01  -0.02   0.02     0.05   0.03  -0.02     0.03  -0.02   0.02
  89   1     0.03  -0.02  -0.02     0.02   0.03   0.00     0.01  -0.04  -0.02
                     19                     20                     21
                        a                      a                      a 
 Frequencies --   120.9744               130.8335               137.7406
 Red. masses --    11.0030                 6.1613                 7.5258
 Frc consts  --     0.0000                 0.0000                 0.0000
 IR Inten    --     0.4881                 0.2021                 0.9035
 Raman Activ --     0.0000                 0.0000                 0.0000
 Depolar     --     0.0000                 0.0000                 0.0000
 Atom AN      X      Y      Z        X      Y      Z        X      Y      Z
   1   6     0.00   0.03  -0.02     0.13  -0.18   0.04    -0.11   0.01  -0.05
   2   6     0.04  -0.00   0.03     0.06  -0.01  -0.04    -0.05   0.01   0.01
   3   6     0.09  -0.01   0.01    -0.03   0.13  -0.04    -0.03   0.03  -0.00
   4   6    -0.01  -0.04   0.04     0.09  -0.01  -0.10    -0.07   0.01   0.05
   5   6    -0.03  -0.03   0.06     0.10  -0.01   0.02    -0.12   0.03   0.14
   6   6    -0.03  -0.04  -0.01     0.09   0.02   0.18    -0.11   0.01   0.01
   7   6    -0.01  -0.07  -0.09     0.09   0.04   0.15    -0.08  -0.02  -0.20
   8   6     0.01  -0.07  -0.08     0.09   0.03  -0.01    -0.06  -0.03  -0.17
   9   6     0.01  -0.06  -0.03     0.07   0.01  -0.08    -0.05  -0.01  -0.02
  10   7     0.03  -0.08  -0.05     0.02   0.02  -0.07    -0.02  -0.02   0.08
  11   6     0.01  -0.09  -0.09    -0.00   0.03  -0.06    -0.00  -0.03   0.07
  12   6    -0.00   0.06  -0.02    -0.03  -0.05  -0.07     0.02   0.09   0.11
  13   6    -0.03   0.20   0.01    -0.03  -0.10  -0.07     0.01   0.16   0.12
  14   6    -0.08   0.16  -0.03    -0.05  -0.05  -0.04     0.03   0.04   0.04
  15   6    -0.09   0.20   0.02    -0.06  -0.07  -0.01     0.05   0.07   0.02
  16   6    -0.08   0.17   0.03    -0.07  -0.07  -0.01     0.05   0.08   0.01
  17   6    -0.04  -0.06   0.03    -0.08  -0.01   0.02     0.06   0.02  -0.02
  18   6    -0.05  -0.08   0.03    -0.07  -0.00   0.04     0.05   0.01  -0.04
  19   6    -0.07  -0.08   0.04    -0.06  -0.00   0.03     0.05   0.01  -0.04
  20   6    -0.07  -0.02   0.05    -0.03  -0.00   0.05     0.04   0.00  -0.05
  21   6    -0.05   0.05   0.05    -0.03  -0.01   0.08     0.04   0.00  -0.07
  22   6    -0.04   0.04   0.04    -0.06  -0.02   0.09     0.05   0.01  -0.07
  23   6    -0.04  -0.03   0.03    -0.08  -0.01   0.07     0.06   0.02  -0.06
  24   7    -0.03  -0.27   0.03    -0.12   0.04   0.03     0.10  -0.04  -0.03
  25   6    -0.07  -0.08   0.03    -0.11  -0.02   0.02     0.09   0.01  -0.02
  26   6    -0.05  -0.11   0.02    -0.10  -0.01   0.01     0.09  -0.01  -0.01
  27   6    -0.01  -0.09   0.05    -0.05   0.00   0.03     0.04  -0.01  -0.03
  28   6     0.03   0.01   0.02     0.02   0.01  -0.00    -0.02  -0.00  -0.00
  29   6     0.02   0.09  -0.03     0.02  -0.00  -0.07    -0.02   0.01   0.06
  30   6    -0.02   0.04  -0.06    -0.04  -0.01  -0.10     0.03   0.01   0.09
  31   6    -0.05  -0.07  -0.03    -0.10  -0.01  -0.06     0.09   0.00   0.05
  32   7    -0.12   0.17   0.04    -0.10  -0.07   0.01     0.09   0.07  -0.01
  33   6    -0.06  -0.07  -0.15    -0.02   0.07  -0.01     0.02  -0.15  -0.03
  34   6    -0.03  -0.19  -0.18    -0.02   0.10  -0.02     0.02  -0.16  -0.01
  35   6     0.08  -0.02  -0.02     0.02   0.02  -0.02    -0.03  -0.02   0.08
  36   6     0.06  -0.01   0.02     0.02   0.01   0.01    -0.01  -0.01   0.01
  37   6     0.06  -0.01   0.03     0.04   0.01  -0.02     0.06  -0.04  -0.16
  38   6     0.08  -0.02   0.02     0.06   0.01  -0.04     0.06  -0.04  -0.15
  39   6     0.11  -0.04  -0.02     0.05   0.02  -0.02    -0.04  -0.03   0.04
  40   6     0.15  -0.02  -0.05     0.05   0.02  -0.02    -0.06  -0.02   0.10
  41   6     0.14   0.03  -0.06     0.05   0.01  -0.02    -0.08   0.00   0.11
  42   6     0.20   0.10  -0.08     0.07   0.01  -0.04    -0.06   0.03   0.10
  43   6     0.07   0.17   0.01     0.04   0.01   0.01     0.02   0.03  -0.03
  44   6    -0.10   0.19   0.14    -0.01   0.03   0.07     0.07   0.00  -0.13
  45   6    -0.11   0.11   0.11    -0.00   0.02   0.06    -0.00  -0.01  -0.06
  46   6     0.04   0.03   0.01     0.04   0.02   0.01    -0.07  -0.01   0.07
  47   7     0.04  -0.01   0.00     0.05   0.02  -0.01    -0.08  -0.02   0.08
  48   6     0.01  -0.03   0.01     0.04   0.02  -0.01    -0.06  -0.02   0.05
  49   6    -0.05  -0.04   0.02     0.02   0.01  -0.00    -0.04  -0.04   0.04
  50   6    -0.03  -0.04   0.03    -0.02  -0.00   0.00     0.00  -0.04   0.01
  51   6     0.05  -0.01   0.02    -0.03  -0.01   0.00     0.03  -0.01  -0.01
  52   6     0.09  -0.00   0.01     0.01   0.01  -0.00     0.01   0.01  -0.00
  53   6     0.05  -0.01   0.01     0.04   0.02  -0.01    -0.04  -0.00   0.03
  54   1     0.00   0.01   0.01    -0.11   0.03  -0.21    -0.17   0.08  -0.20
  55   1    -0.01   0.03  -0.00     0.09  -0.34   0.05    -0.02  -0.23   0.02
  56   1    -0.00   0.00  -0.02     0.15   0.12   0.21     0.09   0.16   0.12
  57   1     0.04  -0.04   0.02    -0.09   0.31  -0.07    -0.06   0.22  -0.03
  58   1     0.06   0.02  -0.02    -0.19  -0.12   0.13    -0.16  -0.13   0.09
  59   1    -0.01   0.01   0.01     0.23  -0.04  -0.09     0.19  -0.06  -0.06
  60   1    -0.01  -0.00   0.03     0.03  -0.01   0.01    -0.04   0.02   0.08
  61   1    -0.01  -0.01  -0.00     0.03   0.01   0.09    -0.04   0.01   0.02
  62   1    -0.01  -0.02  -0.04     0.03   0.02   0.07    -0.03  -0.01  -0.10
  63   1     0.00  -0.02  -0.03     0.03   0.01  -0.01    -0.01  -0.01  -0.07
  64   1     0.00   0.02  -0.00    -0.02  -0.02  -0.03     0.01   0.03   0.04
  65   1    -0.01   0.10   0.02    -0.01  -0.05  -0.03    -0.00   0.08   0.05
  66   1    -0.03   0.08   0.01    -0.02  -0.03  -0.00     0.01   0.03   0.00
  67   1    -0.02  -0.03   0.01    -0.02   0.00   0.01     0.01   0.00  -0.01
  68   1    -0.03  -0.01   0.02    -0.00  -0.00   0.01     0.01  -0.00  -0.01
  69   1    -0.01   0.03   0.02    -0.00  -0.00   0.03     0.01  -0.00  -0.02
  70   1    -0.01   0.03   0.01    -0.02  -0.01   0.03     0.01   0.00  -0.02
  71   1    -0.01  -0.01   0.01    -0.03  -0.01   0.02     0.02   0.01  -0.02
  72   1    -0.00  -0.04   0.03    -0.01   0.00   0.02     0.01  -0.01  -0.02
  73   1     0.02   0.01   0.01     0.02   0.00   0.01    -0.02  -0.00  -0.01
  74   1     0.01   0.06  -0.01     0.02  -0.00  -0.03    -0.02   0.01   0.02
  75   1    -0.01   0.03  -0.03    -0.01  -0.00  -0.04     0.01   0.01   0.04
  76   1    -0.03  -0.03  -0.01    -0.04  -0.01  -0.03     0.04   0.00   0.02
  77   1    -0.02  -0.04  -0.06     0.00   0.04   0.01    -0.00  -0.08  -0.04
  78   1    -0.02  -0.11  -0.07    -0.01   0.04   0.00     0.01  -0.08  -0.02
  79   1     0.01   0.00   0.02     0.01   0.00  -0.01     0.04  -0.02  -0.09
  80   1     0.02  -0.00   0.02     0.02   0.00  -0.02     0.03  -0.02  -0.08
  81   1     0.10   0.03  -0.04     0.03  -0.00  -0.02    -0.02   0.01   0.05
  82   1     0.03   0.06   0.00     0.01   0.00  -0.00     0.02   0.01  -0.02
  83   1    -0.06   0.07   0.07    -0.01   0.01   0.03     0.04  -0.00  -0.07
  84   1    -0.07   0.03   0.05    -0.01   0.01   0.03     0.01  -0.01  -0.03
  85   1    -0.03  -0.02   0.01     0.01   0.00  -0.00    -0.01  -0.02   0.02
  86   1    -0.02  -0.01   0.01    -0.01  -0.00   0.00     0.01  -0.01   0.00
  87   1     0.02   0.00   0.00    -0.02  -0.01   0.00     0.02  -0.00  -0.01
  88   1     0.04   0.00   0.00     0.00   0.00  -0.00     0.01   0.01  -0.01
  89   1     0.02  -0.00   0.00     0.02   0.01  -0.00    -0.01   0.00   0.01
                     22                     23                     24
                        a                      a                      a 
 Frequencies --   154.2421               163.9362               188.6141
 Red. masses --    10.8253                10.6392                10.6000
 Frc consts  --     0.0000                 0.0000                 0.0000
 IR Inten    --     1.1134                 0.2842                 2.9099
 Raman Activ --     0.0000                 0.0000                 0.0000
 Depolar     --     0.0000                 0.0000                 0.0000
 Atom AN      X      Y      Z        X      Y      Z        X      Y      Z
   1   6    -0.05   0.01   0.01     0.07   0.07  -0.03    -0.18  -0.04  -0.04
   2   6    -0.01  -0.00   0.06     0.00  -0.00  -0.11    -0.10  -0.00   0.06
   3   6     0.05  -0.01   0.04    -0.12  -0.01  -0.07    -0.05  -0.00   0.04
   4   6    -0.01   0.01   0.08    -0.01  -0.02  -0.14    -0.06   0.03   0.07
   5   6    -0.02   0.00  -0.03    -0.04   0.00  -0.01    -0.01   0.01   0.00
   6   6    -0.02  -0.02  -0.13    -0.08   0.01   0.14     0.04   0.02  -0.09
   7   6    -0.03  -0.02  -0.05    -0.06  -0.02   0.07     0.02   0.06  -0.02
   8   6    -0.04  -0.01   0.11    -0.01  -0.04  -0.12    -0.03   0.08   0.08
   9   6    -0.02   0.01   0.13     0.01  -0.03  -0.17    -0.06   0.04   0.05
  10   7    -0.01   0.02   0.16     0.00  -0.04  -0.15    -0.05   0.04  -0.02
  11   6    -0.02   0.02  -0.01    -0.01   0.06  -0.06    -0.05   0.11   0.00
  12   6     0.07  -0.07  -0.14    -0.05   0.08  -0.03    -0.07   0.20   0.07
  13   6     0.06  -0.09  -0.26    -0.04   0.05  -0.00    -0.07   0.22   0.10
  14   6    -0.01   0.01  -0.22    -0.01   0.00  -0.02    -0.02   0.10   0.05
  15   6    -0.00   0.03  -0.14     0.01  -0.09  -0.03     0.02  -0.09  -0.02
  16   6     0.15  -0.05  -0.06     0.04  -0.14  -0.03     0.07  -0.32  -0.03
  17   6     0.16  -0.05   0.08     0.01   0.00   0.00     0.02  -0.01  -0.01
  18   6     0.19   0.02   0.11     0.02   0.04   0.02     0.03   0.09   0.01
  19   6     0.07   0.03   0.17     0.02   0.05   0.02     0.05   0.10   0.01
  20   6    -0.09  -0.03   0.06     0.00   0.00   0.00     0.04   0.02  -0.01
  21   6    -0.11  -0.07  -0.10    -0.01  -0.04  -0.01     0.01  -0.09  -0.04
  22   6     0.05   0.03  -0.14     0.00  -0.01  -0.00     0.02  -0.02  -0.01
  23   6     0.20   0.08  -0.02     0.02   0.04   0.01     0.03   0.08   0.02
  24   7     0.03  -0.10   0.15    -0.03   0.11   0.02    -0.02   0.22  -0.00
  25   6    -0.11  -0.01   0.09    -0.02  -0.01   0.00     0.01   0.01  -0.01
  26   6    -0.13  -0.02   0.10    -0.02  -0.01   0.00     0.03  -0.08  -0.02
  27   6    -0.01  -0.01   0.16    -0.01  -0.01   0.01     0.02  -0.09  -0.03
  28   6     0.12   0.02   0.09     0.00   0.00  -0.00    -0.01   0.00  -0.02
  29   6     0.12   0.02  -0.04     0.00   0.01  -0.02    -0.02   0.09  -0.00
  30   6    -0.00   0.00  -0.10    -0.01  -0.00  -0.03     0.00   0.00   0.00
  31   6    -0.13  -0.02  -0.02    -0.02  -0.01  -0.02     0.03  -0.09  -0.01
  32   7    -0.14   0.11  -0.05    -0.00  -0.09  -0.02     0.02  -0.02  -0.02
  33   6    -0.10   0.09  -0.11     0.02   0.08  -0.01    -0.01   0.13   0.05
  34   6    -0.09   0.09   0.00     0.01   0.11  -0.03    -0.03   0.15   0.04
  35   6    -0.03  -0.00   0.12    -0.00  -0.03   0.01    -0.06  -0.01  -0.01
  36   6    -0.01  -0.01   0.06     0.02  -0.01  -0.09    -0.09  -0.00   0.05
  37   6     0.04  -0.03  -0.08     0.00  -0.01  -0.03    -0.03   0.01  -0.03
  38   6     0.05  -0.03  -0.12     0.02  -0.02   0.08     0.05  -0.02  -0.11
  39   6    -0.01  -0.01   0.00     0.00  -0.08   0.12     0.05  -0.05  -0.08
  40   6    -0.05   0.01   0.10     0.01  -0.05   0.17     0.02  -0.03  -0.05
  41   6    -0.06   0.02   0.09     0.01   0.01   0.17     0.06  -0.06  -0.06
  42   6    -0.03   0.02   0.06     0.00   0.19   0.26     0.17  -0.04  -0.16
  43   6     0.00   0.02  -0.00    -0.07   0.32   0.16     0.15  -0.03  -0.16
  44   6     0.01   0.01  -0.04    -0.00   0.25  -0.09    -0.06   0.02   0.09
  45   6    -0.00   0.01  -0.03     0.04   0.08  -0.22    -0.15   0.00   0.19
  46   6    -0.04   0.01   0.03     0.03  -0.02   0.00    -0.00  -0.05   0.03
  47   7    -0.01  -0.01  -0.02     0.02  -0.10   0.03     0.05  -0.07  -0.04
  48   6    -0.01  -0.01  -0.02     0.01  -0.11   0.02     0.04  -0.09  -0.02
  49   6    -0.01   0.01  -0.02     0.01  -0.13   0.02     0.01  -0.09  -0.01
  50   6    -0.02   0.01  -0.00     0.04  -0.11   0.04    -0.01  -0.09   0.03
  51   6    -0.00   0.01   0.01     0.08  -0.12   0.06     0.05  -0.10   0.05
  52   6     0.01  -0.00   0.00     0.07  -0.12   0.06     0.09  -0.10   0.04
  53   6     0.01  -0.01  -0.01     0.03  -0.14   0.05     0.07  -0.11   0.02
  54   1    -0.02   0.00  -0.01     0.05   0.01   0.06    -0.03  -0.02  -0.01
  55   1    -0.03  -0.00   0.01     0.04   0.09  -0.02    -0.08   0.01  -0.00
  56   1    -0.01   0.01  -0.00    -0.00  -0.01  -0.03    -0.06  -0.03  -0.04
  57   1     0.01   0.03   0.02    -0.04  -0.05  -0.04    -0.02   0.04   0.01
  58   1    -0.01  -0.03   0.01    -0.01   0.02  -0.02    -0.04  -0.02   0.02
  59   1     0.05  -0.01  -0.00    -0.08   0.01   0.01     0.02  -0.01  -0.00
  60   1    -0.00   0.01  -0.02    -0.01   0.00   0.00     0.00  -0.01  -0.00
  61   1    -0.00  -0.01  -0.08    -0.03   0.01   0.09     0.02   0.00  -0.06
  62   1    -0.01  -0.01  -0.03    -0.03  -0.01   0.05     0.01   0.02  -0.01
  63   1    -0.01  -0.01   0.05    -0.00  -0.01  -0.05    -0.01   0.04   0.04
  64   1     0.05  -0.03  -0.04    -0.02   0.02  -0.01    -0.03   0.07   0.02
  65   1     0.03  -0.05  -0.10    -0.02   0.01   0.00    -0.03   0.07   0.04
  66   1     0.07  -0.03  -0.03     0.02  -0.06  -0.01     0.04  -0.16  -0.01
  67   1     0.02   0.01   0.09     0.01   0.02   0.01     0.02   0.04   0.01
  68   1    -0.06  -0.02   0.03     0.00  -0.00   0.00     0.01   0.00  -0.00
  69   1    -0.07  -0.04  -0.06    -0.01  -0.03  -0.01    -0.01  -0.06  -0.02
  70   1     0.02   0.02  -0.07    -0.00  -0.01  -0.00     0.00  -0.02  -0.00
  71   1     0.09   0.03  -0.02     0.01   0.01   0.00     0.01   0.03   0.01
  72   1    -0.00  -0.00   0.08    -0.00  -0.00   0.01     0.01  -0.04  -0.01
  73   1     0.06   0.01   0.04     0.00   0.00   0.00    -0.01   0.01  -0.01
  74   1     0.06   0.01  -0.03     0.00   0.01  -0.01    -0.01   0.06   0.00
  75   1    -0.00   0.00  -0.06    -0.00  -0.00  -0.01    -0.00   0.01   0.00
  76   1    -0.07  -0.01  -0.02    -0.01  -0.01  -0.01     0.01  -0.04  -0.00
  77   1    -0.05   0.04  -0.03     0.01   0.02   0.00     0.00   0.03   0.01
  78   1    -0.04   0.05   0.03     0.01   0.04  -0.01    -0.00   0.05   0.00
  79   1     0.02  -0.01  -0.05     0.01   0.00  -0.02    -0.01   0.01  -0.01
  80   1     0.03  -0.02  -0.07     0.02   0.01   0.03     0.03  -0.00  -0.05
  81   1    -0.01   0.00   0.02     0.02   0.07   0.11     0.08  -0.01  -0.06
  82   1     0.01   0.01  -0.01    -0.03   0.13   0.08     0.07  -0.02  -0.08
  83   1     0.01   0.00  -0.03     0.00   0.09  -0.06    -0.04   0.02   0.05
  84   1     0.01  -0.00  -0.02     0.01   0.01  -0.13    -0.09   0.01   0.10
  85   1    -0.00   0.01  -0.01    -0.00  -0.04   0.01     0.00  -0.03  -0.00
  86   1    -0.01   0.01   0.00     0.01  -0.03   0.01    -0.02  -0.02   0.01
  87   1    -0.00   0.00   0.01     0.03  -0.03   0.02     0.01  -0.03   0.02
  88   1     0.01  -0.00   0.00     0.03  -0.03   0.02     0.03  -0.03   0.01
  89   1     0.00  -0.01  -0.00     0.01  -0.05   0.01     0.02  -0.04   0.00
                     25                     26                     27
                        a                      a                      a 
 Frequencies --   190.7432               200.5900               211.1540
 Red. masses --     1.7833                10.3944                10.6462
 Frc consts  --     0.0000                 0.0000                 0.0000
 IR Inten    --     0.0357                 0.8387                 1.4473
 Raman Activ --     0.0000                 0.0000                 0.0000
 Depolar     --     0.0000                 0.0000                 0.0000
 Atom AN      X      Y      Z        X      Y      Z        X      Y      Z
   1   6     0.05  -0.04   0.05    -0.13  -0.08  -0.04     0.02   0.15   0.07
   2   6     0.01  -0.01   0.00    -0.09  -0.01   0.00     0.05   0.07   0.11
   3   6     0.01  -0.11   0.03    -0.12  -0.04   0.02     0.20   0.05   0.06
   4   6     0.01  -0.01  -0.01    -0.04   0.02  -0.01     0.03   0.08   0.16
   5   6    -0.02   0.00  -0.01     0.04  -0.01  -0.03    -0.02   0.09   0.02
   6   6    -0.03  -0.01  -0.04     0.09   0.04  -0.00    -0.04   0.03  -0.22
   7   6    -0.03  -0.02  -0.01     0.08   0.10   0.04    -0.05  -0.00  -0.06
   8   6    -0.01  -0.03   0.02     0.00   0.12   0.03    -0.01  -0.01   0.20
   9   6     0.01  -0.01   0.00    -0.05   0.06   0.00     0.04   0.03   0.14
  10   7     0.01  -0.01  -0.01    -0.07   0.06  -0.01     0.08   0.03  -0.07
  11   6     0.01   0.01   0.00    -0.07   0.07  -0.03     0.05   0.06  -0.13
  12   6     0.00   0.03   0.02    -0.07   0.05  -0.03     0.01   0.08  -0.10
  13   6    -0.00   0.05   0.02    -0.05  -0.05  -0.05     0.01   0.06  -0.06
  14   6    -0.00   0.03   0.01     0.00  -0.07  -0.05     0.01   0.04  -0.06
  15   6     0.00  -0.02  -0.01     0.01  -0.04   0.01     0.01  -0.05  -0.00
  16   6     0.02  -0.10  -0.01    -0.03   0.33   0.04    -0.03   0.05   0.01
  17   6     0.00  -0.01  -0.00     0.03   0.01   0.01    -0.04   0.04   0.01
  18   6     0.01   0.03   0.01     0.02  -0.10  -0.02    -0.08  -0.09  -0.01
  19   6     0.01   0.03   0.01    -0.00  -0.12  -0.02    -0.09  -0.13  -0.02
  20   6     0.00   0.01   0.00    -0.01  -0.02  -0.02    -0.04  -0.02   0.03
  21   6    -0.01  -0.03  -0.00     0.02   0.10  -0.02    -0.01   0.11   0.10
  22   6     0.00  -0.01   0.00     0.02   0.03  -0.05    -0.05  -0.02   0.06
  23   6     0.01   0.03   0.01     0.02  -0.09  -0.07    -0.09  -0.13   0.01
  24   7    -0.02   0.05   0.00     0.05  -0.12   0.01    -0.05   0.19   0.01
  25   6    -0.01   0.00  -0.00     0.03  -0.06   0.02    -0.00  -0.01   0.01
  26   6    -0.01  -0.03  -0.00    -0.01   0.18   0.04    -0.00   0.02   0.01
  27   6    -0.01  -0.04  -0.00     0.00   0.23   0.05     0.00   0.03   0.02
  28   6    -0.00  -0.00  -0.01     0.03   0.02   0.04     0.01   0.01   0.01
  29   6    -0.01   0.03  -0.01     0.06  -0.21   0.04     0.01  -0.02   0.01
  30   6    -0.01  -0.00  -0.02     0.03   0.00   0.04     0.00  -0.00   0.01
  31   6    -0.01  -0.04  -0.01    -0.01   0.22   0.05    -0.00   0.02   0.01
  32   7    -0.01   0.01  -0.01     0.07  -0.32  -0.00     0.04  -0.25  -0.00
  33   6    -0.00   0.04   0.01    -0.00  -0.04  -0.04     0.05   0.09  -0.08
  34   6    -0.00   0.03   0.01    -0.02   0.03  -0.04     0.05   0.09  -0.12
  35   6     0.02  -0.00  -0.02    -0.09   0.02   0.03     0.06   0.01  -0.05
  36   6     0.02  -0.01  -0.03    -0.10   0.00   0.01     0.05   0.04   0.03
  37   6     0.02   0.00  -0.01    -0.04   0.02  -0.05     0.03   0.00  -0.01
  38   6     0.02   0.00  -0.02     0.04  -0.00  -0.10     0.02  -0.00  -0.04
  39   6     0.01   0.01  -0.01     0.01  -0.02  -0.01     0.02  -0.03  -0.04
  40   6     0.01   0.00  -0.01    -0.04  -0.01   0.06     0.06  -0.01  -0.07
  41   6    -0.01   0.01   0.01    -0.01  -0.02   0.06     0.03  -0.01  -0.05
  42   6    -0.02   0.00   0.01     0.09   0.03  -0.02    -0.06  -0.03   0.03
  43   6     0.00  -0.01  -0.00     0.10   0.06  -0.08    -0.08  -0.03   0.07
  44   6     0.02  -0.01  -0.02    -0.04   0.08   0.03     0.02  -0.05  -0.05
  45   6     0.01   0.00   0.00    -0.10   0.03   0.08     0.06  -0.03  -0.10
  46   6    -0.01   0.01   0.01    -0.02  -0.03   0.06     0.02  -0.02  -0.05
  47   7    -0.01   0.02   0.02     0.04  -0.05  -0.02    -0.03  -0.04   0.02
  48   6    -0.01   0.02   0.01     0.09  -0.05  -0.02    -0.16  -0.10   0.06
  49   6    -0.00   0.02   0.01     0.07  -0.05  -0.02    -0.18  -0.15   0.06
  50   6    -0.00   0.01  -0.00     0.00  -0.07   0.02     0.02  -0.09   0.01
  51   6    -0.01   0.02  -0.01    -0.01  -0.10   0.06     0.20  -0.02  -0.02
  52   6    -0.02   0.03  -0.01     0.07  -0.09   0.04    -0.00  -0.06   0.01
  53   6    -0.01   0.03   0.00     0.12  -0.07   0.01    -0.20  -0.12   0.07
  54   1    -0.21   0.11  -0.26    -0.06  -0.01  -0.06    -0.04   0.07  -0.01
  55   1     0.08  -0.40   0.06    -0.05  -0.08   0.00     0.01  -0.00   0.03
  56   1     0.19   0.23   0.26    -0.02   0.00   0.01     0.04   0.09   0.04
  57   1     0.10  -0.42   0.07    -0.02  -0.10   0.01     0.07   0.07   0.04
  58   1     0.26   0.20  -0.16     0.02   0.04  -0.03     0.03  -0.02   0.01
  59   1    -0.35   0.09   0.13    -0.12   0.02   0.04     0.11  -0.01  -0.01
  60   1    -0.01   0.01   0.01     0.02  -0.02  -0.01    -0.01   0.05   0.00
  61   1    -0.01  -0.00  -0.02     0.04   0.01  -0.00    -0.02   0.01  -0.14
  62   1    -0.01  -0.01  -0.00     0.03   0.04   0.02    -0.02  -0.01  -0.04
  63   1    -0.00  -0.01   0.02    -0.00   0.05   0.01    -0.00  -0.01   0.09
  64   1     0.00   0.01   0.00    -0.03   0.03  -0.00    -0.01   0.04  -0.03
  65   1    -0.00   0.02   0.01    -0.02  -0.02  -0.01     0.00   0.02  -0.02
  66   1     0.01  -0.05  -0.01    -0.03   0.20   0.01    -0.01   0.02   0.00
  67   1     0.00   0.01   0.01    -0.00  -0.04  -0.01    -0.03  -0.05  -0.01
  68   1     0.00   0.00   0.00    -0.01  -0.00   0.00    -0.01   0.00   0.01
  69   1    -0.00  -0.02  -0.00     0.01   0.07   0.00     0.01   0.08   0.05
  70   1    -0.00  -0.01   0.00     0.01   0.02  -0.02    -0.01   0.00   0.02
  71   1     0.00   0.01   0.00     0.01  -0.04  -0.03    -0.04  -0.05   0.00
  72   1    -0.00  -0.01  -0.00    -0.00   0.09   0.02    -0.00   0.01   0.01
  73   1    -0.00   0.00  -0.00     0.01  -0.01   0.01     0.00   0.00   0.00
  74   1    -0.00   0.02  -0.00     0.03  -0.14   0.01     0.01  -0.01   0.00
  75   1    -0.00   0.00  -0.01     0.01  -0.02   0.01     0.00  -0.00   0.00
  76   1    -0.00  -0.01  -0.00    -0.00   0.09   0.02    -0.00   0.01   0.00
  77   1     0.00   0.01   0.00    -0.00  -0.02  -0.01     0.02   0.03  -0.01
  78   1    -0.00   0.01   0.00     0.00   0.02  -0.02     0.02   0.03  -0.04
  79   1     0.00   0.00   0.01    -0.01   0.02  -0.02     0.01  -0.01   0.00
  80   1     0.00   0.00  -0.00     0.03   0.00  -0.05     0.01  -0.00  -0.01
  81   1    -0.01   0.00   0.01     0.06   0.01  -0.01    -0.04  -0.01   0.02
  82   1     0.00  -0.00  -0.00     0.05   0.02  -0.05    -0.05  -0.00   0.04
  83   1     0.01  -0.00  -0.01    -0.02   0.03   0.01     0.01  -0.02  -0.02
  84   1     0.01   0.00  -0.00    -0.05   0.01   0.03     0.03  -0.01  -0.04
  85   1     0.00   0.00   0.00     0.03  -0.01  -0.01    -0.07  -0.05   0.03
  86   1     0.00   0.00  -0.00    -0.02  -0.02   0.01     0.02  -0.02  -0.00
  87   1    -0.00   0.00  -0.01    -0.02  -0.03   0.03     0.13   0.02  -0.02
  88   1    -0.01   0.01  -0.00     0.02  -0.03   0.01     0.01  -0.01  -0.00
  89   1    -0.00   0.01   0.00     0.04  -0.03  -0.00    -0.07  -0.04   0.02
                     28                     29                     30
                        a                      a                      a 
 Frequencies --   212.3605               222.7675               229.3163
 Red. masses --    10.8414                11.0591                11.3319
 Frc consts  --     0.0000                 0.0000                 0.0000
 IR Inten    --     1.4655                 1.7811                 0.2206
 Raman Activ --     0.0000                 0.0000                 0.0000
 Depolar     --     0.0000                 0.0000                 0.0000
 Atom AN      X      Y      Z        X      Y      Z        X      Y      Z
   1   6    -0.07  -0.14   0.03    -0.03   0.06  -0.03     0.06   0.01  -0.02
   2   6    -0.03  -0.06   0.08    -0.03   0.08  -0.03     0.02  -0.01  -0.08
   3   6     0.02  -0.07   0.06    -0.08   0.13  -0.03    -0.06   0.02  -0.06
   4   6    -0.02  -0.07   0.05     0.01   0.11  -0.05     0.00  -0.02  -0.08
   5   6    -0.00  -0.08  -0.04     0.07   0.09  -0.04    -0.02  -0.01   0.02
   6   6    -0.00  -0.09  -0.09     0.11   0.15   0.07    -0.03   0.00   0.12
   7   6    -0.02  -0.07   0.04     0.10   0.17   0.05    -0.02  -0.02  -0.02
   8   6    -0.03  -0.06   0.09     0.05   0.17  -0.03     0.01  -0.03  -0.13
   9   6    -0.02  -0.05   0.03    -0.00   0.12   0.00     0.00  -0.02  -0.06
  10   7    -0.01  -0.03  -0.12    -0.02   0.11   0.13    -0.01  -0.03   0.13
  11   6    -0.02  -0.02  -0.19     0.00   0.01   0.04    -0.00  -0.02   0.14
  12   6    -0.04  -0.04  -0.19     0.04  -0.15  -0.06     0.06   0.03   0.11
  13   6    -0.04  -0.05  -0.13     0.06  -0.25  -0.13     0.03   0.10   0.03
  14   6     0.00   0.02  -0.05     0.03  -0.11  -0.05    -0.02   0.06  -0.02
  15   6     0.01   0.03   0.04    -0.01   0.11   0.02    -0.01   0.04  -0.06
  16   6    -0.01  -0.06   0.02    -0.02   0.03   0.01     0.05   0.11  -0.02
  17   6    -0.04   0.06  -0.00    -0.03   0.05  -0.00     0.06   0.13   0.03
  18   6    -0.10  -0.06  -0.04    -0.06  -0.01  -0.03     0.09  -0.15  -0.03
  19   6    -0.08  -0.10  -0.07    -0.05  -0.04  -0.05     0.03  -0.24  -0.05
  20   6    -0.00  -0.00  -0.01    -0.00  -0.00  -0.01     0.00  -0.03  -0.04
  21   6     0.03   0.11   0.08     0.02   0.05   0.05     0.07   0.22  -0.06
  22   6    -0.05  -0.03   0.06    -0.03  -0.02   0.04     0.06   0.00  -0.16
  23   6    -0.12  -0.12  -0.00    -0.08  -0.05   0.00     0.08  -0.21  -0.16
  24   7    -0.02   0.26  -0.02     0.01   0.01  -0.02    -0.06   0.44   0.10
  25   6     0.05   0.08  -0.00     0.01   0.11   0.00    -0.07   0.08   0.05
  26   6     0.11  -0.07  -0.01     0.07  -0.09  -0.00    -0.10  -0.08   0.09
  27   6     0.09  -0.12  -0.02     0.06  -0.16  -0.01    -0.02  -0.12   0.14
  28   6     0.02  -0.01   0.02     0.01  -0.02   0.01     0.06  -0.01   0.10
  29   6     0.00   0.12   0.09    -0.01   0.15   0.06     0.05   0.12   0.01
  30   6     0.06  -0.00   0.11     0.03  -0.01   0.06    -0.02  -0.02  -0.04
  31   6     0.13  -0.12   0.07     0.08  -0.15   0.04    -0.10  -0.14   0.02
  32   7     0.06   0.03   0.02    -0.04   0.34   0.03    -0.02  -0.20  -0.04
  33   6     0.03   0.02  -0.10     0.02  -0.14  -0.05    -0.08   0.01   0.01
  34   6     0.02  -0.01  -0.18     0.01  -0.09  -0.02    -0.06  -0.02   0.12
  35   6    -0.04  -0.01   0.07    -0.05   0.04   0.06     0.01  -0.01   0.02
  36   6    -0.05  -0.03   0.09    -0.03   0.06   0.00     0.03  -0.01  -0.04
  37   6     0.03  -0.03  -0.03    -0.04   0.05  -0.02    -0.00  -0.01   0.03
  38   6     0.09  -0.04  -0.13    -0.01   0.03  -0.04    -0.04   0.01   0.09
  39   6    -0.00   0.02   0.02    -0.02  -0.03  -0.01    -0.01   0.00   0.02
  40   6    -0.06   0.01   0.13    -0.05   0.01   0.06     0.00  -0.01  -0.00
  41   6    -0.09   0.04   0.17    -0.04  -0.01   0.05     0.02  -0.00  -0.04
  42   6    -0.02   0.07   0.11    -0.00  -0.02   0.00     0.02  -0.03  -0.05
  43   6     0.05   0.08  -0.01     0.01  -0.01  -0.04     0.03  -0.05  -0.03
  44   6     0.04   0.07  -0.05    -0.04  -0.00  -0.01    -0.01  -0.03   0.04
  45   6    -0.02   0.04   0.02    -0.05  -0.01   0.00    -0.01  -0.01   0.05
  46   6    -0.07   0.03   0.12    -0.03  -0.02   0.01     0.01   0.00  -0.03
  47   7    -0.01   0.05   0.03     0.02  -0.07  -0.07     0.01   0.01  -0.03
  48   6     0.11   0.10  -0.01    -0.06  -0.13  -0.06     0.00   0.01  -0.04
[...]
  29   6     0.00   0.00   0.00    -0.00  -0.00  -0.00    -0.02  -0.00  -0.02
  30   6     0.00   0.00  -0.00    -0.00  -0.00   0.00     0.00   0.00   0.00
  31   6    -0.00  -0.00   0.00    -0.00  -0.00   0.00     0.03   0.00  -0.05
  32   7     0.00   0.00   0.00    -0.00  -0.00  -0.00    -0.00  -0.00   0.00
  33   6    -0.00  -0.00   0.00     0.00   0.00  -0.00    -0.00  -0.00   0.00
  34   6     0.00  -0.00   0.00    -0.00   0.00  -0.00     0.00  -0.00   0.00
  35   6    -0.00   0.00  -0.00    -0.00   0.00  -0.00     0.00  -0.00   0.00
  36   6    -0.00  -0.00  -0.00    -0.00  -0.00  -0.00    -0.00  -0.00  -0.00
  37   6    -0.01  -0.00  -0.00    -0.00  -0.00  -0.00    -0.00  -0.00  -0.00
  38   6    -0.00   0.00  -0.00    -0.00   0.00  -0.00    -0.00   0.00  -0.00
  39   6     0.00   0.00   0.00     0.00   0.00   0.00     0.00   0.00   0.00
  40   6     0.00  -0.00   0.00     0.00  -0.00   0.00     0.00  -0.00   0.00
  41   6    -0.00  -0.00  -0.00     0.00  -0.00   0.00     0.00   0.00   0.00
  42   6     0.00  -0.00   0.00     0.00   0.00  -0.00    -0.00   0.00  -0.00
  43   6    -0.00   0.00  -0.00     0.00  -0.00   0.00     0.00  -0.00   0.00
  44   6    -0.00  -0.00  -0.00     0.00   0.00   0.00    -0.00  -0.00  -0.00
  45   6     0.00  -0.01   0.00     0.00   0.00   0.00     0.00  -0.00   0.00
  46   6    -0.00  -0.00  -0.00    -0.00  -0.00   0.00     0.00  -0.00   0.00
  47   7     0.00  -0.00   0.00    -0.00  -0.00  -0.00    -0.00   0.00  -0.00
  48   6    -0.00   0.01  -0.00    -0.00   0.00  -0.00     0.00  -0.00   0.00
  49   6    -0.02   0.07   0.06    -0.00   0.00   0.00     0.00  -0.00  -0.00
  50   6     0.02  -0.01   0.11     0.00  -0.00   0.00    -0.00   0.00  -0.00
  51   6     0.06  -0.15   0.05     0.00  -0.00   0.00    -0.00   0.00  -0.00
  52   6     0.02  -0.10  -0.09     0.00  -0.00  -0.00    -0.00   0.00   0.00
  53   6    -0.02   0.02  -0.12    -0.00   0.00  -0.00     0.00  -0.00   0.00
  54   1    -0.00  -0.00  -0.00    -0.00  -0.00  -0.00    -0.00  -0.00  -0.00
  55   1     0.00   0.00   0.00     0.00   0.00   0.00    -0.00   0.00  -0.00
  56   1     0.00  -0.00   0.00    -0.00   0.00  -0.00     0.00  -0.00   0.00
  57   1    -0.00   0.00   0.00     0.00   0.00  -0.00    -0.00   0.00   0.00
  58   1     0.00  -0.00   0.00     0.00  -0.00   0.00     0.00  -0.00   0.00
  59   1    -0.00  -0.00  -0.00    -0.00  -0.00   0.00    -0.00  -0.00  -0.00
  60   1     0.00   0.00   0.00    -0.00  -0.00  -0.00    -0.00  -0.00  -0.00
  61   1     0.00   0.00  -0.00    -0.00  -0.00   0.00    -0.00  -0.00   0.00
  62   1    -0.00   0.00  -0.00     0.00  -0.00   0.00     0.00  -0.00   0.00
  63   1     0.00   0.00   0.00    -0.00  -0.00  -0.00     0.00   0.00   0.00
  64   1    -0.00  -0.00   0.00    -0.00  -0.00   0.00    -0.01  -0.02   0.03
  65   1    -0.00   0.00  -0.00     0.02  -0.01   0.02     0.13  -0.06   0.14
  66   1     0.00   0.00   0.00    -0.01  -0.00  -0.01     0.01   0.00   0.02
  67   1    -0.00   0.00   0.00     0.08  -0.02  -0.00    -0.00   0.00   0.00
  68   1    -0.00   0.00  -0.00     0.04  -0.04   0.08    -0.00   0.00  -0.00
  69   1     0.00   0.00  -0.00    -0.11  -0.02   0.17     0.00   0.00  -0.01
  70   1     0.00  -0.00  -0.00    -0.32   0.09   0.01     0.02  -0.00  -0.00
  71   1     0.00  -0.00   0.00    -0.36   0.33  -0.72     0.02  -0.02   0.03
  72   1    -0.00  -0.00   0.00    -0.04  -0.01   0.00    -0.88  -0.11   0.01
  73   1     0.00   0.00  -0.00    -0.00  -0.00   0.01    -0.10  -0.02   0.18
  74   1    -0.00  -0.00  -0.00     0.00   0.00   0.00     0.04   0.00   0.06
  75   1    -0.00  -0.00   0.00     0.00   0.00  -0.00    -0.01  -0.00  -0.00
  76   1     0.00   0.00  -0.00     0.00   0.00  -0.00    -0.10  -0.02   0.19
  77   1     0.00   0.00  -0.01    -0.00  -0.00   0.01     0.01   0.01  -0.02
  78   1    -0.01   0.00  -0.01     0.00  -0.00   0.00    -0.01   0.00  -0.01
  79   1     0.03   0.01   0.01     0.00   0.00   0.00     0.01   0.00   0.01
  80   1     0.01  -0.01   0.01     0.00  -0.00   0.00     0.01  -0.01   0.00
  81   1    -0.00   0.01  -0.00    -0.00  -0.00   0.00     0.00  -0.01   0.00
  82   1     0.01  -0.00   0.01    -0.00   0.00  -0.00    -0.00   0.00  -0.00
  83   1     0.01   0.01   0.01    -0.00  -0.00  -0.00     0.00   0.00   0.00
  84   1    -0.00   0.03  -0.01    -0.00   0.00   0.00    -0.00   0.00  -0.00
  85   1     0.05  -0.23  -0.21     0.00  -0.00  -0.00    -0.00   0.00   0.00
  86   1    -0.08   0.05  -0.36    -0.00   0.00  -0.00     0.00  -0.00   0.00
  87   1    -0.21   0.50  -0.18    -0.00   0.00  -0.00     0.00  -0.00   0.00
  88   1    -0.07   0.32   0.28    -0.00   0.00   0.00     0.00  -0.00  -0.00
  89   1     0.08  -0.06   0.40     0.00  -0.00   0.00    -0.00   0.00  -0.00
                    256                    257                    258
                        a                      a                      a 
 Frequencies --  3102.8961              3103.4096              3105.0058
 Red. masses --     1.8536                 1.8751                 1.8544
 Frc consts  --     0.0000                 0.0000                 0.0000
 IR Inten    --    58.4859               107.6579                21.8266
 Raman Activ --     0.0000                 0.0000                 0.0000
 Depolar     --     0.0000                 0.0000                 0.0000
 Atom AN      X      Y      Z        X      Y      Z        X      Y      Z
   1   6     0.00  -0.00   0.00     0.00  -0.00   0.00    -0.00   0.00  -0.00
   2   6     0.00  -0.00   0.00     0.00  -0.00   0.00    -0.00   0.00  -0.00
   3   6     0.00  -0.00   0.00     0.01  -0.01   0.00    -0.00   0.00  -0.00
   4   6    -0.00   0.00   0.00    -0.00  -0.00   0.00    -0.00  -0.00  -0.00
   5   6    -0.00  -0.00  -0.00     0.01   0.00   0.00    -0.00  -0.00  -0.00
   6   6    -0.00  -0.00   0.00     0.00   0.01  -0.00    -0.00  -0.00   0.00
   7   6     0.00  -0.00   0.00    -0.00   0.00  -0.00    -0.00   0.00  -0.00
   8   6     0.00   0.00  -0.00     0.00   0.00   0.00    -0.00  -0.00  -0.00
   9   6    -0.00  -0.00   0.00     0.00   0.00   0.00     0.00   0.00  -0.00
  10   7     0.00  -0.00   0.00     0.00  -0.00  -0.00    -0.00  -0.00  -0.00
  11   6    -0.00   0.00  -0.00     0.00  -0.00   0.00     0.00   0.00   0.00
  12   6    -0.02  -0.03   0.05     0.01   0.01  -0.01     0.00   0.00  -0.00
  13   6     0.17  -0.08   0.17    -0.05   0.02  -0.05    -0.01   0.00  -0.01
  14   6     0.01   0.00   0.00    -0.00  -0.00  -0.00    -0.00  -0.00  -0.00
  15   6     0.00  -0.00   0.00    -0.00  -0.00  -0.00    -0.00  -0.00   0.00
  16   6    -0.00  -0.00   0.00    -0.00  -0.00  -0.00    -0.01  -0.00  -0.01
  17   6     0.00   0.00   0.00    -0.00  -0.00  -0.00     0.00   0.00  -0.00
  18   6    -0.00  -0.00   0.00     0.00   0.00  -0.00     0.00   0.00  -0.00
  19   6    -0.00   0.00  -0.00     0.00  -0.00   0.00     0.00  -0.00   0.00
  20   6    -0.00   0.00  -0.00     0.00  -0.00   0.00     0.00  -0.00   0.00
  21   6     0.00   0.00  -0.00    -0.00  -0.00   0.00    -0.00  -0.00   0.00
  22   6     0.00  -0.00  -0.00    -0.00   0.00  -0.00    -0.00   0.00  -0.00
  23   6     0.00  -0.00   0.00    -0.00   0.00  -0.00    -0.00   0.00  -0.00
  24   7    -0.00  -0.00  -0.00     0.00   0.00   0.00     0.00   0.00  -0.00
  25   6     0.00  -0.00   0.00    -0.00   0.00  -0.00    -0.00  -0.00   0.00
  26   6     0.00   0.00   0.00    -0.00  -0.00  -0.00     0.00   0.00   0.01
  27   6     0.06   0.01  -0.00    -0.01  -0.00  -0.00     0.05   0.01  -0.00
  28   6     0.01   0.00  -0.01    -0.00  -0.00   0.00     0.01   0.00  -0.02
  29   6    -0.00  -0.00  -0.00     0.00   0.00   0.00    -0.01  -0.00  -0.03
  30   6    -0.00  -0.00   0.00    -0.00  -0.00  -0.00    -0.06  -0.01   0.00
  31   6     0.00   0.00  -0.00    -0.00  -0.00   0.00    -0.12  -0.02   0.23
  32   7    -0.00   0.00  -0.00     0.00  -0.00   0.00    -0.00  -0.00  -0.00
  33   6     0.00   0.01  -0.01    -0.00  -0.00   0.00    -0.00  -0.00   0.00
  34   6    -0.01   0.00  -0.01     0.00  -0.00   0.00     0.00  -0.00   0.00
  35   6    -0.00   0.00  -0.00    -0.00  -0.00  -0.00     0.00  -0.00   0.00
  36   6     0.00   0.00   0.00     0.00   0.01   0.00    -0.00  -0.00  -0.00
  37   6     0.05   0.01   0.02     0.19   0.04   0.08    -0.00  -0.00  -0.00
  38   6     0.03  -0.03   0.02     0.10  -0.12   0.06    -0.00   0.00  -0.00
  39   6    -0.00  -0.00  -0.00    -0.00  -0.01  -0.00     0.00   0.00   0.00
  40   6    -0.00   0.00  -0.00    -0.00   0.00  -0.00     0.00  -0.00   0.00
  41   6    -0.00  -0.00  -0.00    -0.00  -0.00  -0.00     0.00   0.00   0.00
  42   6     0.00  -0.00   0.00     0.00  -0.00   0.00    -0.00   0.00  -0.00
  43   6     0.00  -0.00   0.00    -0.00   0.00  -0.00    -0.00   0.00  -0.00
  44   6     0.00   0.00   0.00    -0.00  -0.00  -0.00    -0.00  -0.00  -0.00
  45   6    -0.00  -0.00  -0.00     0.00  -0.01   0.00     0.00  -0.00   0.00
  46   6    -0.00   0.00  -0.00     0.00   0.00   0.00     0.00  -0.00   0.00
  47   7     0.00   0.00   0.00     0.00   0.00   0.00    -0.00   0.00  -0.00
  48   6    -0.00   0.00  -0.00    -0.00   0.00  -0.00     0.00  -0.00   0.00
  49   6    -0.00   0.00   0.00    -0.00   0.01   0.01     0.00  -0.00  -0.00
  50   6     0.00  -0.00   0.00     0.00  -0.00   0.00    -0.00   0.00  -0.00
  51   6     0.00  -0.00   0.00     0.00  -0.00   0.00    -0.00   0.00  -0.00
  52   6     0.00  -0.00  -0.00     0.00  -0.00  -0.00    -0.00   0.00   0.00
  53   6    -0.00   0.00  -0.00    -0.00   0.00  -0.00     0.00  -0.00   0.00
  54   1     0.00   0.00   0.00    -0.00  -0.01   0.00     0.00   0.00   0.00
  55   1     0.00  -0.00   0.00     0.00   0.00   0.00    -0.00  -0.00  -0.00
  56   1    -0.00   0.00  -0.00    -0.02   0.02  -0.01     0.00  -0.00   0.00
  57   1     0.00  -0.00  -0.00     0.01  -0.00  -0.00    -0.00   0.00   0.00
  58   1    -0.01   0.01  -0.00    -0.04   0.03  -0.01     0.00  -0.00   0.00
  59   1     0.00  -0.00  -0.00    -0.00  -0.01  -0.00     0.00   0.00   0.00
  60   1     0.00   0.00   0.00    -0.03  -0.01  -0.00     0.00   0.00   0.00
  61   1     0.00   0.00  -0.00    -0.01  -0.02   0.00     0.00   0.00  -0.00
  62   1    -0.00   0.00  -0.00     0.01  -0.01   0.00     0.00  -0.00   0.00
  63   1    -0.01  -0.00  -0.00    -0.01  -0.00  -0.00     0.00   0.00   0.00
  64   1     0.05   0.09  -0.15    -0.02  -0.03   0.04    -0.00  -0.00   0.00
  65   1    -0.59   0.27  -0.60     0.16  -0.07   0.16     0.02  -0.01   0.02
  66   1    -0.00  -0.00  -0.00     0.00   0.00   0.01     0.02   0.00   0.04
  67   1     0.01  -0.00  -0.00    -0.00   0.00   0.00    -0.00   0.00   0.00
  68   1     0.00  -0.00   0.00    -0.00   0.00  -0.00    -0.00   0.00  -0.00
  69   1    -0.00  -0.00   0.00     0.00   0.00  -0.00     0.00   0.00  -0.00
  70   1    -0.00   0.00   0.00     0.00  -0.00  -0.00    -0.00   0.00   0.00
  71   1    -0.01   0.01  -0.01     0.00  -0.00   0.00     0.00  -0.00   0.01
  72   1    -0.20  -0.03   0.00     0.03   0.00  -0.00    -0.18  -0.02   0.00
  73   1    -0.02  -0.00   0.04     0.00   0.00  -0.01    -0.03  -0.01   0.06
  74   1     0.01   0.00   0.01    -0.00  -0.00  -0.00     0.05   0.00   0.08
  75   1     0.00   0.00  -0.00     0.00   0.00  -0.00     0.19   0.03  -0.00
  76   1    -0.01  -0.00   0.01     0.00   0.00  -0.01     0.42   0.08  -0.81
  77   1    -0.01  -0.03   0.04     0.01   0.01  -0.02     0.00   0.00  -0.00
  78   1     0.02  -0.01   0.02    -0.00   0.00  -0.00    -0.00   0.00  -0.00
  79   1    -0.18  -0.04  -0.07    -0.66  -0.15  -0.26     0.01   0.00   0.00
  80   1    -0.09   0.11  -0.06    -0.32   0.41  -0.21     0.00  -0.00   0.00
  81   1    -0.00   0.02  -0.00    -0.00   0.01  -0.00     0.00  -0.00   0.00
  82   1    -0.01   0.00  -0.01     0.02  -0.01   0.01     0.00  -0.00   0.00
  83   1    -0.00  -0.00  -0.00     0.02   0.02   0.01     0.00   0.00   0.00
  84   1    -0.00   0.00  -0.00    -0.00   0.03  -0.01    -0.00   0.00  -0.00
  85   1     0.00  -0.01  -0.00     0.00  -0.02  -0.02    -0.00   0.00   0.00
  86   1    -0.00   0.00  -0.00    -0.00   0.00  -0.01     0.00  -0.00   0.00
  87   1    -0.00   0.00  -0.00    -0.00   0.01  -0.00     0.00  -0.00   0.00
  88   1    -0.00   0.00   0.00    -0.00   0.01   0.01     0.00  -0.00  -0.00
  89   1     0.00  -0.00   0.00     0.00  -0.00   0.02    -0.00   0.00  -0.00
                    259                    260                    261
                        a                      a                      a 
 Frequencies --  3108.6769              3120.5148              3139.7313
 Red. masses --     1.8305                 1.8266                 1.8254
 Frc consts  --     0.0000                 0.0000                 0.0000
 IR Inten    --    40.1873                37.7801                36.8944
 Raman Activ --     0.0000                 0.0000                 0.0000
 Depolar     --     0.0000                 0.0000                 0.0000
 Atom AN      X      Y      Z        X      Y      Z        X      Y      Z
   1   6     0.00   0.00  -0.00    -0.00   0.00   0.00     0.00  -0.00  -0.00
   2   6     0.00   0.00   0.00     0.00   0.00  -0.00     0.00   0.00   0.00
   3   6     0.00   0.00   0.00    -0.00   0.00  -0.00     0.00   0.00   0.00
   4   6    -0.00  -0.00   0.00    -0.00  -0.00  -0.00     0.00   0.00   0.00
   5   6     0.00   0.00   0.00    -0.01  -0.00  -0.00     0.00   0.00   0.00
   6   6     0.00   0.00  -0.00    -0.01  -0.02   0.00     0.00   0.00  -0.00
   7   6    -0.00   0.00  -0.00     0.03  -0.03   0.01    -0.00   0.00  -0.00
   8   6     0.00   0.00   0.00     0.26   0.05   0.02     0.00   0.00   0.00
   9   6     0.00   0.00   0.00     0.00   0.01   0.00     0.00   0.00  -0.00
  10   7    -0.00  -0.00  -0.00     0.00  -0.00   0.00     0.00  -0.00   0.00
  11   6     0.00   0.00  -0.00    -0.00   0.00  -0.00     0.00   0.00   0.00
  12   6     0.00   0.00  -0.00    -0.00  -0.00   0.00    -0.00  -0.01   0.01
  13   6     0.00  -0.00   0.00    -0.00   0.00  -0.00     0.00  -0.00   0.00
  14   6    -0.00  -0.00   0.00    -0.00  -0.00  -0.00     0.00   0.00  -0.00
  15   6     0.01   0.00   0.00     0.00   0.00  -0.00     0.00   0.00  -0.00
  16   6     0.14   0.02   0.23    -0.00  -0.00  -0.00     0.00   0.00   0.00
  17   6    -0.00  -0.00   0.01     0.00   0.00  -0.00    -0.00  -0.00   0.00
  18   6     0.00  -0.00  -0.00    -0.00   0.00  -0.00    -0.00   0.00   0.00
  19   6     0.02  -0.01  -0.00    -0.00   0.00  -0.00     0.00  -0.00   0.00
  20   6     0.00  -0.00   0.00    -0.00   0.00  -0.00     0.00  -0.00   0.00
  21   6    -0.00  -0.00   0.00     0.00   0.00  -0.00     0.00   0.00  -0.00
  22   6    -0.00   0.00   0.00    -0.00   0.00  -0.00     0.00  -0.00   0.00
  23   6     0.00   0.00  -0.00    -0.00   0.00  -0.00     0.00  -0.00   0.00
  24   7     0.00   0.00  -0.00    -0.00  -0.00   0.00    -0.00  -0.00  -0.00
  25   6    -0.00  -0.00  -0.00     0.00   0.00   0.00     0.00  -0.00   0.00
  26   6     0.00   0.00   0.00    -0.00   0.00   0.00    -0.00  -0.00  -0.00
  27   6     0.01   0.00  -0.00     0.00   0.00   0.00    -0.00  -0.00  -0.00
  28   6     0.00   0.00  -0.00    -0.00  -0.00   0.00    -0.00  -0.00   0.00
  29   6    -0.00  -0.00  -0.00     0.00   0.00   0.00    -0.00  -0.00   0.00
  30   6    -0.00  -0.00   0.00     0.00   0.00  -0.00    -0.00  -0.00  -0.00
  31   6    -0.00  -0.00   0.01    -0.00  -0.00   0.00    -0.00  -0.00   0.00
  32   7    -0.00  -0.00  -0.00    -0.00  -0.00   0.00    -0.00   0.00  -0.00
  33   6    -0.01  -0.01   0.02     0.00   0.00  -0.00    -0.00   0.00  -0.00
  34   6     0.00  -0.00   0.00    -0.00   0.00  -0.00     0.00   0.00  -0.00
  35   6     0.00  -0.00   0.00    -0.00   0.00  -0.00    -0.00   0.00  -0.00
  36   6    -0.00   0.00  -0.00     0.00   0.00   0.00     0.00   0.00   0.00
  37   6     0.00   0.00   0.00    -0.00  -0.00  -0.00     0.00   0.00   0.00
  38   6     0.00  -0.00   0.00    -0.00   0.00  -0.00     0.00  -0.00   0.00
  39   6    -0.00  -0.00  -0.00     0.00   0.00   0.00    -0.00   0.00  -0.00
  40   6    -0.00   0.00  -0.00     0.00  -0.00   0.00     0.00  -0.00   0.00
  41   6    -0.00  -0.00  -0.00     0.00  -0.00   0.00     0.00   0.01   0.00
  42   6     0.00  -0.00   0.00     0.00  -0.00   0.00    -0.02   0.26  -0.08
  43   6    -0.00   0.00  -0.00     0.00  -0.00   0.00    -0.02   0.01  -0.02
  44   6    -0.00  -0.00  -0.00     0.00   0.00   0.00    -0.00  -0.01  -0.00
  45   6     0.00  -0.00   0.00    -0.00   0.00  -0.00     0.00  -0.00   0.00
  46   6     0.00   0.00   0.00    -0.00  -0.00  -0.00    -0.00  -0.00   0.00
  47   7    -0.00   0.00  -0.00    -0.00  -0.00  -0.00    -0.00   0.00  -0.00
  48   6    -0.00  -0.00   0.00    -0.00   0.00  -0.00     0.00  -0.00   0.00
  49   6    -0.00   0.00   0.00     0.00  -0.00  -0.00    -0.00   0.00   0.00
  50   6     0.00  -0.00   0.00    -0.00   0.00  -0.00     0.00  -0.00   0.00
  51   6     0.00  -0.00   0.00    -0.00   0.00  -0.00     0.00  -0.00   0.00
  52   6     0.00  -0.00  -0.00    -0.00   0.00   0.00     0.00  -0.00  -0.00
  53   6    -0.00   0.00  -0.00     0.00  -0.00   0.00    -0.00   0.00  -0.00
  54   1    -0.00  -0.00  -0.00     0.00   0.00   0.00    -0.00  -0.00   0.00
  55   1     0.00   0.00   0.00    -0.00  -0.00  -0.00     0.00   0.00   0.00
  56   1    -0.00   0.00  -0.00     0.00  -0.00   0.00    -0.00   0.00  -0.00
  57   1     0.00   0.00   0.00    -0.00   0.00  -0.00     0.00   0.00  -0.00
  58   1    -0.00   0.00  -0.00     0.00  -0.00   0.00    -0.00   0.00  -0.00
  59   1    -0.00  -0.00  -0.00     0.00   0.00  -0.00    -0.00  -0.00  -0.00
  60   1    -0.00  -0.00  -0.00     0.03   0.01   0.00    -0.00  -0.00  -0.00
  61   1    -0.00  -0.00   0.00     0.02   0.05  -0.00    -0.00  -0.00   0.00
  62   1     0.00  -0.00   0.00    -0.09   0.10  -0.01     0.00  -0.00   0.00
  63   1    -0.00  -0.00  -0.00    -0.93  -0.20  -0.06    -0.00  -0.00  -0.00
  64   1    -0.00  -0.00   0.01     0.00   0.01  -0.01     0.01   0.03  -0.03
  65   1    -0.00   0.00  -0.00     0.01  -0.00   0.01    -0.01   0.00  -0.01
  66   1    -0.49  -0.08  -0.81     0.00   0.00   0.00    -0.00  -0.00  -0.00
  67   1    -0.07   0.02   0.00     0.00  -0.00   0.00    -0.00   0.00  -0.00
  68   1    -0.01   0.01  -0.01     0.00  -0.00   0.00    -0.00   0.00  -0.00
  69   1     0.01   0.00  -0.01    -0.00  -0.00   0.00    -0.00  -0.00   0.00
  70   1     0.01  -0.00  -0.00     0.00  -0.00   0.00    -0.00   0.00  -0.00
  71   1    -0.00  -0.00   0.00     0.00  -0.00   0.00    -0.00   0.00  -0.00
  72   1    -0.02  -0.00  -0.00    -0.00  -0.00   0.00     0.00   0.00   0.00
  73   1    -0.01  -0.00   0.01     0.00   0.00  -0.00     0.00   0.00  -0.00
  74   1     0.01   0.00   0.01    -0.00  -0.00  -0.00    -0.00  -0.00  -0.00
  75   1     0.01   0.00  -0.00    -0.00  -0.00  -0.00     0.00   0.00  -0.00
  76   1     0.02   0.00  -0.03     0.00   0.00  -0.00     0.00   0.00  -0.00
  77   1     0.03   0.05  -0.07    -0.00  -0.00   0.00    -0.00  -0.00   0.00
  78   1    -0.01   0.01  -0.01     0.00  -0.00   0.00     0.00  -0.00   0.00
  79   1    -0.00  -0.00  -0.00     0.01   0.00   0.00    -0.01  -0.00  -0.00
  80   1    -0.00   0.00  -0.00     0.00  -0.01   0.00    -0.00   0.00  -0.00
  81   1    -0.00   0.00  -0.00    -0.00   0.00  -0.00     0.07  -0.91   0.29
  82   1     0.00  -0.00   0.00    -0.00   0.00  -0.00     0.06  -0.03   0.06
  83   1     0.00   0.00   0.00    -0.00  -0.00  -0.00     0.02   0.02   0.01
  84   1    -0.00   0.00  -0.00     0.00  -0.00   0.00    -0.00   0.01  -0.00
  85   1     0.00  -0.00  -0.00    -0.00   0.00   0.00     0.00  -0.00  -0.00
  86   1    -0.00   0.00  -0.00     0.00  -0.00   0.00    -0.00   0.00  -0.00
  87   1    -0.00   0.00  -0.00    -0.00  -0.00   0.00    -0.00   0.00  -0.00
  88   1    -0.00   0.00   0.00     0.00  -0.00  -0.00    -0.00   0.00   0.00
  89   1     0.00  -0.00   0.00    -0.00   0.00  -0.00     0.00  -0.00   0.00
