$hessian                                                                        
        0.6279946404   0.0197877074  -0.0375619268  -0.3327475739  -0.0152800857
        0.0211983570  -0.0416211527  -0.0463854747   0.0231540093   0.0154905704
        0.0034552778  -0.0021043666   0.0011696864  -0.0000590644  -0.0013569096
       -0.0029785571  -0.0063431778   0.0015935422   0.0158868055   0.0014461811
       -0.0048277445  -0.0157054873  -0.0038926769   0.0048867605   0.0076583160
       -0.0046813695  -0.0019579920  -0.0041120879  -0.0042318845   0.0021142544
        0.0034784545   0.0008808926  -0.0016954804  -0.0052706872   0.0022083511
        0.0017823126   0.0051536644   0.0075461832  -0.0029125218   0.0000343326
        0.0004657088   0.0000431048   0.0015196397  -0.0025571867  -0.0004433247
       -0.0039535310   0.0020215110   0.0013718174   0.0030437740   0.0037550082
       -0.0008775037  -0.0002966879  -0.0034596021   0.0001858186  -0.0002865496
        0.0008187580   0.0002664009  -0.0075989851   0.0050298384   0.0009168936
        0.0018578641  -0.0003629381   0.0007823203  -0.0242749753  -0.0046548331
        0.0019861498   0.0384546399   0.0411895472  -0.0209683341   0.0025186667
       -0.0057219463   0.0026946941  -0.0015064829  -0.0004040377  -0.0003120457
        0.0004517197   0.0000691286   0.0002283304  -0.0001199040   0.0001330846
       -0.0002118300   0.0001674214  -0.0001057538   0.0000827180   0.0000733006
       -0.0000058543  -0.0000228250  -0.0000170134  -0.0004781920  -0.0000045610
        0.0004879690  -0.0001578599   0.0001712567   0.0000145725   0.0000135898
        0.0000391922   0.0000872585  -0.0001204334   0.0000142529  -0.0000936965
        0.0002629779   0.0000072799  -0.0001300649  -0.0003255228  -0.0002234189
        0.0005417413   0.0014743962   0.0001727822  -0.1712814218   0.0553542353
       -0.0165338258  -0.0679566581  -0.0660461313   0.0341015340  -0.0240309635
       -0.0005109673   0.0025053106   0.0000878542   0.0000370801  -0.0001627087
        0.0000214578   0.0001443249   0.0004615571   0.0000640225   0.0000878383
        0.0001055252   0.0000051047  -0.0000401183  -0.0000037738   0.0000033557
       -0.0000059513  -0.0000011987   0.0000137324   0.0000215741   0.0000276093
       -0.0000235704  -0.0000300695  -0.0000621248  -0.0000239893   0.0000462131
       -0.0000349797  -0.0000329741   0.0000716076  -0.0000802714  -0.0000294828
        0.0000223048   0.0000339526   0.0000617561   0.0003356680   0.0000219768
       -0.0000182845   0.0004116036   0.0002108618  -0.0003826582  -0.0000082380
       -0.0003678106   0.0000189311   0.0000267183  -0.0000057774  -0.0000387930
        0.0000196414  -0.0000080618   0.0000332816   0.0000418772  -0.0000411379
        0.0000096377  -0.0000059123  -0.0000197674   0.0000136369   0.0000371881
       -0.0000068529  -0.0000128231  -0.0000270323  -0.0000333845  -0.0000255467
        0.0000787075   0.0000421890  -0.0218472062   0.0186075900  -0.0083603040
        0.0197877074   0.5458403771  -0.2117171338  -0.0854174311  -0.0887932789
        0.0272467013  -0.0178125773  -0.0058989416   0.0051067053  -0.0052671649
       -0.0055506355   0.0041381175  -0.0003553573   0.0002563277   0.0000407267
        0.0013402677   0.0025623924  -0.0006576768  -0.0062204775  -0.0003601063
        0.0017369036   0.0060597620   0.0015040048  -0.0019062790  -0.0029389260
        0.0018735000   0.0007265817   0.0015027357   0.0016250665  -0.0007733947
       -0.0013676324  -0.0002215864   0.0006678498   0.0021124155  -0.0009353261
       -0.0006754620  -0.0020670839  -0.0028638857   0.0011608170   0.0000631485
       -0.0003260268  -0.0000405368  -0.0006598331   0.0011001123   0.0002074441
        0.0015888250  -0.0008876739  -0.0005454458  -0.0012058538  -0.0014827635
        0.0003328243   0.0001706968   0.0013438454  -0.0000977415  -0.0000370397
       -0.0003146728  -0.0000611900   0.0033286338  -0.0023826772  -0.0002992868
       -0.0024027696  -0.0005569887  -0.0000816807   0.0069024265   0.0055061658
       -0.0037178359   0.0004731052  -0.0459672476   0.0215079975  -0.0015597452
       -0.0032292703   0.0035686590   0.0002948490  -0.0003600020   0.0002170303
       -0.0003280383   0.0000986661  -0.0002481905   0.0000910427   0.0000828615
        0.0001581249  -0.0000151387   0.0001674993   0.0000446909  -0.0001311072
       -0.0001688651  -0.0001589809   0.0003668177  -0.0000301107   0.0000030441
        0.0001733922  -0.0002962406  -0.0001908228   0.0001942422   0.0001588377
        0.0001004579  -0.0001030462  -0.0000673712  -0.0000752596  -0.0000712706
       -0.0000512788  -0.0000384991  -0.0001124422   0.0001104092  -0.0000387209
        0.0001918834  -0.0005228879   0.0006773899   0.1304050198  -0.1799253409
        0.0580019412  -0.0659602963  -0.2266942157   0.0968011781   0.0206541231
        0.0020498603  -0.0009305218  -0.0002146201   0.0000543229   0.0001034076
       -0.0000004018  -0.0000653130  -0.0001075866  -0.0000280657  -0.0000859035
       -0.0000185292   0.0000262480  -0.0000157198  -0.0000017033   0.0000382250
        0.0000111405  -0.0000179609   0.0000036502   0.0000155400  -0.0000207418
        0.0000118306   0.0000106134  -0.0000052864   0.0000147026   0.0000163680
        0.0000141682  -0.0000085057  -0.0000024600   0.0000387594  -0.0000276021
        0.0000237137   0.0000152487  -0.0000356832   0.0000724146  -0.0000167816
        0.0001692461   0.0002468057  -0.0005152655   0.0003202438   0.0001117905
        0.0003075298  -0.0000267959  -0.0000331425  -0.0000234056  -0.0000011322
        0.0000009866  -0.0000026650  -0.0000234358  -0.0000107287   0.0000240019
       -0.0000213896  -0.0000132262   0.0000192478  -0.0000017210  -0.0000129138
       -0.0000051940   0.0000213618   0.0000222888   0.0000231859   0.0000543703
       -0.0000943677   0.0000232099  -0.0019383882   0.0033552582  -0.0000241649
       -0.0375619268  -0.2117171338   0.2115743206   0.0548743021   0.0248321010
       -0.0564059088   0.0106246068   0.0043692004  -0.0007516258   0.0017282966
        0.0038424907   0.0013547200  -0.0002475479   0.0000475350  -0.0005000595
       -0.0006070887  -0.0011501809   0.0002681243   0.0023972994   0.0005551053
       -0.0007613080  -0.0025000035  -0.0006603370   0.0006841904   0.0011859896
       -0.0007647448  -0.0003507000  -0.0006608457  -0.0007421186   0.0003365851
        0.0004908802   0.0002531669  -0.0002675565  -0.0006532749   0.0003285168
        0.0002620411   0.0006922827   0.0013027550  -0.0003752184   0.0000134362
       -0.0000481916  -0.0000369388   0.0002241620  -0.0002209862  -0.0000551035
       -0.0004409912   0.0002655772   0.0001929015   0.0003698529   0.0005144774
       -0.0001228969  -0.0000212263  -0.0005307659   0.0000333857  -0.0000097244
        0.0002325664   0.0000416388  -0.0010746623   0.0007935862   0.0004578299
        0.0014655290   0.0006540605  -0.0003110546  -0.0015478636  -0.0030904099
       -0.0009153953  -0.0044496828   0.0187343843  -0.0096604319   0.0021169704
        0.0042141950   0.0041504090   0.0001299306  -0.0005333001   0.0001883810
       -0.0000113615   0.0000532881   0.0000599057  -0.0000710862  -0.0000662504
       -0.0000460705  -0.0000025579  -0.0000175821  -0.0000196320   0.0000383189
       -0.0000105453   0.0000230852   0.0002310367   0.0000545232  -0.0000055124
        0.0000955651   0.0003203379   0.0000245358  -0.0000919968   0.0000482889
       -0.0000273063   0.0000126568  -0.0000085087  -0.0000069807   0.0000060285
        0.0000483998   0.0000316759  -0.0001378867  -0.0000977650  -0.0000817643
       -0.0007497621   0.0011917563  -0.0004734776  -0.0530305957   0.0633360826
       -0.0693033864   0.0338431389   0.0967757676  -0.0832249866  -0.0094150646
       -0.0001016429   0.0021370632   0.0000274329  -0.0000871859  -0.0000080668
        0.0000076182   0.0000488944   0.0002146995   0.0000220121   0.0000314511
        0.0000279303  -0.0000139839   0.0000134376   0.0000122868  -0.0000215778
       -0.0000049540   0.0000008403  -0.0000069589  -0.0000100245   0.0000061215
       -0.0000208399  -0.0000004189  -0.0000501606  -0.0000045369  -0.0000141252
        0.0000028832   0.0000048362  -0.0000054531  -0.0000248207   0.0000253568
       -0.0000156861   0.0000151581   0.0000372157  -0.0000453792  -0.0001078118
       -0.0001130704  -0.0002839449  -0.0000920561  -0.0000676852  -0.0000727781
       -0.0000656239   0.0000212555   0.0000174517   0.0000155008   0.0000125164
       -0.0000034751  -0.0000090477   0.0000057249  -0.0000052468   0.0000290535
       -0.0000103888   0.0000283108   0.0000198530   0.0000081335   0.0000013804
       -0.0000017819  -0.0000044220   0.0000044277  -0.0000026867   0.0000110745
        0.0000239949  -0.0000110945   0.0028251535  -0.0026283761   0.0019113453
       -0.3327475739  -0.0854174311   0.0548743021   0.6803658942  -0.0291769998
       -0.0069978492  -0.0712832435  -0.0248180302   0.0139473517  -0.0340704996
       -0.0323827047   0.0144751896  -0.0017929913  -0.0002724768   0.0016653241
        0.0035265278   0.0065145833  -0.0017527264  -0.0173349347  -0.0017336279
        0.0052570283   0.0172626769   0.0042335843  -0.0053170197  -0.0083351439
        0.0052652752   0.0021642319   0.0044453894   0.0047586073  -0.0023629916
       -0.0038282717  -0.0009743093   0.0018258273   0.0057945256  -0.0025647324
       -0.0019835638  -0.0055920476  -0.0083196175   0.0032349165   0.0000301908
       -0.0007368930  -0.0000601049  -0.0017740483   0.0028858411   0.0005345792
        0.0043677524  -0.0023259970  -0.0015495716  -0.0033669689  -0.0040925881
        0.0009786196   0.0004380982   0.0037921185  -0.0002320921  -0.0000476531
       -0.0008190876  -0.0002825965   0.0074629661  -0.0072147799  -0.0012337332
       -0.0064983783   0.0010460487   0.0002780054   0.0218062865   0.0138213899
       -0.0053032510  -0.0167616768  -0.0162901271   0.0076813863  -0.0008356203
        0.0004650193  -0.0004274102   0.0008487846   0.0000965185   0.0003504349
       -0.0001069823  -0.0000519149  -0.0001326324  -0.0000404958  -0.0001195864
        0.0001082418  -0.0000655636  -0.0001363733  -0.0000747537   0.0001614193
        0.0001833733   0.0001603905  -0.0002502409   0.0000708323  -0.0001694734
       -0.0000435842   0.0002967159  -0.0000463520  -0.0000814983  -0.0001947417
       -0.0001075265   0.0000731592   0.0000665680   0.0000438620  -0.0000307748
       -0.0000233920   0.0000952848   0.0000097671   0.0000938431   0.0001321691
       -0.0000062385  -0.0007599855  -0.0000184414  -0.0702557077   0.0565442157
       -0.0239088403  -0.0122371341  -0.0047575900   0.0024639953  -0.1517916620
        0.1171606345  -0.0572976784  -0.0025993371  -0.0007373095   0.0012062603
        0.0000162946  -0.0000757266  -0.0004444216  -0.0000934330  -0.0000141902
       -0.0001041965   0.0000005611   0.0000291753   0.0000010265  -0.0000319730
       -0.0000038596   0.0000194645   0.0000019536  -0.0000192397  -0.0000422496
        0.0000149974   0.0000134444   0.0000647202   0.0000315583  -0.0000345407
        0.0000370722   0.0000244073  -0.0000605175   0.0000995322  -0.0000252245
       -0.0000100774  -0.0000252629  -0.0000519607  -0.0000617372   0.0000853618
       -0.0026505470   0.0033287539  -0.0015801830   0.0000632393   0.0001527432
        0.0000555975  -0.0000245549   0.0000116813  -0.0000124606   0.0000160659
       -0.0000005582  -0.0000206965  -0.0000299844  -0.0000151020   0.0000171322
       -0.0000219603   0.0000015126   0.0000313557   0.0000097307   0.0000051327
       -0.0000225011  -0.0000094047   0.0000081422   0.0000157977   0.0000428964
       -0.0000303416  -0.0001351880  -0.0020978292   0.0034004321  -0.0002586933
       -0.0152800857  -0.0887932789   0.0248321010  -0.0291769998   0.4853186071
       -0.1856241220  -0.0272688400  -0.1935232118   0.0686579574  -0.0411570048
       -0.0122814028   0.0065814224   0.0011078935  -0.0018170939   0.0027033369
        0.0034954627   0.0090861895  -0.0025050439  -0.0219540241  -0.0037828301
        0.0066633888   0.0228676876   0.0058289900  -0.0067595505  -0.0112767806
        0.0070966824   0.0029623124   0.0062112787   0.0067498410  -0.0033446509
       -0.0048392892  -0.0019250125   0.0024463017   0.0070742440  -0.0032397265
       -0.0025139714  -0.0069138542  -0.0117562555   0.0041914748  -0.0002882183
       -0.0000766032   0.0000403148  -0.0022439814   0.0032157442   0.0006692927
        0.0053943798  -0.0028620234  -0.0019319935  -0.0042073482  -0.0053835901
        0.0012227499   0.0005919582   0.0050865176  -0.0003102545   0.0004717773
       -0.0011879551  -0.0006448133   0.0084662902  -0.0068535951  -0.0014015633
       -0.0011215480   0.0028011149   0.0008423730   0.0099868380  -0.0313313316
        0.0185496491  -0.0039154782   0.0060579776  -0.0056170379   0.0021307407
       -0.0030139786   0.0009050033  -0.0010838095  -0.0001726908   0.0000584919
        0.0001126541   0.0002557077   0.0002099951  -0.0000605578  -0.0000071070
        0.0001219905   0.0000651293   0.0002492865   0.0000871486  -0.0001683334
       -0.0002328285  -0.0002093317   0.0000911356   0.0000167324   0.0001560065
        0.0001053516  -0.0002578676  -0.0000698258   0.0002158054   0.0003309725
        0.0002884335  -0.0003047105  -0.0001031044  -0.0002529986  -0.0001576641
       -0.0001247828   0.0001474233  -0.0002530961  -0.0000798607  -0.0002613507
        0.0004704531   0.0012873315  -0.0003359058   0.0047686758   0.0098412562
       -0.0059986312  -0.0258406649  -0.0067469171   0.0047852436   0.1158679613
       -0.1646659959   0.0647005776   0.0014686176   0.0000295070  -0.0004838145
       -0.0000098242  -0.0001594115  -0.0006331557  -0.0001058017  -0.0000979857
       -0.0001031718   0.0000352778   0.0000017718  -0.0000061578   0.0000106637
       -0.0000026280   0.0000431154  -0.0000031402  -0.0000124513  -0.0000659763
        0.0000534730   0.0000325930   0.0001084788   0.0000476263  -0.0000003919
        0.0000213776   0.0000083823  -0.0000332519   0.0001329126  -0.0000467473
       -0.0000133673  -0.0000338149   0.0000638450  -0.0002686076   0.0000871491
        0.0027593681  -0.0011800884   0.0032345765   0.0001048191  -0.0000565395
       -0.0000642086  -0.0000189797  -0.0000267138   0.0000119134   0.0000162491
       -0.0000036910  -0.0000034022  -0.0000149139  -0.0000087806   0.0000034493
       -0.0000343043  -0.0000032350   0.0000332744   0.0000229483   0.0000070019
       -0.0000605300   0.0000113641   0.0000148454   0.0000205099   0.0001135814
       -0.0000495411  -0.0000427545   0.0035340675  -0.0011729417   0.0037582857
        0.0211983570   0.0272467013  -0.0564059088  -0.0069978492  -0.1856241220
        0.1972852458   0.0227526100   0.0690183807  -0.0819525648   0.0137768909
        0.0061677703  -0.0019794239   0.0013185367  -0.0008631453  -0.0024996370
       -0.0022644882  -0.0038884331   0.0008722774   0.0098855969   0.0012968684
       -0.0029838772  -0.0096691344  -0.0023061447   0.0029418669   0.0045816479
       -0.0030021837  -0.0012674619  -0.0024772339  -0.0027178851   0.0012799255
        0.0020141381   0.0006104803  -0.0009926056  -0.0030976661   0.0014261476
        0.0010474874   0.0030469349   0.0047594766  -0.0016698474  -0.0000084615
        0.0002980614  -0.0000553617   0.0009844051  -0.0014950110  -0.0002608740
       -0.0023051692   0.0012368929   0.0008303038   0.0018008275   0.0022180457
       -0.0004156546  -0.0002510270  -0.0021392604   0.0001919317  -0.0001619476
        0.0004486472  -0.0005812555  -0.0046389850   0.0034365941   0.0009783447
        0.0017276997   0.0007301604   0.0047384949  -0.0101781969   0.0171908327
       -0.0080932991   0.0040598719  -0.0028930149  -0.0021161742  -0.0009277408
        0.0012584832  -0.0006778673   0.0003900627   0.0000889921  -0.0000660079
       -0.0000619904  -0.0000619216  -0.0000439954   0.0000891269  -0.0000194773
       -0.0000221716  -0.0000299234   0.0000216524  -0.0000107410  -0.0000425689
       -0.0000035321  -0.0000075994   0.0001126572   0.0000319451   0.0000403850
       -0.0000231514  -0.0001137948   0.0000147963  -0.0000018972   0.0000353783
       -0.0000088975   0.0000051644   0.0000299951   0.0000215420   0.0000468707
       -0.0000131075  -0.0000521064  -0.0000062667   0.0001139945   0.0001098574
       -0.0001584075  -0.0003639148   0.0001518710   0.0003200310  -0.0075826222
        0.0060784309   0.0132941695   0.0038949886  -0.0016595984  -0.0558292886
        0.0640092807  -0.0614333049  -0.0001317320   0.0005660900   0.0002728291
        0.0000244580   0.0001121649   0.0005412800   0.0000488991   0.0000352403
        0.0000847507  -0.0000179448   0.0000085533   0.0000110426   0.0000098630
        0.0000067120   0.0000058758  -0.0000090367   0.0000039958   0.0000071955
       -0.0000044285  -0.0000070466   0.0000029083  -0.0000305798  -0.0000044654
       -0.0000407567  -0.0000078670   0.0000064737  -0.0000772897   0.0000014102
        0.0000074831  -0.0000347142  -0.0000216489   0.0002028844  -0.0003084946
       -0.0010170763   0.0032272584   0.0038765805  -0.0000108021  -0.0000237294
        0.0000527111   0.0000098769   0.0000073291  -0.0000014947  -0.0000027005
       -0.0000022281   0.0000095918   0.0000085059   0.0000003271  -0.0000026021
        0.0000188528  -0.0000016940  -0.0000096100  -0.0000046979  -0.0000074117
        0.0000205300  -0.0000024875   0.0000031287  -0.0000027619  -0.0000736917
        0.0000657220  -0.0000071665  -0.0010613772   0.0033110132   0.0042730697
       -0.0416211527  -0.0178125773   0.0106246068  -0.0712832435  -0.0272688400
        0.0227526100   0.5764698607  -0.0110901567  -0.0114136370  -0.2286857056
       -0.0258356112   0.0201104508  -0.0454579848   0.0130867877  -0.0047078262
        0.0003208962  -0.0092480011   0.0020574154   0.0364961251   0.0039184664
       -0.0110476437  -0.0415112015  -0.0110358313   0.0127884794   0.0217529345
       -0.0131430032  -0.0057845785  -0.0123289639  -0.0133340987   0.0066221156
        0.0095357325   0.0041528296  -0.0048656035  -0.0135199936   0.0060512997
        0.0047487266   0.0129814641   0.0226199554  -0.0078386690   0.0009354690
       -0.0001945213  -0.0001613163   0.0046758677  -0.0064603234  -0.0013633901
       -0.0110336385   0.0059134133   0.0039224429   0.0086640742   0.0108620679
       -0.0024735722  -0.0014028969  -0.0097770963   0.0006240617  -0.0016112814
        0.0005910264   0.0006722159  -0.0084732784   0.0120151708   0.0018937427
       -0.0228104907  -0.0297617966   0.0109988287  -0.1275575263   0.0817452880
       -0.0444069303  -0.0687927828  -0.0054018722   0.0071664543  -0.0032100872
       -0.0015410095  -0.0000949349  -0.0015142908   0.0004102482   0.0002033163
        0.0000994900  -0.0001351510   0.0000832456   0.0000839415   0.0000047470
       -0.0004044782  -0.0000272063  -0.0003971574  -0.0001114810   0.0003642348
        0.0005339071   0.0002376137  -0.0005306397  -0.0002647733  -0.0005698421
       -0.0000633163   0.0008107427  -0.0000268583  -0.0003889960  -0.0007301803
       -0.0004818789   0.0006277454   0.0000414789   0.0004448337   0.0002191324
        0.0005405125  -0.0001286686   0.0004467416  -0.0006667474   0.0001464154
       -0.0002468626  -0.0001421273  -0.0000203029   0.0206118286   0.0084880624
       -0.0050141428  -0.0054938878  -0.0013574213   0.0006957756   0.0056897723
        0.0157292701  -0.0089948225   0.0008700334  -0.0013413859  -0.0000552790
       -0.0006813496   0.0002497572   0.0015111562   0.0002328146   0.0001858441
        0.0002065987  -0.0000190338  -0.0000698103   0.0000143486  -0.0000233776
       -0.0000148339  -0.0000652849   0.0000169211   0.0000248192   0.0001126653
       -0.0000910179  -0.0000732928  -0.0001878672  -0.0000885056   0.0000630712
       -0.0000750215  -0.0000652394   0.0001521958  -0.0002393626  -0.0000528179
       -0.0000321416   0.0001125807   0.0001860276   0.0014902741  -0.0009657479
        0.0066873876  -0.0030819895   0.0033615520  -0.0001985600   0.0000658146
        0.0000120120   0.0000417340   0.0000730172  -0.0000103796  -0.0000774524
        0.0000272608  -0.0000004053   0.0000238038   0.0000579477  -0.0000400341
        0.0000272230  -0.0000133830  -0.0000489603  -0.0000118687   0.0000232751
        0.0000779961  -0.0000074387  -0.0000971014  -0.0000753596   0.0000548427
        0.0004551419   0.0004353792   0.0007659906  -0.0000614582  -0.0009633608
       -0.0463854747  -0.0058989416   0.0043692004  -0.0248180302  -0.1935232118
        0.0690183807  -0.0110901567   0.4861339021  -0.1651915190  -0.0285865375
       -0.0784559220   0.0140374271   0.0191730990   0.0066622403  -0.0048051787
        0.0001794494  -0.0108723462   0.0024005526   0.0137785967   0.0038196107
       -0.0048639606  -0.0146816399  -0.0037837818   0.0044709330   0.0072704787
       -0.0046489420  -0.0019563390  -0.0040894841  -0.0046729989   0.0022140777
        0.0029193681   0.0017552093  -0.0015140456  -0.0040479685   0.0019907221
        0.0013774643   0.0040143631   0.0080535725  -0.0024366886   0.0003722491
       -0.0008272572  -0.0001818657   0.0013036188  -0.0014930015  -0.0003586298
       -0.0029420285   0.0016024639   0.0010705544   0.0023965319   0.0032989070
       -0.0005847933  -0.0004161342  -0.0031584158   0.0002275517  -0.0015096572
        0.0009137565   0.0002262303  -0.0058962329  -0.0015382329   0.0016212771
       -0.0274547662  -0.0080323204   0.0051133052   0.0779886497  -0.1630857336
        0.0523039946   0.0271155983  -0.0013958977  -0.0010260243  -0.0076609604
        0.0089704289   0.0005764840   0.0024692396   0.0003896405   0.0006197211
       -0.0004840205  -0.0004255713  -0.0004211663   0.0004295718  -0.0000284063
        0.0001332385  -0.0001342337   0.0001921463  -0.0000167416  -0.0001405487
       -0.0001790147  -0.0000664131   0.0004364111   0.0007734382   0.0001365067
       -0.0007950172  -0.0000789429  -0.0003810635   0.0000550219  -0.0000048676
       -0.0001485177  -0.0000578807   0.0001403123   0.0000640909   0.0002406029
       -0.0002219640  -0.0003454047   0.0003965228   0.0005289068   0.0002843622
       -0.0014998749  -0.0026989317   0.0005420182   0.0098561369  -0.0054261951
        0.0018124587  -0.0000616007   0.0028047866   0.0032585045  -0.0030339033
       -0.0186254078   0.0096311718  -0.0002277409   0.0003985816   0.0002292342
        0.0013232822   0.0000563024   0.0003297887   0.0000147475   0.0000586464
        0.0001108232  -0.0000638000   0.0000307392   0.0000153666   0.0000180710
        0.0000254926  -0.0000075177  -0.0000220409  -0.0000056545   0.0000244136
       -0.0000432868  -0.0000617759   0.0000044797  -0.0000466632  -0.0000365504
       -0.0000376112   0.0000111671  -0.0000452969  -0.0001061116  -0.0000413765
        0.0000080969   0.0000162723  -0.0001861803   0.0007426068   0.0001189648
        0.0143609183  -0.0192196320   0.0084162202  -0.0000706577  -0.0000213859
        0.0000757283  -0.0000010154  -0.0000341344  -0.0000110518  -0.0000249904
       -0.0000122470   0.0000092399  -0.0000065422   0.0000097929   0.0000064624
        0.0000329185   0.0000338758  -0.0000645912  -0.0000506827   0.0000001591
        0.0000979939   0.0000411186   0.0000355600   0.0000326725   0.0000667455
       -0.0004329303   0.0000857199   0.0003066494  -0.0004839854  -0.0005576513
        0.0231540093   0.0051067053  -0.0007516258   0.0139473517   0.0686579574
       -0.0819525648  -0.0114136370  -0.1651915190   0.1940737135   0.0208302637
        0.0122500418  -0.0469336827   0.0000266484  -0.0020759650   0.0030077203
        0.0002349774   0.0038449935   0.0010374573  -0.0069186602  -0.0015904618
        0.0012126972   0.0074656236   0.0020242833  -0.0013626249  -0.0035254461
        0.0022353920   0.0010504664   0.0019688073   0.0022002442  -0.0012233487
       -0.0014550107  -0.0008169305   0.0007707584   0.0018418824  -0.0009843722
       -0.0010803149  -0.0018854638  -0.0038359290   0.0014499032  -0.0001523241
        0.0003170597  -0.0000491761  -0.0006104359   0.0006510836   0.0001160703
        0.0013537831  -0.0007593239  -0.0006403642  -0.0011495792  -0.0015977695
        0.0004525301   0.0001242583   0.0015677298  -0.0000246362   0.0006521226
       -0.0005966939  -0.0002658175   0.0024693839  -0.0005195133   0.0012118994
        0.0067616286   0.0032522367   0.0009784813  -0.0353618480   0.0532227486
       -0.0692225451  -0.0091204366  -0.0007006174  -0.0007236808   0.0026369560
        0.0022266087   0.0066417509  -0.0001938197  -0.0011021746   0.0012996911
        0.0000484655  -0.0000732296   0.0000358059   0.0000438499   0.0000179284
       -0.0001109173  -0.0000393845   0.0000040179   0.0000016266   0.0001488392
       -0.0000344652  -0.0000927633   0.0001668065   0.0000841282   0.0001600277
        0.0000244783   0.0003630836  -0.0001429314  -0.0000816464  -0.0000514877
       -0.0000345592   0.0000153165  -0.0000160444   0.0000047309   0.0000316298
       -0.0000253573   0.0000481202   0.0000855006  -0.0002832027  -0.0000101440
       -0.0003962071   0.0007668876  -0.0004710949  -0.0053527353  -0.0000671152
       -0.0059146448   0.0008899898   0.0029126179   0.0070280804   0.0015993607
        0.0090823190  -0.0032615506  -0.0000781347  -0.0001055115  -0.0008880155
       -0.0001928854  -0.0000153343  -0.0002291727  -0.0000227120  -0.0000046072
       -0.0000192127   0.0000121249  -0.0000081411  -0.0000322316   0.0000446186
        0.0000092325   0.0001100136  -0.0000038897  -0.0000017387  -0.0000556733
        0.0000947707   0.0000159275   0.0002643382   0.0000066200   0.0000130389
       -0.0000303019   0.0000028684   0.0000018412   0.0000594766  -0.0000408834
        0.0000086663  -0.0001237682  -0.0002573364  -0.0002935487  -0.0008572160
       -0.0081313285   0.0100169309  -0.0039668152  -0.0000421165   0.0000045908
        0.0000369939   0.0000070663   0.0000076993   0.0000107582  -0.0000171637
       -0.0000059219   0.0000378519   0.0000542573  -0.0000004189  -0.0000214423
       -0.0000184367   0.0000154799   0.0000207337   0.0000020816   0.0000015167
       -0.0000173224  -0.0000066063   0.0000020820  -0.0000049915  -0.0000608992
        0.0001657503   0.0000776106  -0.0002173136  -0.0002934292  -0.0006841571
        0.0154905704  -0.0052671649   0.0017282966  -0.0340704996  -0.0411570048
        0.0137768909  -0.2286857056  -0.0285865375   0.0208302637   0.5904699910
        0.0015059869  -0.0398408681  -0.1241638351   0.0893399993  -0.0027391060
       -0.0564778617   0.0248265530   0.0021173091  -0.0191459940  -0.0062519296
        0.0061027432   0.0351667717   0.0112175353  -0.0115411486  -0.0213274592
        0.0118655833   0.0060018411   0.0138939482   0.0150520007  -0.0074730994
       -0.0079850409  -0.0085817758   0.0047457617   0.0088510326  -0.0041076303
       -0.0032954087  -0.0083402962  -0.0249684984   0.0059080156  -0.0035132732
        0.0038692924   0.0010715827  -0.0043830266   0.0019255733   0.0011986413
        0.0082123699  -0.0039489049  -0.0029408213  -0.0070277602  -0.0098395783
        0.0019524495   0.0011598289   0.0106191596  -0.0002466903  -0.0026838674
       -0.0013796570   0.0010925192  -0.0205521718  -0.0335647105   0.0042182545
       -0.0819913029  -0.0495274413   0.0051870492  -0.0635791962   0.0235904887
       -0.0039188389   0.0127278717   0.0135105266  -0.0070669699  -0.0003370575
       -0.0015890057   0.0007399085  -0.0014750198  -0.0001961373  -0.0009691185
       -0.0000259372   0.0010540454   0.0002230633   0.0001803893   0.0002126989
        0.0003055996   0.0002553805   0.0012294205   0.0004615392  -0.0010712947
       -0.0013769618  -0.0009970315   0.0015419828   0.0001205289   0.0009573721
        0.0001811328  -0.0019703884  -0.0002315363   0.0010238739   0.0015156765
        0.0010390052  -0.0010933439  -0.0004923871  -0.0007975624  -0.0002567283
       -0.0005351290  -0.0000411391  -0.0009906397   0.0000403558  -0.0007477871
        0.0003186552   0.0018937959   0.0003717367  -0.0082777730  -0.0016000790
        0.0013469681   0.0000311247   0.0000646242   0.0003463318   0.0001040308
        0.0013969680   0.0000602363   0.0062114292  -0.0045348147   0.0006508917
       -0.0048332105  -0.0008412096   0.0009717572  -0.0001603718  -0.0003419963
       -0.0001835097   0.0000360962   0.0000896125  -0.0000513858  -0.0000002831
       -0.0000241193   0.0001115417  -0.0000064689  -0.0000190227  -0.0000704592
        0.0000433266  -0.0000415469   0.0001761308   0.0000956505  -0.0000743666
        0.0000440445   0.0001130053  -0.0001612792   0.0002293372   0.0003018236
       -0.0002769232  -0.0003226428   0.0052086340   0.0178798659  -0.0006360509
        0.0005118312  -0.0014958328   0.0001650347   0.0000072089  -0.0001993324
        0.0000021314  -0.0000634072  -0.0001267941  -0.0000330441   0.0000012406
       -0.0000436099   0.0000058207  -0.0000450701  -0.0000181122   0.0000092118
       -0.0000297181   0.0000173597   0.0000253165   0.0000221520   0.0000184538
       -0.0000159219   0.0000873848   0.0000923709   0.0000983898   0.0001518938
        0.0000751997  -0.0000530709   0.0001929837   0.0001162062  -0.0000597756
        0.0034552778  -0.0055506355   0.0038424907  -0.0323827047  -0.0122814028
        0.0061677703  -0.0258356112  -0.0784559220   0.0122500418   0.0015059869
        0.4881549734  -0.0629094965   0.0426830667  -0.1579299280   0.0184499118
        0.0338635092  -0.0013325783  -0.0045934249  -0.0166636053   0.0337571639
       -0.0016790725   0.0029316364  -0.0050812198   0.0001694545   0.0007710143
        0.0027002200  -0.0009607000  -0.0063991102  -0.0070110868   0.0030689955
       -0.0076459465   0.0176133216   0.0008991096   0.0193224118  -0.0083607602
       -0.0063904155  -0.0157806258   0.0136679015   0.0066478288   0.0057942297
       -0.0203525613  -0.0036448808  -0.0057028367   0.0235020075   0.0020427639