$hessian                                                                        
        0.6477299563  -0.0323696580  -0.0593833222  -0.3155809519   0.0015437510
        0.0371494320  -0.0085493978  -0.0753272076   0.0489785407   0.0041903009
       -0.0000980794   0.0004758777  -0.0006598041   0.0007287360  -0.0004423528
        0.0004238267   0.0002476916   0.0000143964  -0.0003568517   0.0000084828
        0.0001029003   0.0001225693   0.0000633419  -0.0001019484  -0.0000074863
        0.0000696022   0.0000067764   0.0000057200   0.0000444292   0.0000122890
       -0.0000304369   0.0000065290   0.0000041018   0.0000290171  -0.0000429736
       -0.0000003693  -0.0000311134  -0.0000537663  -0.0000037415   0.0000358983
       -0.0000034168  -0.0000080729  -0.0000388604   0.0000060362   0.0000089560
       -0.0000079929  -0.0000223139   0.0000050062   0.0000000911  -0.0000365517
        0.0000017823   0.0000624493   0.0000574250  -0.0000031865  -0.0000570760
       -0.0001363166  -0.0000418841   0.0005221766  -0.0000855671  -0.0000351728
       -0.0012707477  -0.0014811276   0.0004369531  -0.0566537810   0.0171852906
       -0.0031931298   0.0487176987   0.0474306659  -0.0392916971   0.0012922740
       -0.0039371968   0.0040103224  -0.0005618158  -0.0001768443   0.0002081673
        0.0003403265  -0.0001151512  -0.0000244169  -0.0001695322  -0.0000623126
        0.0000531061  -0.0000291074  -0.0002140394  -0.0000363219   0.0001683213
        0.0001947474   0.0000587846  -0.0001752482  -0.0002375105  -0.0000131211
        0.0003547178  -0.0000170350   0.0001384992  -0.0000742956   0.0000177762
       -0.0000321132  -0.0000009706   0.0000714817  -0.0000174238  -0.0000416196
        0.0000445809   0.0002151356  -0.0001384580   0.0000469470  -0.0001881467
        0.0002444038   0.0010146669  -0.0000292672  -0.2101317725   0.0805885882
       -0.0236355296  -0.0619876946  -0.0534990070   0.0383709439  -0.0235222968
       -0.0007481098   0.0043943182  -0.0002682574   0.0001805187  -0.0000067291
        0.0000446369  -0.0000281210   0.0000460543  -0.0000162088  -0.0000024607
        0.0000033987   0.0000137170  -0.0000135150  -0.0000041447   0.0000254669
        0.0000042620  -0.0000029367   0.0000141216   0.0000178946   0.0000019521
        0.0000143704   0.0000035811   0.0000017438   0.0000044217   0.0000244483
        0.0000027224  -0.0000180059   0.0000262351   0.0000048489  -0.0000281848
        0.0000279287   0.0000082292  -0.0000443699   0.0002806518  -0.0000182097
       -0.0003594629   0.0003831910  -0.0000069994  -0.0002738392  -0.0000054344
       -0.0002741449  -0.0000054912   0.0000433468   0.0000115898   0.0000556573
        0.0000038431   0.0000011865   0.0000175281  -0.0000323702  -0.0000091131
        0.0000201044  -0.0000068869   0.0000091252   0.0000197841  -0.0000408587
       -0.0000431269  -0.0000494745  -0.0000002079  -0.0000106969  -0.0000707929
       -0.0000448989  -0.0001491189  -0.0232581568   0.0184722678  -0.0077307024
       -0.0323696580   0.5156547111  -0.2475033799  -0.0644359844  -0.0855765185
        0.0346858439  -0.0270826187   0.0050226628   0.0017222268  -0.0011610244
       -0.0016750824   0.0056796351  -0.0002149527  -0.0002338714  -0.0000523655
       -0.0000792540   0.0001119517  -0.0002698803   0.0001374072  -0.0000585745
       -0.0000169595   0.0000278346  -0.0000035004   0.0001068520   0.0000105335
       -0.0000130864  -0.0000059267  -0.0000087935   0.0000204389  -0.0000033314
       -0.0000112858  -0.0000098989   0.0000023990  -0.0000140485  -0.0000139323
       -0.0000163908   0.0000353977   0.0000046154  -0.0000077102  -0.0000240836
        0.0000091561   0.0000414668   0.0000125229  -0.0000079625  -0.0000044947
       -0.0000288918   0.0000056009   0.0000024777   0.0000006735  -0.0000170652
       -0.0000032249   0.0000375155  -0.0000174495  -0.0000206014  -0.0000120514
        0.0000446951   0.0000180611  -0.0004170908   0.0000619438  -0.0005366317
       -0.0001043568   0.0001448619   0.0000264177   0.0177575180  -0.0043249694
       -0.0028623262  -0.0014762775  -0.0454499287   0.0285324256  -0.0011205783
       -0.0011878958   0.0042572213   0.0004002720  -0.0004229029   0.0002223215
       -0.0003490937  -0.0000100647  -0.0002414014   0.0001641023   0.0000602827
       -0.0000124052  -0.0000222289   0.0001999681   0.0000340275  -0.0000814989
       -0.0001589606  -0.0000857840   0.0002987526  -0.0000011911  -0.0000168421
        0.0000143284  -0.0001131315  -0.0002014398   0.0000849369  -0.0000073581
       -0.0000841900  -0.0000061189  -0.0000207405   0.0000179436   0.0000908509
       -0.0000384272  -0.0001283048  -0.0000286220   0.0000881658  -0.0000026716
       -0.0001965949  -0.0008591985   0.0010486664   0.1458161748  -0.1827115710
        0.0640304916  -0.0537402745  -0.2031771971   0.1155862887   0.0189768757
        0.0017686765  -0.0035694454  -0.0000265032  -0.0000163724   0.0002181447
       -0.0000175531   0.0000120997  -0.0000032123  -0.0000072918  -0.0000000189
        0.0000027914  -0.0000017009  -0.0000035597  -0.0000020808  -0.0000017505
        0.0000000581   0.0000015198  -0.0000027227   0.0000000284   0.0000010404
        0.0000008053  -0.0000017368   0.0000027528   0.0000068108  -0.0000014979
        0.0000004925   0.0000008103   0.0000097505   0.0000017298  -0.0000062938
        0.0000067310   0.0000090798   0.0000383497   0.0000301819   0.0002001099
        0.0002713085   0.0002899403  -0.0005914116   0.0002148750   0.0001593973
        0.0002710204  -0.0000101781  -0.0000152779  -0.0000294801  -0.0000457934
        0.0000076801   0.0000060790  -0.0000176599   0.0000286540  -0.0000019425
       -0.0000044707   0.0000062609  -0.0000242039  -0.0000164066   0.0000178903
        0.0000366216   0.0000182753   0.0000279940   0.0000141334   0.0000646374
       -0.0000769143   0.0001410490  -0.0013378620   0.0024314600  -0.0006232920
       -0.0593833222  -0.2475033799   0.2813258434   0.0787647350   0.0249183646
       -0.0738595500   0.0188793120   0.0078981079  -0.0071361316   0.0006920316
        0.0054795087   0.0033265251  -0.0007141992  -0.0000861613   0.0003221624
       -0.0000278077   0.0001824889  -0.0001339262  -0.0000531511  -0.0001265045
       -0.0000021527   0.0000111704  -0.0000145514   0.0000344438  -0.0000200961
       -0.0000067857   0.0000013711   0.0000163015  -0.0000224363  -0.0000047435
        0.0000113633  -0.0000067859  -0.0000025638  -0.0000025604   0.0000280431
       -0.0000010097  -0.0000181403  -0.0000065070   0.0000041334  -0.0000006287
        0.0000502740   0.0000173939   0.0000099155  -0.0000010652  -0.0000035442
        0.0000121290   0.0000015412  -0.0000044322   0.0000114799   0.0000231994
        0.0000005298  -0.0000319740  -0.0000093744   0.0000062932   0.0001252509
        0.0000358064  -0.0000168675  -0.0000890809   0.0003977546  -0.0002215759
        0.0016272955   0.0005159305  -0.0003352493  -0.0027769995  -0.0024565970
       -0.0019337754  -0.0075863581   0.0208350914  -0.0134821095   0.0035894480
        0.0048039833   0.0043853838  -0.0004208632  -0.0007065544   0.0002759631
        0.0000508633   0.0001498596   0.0000373197  -0.0000660056   0.0000034825
       -0.0001207538   0.0000097408  -0.0000496019   0.0000071183   0.0000175382
       -0.0000121250  -0.0000387401   0.0002375934  -0.0002021112   0.0000167008
        0.0001918358   0.0005288307   0.0001212671  -0.0001260429  -0.0000089130
       -0.0000667916   0.0000643616  -0.0000439688   0.0000348040  -0.0000394974
        0.0001237246  -0.0000079368  -0.0001173626  -0.0001411501  -0.0000298093
       -0.0010281202   0.0014805775  -0.0005329269  -0.0655216388   0.0743134564
       -0.0823143067   0.0382161550   0.1155391129  -0.1141552912  -0.0089730110
       -0.0007556240   0.0021354421  -0.0000596347  -0.0001015932  -0.0000241182
       -0.0000389755  -0.0000104970   0.0000333144   0.0000081547  -0.0000000590
       -0.0000038725  -0.0000031086   0.0000070324   0.0000024952  -0.0000045510
       -0.0000007959   0.0000012372  -0.0000026534  -0.0000039137  -0.0000007680
        0.0000001164   0.0000044141   0.0000028323  -0.0000056162  -0.0000036091
       -0.0000002067   0.0000025519  -0.0000097655  -0.0000012659   0.0000105284
       -0.0000150898  -0.0000094000   0.0000772477  -0.0001196032   0.0000527574
       -0.0001642142  -0.0004076353   0.0001011011  -0.0001136106  -0.0000567908
       -0.0000030536   0.0000289001   0.0000184269   0.0000235069   0.0000102993
       -0.0000031890   0.0000218012   0.0000352843  -0.0000115723   0.0000105089
        0.0000001228   0.0000332696   0.0000038180   0.0000028302  -0.0000082376
       -0.0000008731  -0.0000019647  -0.0000086713  -0.0000058506  -0.0000262721
        0.0000261326  -0.0000267738   0.0047029044  -0.0044771939   0.0021743027
       -0.3155809519  -0.0644359844   0.0787647350   0.6634898929  -0.0435460382
       -0.0470553444  -0.1013860815  -0.0134221580   0.0176384835  -0.0178455052
       -0.0247919861   0.0176466496   0.0002792913  -0.0025985436   0.0006806609
       -0.0003483807  -0.0001401325  -0.0006940671   0.0005255621  -0.0002121749
       -0.0001560881  -0.0000404715  -0.0000668866   0.0002679033  -0.0000192886
       -0.0001360999  -0.0000285356   0.0000169587  -0.0000668790  -0.0000276617
        0.0000373975  -0.0000074149  -0.0000049834  -0.0000281598   0.0000873919
       -0.0000217777   0.0000411557   0.0000507726   0.0000058245  -0.0000610998
       -0.0000624804   0.0000662585   0.0000202056  -0.0000070804  -0.0000064198
       -0.0000040201   0.0000290582  -0.0000078285   0.0000078248   0.0000865375
        0.0000006048  -0.0001008384  -0.0000694848  -0.0000025622  -0.0002363350
        0.0002751900   0.0000602012  -0.0016050974  -0.0008914304  -0.0009658014
       -0.0029895516   0.0017967708   0.0012792116   0.0462638365   0.0000384034
       -0.0065960563  -0.0299637878  -0.0280766922   0.0226509288  -0.0007135156
        0.0014766566  -0.0015193375   0.0005240971  -0.0000357720  -0.0001267065
       -0.0002374626   0.0000728964  -0.0000906639   0.0001929795   0.0000132782
       -0.0000309307   0.0000144884   0.0001717052   0.0000374391  -0.0001419554
       -0.0001418128  -0.0000586226   0.0002075938   0.0000499221   0.0000553634
       -0.0001993836   0.0000059394  -0.0001571518   0.0000805575  -0.0000409633
       -0.0000059876   0.0000153344  -0.0000551376   0.0000150580   0.0000326654
        0.0000190234  -0.0001684306   0.0000694485   0.0000230007   0.0001733634
       -0.0002010986  -0.0009407191   0.0003398129  -0.0590064680   0.0567857369
       -0.0260874881  -0.0098006800  -0.0034911152   0.0033728825  -0.1664257619
        0.1150259908  -0.0589419790  -0.0003579909  -0.0000628185   0.0009219798
       -0.0000708013   0.0000189696  -0.0000015011   0.0000201878   0.0000056106
        0.0000078432  -0.0000334117   0.0000256201   0.0000133433  -0.0000312366
       -0.0000035014   0.0000114262  -0.0000188806  -0.0000193054  -0.0000000786
       -0.0000245443  -0.0000210799   0.0000090634  -0.0000142074  -0.0000355428
       -0.0000011871   0.0000187331  -0.0000527927  -0.0000051939  -0.0000160617
        0.0000113515  -0.0000035269   0.0001262618  -0.0000028480   0.0004061334
       -0.0024955890   0.0036076386  -0.0012810809  -0.0000319063   0.0001609320
        0.0001018141  -0.0000134539  -0.0000181435  -0.0000260163  -0.0000446398
        0.0000006883   0.0000012708  -0.0000133832   0.0000194091  -0.0000010063
       -0.0000101077   0.0000090114  -0.0000035885  -0.0000093639   0.0000359449
        0.0000365692   0.0000362690   0.0000102781   0.0000205275   0.0000377026
        0.0000365693   0.0000892984  -0.0019369710   0.0035027206  -0.0005970463
        0.0015437510  -0.0855765185   0.0249183646  -0.0435460382   0.4930844001
       -0.2377200799  -0.0662928093  -0.2183440823   0.1154091129  -0.0180727767
       -0.0073177115   0.0068389616   0.0036560320  -0.0018943936   0.0001993814
       -0.0009147345  -0.0005837778   0.0000504653   0.0009310509   0.0001995970
       -0.0002041356  -0.0004563792  -0.0001035861   0.0001484015   0.0001286219
       -0.0000105931  -0.0000081231  -0.0000542182  -0.0000359102   0.0000024753
        0.0000442073  -0.0000075873  -0.0000054480  -0.0001075546   0.0000069888
        0.0000131711   0.0001160050   0.0001060988  -0.0000080830  -0.0000498543
        0.0000001802   0.0000247460  -0.0000181057  -0.0000086516   0.0000061168
       -0.0000059782   0.0000074609   0.0000011236   0.0000397660   0.0000164569
       -0.0000020276   0.0000651185  -0.0000355099  -0.0000417464   0.0000503785
        0.0001695189  -0.0000000990  -0.0013527681  -0.0001709470  -0.0000361094
        0.0017531625   0.0030463336  -0.0000100617   0.0418675694  -0.0415979168
        0.0228570357  -0.0265128444  -0.0172704012   0.0125029600   0.0013535647
       -0.0009233719  -0.0003621657  -0.0006210169  -0.0000553912   0.0001291153
       -0.0000125206   0.0000870269   0.0001083113   0.0000709245  -0.0000294453
       -0.0000652068  -0.0000447299   0.0000071924  -0.0000145629   0.0000100467
        0.0000515679  -0.0000238020  -0.0000090567  -0.0001218244  -0.0000496120
       -0.0000118842   0.0001755436  -0.0000309206  -0.0000848818  -0.0001342074
       -0.0000234471   0.0001010909   0.0000381456   0.0000678845   0.0000134696
        0.0001016431  -0.0000728555   0.0000907216  -0.0001539070   0.0001084536
        0.0000894984   0.0001660262  -0.0003382316   0.0067034802   0.0300155364
       -0.0199218596  -0.0231267985  -0.0050846478   0.0072297313   0.1148807832
       -0.1472851584   0.0601825387   0.0004048035   0.0000388868  -0.0005253552
        0.0000406362  -0.0000727407  -0.0000905837  -0.0000029947  -0.0000423556
       -0.0000204850   0.0000147262  -0.0000109054  -0.0000075559   0.0000150940
       -0.0000024002  -0.0000026323   0.0000100502   0.0000087549   0.0000002490
        0.0000126200   0.0000076216  -0.0000017326   0.0000029355   0.0000112052
        0.0000007379  -0.0000019631   0.0000122852   0.0000072257  -0.0000065561
       -0.0000506576   0.0000147605   0.0000283691  -0.0003124859   0.0001992460
        0.0033128388  -0.0000540965   0.0042283063   0.0000539100   0.0000201863
        0.0000653524  -0.0000043702   0.0000178334   0.0000034326   0.0000015575
        0.0000045848   0.0000302685   0.0000020093  -0.0000032426  -0.0000057637
        0.0000016115  -0.0000020128   0.0000007707  -0.0000120315  -0.0000202695
        0.0000189590  -0.0000017144  -0.0000140429  -0.0000151209   0.0000512058
        0.0000124335   0.0000878580   0.0038629700  -0.0000827587   0.0041522895
        0.0371494320   0.0346858439  -0.0738595500  -0.0470553444  -0.2377200799
        0.2726005140   0.0547884514   0.1082463966  -0.1254281856   0.0095217299
        0.0080492952  -0.0043876027  -0.0005839939   0.0003203147  -0.0009136711
       -0.0001493820   0.0002263169   0.0002334612  -0.0001322728   0.0002739483
        0.0001215017   0.0000334148   0.0000731987  -0.0000632409  -0.0000054010
       -0.0000147170  -0.0000023696  -0.0000149456   0.0000226650   0.0000090609
       -0.0000202927   0.0000190601   0.0000056755   0.0000440647  -0.0000200373
       -0.0000020054  -0.0000256582   0.0000047203   0.0000021541   0.0000522469
        0.0000115361  -0.0000247600  -0.0000103018   0.0000064936   0.0000070270
        0.0000021494  -0.0000162352   0.0000001587  -0.0000132977  -0.0000298378
        0.0000056708   0.0000179514   0.0000346894   0.0000219219  -0.0000160718
       -0.0001497603  -0.0000730128   0.0006679363   0.0002963337   0.0002019693
       -0.0005446405  -0.0015733646   0.0009184422  -0.0344403747   0.0284710711
       -0.0124995187   0.0204830375   0.0120578036  -0.0170910285  -0.0006410479
       -0.0000058067   0.0004278810   0.0001663456   0.0000272222  -0.0001218518
        0.0000947908  -0.0000058674   0.0000388255  -0.0001039598  -0.0000088033
        0.0000489289   0.0000362876  -0.0000503850  -0.0000018614   0.0000203000
        0.0000096233   0.0000297863  -0.0000369080   0.0000233940   0.0000167382
        0.0000848670  -0.0001299381   0.0000747786   0.0000316758   0.0000924866
        0.0000211421  -0.0000519292  -0.0000076233  -0.0000462857  -0.0000461917
       -0.0000376176   0.0000910407  -0.0000877291   0.0001196759  -0.0000334841
        0.0000466692   0.0001816425   0.0001354927   0.0045967366  -0.0270426907
        0.0180889279   0.0163186882   0.0043561746  -0.0041548208  -0.0585191225
        0.0594058734  -0.0642570825   0.0000920331   0.0005010764   0.0000401220
       -0.0000620075   0.0000528321   0.0000138987  -0.0000133264   0.0000229747
        0.0000076015   0.0000008692  -0.0000033438  -0.0000002547   0.0000054209
        0.0000055592  -0.0000012629   0.0000029755   0.0000057643  -0.0000011668
        0.0000006260   0.0000014447  -0.0000016040   0.0000015425   0.0000090454
       -0.0000016742  -0.0000099747   0.0000145250  -0.0000015815  -0.0000087700
        0.0000273312  -0.0000181634  -0.0000966030   0.0002807552  -0.0001341767
       -0.0006983521   0.0044826633   0.0048781712   0.0000293438  -0.0000912515
       -0.0000475420   0.0000114492  -0.0000016708   0.0000084241   0.0000180963
       -0.0000047759  -0.0000176676   0.0000047801  -0.0000056806   0.0000062672
        0.0000057896  -0.0000060655   0.0000047032   0.0000115744   0.0000001331
       -0.0000240276  -0.0000107840   0.0000022525   0.0000016669  -0.0000794417
        0.0000627858  -0.0001011959  -0.0008631507   0.0044406293   0.0052486953
       -0.0085493978  -0.0270826187   0.0188793120  -0.1013860815  -0.0662928093
        0.0547884514   0.6170978198  -0.0338610033  -0.0456109133  -0.2076442079
       -0.0224240745   0.0344206328  -0.0334242645   0.0095580786   0.0056872413
        0.0027500598   0.0043476763   0.0012634784  -0.0029250288  -0.0007045249
        0.0004586425   0.0011550909   0.0003513235  -0.0006068733  -0.0002480454
        0.0004156000   0.0001154813   0.0001003971   0.0001188658  -0.0000060225
       -0.0000773503   0.0000075322   0.0000067764   0.0001724113  -0.0001201343
       -0.0000018900  -0.0002886658  -0.0004006965  -0.0000071752   0.0001122454
       -0.0000759343  -0.0001200884  -0.0001077692  -0.0000073649   0.0000107756
        0.0000633381   0.0000131070   0.0000091615  -0.0000552815  -0.0001526100
        0.0000023763   0.0002413704   0.0003698205   0.0000109653  -0.0006125307
       -0.0008257366  -0.0000755531   0.0045618626  -0.0017604202   0.0011251144
       -0.0226935675  -0.0210714905   0.0073425877  -0.1941129087   0.1280978168
       -0.0654843460  -0.0562204463   0.0069737696   0.0039963571  -0.0036722172
       -0.0020953911   0.0015108435  -0.0018363368   0.0004768318   0.0003582194
        0.0001566422   0.0001147936   0.0000920740  -0.0000272640   0.0000164052
       -0.0001679001  -0.0000199634  -0.0000629069   0.0000001317   0.0000311480
        0.0001426706  -0.0000996638  -0.0001568699  -0.0002475408  -0.0002743212
        0.0001258279   0.0001485120  -0.0000441093  -0.0001230712  -0.0001426513
       -0.0000811100   0.0002049407   0.0000057606   0.0001327282   0.0000541639
        0.0002227841  -0.0000124145   0.0000387426  -0.0005184419  -0.0000860035
       -0.0000677951   0.0007162137  -0.0001936316   0.0019233334   0.0123155261
       -0.0091190088  -0.0053661723  -0.0009617093   0.0022298093   0.0042382164
        0.0158963103  -0.0116679470   0.0008172838  -0.0011470808  -0.0003589234
       -0.0005238288  -0.0001583096   0.0002836004   0.0000011489  -0.0000248810
        0.0000219228   0.0000581774  -0.0000187216  -0.0000182744   0.0000391856
        0.0000001165  -0.0000057177   0.0000453776   0.0000272562   0.0000027457
        0.0000302751   0.0000239764  -0.0000081610   0.0000034480   0.0000413388
        0.0000030395  -0.0000219035   0.0000863800   0.0000045831  -0.0000723236
       -0.0000582963   0.0000405395   0.0002015485   0.0015292749  -0.0013558222
        0.0053017734  -0.0023900196   0.0026740766  -0.0001162106   0.0000633198
        0.0000453635   0.0000184710   0.0000342189   0.0000188549   0.0000223665
        0.0000011503   0.0000497392   0.0000101037  -0.0000266577  -0.0000082360
        0.0000337557  -0.0000374410   0.0000217244   0.0000075436  -0.0000657377
        0.0000195570  -0.0000193602  -0.0000606263  -0.0000366666   0.0001036209
        0.0004265371   0.0002062501   0.0006471726   0.0002528636  -0.0003823838
       -0.0753272076   0.0050226628   0.0078981079  -0.0134221580  -0.2183440823
        0.1082463966  -0.0338610033   0.5141664216  -0.2182968119  -0.0228602852
       -0.0692459533   0.0092872843   0.0191546792   0.0050448252  -0.0050759200
        0.0034474463  -0.0027644686  -0.0021259504  -0.0005129499  -0.0006811978
       -0.0001009045   0.0003131238   0.0000241415   0.0001449798  -0.0000070863
        0.0000482224   0.0000047358   0.0000170014   0.0000559096  -0.0000094505
       -0.0000033898   0.0000126595   0.0000025255   0.0000279796   0.0000080832
       -0.0000397072   0.0000074922  -0.0001200212  -0.0000067846  -0.0000287708
       -0.0003047467   0.0000536812  -0.0001221524  -0.0000358405   0.0000042215
       -0.0000160636   0.0000212927   0.0000000381   0.0000202081   0.0000366201
       -0.0000070163  -0.0000159324   0.0001065184  -0.0000145540  -0.0011816536
       -0.0001832437   0.0002591867  -0.0013253874  -0.0045818666  -0.0012223373
       -0.0291963440  -0.0093904215   0.0064847901   0.0762052451  -0.1735155248
        0.0695781722   0.0543932231   0.0274089582  -0.0291074317  -0.0039377028
        0.0045929838   0.0034361146   0.0011284378  -0.0000996983   0.0005315031
        0.0000125947  -0.0001962175  -0.0000840486  -0.0000116734   0.0000293301
        0.0001302773   0.0000491133   0.0000321974   0.0000083689   0.0000322434
       -0.0001348289  -0.0000208206   0.0001191974   0.0004356557   0.0000054485
       -0.0002518421  -0.0000728799  -0.0001154489   0.0001414180   0.0001917502
        0.0000136254  -0.0001787356  -0.0000415993  -0.0001031648  -0.0000872990
       -0.0001368678   0.0000176272   0.0001049153   0.0001934600  -0.0001328703
       -0.0007061410  -0.0002270775   0.0003705307   0.0142390847  -0.0445018411
        0.0234724732  -0.0002827981   0.0030545774   0.0033359109  -0.0022321306
       -0.0178829030   0.0118190312   0.0009089662   0.0003299455   0.0005667991
        0.0012517254  -0.0000322881  -0.0001484701  -0.0000721732   0.0000472046
        0.0000244431   0.0000039709   0.0000028070  -0.0000018771   0.0000081901
        0.0000077985   0.0000053798   0.0000161029   0.0000098605  -0.0000019791
       -0.0000131707  -0.0000331918   0.0000057476  -0.0000055038  -0.0000011055
       -0.0000012678  -0.0000040338  -0.0000155936  -0.0000012332  -0.0000810995
       -0.0000006601   0.0000358617  -0.0008430646   0.0003652633   0.0010056697
        0.0146265477  -0.0177719169   0.0098238255  -0.0000164028  -0.0001398843
       -0.0000870262   0.0000086010  -0.0000356327   0.0000088917  -0.0000054662
       -0.0000078030  -0.0000443198   0.0000128380   0.0000138329   0.0000057845
       -0.0000190407   0.0000167366  -0.0000150790   0.0000023405   0.0000437096
       -0.0000239710   0.0000295810  -0.0000084163   0.0000172384   0.0001211348
       -0.0004142711  -0.0001036935   0.0002252598  -0.0004013844   0.0002874668
        0.0489785407   0.0017222268  -0.0071361316   0.0176384835   0.1154091129
       -0.1254281856  -0.0456109133  -0.2182968119   0.2762496501   0.0353356707
        0.0057282054  -0.0639551929   0.0103076373  -0.0015260110  -0.0005826636
        0.0011208687  -0.0023378095   0.0058465019   0.0005864472   0.0001258195
       -0.0003379140  -0.0005349405   0.0001152659  -0.0014111448   0.0000692599
       -0.0000993076   0.0000173535  -0.0000117385  -0.0000268976   0.0000610351
        0.0000228142  -0.0000029682  -0.0000136251  -0.0000199861  -0.0000013485
        0.0002226506   0.0000981219   0.0000729269   0.0000083676  -0.0000957179
       -0.0000291294  -0.0003668798   0.0000112839  -0.0000195414   0.0000096458
       -0.0000329963   0.0000130046   0.0000423042   0.0000334670   0.0000542786
        0.0000043565  -0.0000225275  -0.0000940545   0.0000712253  -0.0000310401
        0.0002392452   0.0001595388   0.0006640426  -0.0010558130   0.0074118233
        0.0026315128   0.0045194044   0.0000487186  -0.0301068756   0.0624001628
       -0.0822659374  -0.0254636386  -0.0197983260   0.0154577805   0.0029374912
        0.0037550263   0.0041975531   0.0005372906  -0.0008032290   0.0007307642
       -0.0001181185  -0.0000362945   0.0000055265   0.0001053944  -0.0000174260
       -0.0000848225  -0.0000754203   0.0000429181  -0.0000123640   0.0000412533
       -0.0000732273  -0.0000393466   0.0003141125   0.0001024510   0.0000887304
       -0.0000483105   0.0003269594  -0.0001829770  -0.0001064686  -0.0001258162
       -0.0000920909   0.0000937155   0.0000268761   0.0000715267   0.0000959764
       -0.0000045515  -0.0001242979   0.0002044740  -0.0002585621   0.0001440989
       -0.0006813077  -0.0000498769  -0.0001068788  -0.0099528154   0.0234544890
       -0.0181891050   0.0023124119   0.0032723669   0.0053676938   0.0012086626
        0.0095176309  -0.0053286104  -0.0005480308   0.0007947069  -0.0019541963
        0.0003014183   0.0000685004  -0.0001559010  -0.0000082290   0.0000203206
       -0.0000048550  -0.0000147811   0.0000051454   0.0000024906  -0.0000126074
        0.0000036643  -0.0000260039  -0.0000073210  -0.0000037639  -0.0000015749
       -0.0000226119  -0.0000124603  -0.0000427360   0.0000009055  -0.0000125480
       -0.0000010978   0.0000060602  -0.0000182160  -0.0000084559   0.0000185921
        0.0000296106  -0.0000241595  -0.0010087854   0.0002269276  -0.0023575293
       -0.0107513683   0.0123057477  -0.0059861846  -0.0000082172   0.0000604390
        0.0000719280  -0.0000059209   0.0000091953  -0.0000068026  -0.0000121871
       -0.0000027267   0.0000330285   0.0000274622  -0.0000066706   0.0000026044
       -0.0000045718   0.0000259657  -0.0000006997  -0.0000239216  -0.0000042370
        0.0000341173  -0.0000058606   0.0000256706  -0.0000024253  -0.0000922577
        0.0001493411   0.0001234438  -0.0002638841   0.0000940188  -0.0002536683
        0.0041903009  -0.0011610244   0.0006920316  -0.0178455052  -0.0180727767
        0.0095217299  -0.2076442079  -0.0228602852   0.0353356707   0.5969443662
        0.0129004634  -0.1106849290  -0.1566872520   0.1274102728   0.0465607453
       -0.0506859217   0.0115021842   0.0136909556   0.0087067872   0.0101967650
       -0.0017078028  -0.0045748963  -0.0007343797   0.0008902941   0.0010223147
       -0.0008035362  -0.0003014617  -0.0006395372  -0.0006848151   0.0000453253
        0.0001663318   0.0003244066   0.0000053893  -0.0001701939   0.0001189339
        0.0000476000   0.0005557038   0.0017369662   0.0001474124  -0.0000449239
       -0.0016350619  -0.0000082665  -0.0003765625   0.0002190760  -0.0001052801
        0.0003133417   0.0000917060  -0.0000434491   0.0000363323  -0.0000648095
       -0.0000628116   0.0000010475   0.0009329467  -0.0001652484  -0.0048641989
       -0.0004972615   0.0029227025  -0.0192589841  -0.0292788883   0.0008247103
       -0.1175708923  -0.1120251350  -0.0006919871  -0.0379553862   0.0101331384
        0.0031535237   0.0012545391   0.0048989932  -0.0018916851  -0.0005677136
       -0.0006282916   0.0002479171  -0.0004033823   0.0000155785   0.0000016067
        0.0000785074   0.0000298566   0.0000369512  -0.0000802489   0.0000279855
       -0.0000605664   0.0000351704  -0.0000574592   0.0000151116   0.0000242967
        0.0000123425  -0.0000042657  -0.0000537174  -0.0000811528  -0.0000623076
        0.0001212096  -0.0000428356   0.0000680406  -0.0000172231   0.0000142420
        0.0000025167   0.0000257517  -0.0000434645   0.0000147553  -0.0000133734
        0.0000546312   0.0000220871  -0.0000484180  -0.0001516499   0.0000074248
        0.0001206392   0.0004222494  -0.0000292912  -0.0022447117  -0.0003146061
        0.0003630141  -0.0000265262   0.0001507649   0.0000779321   0.0006606447
        0.0011885277  -0.0004470127   0.0059153169  -0.0066582625  -0.0031076956
       -0.0051388960  -0.0008678873   0.0027413035   0.0000306755  -0.0002317628
       -0.0000635748   0.0000316294  -0.0000117015  -0.0000021476  -0.0000104255
       -0.0000133961  -0.0000160324   0.0000277153   0.0000058364   0.0000072207
       -0.0000277757  -0.0000738838  -0.0000061867   0.0000384709   0.0000087001
        0.0000126486   0.0000184363   0.0000072707   0.0000132048   0.0002262207
       -0.0003317893   0.0000075681   0.0054858748   0.0164227027   0.0023610247
        0.0007128493  -0.0014546604  -0.0000577896  -0.0000344536  -0.0000028384
       -0.0000083411   0.0000162990   0.0000049947   0.0000065326   0.0000079265
       -0.0000027316   0.0000038517   0.0000132946  -0.0000075309   0.0000028872
        0.0000060522  -0.0000162175   0.0000041431   0.0000036274  -0.0000110722
       -0.0000063238  -0.0000002429  -0.0000510860  -0.0000224696   0.0000299131
        0.0001214032  -0.0000720564   0.0001639832  -0.0000806851  -0.0002268502
       -0.0000980794  -0.0016750824   0.0054795087  -0.0247919861  -0.0073177115
        0.0080492952  -0.0224240745  -0.0692459533   0.0057282054   0.0129004634
        0.6503440685   0.0450540795   0.0632321812  -0.2137821830  -0.0352547541
        0.0662455232   0.0394760676  -0.0099353103   0.0002580769  -0.0525939683
       -0.0064673762   0.0065680273   0.0004577696  -0.0012561087  -0.0023671073
        0.0012644449   0.0005876928   0.0022999202   0.0016940082  -0.0001870480
        0.0005296283  -0.0027011133  -0.0004196019  -0.0027915231   0.0008665485
        0.0005404208   0.0036431526  -0.0052813335  -0.0009859067  -0.0059887666
        0.0039205328   0.0014734980   0.0001521186  -0.0024005646  -0.0001645821