$hessian                                                                        
        0.4910644458   0.0265374914   0.0034153678  -0.1552036716   0.0733734196
       -0.0151962529  -0.0330873011   0.0153834573  -0.0106299029  -0.0004969857
       -0.0044887335  -0.0037836540  -0.0007751188   0.0016448276   0.0001106990
        0.0021361462   0.0000400545  -0.0009578537  -0.0005236776  -0.0006936015
       -0.0003594811   0.0000371309   0.0007238435   0.0001947466  -0.0007849783
       -0.0004540595  -0.0004048709   0.0006780824  -0.0003843805   0.0001964605
        0.0000096702   0.0004029039   0.0000107564   0.0004413787  -0.0000246395
        0.0000080670  -0.0002677455  -0.0006629149   0.0005539760  -0.0004576545
       -0.0016109697  -0.0010693255   0.0014924131  -0.0000224704  -0.0000487500
       -0.0009272436  -0.0001501884   0.0005517679   0.0001376312   0.0001958720
       -0.0002041358   0.0002783934   0.0002874493   0.0002153690   0.0002540281
       -0.0000998457  -0.0000985872   0.0000984320  -0.0001897277  -0.0000775114
        0.0001679885  -0.0002985062  -0.0001151805  -0.0002201856   0.0005599603
        0.0001835152  -0.0003217947  -0.0005054676   0.0000449618  -0.0005251376
        0.0001588069   0.0002113392   0.0002141797  -0.0009338428  -0.0002779229
        0.0002040450   0.0008442413   0.0001246469  -0.0006203460   0.0001670688
        0.0003065281   0.0008875958   0.0008251661  -0.0002606909  -0.0001564511
       -0.0004211645   0.0002854934   0.0003558302  -0.0004792954  -0.0004421729
       -0.0004191943   0.0008447307  -0.0005265435   0.0007580120  -0.0002960025
        0.0002272930  -0.0005201871   0.0001433790  -0.0002029272   0.0002079296
       -0.0000810150  -0.0000279150  -0.0003172704  -0.0002395484  -0.0002883092
        0.0002004029   0.0000078036  -0.0000946501  -0.0001717284  -0.0001387970
        0.0000990110  -0.0011343517   0.0069059996   0.0026485906  -0.0463434909
       -0.0190991630  -0.0131760324  -0.2184732452  -0.0990689844   0.0364874100
       -0.0371409539  -0.0008261559   0.0006832099   0.0004880181   0.0014971618
        0.0012735603  -0.0010987230   0.0006826403   0.0000742619   0.0000191315
       -0.0000283995   0.0004390363   0.0000762912  -0.0000121127  -0.0000167532
        0.0000240394   0.0000141199  -0.0000095963   0.0000039487  -0.0000319764
        0.0000205477   0.0000349152   0.0000192247  -0.0000006719   0.0000656965
       -0.0000377409   0.0000541719  -0.0000111482   0.0000063991   0.0000222383
       -0.0000324886   0.0000510533   0.0000208567   0.0000149874   0.0000110622
        0.0000079837   0.0000425083   0.0000106919  -0.0000154220   0.0000269896
        0.0000047090  -0.0000163607   0.0000075554  -0.0000019003  -0.0000036264
        0.0000228696  -0.0000864031  -0.0000300381  -0.0004227110   0.0000953256
       -0.0001307863   0.0000014171  -0.0000415356   0.0000322237   0.0000133679
        0.0000072525  -0.0000732232  -0.0000116872  -0.0000365730   0.0000350584
        0.0265374914   0.4970011971   0.0192342809   0.0739586005  -0.1232378262
        0.0084992025   0.0014147589   0.0047162373  -0.0003836585  -0.0019284186
        0.0022251910  -0.0028216171   0.0005544932  -0.0012202951  -0.0000460052
       -0.0011116825  -0.0035761251  -0.0028247534   0.0013687256  -0.0008992842
        0.0003930927  -0.0001554938  -0.0004965507  -0.0000279420   0.0003940069
        0.0000716294   0.0001889250  -0.0004169604   0.0001291258  -0.0000586892
       -0.0000194190  -0.0001813791  -0.0000528010  -0.0002377698   0.0007521825
       -0.0001511134   0.0011152597   0.0017609882   0.0015561333  -0.0003727590
       -0.0012448116  -0.0020183812   0.0001328830   0.0001343481  -0.0000582557
        0.0002569326   0.0005252235  -0.0009036071  -0.0002164738  -0.0002193981
        0.0002649200  -0.0000703677   0.0000910001  -0.0001583408  -0.0000853454
        0.0000529841   0.0000412562   0.0000063530   0.0001103496   0.0000484583
       -0.0000890821   0.0001396197   0.0000619092   0.0001120598  -0.0002525419
       -0.0000633010   0.0000752908   0.0002825892   0.0000216531   0.0002336573
       -0.0001382477  -0.0001086407  -0.0001164297   0.0004858541   0.0001411335
       -0.0001139024  -0.0004398246  -0.0000599129   0.0003526378  -0.0000608389
       -0.0002004273  -0.0004626148  -0.0004350609   0.0001253327   0.0004235515
        0.0002132026  -0.0000720069  -0.0000054748   0.0001698111   0.0001312518
       -0.0003295693  -0.0007218525   0.0006690404   0.0000225195  -0.0000003359
        0.0001115225  -0.0000582281   0.0000353009  -0.0000536699   0.0006648675
       -0.0001217478   0.0001721328  -0.0006484245  -0.0012372691  -0.0002389636
        0.0000477697   0.0000234641  -0.0001498861  -0.0000226785   0.0000028743
       -0.0001360258   0.0210617528  -0.0240712876   0.0015757876  -0.0182878243
       -0.1811868218  -0.1194963964  -0.1011408076  -0.0980560762   0.0167112527
        0.0004294531  -0.0719077234   0.0789739993  -0.0019279894   0.0008363799
        0.0007046953  -0.0005778262   0.0001296643   0.0001655173  -0.0001494023
        0.0000954738   0.0003330961  -0.0000492873  -0.0000197664   0.0000263893
        0.0000084637  -0.0000444926  -0.0000540977   0.0000097634  -0.0000159494
       -0.0000037413   0.0000031720  -0.0000154493  -0.0000157845  -0.0000602451
        0.0000153905  -0.0000310130  -0.0000085533  -0.0000091077  -0.0000228649
        0.0000146484  -0.0000433576  -0.0000121318  -0.0000229603  -0.0000155391
       -0.0000051730  -0.0000381015  -0.0000179587   0.0000234890  -0.0000340754
        0.0000010372   0.0000100917  -0.0000143506   0.0000033553   0.0000116190
       -0.0000311722   0.0000664819   0.0000260103  -0.0002571215  -0.0002018739
        0.0000903295  -0.0000452807  -0.0000059322  -0.0000822929  -0.0000599012
        0.0000364136   0.0000599380  -0.0000331191  -0.0000126439  -0.0000609655
        0.0034153678   0.0192342809   0.4888067351  -0.0082787496   0.0030028046
       -0.0598675630  -0.0149051749   0.0052279385  -0.0007378961  -0.0024591915
       -0.0045858370   0.0047579231  -0.0001557280   0.0012952088  -0.0000241602
       -0.0016953593  -0.0024074072   0.0045935724   0.0000352179  -0.0007673004
       -0.0000791672   0.0000353348   0.0003404180  -0.0001619841  -0.0004320146
       -0.0003094650  -0.0002980176   0.0004963776  -0.0002781461   0.0000355272
        0.0000238483   0.0003498009   0.0001061775   0.0002534663  -0.0003940517
        0.0002958774  -0.0005568951   0.0010595990  -0.0016945550   0.0001113225
       -0.0018008940   0.0004912977   0.0006894981  -0.0004444452  -0.0003928275
       -0.0004898006  -0.0005114203   0.0010190255   0.0003457040   0.0002803230
       -0.0003519016   0.0000839652  -0.0001405604   0.0002207186   0.0001044689
       -0.0000021359  -0.0000330086   0.0000013806  -0.0000883037  -0.0000650339
        0.0000701104  -0.0001169367  -0.0000492981  -0.0001095846   0.0001994621
        0.0000560730  -0.0000566740  -0.0001983008   0.0000065584  -0.0002294236
        0.0000800912   0.0000879455   0.0000777368  -0.0003418267  -0.0000887581
        0.0000529122   0.0002714682   0.0000417562  -0.0001943103   0.0000750023
        0.0001825196   0.0003008503   0.0002156167  -0.0000922277  -0.0002857453
       -0.0000685681  -0.0000122673   0.0000631710  -0.0000852235  -0.0002289382
       -0.0005613527   0.0007999985  -0.0005968894   0.0007194217  -0.0002886044
        0.0002829884  -0.0004860510   0.0001686505  -0.0001942313   0.0009373356
       -0.0002063240  -0.0002403677  -0.0010278779   0.0001364805  -0.0012075359
        0.0011022660  -0.0002400214  -0.0011337880  -0.0010244467  -0.0004834185
        0.0002105039   0.0061302227  -0.0018601468   0.0029858433  -0.0140843749
       -0.1187112034  -0.1431926676   0.0358014282   0.0175787414  -0.0465280147
       -0.0044605417   0.0820623220  -0.2438064454   0.0002701575   0.0013575757
       -0.0016979017  -0.0002826547   0.0004132671  -0.0005202442   0.0004595909
        0.0002538702  -0.0009810475   0.0000334060   0.0000085246  -0.0000290679
       -0.0000421006  -0.0000266519   0.0000970330   0.0000069260  -0.0000222275
       -0.0000087296   0.0000015307  -0.0000102076   0.0000259403  -0.0000279213
       -0.0000637294   0.0000307798   0.0000012956  -0.0000007832   0.0000388795
       -0.0000185965   0.0000343290   0.0000124121   0.0000123450   0.0000114975
        0.0000112237   0.0000223176   0.0000104912  -0.0000185158   0.0000289766
        0.0000110077  -0.0000004601   0.0000123339   0.0000069372  -0.0000210008
        0.0000106407  -0.0000388336  -0.0000127091   0.0001656574  -0.0000134395
       -0.0001755256   0.0000595405  -0.0000251768   0.0000919564  -0.0000113680
        0.0000483614   0.0000026833  -0.0000601876  -0.0000024781   0.0000507959
       -0.1552036716   0.0739586005  -0.0082787496   0.5581542825  -0.0466885490
        0.1423763030  -0.2278163082  -0.0955727275  -0.0921776046  -0.0627532503
        0.0436902523  -0.0125837467  -0.0098467674  -0.0271019871  -0.0093654776
        0.0150267481   0.0169233387   0.0096255266   0.0019925908   0.0066760113
        0.0007271461   0.0000695906  -0.0019402810  -0.0005187082   0.0051045849
        0.0024413185   0.0026955598  -0.0061470192   0.0035746415  -0.0016267411
        0.0001511702  -0.0065794042  -0.0014481094  -0.0079274280   0.0070474971
       -0.0032225708  -0.0067479033  -0.0383189453  -0.0108722068   0.0009964597
        0.0015759287   0.0003173824  -0.0018839456   0.0007872189   0.0004609437
        0.0014709239   0.0012132856  -0.0022411789  -0.0003271958  -0.0006525056
        0.0007162555  -0.0004293871  -0.0002921226  -0.0005478248  -0.0005847050
        0.0002559759   0.0002658126  -0.0001426011   0.0004422104   0.0001981560
       -0.0004306297   0.0006859342   0.0002883237   0.0005478048  -0.0012370356
       -0.0004196057   0.0005074682   0.0011241647  -0.0000398314   0.0011909171
       -0.0004566344  -0.0005089244  -0.0004840387   0.0019141980   0.0005897033
       -0.0003682868  -0.0016433089  -0.0002389795   0.0010834841  -0.0004264716
       -0.0006598569  -0.0014480351  -0.0012003584   0.0004045280   0.0008860633
        0.0004555761  -0.0003008394  -0.0007409526   0.0007768819   0.0008462637
        0.0012954585  -0.0021474357   0.0016078280  -0.0017704406   0.0007213562
       -0.0005229170   0.0011183531  -0.0004099609   0.0003558248  -0.0008842762
        0.0001237380   0.0002440259   0.0008417973  -0.0006770871   0.0008787040
       -0.0010737554  -0.0005746363  -0.0000204877   0.0009611285   0.0007075655
       -0.0000298906  -0.0668993180   0.0369154324   0.0002421523   0.0012459031
        0.0043062199   0.0005894958  -0.0281707714   0.0146488192  -0.0058717087
       -0.0046531729   0.0054047882  -0.0065310009  -0.0029132105  -0.0029721527
       -0.0028765428  -0.0026299008   0.0033531770  -0.0027068792   0.0000558523
       -0.0005862684  -0.0000220479  -0.0001775561  -0.0000036340   0.0000959993
        0.0000643762   0.0000484265   0.0000657594   0.0000034107  -0.0000020149
       -0.0000389130   0.0000969313   0.0000183611   0.0000233219  -0.0000320236
       -0.0000596596  -0.0001074354   0.0000612371  -0.0000264835  -0.0000864692
        0.0000632108  -0.0001462556  -0.0000541599  -0.0000471103  -0.0000659482
       -0.0000283959  -0.0001093597  -0.0000448856   0.0000467450  -0.0001109105
       -0.0000434911   0.0000282082  -0.0000841356  -0.0000061232   0.0000524969
       -0.0000580385   0.0001656963   0.0000540755  -0.0001475126   0.0000228982
        0.0001823299  -0.0000093550   0.0000234804  -0.0000063696  -0.0000364526
       -0.0000537981   0.0000376994   0.0000996789  -0.0000728273  -0.0000623969
        0.0733734196  -0.1232378262   0.0030028046  -0.0466885490   0.5817638688
        0.1021284003  -0.0200259560  -0.1156211724  -0.0253452057  -0.0157079185
        0.0465673871   0.0061802705  -0.0175557665  -0.0244341095  -0.0121675202
        0.0395838106  -0.0307059402   0.0065631403   0.0082550030  -0.0001553643
        0.0028304230  -0.0002932027  -0.0019458498  -0.0006501112   0.0055108775
        0.0011676322   0.0025825051  -0.0072617747   0.0047551276  -0.0021304809
       -0.0006573279  -0.0088651206  -0.0020827491  -0.0077641759   0.0147939568
       -0.0005499895  -0.0266329428  -0.0436173533  -0.0199294180   0.0012742769
       -0.0009963730   0.0018877798   0.0020286709  -0.0005404920  -0.0002314718
       -0.0017734704  -0.0002191118   0.0007302715   0.0001391864   0.0005579566
       -0.0006345392   0.0003135383   0.0001848208   0.0004791016   0.0005560315
       -0.0002671811  -0.0002529621   0.0001017846  -0.0003975069  -0.0001779918
        0.0004022947  -0.0006449499  -0.0002727814  -0.0005180181   0.0011457516
        0.0003800325  -0.0003927692  -0.0010475322  -0.0000159317  -0.0010539566
        0.0004812738   0.0004808227   0.0004568919  -0.0017899507  -0.0005570142
        0.0003233575   0.0015384929   0.0002353855  -0.0009920029   0.0003834178
        0.0005690476   0.0012131032   0.0011518650  -0.0003400522  -0.0008319837
       -0.0004330627   0.0002185135   0.0006392641  -0.0007219364  -0.0006364936
       -0.0000463041   0.0008668782  -0.0002684311  -0.0001368480  -0.0000156313
       -0.0003363845   0.0000992628  -0.0000186032   0.0001878024   0.0001890285
        0.0000109826  -0.0003076685  -0.0006427694   0.0005249644   0.0002002096
        0.0013384772   0.0006283565  -0.0004608482  -0.0011498986  -0.0007929988
        0.0003356700   0.0101891230  -0.2633509438  -0.0545555561   0.0183239659
       -0.0215748460   0.0006844734  -0.0074194155   0.0090187437   0.0001910071
        0.0123368295  -0.0096825308   0.0063201036  -0.0232287324  -0.0138871050
       -0.0136145268   0.0035787963  -0.0010734403  -0.0007024951  -0.0003466602
       -0.0001187038   0.0000740691  -0.0002724185   0.0002389276   0.0000006744
        0.0000221238   0.0000157113   0.0000731555  -0.0000112871   0.0000351005
       -0.0000712258   0.0002623415   0.0000322118   0.0001005697   0.0001688283
        0.0000562346  -0.0000390604  -0.0000168761   0.0000089209   0.0000989817
       -0.0000783975   0.0001711228   0.0000701815   0.0000568385   0.0000733885
        0.0000288480   0.0001310201   0.0000486804  -0.0000607834   0.0001291038
        0.0000532664  -0.0000368827   0.0000949938   0.0000016004  -0.0000466519
        0.0000492117  -0.0001998060  -0.0000602938   0.0003622104   0.0000606652
       -0.0001446285  -0.0000000221   0.0000122334   0.0000352404   0.0000338048
        0.0000205038  -0.0000537306  -0.0000380262  -0.0000146022   0.0000643953
       -0.0151962529   0.0084992025  -0.0598675630   0.1423763030   0.1021284003
        0.2229472269  -0.0742835836  -0.0535761155  -0.0887780593  -0.0270178094
        0.0277669931  -0.0033425741  -0.0068626968  -0.0156412211  -0.0093055672
        0.0156079586  -0.0009546206   0.0045970731   0.0008888947   0.0020552865
        0.0053562377  -0.0002427178  -0.0014843586   0.0003046248   0.0033483942
        0.0013327821   0.0013350371  -0.0038311260   0.0023638121  -0.0013135129
       -0.0006191139  -0.0044502302   0.0002536546  -0.0060670847   0.0055245044
        0.0017849040  -0.0086124907  -0.0234592222  -0.0118126442   0.0019261513
        0.0002284826  -0.0004896841  -0.0009708208   0.0001140006   0.0001892279
        0.0006428885   0.0004602618  -0.0008657767  -0.0001130815  -0.0001573987
        0.0001988980  -0.0001464991  -0.0001139001  -0.0001464073  -0.0001456119
        0.0000664906   0.0000663962  -0.0000605029   0.0001168946   0.0000586530
       -0.0000885309   0.0001646667   0.0000653125   0.0001302554  -0.0003072811
       -0.0001072531   0.0001939498   0.0002662584  -0.0000493538   0.0003390222
       -0.0000565635  -0.0001100818  -0.0001175782   0.0004829856   0.0001504494
       -0.0000976717  -0.0004174579  -0.0000519973   0.0002950456  -0.0001207678
       -0.0001978604  -0.0004050273  -0.0003372970   0.0001352939   0.0002606165
        0.0001242936  -0.0000931023  -0.0002255480   0.0002051120   0.0002920907
        0.0004584261  -0.0009078838   0.0008024375  -0.0008296065   0.0003058154
       -0.0003059723   0.0005564003  -0.0001948149   0.0002202052  -0.0000138051
        0.0001481106  -0.0000086065  -0.0001584059  -0.0001821947   0.0004710078
       -0.0001872941  -0.0000577402  -0.0005517690   0.0000368040   0.0001112725
       -0.0000660402  -0.0052155444  -0.0470647468  -0.0615404424   0.0144027414
       -0.0122749513   0.0017975866   0.0021867256  -0.0032833797   0.0001286179
       -0.0219001017   0.0185107706  -0.0040736560  -0.0074262849  -0.0050750381
       -0.0039801138  -0.0027754637  -0.0007556206   0.0061422130  -0.0000561829
       -0.0002127376  -0.0001144493  -0.0001756592   0.0000334618   0.0001195798
        0.0000900613   0.0000583736  -0.0001162278   0.0000878660   0.0000705242
       -0.0002437217   0.0000799424  -0.0000003159   0.0000831664   0.0000259357
       -0.0000014058  -0.0000631209   0.0000228699  -0.0000129156  -0.0000167232
        0.0000116537  -0.0000287952  -0.0000045378  -0.0000072784  -0.0000109864
       -0.0000036285  -0.0000179745  -0.0000100157   0.0000101881  -0.0000175237
       -0.0000058792   0.0000088276  -0.0000108219  -0.0000058765   0.0000203664
       -0.0000179443   0.0000345895   0.0000126850  -0.0000684344  -0.0000023139
        0.0000688448  -0.0000007220   0.0000287411  -0.0000015131  -0.0000103799
       -0.0000101406   0.0000207229   0.0000242696  -0.0000278996  -0.0000195687
       -0.0330873011   0.0014147589  -0.0149051749  -0.2278163082  -0.0200259560
       -0.0742835836   0.5610260414  -0.0495693313   0.1559551052  -0.2247501950
        0.0653717714  -0.0507593145   0.0228074625   0.0675670898   0.0245265845
       -0.0364473810  -0.0009511673  -0.0122615350  -0.0059394130   0.0011297718
       -0.0025214687   0.0008553418   0.0030296279   0.0007396680  -0.0077700387
       -0.0029742542  -0.0037992084   0.0089279124  -0.0065205582   0.0021811968
        0.0006883378   0.0094363910   0.0019554025   0.0050154583  -0.0147715045
       -0.0003046248   0.0107684572   0.0199808757   0.0070004008   0.0010907393
       -0.0012156899   0.0005680761   0.0002781268  -0.0010491313  -0.0003453060
       -0.0004935212  -0.0011206819   0.0018665405   0.0002378228   0.0005056065
       -0.0004745807   0.0002631399   0.0001634143   0.0004244667   0.0004676435
       -0.0002009207  -0.0002110002   0.0000724440  -0.0003182863  -0.0001473103
        0.0003524485  -0.0005312889  -0.0002382675  -0.0004204659   0.0009754042
        0.0003159980  -0.0002966945  -0.0009004192  -0.0000453059  -0.0008559676
        0.0004580100   0.0003910585   0.0003843696  -0.0015078922  -0.0004558328
        0.0003015747   0.0013238798   0.0001918110  -0.0008531533   0.0002914503
        0.0005092599   0.0010915452   0.0009894327  -0.0002966962  -0.0006230440
       -0.0003496256   0.0001960350   0.0004172526  -0.0005844767  -0.0005909657
       -0.0006260683   0.0015312457  -0.0011224284   0.0006680305  -0.0003331760
        0.0000745620  -0.0003839573   0.0001449760  -0.0000610600   0.0004159916
       -0.0000345040  -0.0003054306  -0.0005661695   0.0009100805  -0.0004440978
        0.0010075846   0.0004002671  -0.0004746247  -0.0007976817  -0.0004020527
        0.0003844846  -0.0071327068  -0.0718601129  -0.0201553656  -0.0000729015
       -0.0024901159  -0.0008079879  -0.0030417236   0.0027736978   0.0004827941
       -0.0017903367  -0.0001934608   0.0003763439  -0.0437251052  -0.0137290219
       -0.0053807036  -0.0221840414   0.0136947689  -0.0058036686   0.0018599226
       -0.0002691876  -0.0019444900   0.0003441408  -0.0000771874  -0.0000983571
       -0.0000922218  -0.0000130844   0.0000438091   0.0000492773  -0.0001448702
        0.0001145091  -0.0001649726  -0.0000758537  -0.0000285338   0.0000993499
        0.0000320458  -0.0000100587  -0.0000244105  -0.0000130917   0.0000715323
       -0.0000534566   0.0001250551   0.0000546468   0.0000488406   0.0000576256
        0.0000178784   0.0001013494   0.0000320179  -0.0000488658   0.0001011963
        0.0000368755  -0.0000193735   0.0000691258  -0.0000069036  -0.0000434003
        0.0000375977  -0.0001618554  -0.0000490778   0.0001568683   0.0000381515
       -0.0001264334  -0.0000066079  -0.0000122735   0.0000557535   0.0000352024
       -0.0000041965  -0.0000612882  -0.0000247513  -0.0000021593   0.0001275035
        0.0153834573   0.0047162373   0.0052279385  -0.0955727275  -0.1156211724
       -0.0535761155  -0.0495693313   0.6311624683   0.1142335284   0.1451586854
       -0.1703545258   0.0233775735   0.0179181722  -0.0465607457  -0.0043425521
        0.0073613830   0.0059104393   0.0049135860  -0.0007566649  -0.0036990790
       -0.0011559404  -0.0003411624   0.0015887306   0.0001331983  -0.0002610834
       -0.0003002183  -0.0001583513  -0.0003996574   0.0006299261  -0.0000389694
        0.0000596285  -0.0016657927  -0.0001577429   0.0001732927   0.0001071802
       -0.0002313502   0.0003071129  -0.0071009837  -0.0032030734  -0.0012356929
       -0.0007799805   0.0010992095   0.0013231747   0.0000603805   0.0000516496
       -0.0009410477  -0.0003050826   0.0011055455  -0.0000162684   0.0000239011
       -0.0003003440   0.0001368593   0.0001946797   0.0001337118   0.0001424768
       -0.0000857028  -0.0001043976   0.0000753965  -0.0001005074  -0.0000805468
        0.0001089379  -0.0001761051  -0.0000764799  -0.0001369746   0.0003715444
        0.0001377979  -0.0002141680  -0.0003197898   0.0000732540  -0.0004011522
        0.0000708558   0.0001580635   0.0001487038  -0.0005590484  -0.0001922447
        0.0001201161   0.0004967911   0.0000651378  -0.0002862268   0.0001276608
        0.0001976664   0.0004232590   0.0003765580  -0.0001197612  -0.0001645371
       -0.0000585463   0.0000744633   0.0003612507  -0.0002884766  -0.0002950015
       -0.0001785662   0.0009886010  -0.0009740233   0.0008040618  -0.0002934654
        0.0002140562  -0.0005198186   0.0001884958  -0.0001831237  -0.0003239667
       -0.0000541562  -0.0001717404   0.0005582487   0.0005465626  -0.0009479097
       -0.0010494962  -0.0005195823   0.0004534372   0.0007581661   0.0003028685
       -0.0002629841  -0.0249383843  -0.0169032076  -0.0136780206   0.0021545271
        0.0007565118   0.0011876938   0.0029480049  -0.0016410294   0.0004662454
        0.0015814972  -0.0006992098   0.0007541298  -0.0131132302  -0.2812622029
       -0.0691016705  -0.0078653585   0.0057651718  -0.0020843621   0.0002532708
       -0.0050982251  -0.0024886601  -0.0000193204   0.0001650073  -0.0000522688
        0.0000120728  -0.0000060472   0.0000270648  -0.0000045518  -0.0000451508
        0.0000039878   0.0000670935   0.0000372710   0.0000041963   0.0000573175
        0.0000100478  -0.0000518767  -0.0000047821   0.0000007708   0.0000293694
        0.0000044946   0.0000205544  -0.0000065079   0.0000064939   0.0000154464
        0.0000031934   0.0000086601   0.0000002209  -0.0000090016   0.0000124024
        0.0000068368  -0.0000085477   0.0000139740  -0.0000056867  -0.0000248779
        0.0000072527  -0.0000189036  -0.0000028537  -0.0000492822  -0.0000813326
       -0.0000582528  -0.0000340159  -0.0000268579   0.0000396273  -0.0000228326
       -0.0000070621  -0.0000155074  -0.0000291446  -0.0000038438  -0.0000102656
       -0.0106299029  -0.0003836585  -0.0007378961  -0.0921776046  -0.0253452057
       -0.0887780593   0.1559551052   0.1142335284   0.1989041939  -0.0301152284
       -0.0070863491  -0.0592991233   0.0118275683   0.0139679798   0.0095704925
       -0.0099338430   0.0022280583  -0.0071825173  -0.0024123202  -0.0007568587
       -0.0015889232   0.0002497088   0.0017836876   0.0004664231  -0.0031952816
       -0.0013137866  -0.0015306498   0.0033263759  -0.0023949786   0.0009116742
        0.0003637123   0.0031466646   0.0004284503   0.0017607537  -0.0054132648
       -0.0000296993   0.0028663484   0.0040371368   0.0076208941  -0.0004619742
       -0.0003449814  -0.0002268121   0.0009218406  -0.0003752160  -0.0001948548
       -0.0007202967  -0.0003597957   0.0006913643   0.0001908558   0.0002706835
       -0.0002826608   0.0002052199   0.0001704809   0.0002233987   0.0002751631
       -0.0001033001  -0.0001302047   0.0000748966  -0.0002009220  -0.0000864764
        0.0001895798  -0.0003042158  -0.0001285067  -0.0002463513   0.0005653508
        0.0001922505  -0.0002490627  -0.0005055073   0.0000265456  -0.0005344908
        0.0001948967   0.0002400890   0.0002081331  -0.0008600239  -0.0002742165
        0.0001706927   0.0007532778   0.0001110597  -0.0005062666   0.0001996886
        0.0002776939   0.0006605907   0.0005639658  -0.0001980181  -0.0003065444
       -0.0001970634   0.0001813188   0.0003552404  -0.0003571721  -0.0003539089
       -0.0005609377   0.0008983640  -0.0006409104   0.0007744894  -0.0003474182
        0.0002169022  -0.0005106104   0.0001841688  -0.0001629766   0.0002649642
       -0.0000435308   0.0000327413  -0.0002188965  -0.0000448494  -0.0002146323
        0.0004078000   0.0000766240  -0.0001173499  -0.0003641786  -0.0001425149
        0.0001118671  -0.0099239010  -0.0318424116  -0.0108069866   0.0006147108
       -0.0002923845   0.0002629316   0.0004770483   0.0009548409   0.0009989283
        0.0002308110   0.0003516123   0.0006460125  -0.0067484582  -0.0689248912
       -0.0535302929  -0.0108644252   0.0061472938  -0.0010813584  -0.0019229158
       -0.0027246083   0.0055895086   0.0001207132  -0.0000018484  -0.0000293506
       -0.0000018824   0.0000049298  -0.0000407403   0.0000097546  -0.0000793513
        0.0000718072  -0.0000247674   0.0000037977  -0.0000354141   0.0000428325
       -0.0000081550   0.0000188421  -0.0000180539   0.0000083550   0.0000326501
       -0.0000244411   0.0000646779   0.0000213391   0.0000199148   0.0000294323
        0.0000047495   0.0000459908   0.0000148649  -0.0000239850   0.0000423612
        0.0000203169  -0.0000250570   0.0000341097  -0.0000020579  -0.0000238727
        0.0000184509  -0.0000727595  -0.0000333785   0.0000022140  -0.0000082805
       -0.0001070604  -0.0000070850  -0.0000490229   0.0000219374  -0.0000094855
        0.0000129713  -0.0000329066  -0.0000187448  -0.0000012653   0.0000527342
       -0.0004969857  -0.0019284186  -0.0024591915  -0.0627532503  -0.0157079185
       -0.0270178094  -0.2247501950   0.1451586854  -0.0301152284   0.5941908257
       -0.0234138143   0.1724099543  -0.0854039792  -0.0379310888  -0.0243355129
        0.0111836864  -0.0248837201  -0.0021746094  -0.0017134936  -0.0033151784
       -0.0040435379  -0.0006615310  -0.0002243035  -0.0001833306   0.0024055298
        0.0005741005   0.0013730484  -0.0027094504   0.0024392525  -0.0005656084
       -0.0006102063  -0.0033482718  -0.0006816218  -0.0015730722   0.0045423696
       -0.0001824089  -0.0035744135  -0.0074298873  -0.0028894005  -0.0009113738
        0.0003981952   0.0000965006   0.0002193579   0.0004893259   0.0002043955
        0.0000287716   0.0002976188  -0.0003357031  -0.0000323670  -0.0001968014
        0.0000735607  -0.0000799070  -0.0000404276  -0.0001356917  -0.0001945065
        0.0000726725   0.0000592848  -0.0000213988   0.0001319070   0.0000301040
       -0.0001321753   0.0002063397   0.0000875605   0.0001668313  -0.0003604527
       -0.0001042895   0.0000936402   0.0003080761   0.0000466671   0.0002893297
       -0.0001813440  -0.0001224722  -0.0001394210   0.0005279240   0.0001532726
       -0.0000945589  -0.0004551695  -0.0000689018   0.0002931567  -0.0001187759
       -0.0001669264  -0.0003604313  -0.0003128298   0.0000954591   0.0001998169
        0.0001102349  -0.0000515021  -0.0000950865   0.0001992791   0.0001879966
        0.0002494754  -0.0002919773   0.0000915407   0.0000735216   0.0000327343
        0.0000885001  -0.0000607477   0.0000050583  -0.0000591255  -0.0002719596
       -0.0000217036   0.0000680927   0.0005122499  -0.0001376664  -0.0002357392
       -0.0010854618  -0.0004347970   0.0004251367   0.0008506965   0.0003419943
       -0.0002557008  -0.0006524933   0.0229292932   0.0076432933   0.0005093718
       -0.0002392156   0.0000173306  -0.0005946832   0.0002713292  -0.0008884644
       -0.0006585127   0.0005274506  -0.0002218615   0.0002068354   0.0012938491
       -0.0007713299  -0.2213986940  -0.0827141764  -0.0895652932  -0.0001773884
        0.0229686900   0.0046874075  -0.0000835125  -0.0001196833  -0.0001058914
        0.0000362757  -0.0000008120  -0.0000338937   0.0000210256   0.0000648784
       -0.0000439246   0.0000270742  -0.0000173987   0.0000146870  -0.0000538578
       -0.0000023357  -0.0000256648   0.0000013438   0.0000092991  -0.0000205168
        0.0000348543  -0.0000700748  -0.0000383201  -0.0000236630  -0.0000189523
       -0.0000073097  -0.0000556031  -0.0000191538   0.0000188190  -0.0000561823
       -0.0000162160   0.0000095967  -0.0000323403  -0.0000089151   0.0000061107
       -0.0000101706   0.0000846912   0.0000220599  -0.0000665780   0.0000153518
        0.0000072982   0.0000086867  -0.0000103119   0.0000436796  -0.0000151712
       -0.0000284583  -0.0000035445   0.0000024657  -0.0000003504  -0.0000510299
       -0.0044887335   0.0022251910  -0.0045858370   0.0436902523   0.0465673871
        0.0277669931   0.0653717714  -0.1703545258  -0.0070863491  -0.0234138143
        0.6121391103   0.1065311115   0.0309691284  -0.3059071173  -0.0453992209
       -0.0695462270  -0.0326905099  -0.0342054558  -0.0012015676   0.0106104358
       -0.0002048644   0.0012692667  -0.0002024138   0.0004071914  -0.0039438857
       -0.0014982707  -0.0017397527   0.0040849514  -0.0039185639   0.0006101415
        0.0001399592   0.0044899574   0.0007609959  -0.0014568097  -0.0051033513
       -0.0004126408  -0.0005943355   0.0036216549   0.0008746116   0.0022026316
       -0.0014460397   0.0013755205   0.0010924200  -0.0013363582  -0.0003996982