$hessian                                                                        
        0.4876359280   0.0282666913   0.0039208493  -0.1598809326   0.0716452397
       -0.0026307929  -0.0329402602   0.0152201007  -0.0043739898  -0.0020199472
       -0.0031782294  -0.0026431113  -0.0005494001   0.0009598076   0.0000811033
        0.0011932988  -0.0009984599  -0.0008901123  -0.0000296433   0.0000851539
        0.0000427977  -0.0000274222  -0.0000519603  -0.0000098970   0.0000169696
        0.0000365517  -0.0000013028  -0.0000282246   0.0000372456   0.0000377731
        0.0000064976  -0.0000807560  -0.0000145145   0.0000265372   0.0003892418
       -0.0004173654   0.0012455646  -0.0011480211   0.0005552359  -0.0012069480
       -0.0008248097  -0.0015339974   0.0013137580   0.0004736981   0.0003285159
       -0.0008110255   0.0005217861  -0.0004875145   0.0002559698  -0.0000653525
       -0.0000782948   0.0000281652   0.0000199155   0.0000563334  -0.0000062592
        0.0000233392   0.0000113713   0.0000094851  -0.0000080337  -0.0000069523
        0.0000146259  -0.0000198700  -0.0000070061   0.0000030912   0.0000427473
        0.0000026360  -0.0000206019  -0.0000289729   0.0000010827   0.0000376355
        0.0000341196  -0.0000136142  -0.0000156540  -0.0000360772   0.0000037333
        0.0000093105   0.0000321879   0.0000063438  -0.0000497078  -0.0000478501
        0.0000036202   0.0001881460   0.0001751472  -0.0000195986   0.0001322118
       -0.0001999154   0.0000269286  -0.0001726591   0.0000454468  -0.0000144261
        0.0002201534  -0.0003573984   0.0004917989  -0.0003039521   0.0001621264
       -0.0001285734   0.0001351310  -0.0000999563   0.0000501848   0.0002074904
        0.0000076431  -0.0001472135  -0.0006239562  -0.0009595498   0.0002103317
        0.0006038843  -0.0000655189  -0.0003919232  -0.0004409908   0.0000572370
        0.0003729261  -0.0014137246   0.0054163980   0.0023823232  -0.0499024565
       -0.0310902477  -0.0239725110  -0.1995018971  -0.0980214332   0.0553379919
       -0.0428393062   0.0113240116  -0.0273142353   0.0006566173   0.0016123856
        0.0009510385  -0.0011099279   0.0007882712  -0.0001234033   0.0000791421
       -0.0000081224   0.0002947313   0.0000520903  -0.0000199326   0.0000083171
        0.0000208629  -0.0000026012   0.0000067927   0.0000102435  -0.0000002346
        0.0000004444   0.0000287112   0.0000079976  -0.0000099174   0.0000090489
       -0.0000424093   0.0000243338   0.0000092425  -0.0000243689  -0.0000074098
       -0.0000038040  -0.0000132049  -0.0000012118  -0.0000008523  -0.0000065631
       -0.0000007493  -0.0000039479  -0.0000056848  -0.0000003432  -0.0000147908
       -0.0000078656   0.0000048569  -0.0000226800  -0.0000074882   0.0000049570
        0.0000047030  -0.0000065666  -0.0000037779  -0.0002883066   0.0001291229
       -0.0000335322   0.0000257166  -0.0000090203   0.0000726243   0.0000341298
       -0.0000210303  -0.0000509740   0.0000149163  -0.0000561082   0.0000362881
        0.0282666913   0.4961682285   0.0106345048   0.0725400990  -0.1185878474
       -0.0008597008  -0.0010138666   0.0043765235  -0.0003696929  -0.0016917580
        0.0012085853  -0.0030497829   0.0003639590  -0.0007662157  -0.0000169921
       -0.0009654251  -0.0029741548  -0.0029514477   0.0009226074  -0.0013605717
        0.0002254140  -0.0001577033  -0.0000968038  -0.0000566789  -0.0000143777
       -0.0001455437  -0.0000397433   0.0000105919   0.0000004372   0.0000022948
        0.0000659993   0.0000738177   0.0000196393   0.0000660275   0.0002844600
        0.0002548953   0.0003317464   0.0019150788   0.0011326060   0.0004537389
       -0.0012686201  -0.0005185120  -0.0001520707  -0.0001202583  -0.0001754156
        0.0003785026  -0.0001809856  -0.0000260428  -0.0003789114  -0.0000610487
        0.0002200841  -0.0000402765   0.0000935370  -0.0000774310   0.0000308112
       -0.0000259278  -0.0000033591   0.0000258756   0.0000439178   0.0000151772
       -0.0000194442   0.0000198535   0.0000146230   0.0000048394  -0.0000252040
        0.0000107719   0.0000002393   0.0000341087   0.0000069147  -0.0000372627
       -0.0000363344   0.0000112388   0.0000178152   0.0000337520  -0.0000029214
       -0.0000074515  -0.0000241263  -0.0000058216   0.0000781594   0.0000184462
       -0.0000239502  -0.0001386954  -0.0000746530   0.0000329869   0.0002060500
        0.0001335064  -0.0000016286   0.0001985802  -0.0001183543  -0.0000157391
       -0.0001221644   0.0000477265  -0.0001370532   0.0001368457  -0.0000985887
        0.0000327867  -0.0000977289   0.0000721873  -0.0000439328   0.0001400428
       -0.0001842919  -0.0001025877  -0.0002307462  -0.0001627242  -0.0004551148
       -0.0000106867   0.0001465844  -0.0000938669   0.0000724000  -0.0001819374
       -0.0002687462   0.0221523169  -0.0227934595  -0.0012402820  -0.0305102346
       -0.1770838818  -0.1166518588  -0.0998576333  -0.1031817664   0.0318093017
        0.0119940740  -0.0759608125   0.0811687085  -0.0019148294   0.0009215859
        0.0010028699  -0.0004843032   0.0001796103  -0.0000086031  -0.0001574603
        0.0000659714   0.0006063870  -0.0000094921  -0.0000171596  -0.0000063639
       -0.0000080140  -0.0000589806  -0.0000038416  -0.0000006514  -0.0000543345
        0.0000074747  -0.0000114674  -0.0000347661  -0.0000034033  -0.0000339165
       -0.0000260007  -0.0000227694  -0.0000154801  -0.0000037698   0.0000024578
        0.0000016031  -0.0000072392   0.0000050985  -0.0000120693  -0.0000095347
        0.0000072399  -0.0000143914  -0.0000064069   0.0000085920  -0.0000077472
        0.0000057641  -0.0000006465  -0.0000020915   0.0000109533  -0.0000010742
       -0.0000217578   0.0000209712   0.0000034040  -0.0001642057  -0.0001864569
        0.0000369575  -0.0000416786   0.0000039191  -0.0000666451  -0.0000662499
        0.0000391861   0.0000365171  -0.0000473731   0.0000000485  -0.0000072967
        0.0039208493   0.0106345048   0.4908835961   0.0037206767  -0.0057915064
       -0.0593763259  -0.0082940285   0.0036397044   0.0004129883  -0.0026004376
       -0.0023025793   0.0060802350  -0.0004901940  -0.0000141296  -0.0003775778
       -0.0014305243  -0.0028162897   0.0055605527   0.0004751243  -0.0005053843
       -0.0002620575  -0.0000630565  -0.0001111303   0.0001126464   0.0000143620
       -0.0000639735   0.0000228572   0.0000189008  -0.0000053990   0.0000148503
       -0.0000045962   0.0000138767   0.0000295026   0.0001410971   0.0001360848
        0.0000049667   0.0012111901   0.0010234919  -0.0010954323  -0.0006334331
       -0.0001179404  -0.0006730665   0.0004915426  -0.0000469029  -0.0001739966
        0.0001434070   0.0003916618  -0.0003770720  -0.0001823584  -0.0000962828
        0.0000482033   0.0000093129   0.0001258425  -0.0000078710   0.0000103003
       -0.0000340804  -0.0000151730   0.0000104444   0.0000246969  -0.0000021185
       -0.0000107924   0.0000048027   0.0000010920   0.0000065031  -0.0000126176
       -0.0000092975  -0.0000294772   0.0000069456   0.0000211970  -0.0000078109
       -0.0000322959  -0.0000015410  -0.0000040955   0.0000234863   0.0000075465
       -0.0000126650  -0.0000278907   0.0000030711   0.0000195471  -0.0000169874
       -0.0000146256  -0.0000155701   0.0000231508   0.0000141617  -0.0000313647
       -0.0000012844  -0.0000087442   0.0000979801  -0.0000692589  -0.0000079469
       -0.0004362814  -0.0002966589   0.0003177678   0.0001878571  -0.0000984364
        0.0001501223  -0.0001435226   0.0000593985  -0.0000812705   0.0010408733
       -0.0001876017   0.0000634890  -0.0011072189  -0.0013755376  -0.0014644272
        0.0004888300  -0.0005605671  -0.0010517550  -0.0005037247  -0.0002381377
        0.0000579338   0.0054208175  -0.0036963076   0.0011975573  -0.0243700265
       -0.1160120764  -0.1436612490   0.0552598664   0.0321350675  -0.0599898351
       -0.0323579158   0.0846760278  -0.2327666660   0.0000061089   0.0011247054
       -0.0019685504  -0.0003769606   0.0002065034  -0.0000186058   0.0004647933
        0.0003144348  -0.0015446063   0.0000006542  -0.0000200738   0.0000013206
        0.0000100231  -0.0000025018  -0.0000484450   0.0000065349  -0.0000045660
       -0.0000089481   0.0000148804   0.0000149007  -0.0000037575  -0.0000579379
       -0.0000200835   0.0000163936  -0.0000109064   0.0000133275  -0.0000023281
       -0.0000002725  -0.0000042050  -0.0000017678  -0.0000066537  -0.0000044390
       -0.0000036325  -0.0000080657  -0.0000028657  -0.0000015961  -0.0000061595
       -0.0000014492   0.0000029103  -0.0000046740   0.0000010272   0.0000078628
       -0.0000031586   0.0000070364   0.0000082966   0.0000766903   0.0000101134
       -0.0000940856   0.0000113315  -0.0000450944   0.0000657182  -0.0000260067
        0.0000378922   0.0000168713  -0.0000506086  -0.0000121485  -0.0000093380
       -0.1598809326   0.0725400990   0.0037206767   0.6040608391  -0.0291884391
        0.1029797704  -0.2652314372  -0.1050424807  -0.0802637082  -0.0613650351
        0.0384016700  -0.0067670204  -0.0134411277  -0.0298970638  -0.0095996162
        0.0256172905   0.0180989231   0.0104009600  -0.0030616143   0.0024813307
       -0.0016997085   0.0004272873   0.0025194804   0.0003784833  -0.0013573568
       -0.0007394800  -0.0003842601   0.0011748483  -0.0011788784   0.0000524467
        0.0005793404   0.0004893184   0.0002251060  -0.0039493869  -0.0027983006
       -0.0011181832  -0.0106680323  -0.0292658430  -0.0091572243   0.0050173930
       -0.0020508816   0.0017315985  -0.0024316601  -0.0002870685  -0.0001098782
        0.0016019237  -0.0007052370   0.0006907889  -0.0005751389  -0.0002838922
        0.0002182484   0.0000649812   0.0003658534  -0.0001041671  -0.0000327683
       -0.0000756831  -0.0000143099   0.0000243753   0.0000617840   0.0000114847
       -0.0000460313   0.0000301559   0.0000191927   0.0000469837  -0.0000164314
       -0.0000031162  -0.0000944811   0.0000557034   0.0000397296   0.0000084034
       -0.0000884860  -0.0000127058  -0.0000146332   0.0000838526   0.0000124869
       -0.0000127736  -0.0000501926  -0.0000048237   0.0000962630  -0.0000229360
       -0.0000412095  -0.0000845008   0.0000530259   0.0000218594   0.0001885601
        0.0001373487   0.0000153521   0.0002178717  -0.0001725139   0.0000078435
       -0.0003597064   0.0006207944  -0.0008061100   0.0007247887  -0.0003505168
        0.0002830435  -0.0003884445   0.0001748045  -0.0002095621  -0.0002793033
        0.0001183311   0.0002261375   0.0004844811   0.0018140350  -0.0006011769
       -0.0014544761  -0.0005717559   0.0000689278   0.0008253506   0.0004754684
       -0.0003614358  -0.0753357782   0.0401593350   0.0005172870   0.0020481347
        0.0027755906   0.0007944089  -0.0277480986   0.0140771367  -0.0005396115
       -0.0088458907   0.0079949015  -0.0062644250  -0.0036690338  -0.0029930865
       -0.0029649006  -0.0028658403   0.0031842751  -0.0016244810   0.0000130658
       -0.0007139729   0.0003424647   0.0000368180   0.0000266774  -0.0000029826
        0.0000211803   0.0000398695   0.0000477598   0.0000206466  -0.0001437340
       -0.0000177807   0.0000150196   0.0000702436   0.0000246167   0.0000858496
       -0.0000031220  -0.0001383317   0.0000267217   0.0000200130   0.0000055879
        0.0000114243  -0.0000168110  -0.0000075388  -0.0000056835  -0.0000173589
       -0.0000039470  -0.0000197982  -0.0000120209   0.0000045580  -0.0000211509
       -0.0000133134  -0.0000042779  -0.0000232337  -0.0000005250   0.0000069901
       -0.0000189692   0.0000077444   0.0000032290  -0.0000370854  -0.0000597326
       -0.0000162958  -0.0000638106  -0.0000531181   0.0000346697  -0.0000548590
       -0.0000245117  -0.0000022491  -0.0000017690  -0.0000403784  -0.0000406703
        0.0716452397  -0.1185878474  -0.0057915064  -0.0291884391   0.6005316897
        0.1189136582  -0.0318182013  -0.1163521245  -0.0250850756  -0.0157467431
        0.0505260522   0.0078952309  -0.0242528105  -0.0341768204  -0.0137074297
        0.0568962385  -0.0336127727   0.0061943257   0.0016313108  -0.0046783622
       -0.0010486097   0.0004155825   0.0012891266   0.0002645694  -0.0014564533
       -0.0015593443  -0.0006224215   0.0019313175  -0.0013527535   0.0003394570
        0.0001189626   0.0016951360   0.0004447010  -0.0003978526  -0.0014421021
       -0.0010795278  -0.0171799885  -0.0229095726  -0.0090037496   0.0009799206
        0.0003605330  -0.0002102581   0.0005507367   0.0001664922  -0.0000863409
        0.0001587456   0.0003232141  -0.0003330285  -0.0000864453   0.0000221905
        0.0000239275   0.0000216663   0.0000457256  -0.0000132908   0.0000136648
       -0.0000389612  -0.0000073622  -0.0000049737  -0.0000043781   0.0000093760
        0.0000001746  -0.0000075030  -0.0000008778  -0.0000079597  -0.0000319273
        0.0000016139  -0.0000079612   0.0000037988   0.0000007066   0.0000036840
       -0.0000212778   0.0000033497  -0.0000110858   0.0000143707   0.0000050444
       -0.0000251316  -0.0000411258   0.0000008162  -0.0000103065  -0.0000022833
       -0.0000055202  -0.0000530821  -0.0000053021  -0.0000031426  -0.0001784115
       -0.0000759768   0.0000250623   0.0000573301  -0.0000168744   0.0000043331
       -0.0000685856  -0.0003025292   0.0003036161   0.0000213342   0.0000275383
        0.0000309980   0.0000231457  -0.0000203506   0.0000101963   0.0003806866
        0.0000006958   0.0001233178  -0.0001728486  -0.0004649563   0.0000680922
       -0.0006045190   0.0003248152  -0.0001931173   0.0001067036  -0.0004124533
        0.0000681192  -0.0161059176  -0.2827160393  -0.0677976230   0.0187277649
       -0.0204523353  -0.0024760682  -0.0082451795   0.0089321247   0.0004164047
        0.0136175516  -0.0097161405   0.0045247086  -0.0245389002  -0.0148681078
       -0.0114962011   0.0033992959  -0.0009840584  -0.0010195666  -0.0007686755
       -0.0001609306   0.0002740405  -0.0002281327   0.0001541882  -0.0000266773
       -0.0000710524   0.0001251765   0.0000296584   0.0000663534   0.0000492096
       -0.0000000060   0.0002304948   0.0002048738   0.0001148360  -0.0000025084
        0.0000330353  -0.0000337173  -0.0000298435   0.0000492770   0.0000077772
       -0.0000112582   0.0000013723   0.0000001399  -0.0000036966   0.0000039781
        0.0000015430   0.0000058820   0.0000079225   0.0000018930   0.0000039921
        0.0000051731   0.0000003084   0.0000079453   0.0000029571   0.0000006963
        0.0000179361  -0.0000030164  -0.0000019340   0.0001728719   0.0000903278
       -0.0000472045   0.0000557560  -0.0000014628   0.0000167582   0.0000288496
        0.0000094033  -0.0000019069  -0.0000141743   0.0000192922  -0.0000271122
       -0.0026307929  -0.0008597008  -0.0593763259   0.1029797704   0.1189136582
        0.1973607642  -0.0633604815  -0.0439715871  -0.0723213693  -0.0188297311
        0.0213413087  -0.0000970508  -0.0083519948  -0.0146718008  -0.0080428527
        0.0191836303  -0.0020963482   0.0028549703  -0.0020594905  -0.0012588793
        0.0042668586   0.0001091137   0.0010092426   0.0005319080  -0.0006655385
       -0.0004988862  -0.0007026034   0.0008771358  -0.0006254348   0.0000377267
       -0.0001543635   0.0004813953   0.0012971301  -0.0014403094  -0.0012460504
        0.0014380094  -0.0058795186  -0.0112571288  -0.0064530476   0.0017835137
       -0.0006264731   0.0000770750  -0.0005421027  -0.0000330131  -0.0000293787
        0.0004887039  -0.0001916085   0.0001584317  -0.0001657882  -0.0000649377
        0.0000733696   0.0000144992   0.0000890940  -0.0000329508  -0.0000019423
       -0.0000245314  -0.0000017607   0.0000032037   0.0000164703   0.0000013903
       -0.0000101543   0.0000071477   0.0000023900   0.0000099084  -0.0000088902
       -0.0000057861  -0.0000188464   0.0000142037   0.0000143643  -0.0000054191
       -0.0000252873  -0.0000047667  -0.0000011068   0.0000221071   0.0000029758
       -0.0000022331  -0.0000166859  -0.0000010274   0.0000212714  -0.0000041932
       -0.0000122680  -0.0000211896  -0.0000030362   0.0000126905   0.0000213092
        0.0000336763   0.0000128533   0.0000658678  -0.0000448430   0.0000001258
       -0.0001022556   0.0001530057  -0.0002164605   0.0002522050  -0.0000831574
        0.0000972091  -0.0001229439   0.0000451245  -0.0000640141   0.0001032504
        0.0000395994   0.0000085965  -0.0000628662   0.0004732975  -0.0003033400
       -0.0010061702  -0.0001316662  -0.0007303912   0.0001488872   0.0001040595
       -0.0002542053  -0.0107206661  -0.0581653169  -0.0634426021   0.0148128663
       -0.0129096304  -0.0003624132   0.0061086275  -0.0049484937   0.0003914880
       -0.0217445328   0.0168809143   0.0005339342  -0.0073185170  -0.0048137384
       -0.0030371088  -0.0015675456  -0.0009501937   0.0061853638  -0.0002447789
       -0.0002412543   0.0003161766  -0.0000628353   0.0000325329   0.0000539870
        0.0000005599   0.0000500474  -0.0000193863   0.0000803250   0.0000201592
       -0.0002103616   0.0000478580   0.0000626028   0.0000718375   0.0000300048
        0.0000145213  -0.0000430387   0.0000006980   0.0000169290  -0.0000015019
        0.0000013617  -0.0000021453  -0.0000012024  -0.0000025819  -0.0000023113
       -0.0000030944  -0.0000045200  -0.0000002962  -0.0000029657  -0.0000028232
       -0.0000010446  -0.0000031925  -0.0000028283   0.0000013581  -0.0000007000
       -0.0000027548   0.0000029819  -0.0000009428  -0.0000308961  -0.0000323295
       -0.0000207606   0.0000122664  -0.0000073945   0.0000056498  -0.0000145124
        0.0000071087   0.0000050663  -0.0000018059  -0.0000142580  -0.0000134723
       -0.0329402602  -0.0010138666  -0.0082940285  -0.2652314372  -0.0318182013
       -0.0633604815   0.6201709055  -0.0335165611   0.1188255006  -0.2393644508
        0.0695877547  -0.0326136345   0.0289475478   0.0736082210   0.0240089477
       -0.0534170834  -0.0016454150  -0.0126252073   0.0014865780   0.0079266536
        0.0013058952   0.0000117694  -0.0041489641  -0.0005972719   0.0027890240
        0.0021290432   0.0011759206  -0.0029515057   0.0016239828  -0.0004954995
        0.0001210993  -0.0026024124  -0.0007282883  -0.0022954351   0.0017718089
       -0.0011299807   0.0098054708   0.0021281028   0.0020956960  -0.0031547078
        0.0006544064  -0.0009727414   0.0016432634   0.0002197152   0.0003936381
       -0.0013474558   0.0004613865  -0.0002946108   0.0006807039   0.0002355224
       -0.0002591981  -0.0000586870  -0.0003917066   0.0001092622   0.0000391833
        0.0000973172  -0.0000007848  -0.0000311729  -0.0000540423  -0.0000171830
        0.0000414288  -0.0000206084  -0.0000161096  -0.0000363756   0.0000356881
        0.0000008112   0.0000872744  -0.0000600895  -0.0000367206   0.0000018797
        0.0000961455   0.0000095210   0.0000093889  -0.0000863850  -0.0000069548
        0.0000343701   0.0000755126   0.0000072811  -0.0000991266   0.0000091918
        0.0000527341   0.0000963766   0.0000089841  -0.0000212891  -0.0000510537
       -0.0000775884  -0.0000198177  -0.0002640291   0.0001989295  -0.0000207705
        0.0004156620  -0.0003071508   0.0005319116  -0.0007239877   0.0003231388
       -0.0003353962   0.0003956954  -0.0001618968   0.0001977334  -0.0000417189
       -0.0000224948  -0.0001984359  -0.0002701853  -0.0012481083   0.0003972512
        0.0008457735   0.0000570343  -0.0005379457  -0.0004064519  -0.0000426018
        0.0003565412   0.0064317730  -0.0789517796  -0.0163958080   0.0002889550
       -0.0020134101  -0.0010294539  -0.0034290496   0.0022731720   0.0000784410
       -0.0009056271  -0.0005243679   0.0008205292  -0.0448638969  -0.0179802145
       -0.0049753493  -0.0246045308   0.0138222416  -0.0031890666   0.0018365332
       -0.0003488998  -0.0022632732   0.0001177727  -0.0001153398   0.0000118956
        0.0000486599  -0.0000150561  -0.0000320086  -0.0000013473  -0.0000061181
        0.0000523014  -0.0000539623  -0.0001156181  -0.0000503646   0.0000294759
       -0.0000088315   0.0000285299  -0.0000018277  -0.0000409998   0.0000036663
        0.0000020461   0.0000162951   0.0000045369   0.0000090477   0.0000112683
        0.0000009125   0.0000176250   0.0000019593  -0.0000063926   0.0000196592
        0.0000022633   0.0000061144   0.0000130226  -0.0000120716  -0.0000032454
        0.0000097085  -0.0000248373  -0.0000033338   0.0000114923   0.0000436838
        0.0000052318   0.0000242872   0.0000133191   0.0000298272   0.0000259320
       -0.0000344460  -0.0000324003   0.0000359814  -0.0000226588   0.0000524156
        0.0152201007   0.0043765235   0.0036397044  -0.1050424807  -0.1163521245
       -0.0439715871  -0.0335165611   0.6301083689   0.1176628792   0.1445101998
       -0.1650274857   0.0090543576   0.0176422761  -0.0473581998  -0.0059689620
        0.0090693273   0.0041400331   0.0042065267  -0.0013079633  -0.0033430101
       -0.0009861488  -0.0001537116   0.0012720455   0.0001753331  -0.0008548058
       -0.0003312329  -0.0002932368   0.0005298777  -0.0003161482   0.0001371777
        0.0002156880   0.0000142260   0.0001396993   0.0007508612  -0.0025671684
       -0.0004651135   0.0009637487  -0.0031565007  -0.0024089161   0.0000305851
       -0.0003226867  -0.0000518166   0.0000633320   0.0000250034   0.0001315476
       -0.0001653251  -0.0000062709   0.0000530257   0.0001306175   0.0000379598
       -0.0000673705  -0.0000104276  -0.0000700863   0.0000243605   0.0000080505
        0.0000161974  -0.0000042924  -0.0000096453  -0.0000072046  -0.0000005966
        0.0000037075   0.0000004723  -0.0000020648  -0.0000073988   0.0000054747
        0.0000020728   0.0000146163  -0.0000066993  -0.0000136528  -0.0000085130
        0.0000195430   0.0000051568   0.0000055109  -0.0000171427  -0.0000045044
        0.0000079054   0.0000203358  -0.0000013247  -0.0000091299   0.0000085375
        0.0000097482   0.0000225601  -0.0000026187  -0.0000040604   0.0000489968
        0.0000188247  -0.0000169417  -0.0000413776   0.0000261743  -0.0000142699
        0.0001224619   0.0000563211  -0.0000199666  -0.0001164511   0.0000313278
       -0.0000807521   0.0000534287  -0.0000193335   0.0000363203  -0.0002144422
        0.0000794840  -0.0000384871   0.0001143831  -0.0000847749   0.0000352914
       -0.0001333570  -0.0001270005  -0.0000826924   0.0001521865   0.0000131104
        0.0001021004  -0.0294215700  -0.0198346889  -0.0121468676   0.0024115814
        0.0007710667   0.0008045053   0.0029944094  -0.0015253061   0.0000232154
        0.0018368986  -0.0008067589   0.0005918979  -0.0172038572  -0.2804196594
       -0.0664669887  -0.0087797029   0.0057687494  -0.0012283002   0.0000960611
       -0.0052110649  -0.0024752664  -0.0000703622   0.0001186176  -0.0000044516
        0.0000084473   0.0000244794   0.0000022979   0.0000079472  -0.0000229937
        0.0000050793   0.0000633765   0.0000174645   0.0000294259   0.0000420595
        0.0000025738  -0.0000576738   0.0000132558  -0.0000057991   0.0000021146
        0.0000040012   0.0000003404  -0.0000015723  -0.0000019584  -0.0000029503
        0.0000010857  -0.0000006758   0.0000010734  -0.0000014280   0.0000012845
        0.0000007505  -0.0000010970  -0.0000006211   0.0000016757  -0.0000051653
       -0.0000039572  -0.0000012871  -0.0000018797  -0.0000529005  -0.0000368465
        0.0000188619  -0.0000219245   0.0000069516  -0.0000124704  -0.0000074902
        0.0000021115   0.0000009356  -0.0000031347  -0.0000027747   0.0000051971
       -0.0043739898  -0.0003696929   0.0004129883  -0.0802637082  -0.0250850756
       -0.0723213693   0.1188255006   0.1176628792   0.1729885379  -0.0143859434
       -0.0117147781  -0.0535860662   0.0111569576   0.0089709718   0.0065265268
       -0.0106129740   0.0014515198  -0.0072681897   0.0001466986   0.0014243742
       -0.0000567616  -0.0000274046  -0.0007369703  -0.0002235588   0.0005162868
        0.0004572995   0.0002772430  -0.0006259607   0.0003524019  -0.0002118212
        0.0001589340  -0.0007111018  -0.0002197614  -0.0009673351  -0.0001910038
        0.0001386935   0.0023416030  -0.0022273787   0.0055292343  -0.0015421253
        0.0005016776  -0.0001427921   0.0009601314   0.0001821358   0.0000370621
       -0.0007906360   0.0002064432  -0.0002832742   0.0003143184   0.0001486333
       -0.0000976322  -0.0000390309  -0.0002143622   0.0000544321   0.0000227309
        0.0000468243   0.0000095705  -0.0000193811  -0.0000269159  -0.0000021735
        0.0000170702  -0.0000080937  -0.0000003378  -0.0000185615   0.0000181115
        0.0000013739   0.0000495975  -0.0000268101  -0.0000090971  -0.0000129925
        0.0000501545   0.0000059711   0.0000071244  -0.0000412754  -0.0000039191
        0.0000206399   0.0000448218   0.0000041926  -0.0000521141   0.0000104338
        0.0000182016   0.0000406410  -0.0000055093  -0.0000130740  -0.0000038683
       -0.0000227865  -0.0000166646  -0.0001373748   0.0001005283  -0.0000050135
        0.0003096568  -0.0002096665   0.0002930848  -0.0004622628   0.0001985168
       -0.0002227638   0.0002377108  -0.0001061046   0.0001269605  -0.0001399781
       -0.0000277805  -0.0001124956  -0.0000235723  -0.0005779884   0.0004957365
        0.0006596871   0.0001477881  -0.0002595013  -0.0004636973  -0.0001284942
       -0.0000657310  -0.0058243099  -0.0259454018  -0.0083914875   0.0007581015
        0.0000506386   0.0002052685   0.0010235784   0.0000752022   0.0004238001
        0.0000718154   0.0003384515   0.0004410727  -0.0067000545  -0.0662191433
       -0.0506705726  -0.0084372589   0.0048579380  -0.0008295379  -0.0017883247
       -0.0025934387   0.0069303962   0.0000231116  -0.0000095362   0.0000076410
        0.0000083707  -0.0000150885   0.0000304143  -0.0000003081  -0.0000304293
        0.0000312549  -0.0000144903  -0.0000411135   0.0000021373   0.0000030516
       -0.0000007862   0.0000216788   0.0000078720  -0.0000204848  -0.0000004461
        0.0000040533   0.0000071714   0.0000109571   0.0000038335   0.0000050878
        0.0000077771   0.0000065895   0.0000032049  -0.0000017623   0.0000109311
        0.0000052034   0.0000009721   0.0000074860  -0.0000011001  -0.0000083784
        0.0000025190  -0.0000067444  -0.0000100566  -0.0000146598   0.0000010702
        0.0000005960   0.0000057534   0.0000077988   0.0000026268   0.0000042040
       -0.0000012369  -0.0000197554   0.0000157570  -0.0000109898   0.0000175930
       -0.0020199472  -0.0016917580  -0.0026004376  -0.0613650351  -0.0157467431
       -0.0188297311  -0.2393644508   0.1445101998  -0.0143859434   0.6253856660
       -0.0096987103   0.1272842320  -0.0901392279  -0.0463945530  -0.0226973425
        0.0153100028  -0.0259862507  -0.0019394330  -0.0048604974  -0.0054925294
       -0.0041052678  -0.0003016229   0.0020172130   0.0001877832  -0.0009588287
       -0.0010191766  -0.0002956149   0.0010751298  -0.0002357523   0.0002388504
       -0.0004602295   0.0004992211   0.0001950083   0.0005509304  -0.0007817192
        0.0002983283  -0.0041833544  -0.0018356149  -0.0009918763   0.0012205539
       -0.0002266230   0.0003339388  -0.0005572796  -0.0001405167  -0.0001675381
        0.0004768276  -0.0002182151   0.0001205428  -0.0001988636  -0.0000752101
        0.0000634820   0.0000378438   0.0001705737  -0.0000251468  -0.0000113064
       -0.0000389294  -0.0000007875   0.0000122839   0.0000210880   0.0000018347
       -0.0000147133  -0.0000017434   0.0000020819   0.0000087612  -0.0000054039
       -0.0000031618  -0.0000381694   0.0000125294   0.0000103198   0.0000021426
       -0.0000253605  -0.0000063747  -0.0000112594   0.0000230084   0.0000006683
       -0.0000158433  -0.0000212416  -0.0000047626   0.0000338921  -0.0000081687
       -0.0000201325  -0.0000123359   0.0000248166   0.0000025803   0.0000091249
        0.0000071772   0.0000128116   0.0000874598  -0.0000707799  -0.0000002715
       -0.0000857561   0.0001498396  -0.0002238127   0.0002712596  -0.0001072809
        0.0001244717  -0.0001579298   0.0000551291  -0.0000822857  -0.0000491759
        0.0000340713   0.0000534951   0.0000967899   0.0005254113  -0.0001265643
       -0.0004741427  -0.0000348746   0.0001781613   0.0002918115   0.0000439638
       -0.0000521912  -0.0048158617   0.0252414679   0.0062024101   0.0003607232
       -0.0003693794  -0.0000412982  -0.0006535454   0.0004700149  -0.0004703662
       -0.0008399313   0.0005393801  -0.0001741665   0.0005068823   0.0009041470
       -0.0009303986  -0.2339980655  -0.0886473360  -0.0716800545  -0.0000842827
        0.0237580022   0.0047241493  -0.0000509011  -0.0001465149  -0.0001028422
       -0.0000202294   0.0000067683   0.0000209904   0.0000334944   0.0000166118
       -0.0000135411   0.0000312161  -0.0000327482  -0.0000017262  -0.0000018967
        0.0000220569  -0.0000425985   0.0000078019   0.0000195480  -0.0000024887
       -0.0000039007  -0.0000120588  -0.0000054092  -0.0000059661  -0.0000064566
       -0.0000028078  -0.0000089494  -0.0000029974  -0.0000017020  -0.0000116582
       -0.0000017067  -0.0000049606  -0.0000092053   0.0000021400  -0.0000012293
       -0.0000049920   0.0000065562  -0.0000017458   0.0000089613   0.0000103750
       -0.0000217066   0.0000000182  -0.0000159217   0.0000078938  -0.0000110568
        0.0000061887   0.0000007729  -0.0000191654  -0.0000052244  -0.0000070891
       -0.0031782294   0.0012085853  -0.0023025793   0.0384016700   0.0505260522
        0.0213413087   0.0695877547  -0.1650274857  -0.0117147781  -0.0096987103
        0.6395597490   0.1081346914   0.0265558325  -0.3301996935  -0.0469895253
       -0.0786504842  -0.0346012098  -0.0280470241   0.0024588806   0.0139097570
        0.0012785349   0.0006650272  -0.0059510755  -0.0007120285   0.0034512662
        0.0025857103   0.0015459814  -0.0031292895   0.0015123153  -0.0006118425
       -0.0000263282  -0.0023527938  -0.0006209267  -0.0044376946   0.0029313801
       -0.0013136609   0.0047420245  -0.0021901021   0.0012856936  -0.0021958633
        0.0004517509  -0.0005602364   0.0013619072   0.0002970370   0.0003151772