 Entering Gaussian System
 *********************************************
 Gaussian 98:
 frequency output generated by the xtb code
 *********************************************
                         Standard orientation:
 --------------------------------------------------------------------
  Center     Atomic     Atomic              Coordinates (Angstroms)
  Number     Number      Type              X           Y           Z
 --------------------------------------------------------------------
    1          6             0       -7.717339   -0.133255   -3.182753
    2          6             0       -6.369699   -0.419538   -3.260370
    3          6             0       -5.530240   -0.139756   -2.192745
    4          6             0       -6.027561    0.421651   -1.023122
    5          6             0       -7.391125    0.741313   -0.968777
    6          6             0       -8.224187    0.457972   -2.035067
    7          8             0       -7.961578    1.357913    0.116418
    8          6             0       -7.145941    1.647708    1.181549
    9          6             0       -7.735594    2.256012    2.273936
   10          6             0       -6.984427    2.548872    3.402536
   11          6             0       -5.647059    2.210210    3.435313
   12          6             0       -5.050381    1.601764    2.341481
   13          6             0       -5.780469    1.333396    1.190398
   14          7             0       -5.211144    0.718683    0.071815
   15          6             0       -3.834342    0.418911    0.044347
   16          6             0       -2.890685    1.445909    0.138394
   17          6             0       -1.554154    1.135523    0.108057
   18          6             0       -1.123931   -0.189075   -0.023283
   19          6             0       -2.064135   -1.234194   -0.126749
   20          6             0       -3.418389   -0.896305   -0.080681
   21          6             0       -1.610003   -2.610864   -0.269658
   22          6             0       -2.496021   -3.686647   -0.397284
   23          6             0       -2.040601   -4.980472   -0.529940
   24          6             0       -0.676924   -5.250245   -0.541195
   25          6             0        0.217783   -4.212370   -0.423211
   26          6             0       -0.230355   -2.895386   -0.289323
   27          6             0        0.738038   -1.826642   -0.177384
   28          7             0        2.023061   -2.123474   -0.198487
   29          6             0        2.901600   -1.115660   -0.099356
   30          6             0        4.284072   -1.381444   -0.125336
   31          6             0        5.198244   -0.362812   -0.031258
   32          6             0        6.634161   -0.674096   -0.126638
   33          6             0        7.468735    0.004599   -1.012727
   34          6             0        8.807186   -0.345725   -1.064836
   35          7             0        9.344638   -1.293436   -0.316049
   36          6             0        8.552610   -1.945873    0.517284
   37          6             0        7.199284   -1.684156    0.649106
   38          6             0        4.752639    0.983147    0.114168
   39          6             0        5.718447    2.080300    0.291896
   40          6             0        5.625114    3.244625   -0.467668
   41          6             0        6.551505    4.252093   -0.257331
   42          7             0        7.522257    4.176287    0.636695
   43          6             0        7.602741    3.079106    1.369762
   44          6             0        6.735647    2.007347    1.241738
   45          6             0        3.409931    1.263293    0.131195
   46          6             0        2.455691    0.232901    0.024424
   47          7             0        1.148073    0.524800    0.048690
   48          6             0        0.290950   -0.474807   -0.050053
   49          1             0       -8.375444   -0.353149   -4.008373
   50          1             0       -5.954985   -0.860145   -4.153957
   51          1             0       -4.475859   -0.351710   -2.276864
   52          1             0       -9.267819    0.714835   -1.948680
   53          1             0       -8.787429    2.487601    2.222714
   54          1             0       -7.452151    3.026739    4.248700
   55          1             0       -5.053689    2.411887    4.313803
   56          1             0       -4.008377    1.326689    2.388266
   57          1             0       -3.222465    2.469471    0.226521
   58          1             0       -0.801107    1.904567    0.175381
   59          1             0       -4.178840   -1.658883   -0.135244
   60          1             0       -3.560818   -3.517218   -0.396290
   61          1             0       -2.750608   -5.788702   -0.626311
   62          1             0       -0.325789   -6.265916   -0.644178
   63          1             0        1.282710   -4.383184   -0.432189
   64          1             0        4.603686   -2.405187   -0.248964
   65          1             0        7.078240    0.779144   -1.655032
   66          1             0        9.486525    0.158783   -1.739275
   67          1             0        9.030376   -2.716100    1.108856
   68          1             0        6.594558   -2.236576    1.352481
   69          1             0        4.856055    3.347663   -1.218349
   70          1             0        6.518006    5.167682   -0.833561
   71          1             0        8.405400    3.059338    2.095182
   72          1             0        6.838742    1.138760    1.874104
   73          1             0        3.054959    2.275507    0.253337
 --------------------------------------------------------------------
     1 basis functions        1 primitive gaussians
     1 alpha electrons        1 beta electrons
 
 Harmonic frequencies (cm**-1), IR intensities (km*mol⁻¹),
 Raman scattering activities (A**4/amu), Raman depolarization ratios,
 reduced masses (AMU), force constants (mDyne/A) and normal coordinates:
                      1                      2                      3
                        a                      a                      a 
 Frequencies --     9.7185                12.7252                21.0950
 Red. masses --    11.5837                11.2431                11.6408
 Frc consts  --     0.0000                 0.0000                 0.0000
 IR Inten    --     0.0988                 0.1325                 0.1588
 Raman Activ --     0.0000                 0.0000                 0.0000
 Depolar     --     0.0000                 0.0000                 0.0000
 Atom AN      X      Y      Z        X      Y      Z        X      Y      Z
   1   6    -0.15  -0.06   0.13    -0.11  -0.26   0.14    -0.05   0.20  -0.02
   2   6    -0.15  -0.04   0.07    -0.11  -0.25   0.11    -0.09  -0.00   0.02
   3   6    -0.10  -0.02   0.03    -0.07  -0.16   0.05    -0.08  -0.12   0.04
   4   6    -0.05  -0.02   0.04    -0.03  -0.08   0.03    -0.02  -0.02   0.01
   5   6    -0.05  -0.03   0.11    -0.04  -0.09   0.06     0.02   0.18  -0.03
   6   6    -0.10  -0.05   0.15    -0.07  -0.18   0.11     0.01   0.30  -0.05
   7   8    -0.00  -0.03   0.15    -0.00  -0.01   0.04     0.10   0.33  -0.06
   8   6     0.04  -0.01   0.09     0.03   0.07  -0.02     0.09   0.16  -0.03
   9   6     0.09  -0.01   0.11     0.07   0.16  -0.05     0.15   0.26  -0.04
  10   6     0.14   0.00   0.08     0.10   0.24  -0.09     0.17   0.15  -0.02
  11   6     0.14   0.02   0.02     0.10   0.24  -0.11     0.11  -0.05   0.02
  12   6     0.10   0.02  -0.01     0.07   0.16  -0.08     0.05  -0.15   0.04
  13   6     0.05   0.00   0.03     0.03   0.08  -0.04     0.05  -0.04   0.01
  14   7     0.00   0.00   0.00     0.00   0.01  -0.02    -0.01  -0.14   0.04
  15   6     0.00   0.01  -0.05     0.00   0.01  -0.04    -0.01  -0.13   0.01
  16   6     0.00   0.01  -0.09     0.00   0.01  -0.09    -0.02  -0.13   0.00
  17   6     0.00   0.02  -0.12     0.00   0.01  -0.09    -0.02  -0.11  -0.01
  18   6     0.00   0.02  -0.12     0.00   0.01  -0.06    -0.01  -0.11  -0.01
  19   6     0.00   0.01  -0.11     0.00   0.01  -0.03     0.00  -0.12   0.00
  20   6     0.00   0.01  -0.07     0.00   0.00  -0.01    -0.00  -0.13   0.01
  21   6     0.00   0.02  -0.12     0.00   0.00  -0.02     0.02  -0.11   0.00
  22   6     0.00   0.02  -0.16     0.00   0.00   0.00     0.03  -0.13   0.01
  23   6     0.00   0.02  -0.17     0.00   0.00  -0.00     0.05  -0.12   0.01
  24   6     0.00   0.02  -0.15     0.00   0.00  -0.03     0.05  -0.10   0.01
  25   6     0.00   0.02  -0.12     0.00   0.01  -0.05     0.04  -0.09  -0.00
  26   6     0.00   0.01  -0.11     0.00   0.01  -0.04     0.03  -0.10  -0.00
  27   6     0.00   0.01  -0.09     0.00   0.01  -0.06     0.01  -0.08  -0.01
  28   7     0.00   0.01  -0.04     0.00   0.01  -0.08     0.02  -0.07  -0.01
  29   6     0.00   0.01  -0.03     0.00   0.01  -0.06     0.00  -0.05  -0.02
  30   6     0.00  -0.00   0.04     0.00   0.01  -0.08     0.01  -0.02  -0.01
  31   6     0.00  -0.00   0.04     0.00   0.00  -0.03    -0.01   0.00  -0.01
  32   6     0.00  -0.01   0.13     0.00   0.01  -0.06    -0.00   0.04   0.00
  33   6     0.06  -0.06   0.14    -0.00   0.06  -0.02    -0.01   0.06   0.01
  34   6     0.06  -0.07   0.24    -0.00   0.07  -0.05    -0.00   0.10   0.02
  35   7     0.01  -0.04   0.34     0.00   0.02  -0.11     0.02   0.13   0.03
  36   6    -0.04   0.01   0.30     0.01  -0.03  -0.14     0.03   0.09   0.02
  37   6    -0.04   0.02   0.21     0.01  -0.04  -0.12     0.02   0.05   0.00
  38   6     0.00   0.01  -0.04     0.00  -0.00   0.03    -0.04  -0.01  -0.01
  39   6    -0.00   0.01  -0.05     0.00  -0.01   0.10    -0.07   0.02  -0.00
  40   6     0.04  -0.03  -0.12     0.01   0.04   0.18    -0.10   0.02   0.00
  41   6     0.03  -0.02  -0.14     0.01   0.02   0.26    -0.13   0.05   0.02
  42   7    -0.01   0.03  -0.10    -0.00  -0.04   0.29    -0.15   0.08   0.03
  43   6    -0.05   0.06  -0.02    -0.01  -0.08   0.19    -0.11   0.07   0.02
  44   6    -0.05   0.06  -0.00    -0.01  -0.08   0.11    -0.07   0.04   0.01
  45   6     0.00   0.01  -0.10     0.00  -0.00   0.03    -0.04  -0.03  -0.02
  46   6     0.00   0.01  -0.09     0.00   0.00  -0.02    -0.02  -0.05  -0.02
  47   7     0.00   0.02  -0.14     0.00   0.00  -0.03    -0.03  -0.08  -0.02
  48   6     0.00   0.02  -0.12     0.00   0.01  -0.05    -0.01  -0.09  -0.02
  49   1    -0.05  -0.02   0.05    -0.04  -0.10   0.05    -0.02   0.09  -0.01
  50   1    -0.05  -0.01   0.02    -0.04  -0.09   0.04    -0.04  -0.02   0.01
  51   1    -0.03  -0.00  -0.01    -0.02  -0.04   0.01    -0.03  -0.08   0.02
  52   1    -0.03  -0.02   0.06    -0.02  -0.05   0.04     0.01   0.13  -0.02
  53   1     0.02  -0.01   0.05     0.02   0.04  -0.01     0.06   0.12  -0.02
  54   1     0.05   0.00   0.03     0.04   0.09  -0.03     0.06   0.06  -0.01
  55   1     0.05   0.01  -0.00     0.04   0.09  -0.04     0.03  -0.04   0.01
  56   1     0.03   0.01  -0.02     0.02   0.05  -0.03     0.00  -0.09   0.02
  57   1     0.00   0.00  -0.03     0.00   0.00  -0.04    -0.01  -0.04   0.00
  58   1     0.00   0.01  -0.04     0.00   0.00  -0.03    -0.01  -0.03  -0.00
  59   1     0.00   0.00  -0.01     0.00  -0.00   0.01     0.00  -0.04   0.01
  60   1     0.00   0.01  -0.05     0.00   0.00   0.01     0.01  -0.04   0.01
  61   1     0.00   0.01  -0.06    -0.00   0.00   0.00     0.02  -0.04   0.01
  62   1     0.00   0.01  -0.05     0.00   0.00  -0.01     0.02  -0.03   0.00
  63   1     0.00   0.00  -0.03     0.00   0.00  -0.02     0.01  -0.02  -0.00
  64   1     0.00  -0.00   0.03     0.00   0.00  -0.03     0.01  -0.00  -0.00
  65   1     0.03  -0.03   0.02    -0.00   0.03   0.01    -0.01   0.01   0.00
  66   1     0.03  -0.03   0.07    -0.00   0.03  -0.01    -0.00   0.04   0.01
  67   1    -0.02   0.01   0.11     0.00  -0.02  -0.06     0.01   0.03   0.01
  68   1    -0.02   0.02   0.06     0.00  -0.02  -0.04     0.01   0.01  -0.00
  69   1     0.02  -0.02  -0.05     0.01   0.02   0.05    -0.03  -0.00  -0.00
  70   1     0.02  -0.02  -0.05     0.00   0.02   0.09    -0.05   0.01   0.01
  71   1    -0.02   0.03   0.00    -0.01  -0.04   0.06    -0.03   0.03   0.01
  72   1    -0.02   0.03   0.01    -0.00  -0.03   0.02    -0.01   0.01   0.00
  73   1     0.00   0.01  -0.05     0.00  -0.00   0.02    -0.02  -0.01  -0.00
                      4                      5                      6
                        a                      a                      a 
 Frequencies --    25.0856                33.6330                40.8669
 Red. masses --    11.1282                11.4279                11.7228
 Frc consts  --     0.0000                 0.0000                 0.0000
 IR Inten    --     0.4064                 0.0595                 0.2374
 Raman Activ --     0.0000                 0.0000                 0.0000
 Depolar     --     0.0000                 0.0000                 0.0000
 Atom AN      X      Y      Z        X      Y      Z        X      Y      Z
   1   6     0.10  -0.12   0.03     0.16   0.00  -0.02    -0.09  -0.14   0.04
   2   6     0.10  -0.14   0.08     0.16   0.00   0.04    -0.12  -0.28   0.09
   3   6     0.06  -0.10   0.10     0.11  -0.01   0.09    -0.10  -0.23   0.06
   4   6     0.03  -0.06   0.06     0.05  -0.02   0.07    -0.05  -0.05  -0.01
   5   6     0.03  -0.03  -0.00     0.05  -0.02   0.00    -0.02   0.09  -0.06
   6   6     0.07  -0.07  -0.02     0.10  -0.01  -0.04    -0.04   0.04  -0.03
   7   8     0.01   0.04  -0.06    -0.01  -0.03  -0.03     0.03   0.33  -0.17
   8   6    -0.03   0.08  -0.04    -0.05   0.01   0.00    -0.02   0.09  -0.06
   9   6    -0.06   0.16  -0.10    -0.09   0.04  -0.04    -0.02   0.04  -0.04
  10   6    -0.10   0.20  -0.09    -0.14   0.08  -0.02    -0.06  -0.15   0.04
  11   6    -0.11   0.15  -0.01    -0.14   0.08   0.04    -0.09  -0.28   0.08
  12   6    -0.08   0.07   0.05    -0.09   0.04   0.09    -0.09  -0.23   0.06
  13   6    -0.04   0.04   0.03    -0.05   0.01   0.07    -0.05  -0.05  -0.01
  14   7    -0.01  -0.04   0.09    -0.00  -0.03   0.12    -0.04  -0.00  -0.03
  15   6    -0.01  -0.03   0.13    -0.00  -0.02   0.15    -0.04   0.01  -0.01
  16   6    -0.01  -0.03   0.20    -0.00  -0.02   0.14    -0.05   0.02   0.02
  17   6    -0.01  -0.03   0.20    -0.00  -0.01   0.09    -0.04   0.05   0.02
  18   6    -0.00  -0.02   0.13    -0.00  -0.01   0.04    -0.02   0.06   0.01
  19   6     0.00  -0.02   0.06    -0.00  -0.02   0.09    -0.00   0.04   0.01
  20   6     0.00  -0.02   0.08     0.00  -0.02   0.14    -0.01   0.02   0.00
  21   6     0.00  -0.00  -0.06    -0.00  -0.01   0.07     0.01   0.05   0.01
  22   6     0.01   0.01  -0.20    -0.01  -0.03   0.18     0.02   0.03   0.03
  23   6     0.01   0.02  -0.34    -0.01  -0.02   0.14     0.04   0.04   0.03
  24   6     0.01   0.03  -0.34    -0.01  -0.01  -0.02     0.04   0.06   0.01
  25   6     0.01   0.01  -0.20    -0.00   0.00  -0.12     0.03   0.07  -0.00
  26   6     0.00  -0.00  -0.07    -0.00  -0.00  -0.07     0.01   0.07  -0.00
  27   6     0.00  -0.01   0.04    -0.00   0.01  -0.14    -0.01   0.08  -0.01
  28   7     0.00  -0.01   0.04    -0.00   0.01  -0.25    -0.01   0.09  -0.03
  29   6     0.00  -0.01   0.08    -0.00   0.01  -0.24    -0.01   0.08  -0.02
  30   6     0.00  -0.01   0.07    -0.00   0.01  -0.24    -0.01   0.06  -0.03
  31   6    -0.00  -0.01   0.06     0.00   0.00  -0.18    -0.00   0.05  -0.01
  32   6    -0.00  -0.00   0.03     0.01  -0.00  -0.07    -0.01   0.03  -0.01
  33   6    -0.02  -0.03  -0.00     0.11   0.02   0.05     0.01   0.01  -0.01
  34   6    -0.03  -0.02  -0.03     0.11   0.03   0.19     0.00  -0.02   0.00
  35   7    -0.01  -0.01  -0.02     0.03   0.00   0.23    -0.02  -0.02   0.02
  36   6     0.02   0.01   0.02    -0.07  -0.03   0.10    -0.03   0.01   0.02
  37   6     0.02   0.02   0.04    -0.08  -0.04  -0.04    -0.03   0.03   0.01
  38   6    -0.00  -0.01   0.06     0.00   0.00  -0.16     0.01   0.05   0.00
  39   6    -0.00   0.00  -0.00    -0.01  -0.01  -0.08     0.05   0.01   0.02
  40   6    -0.04  -0.02  -0.04     0.06   0.00  -0.07     0.16   0.00  -0.01
  41   6    -0.03  -0.01  -0.12     0.04   0.00   0.02     0.26  -0.08  -0.03
  42   7     0.02   0.02  -0.18    -0.04  -0.01   0.11     0.26  -0.16  -0.03
  43   6     0.05   0.04  -0.13    -0.10  -0.02   0.10     0.13  -0.13   0.01
  44   6     0.05   0.03  -0.05    -0.09  -0.02   0.01     0.03  -0.05   0.03
  45   6    -0.00  -0.01   0.10     0.00   0.01  -0.18     0.01   0.07  -0.00
  46   6    -0.00  -0.02   0.12     0.00   0.01  -0.19    -0.00   0.08  -0.01
  47   7    -0.00  -0.02   0.16     0.00   0.00  -0.13    -0.01   0.08  -0.00
  48   6    -0.00  -0.02   0.11    -0.00  -0.00  -0.07    -0.01   0.08  -0.00
  49   1     0.03  -0.04   0.00     0.06   0.00  -0.02    -0.03  -0.05   0.02
  50   1     0.04  -0.05   0.03     0.06   0.00   0.02    -0.04  -0.12   0.04
  51   1     0.02  -0.03   0.04     0.03  -0.00   0.04    -0.03  -0.10   0.02
  52   1     0.02  -0.01  -0.02     0.03  -0.00  -0.03    -0.00   0.05  -0.02
  53   1    -0.01   0.06  -0.05    -0.03   0.01  -0.03     0.00   0.04  -0.02
  54   1    -0.03   0.08  -0.04    -0.05   0.03  -0.02    -0.02  -0.05   0.02
  55   1    -0.04   0.05   0.00    -0.05   0.03   0.02    -0.04  -0.12   0.04
  56   1    -0.03   0.01   0.04    -0.03   0.01   0.04    -0.03  -0.10   0.02
  57   1    -0.00  -0.01   0.07     0.00  -0.01   0.05    -0.02   0.00   0.01
  58   1    -0.00  -0.01   0.07    -0.00  -0.00   0.02    -0.02   0.02   0.01
  59   1     0.00  -0.01   0.01    -0.00  -0.01   0.04     0.00   0.00   0.00
  60   1     0.00   0.00  -0.06    -0.00  -0.01   0.09     0.00   0.01   0.01
  61   1     0.00   0.01  -0.13    -0.00  -0.01   0.07     0.01   0.01   0.01
  62   1     0.00   0.01  -0.13    -0.00  -0.00  -0.02     0.02   0.02   0.00
  63   1     0.00   0.00  -0.06    -0.00   0.00  -0.07     0.01   0.03  -0.01
  64   1     0.00  -0.00   0.02    -0.00   0.00  -0.08    -0.01   0.02  -0.01
  65   1    -0.01  -0.01  -0.00     0.05   0.01   0.01     0.01   0.00  -0.01
  66   1    -0.01  -0.01  -0.02     0.05   0.02   0.08     0.00  -0.01  -0.00
  67   1     0.01   0.01   0.01    -0.04  -0.02   0.04    -0.01   0.00   0.01
  68   1     0.01   0.01   0.02    -0.05  -0.02  -0.04    -0.01   0.01   0.00
  69   1    -0.02  -0.01  -0.00     0.03   0.00  -0.04     0.05   0.01  -0.01
  70   1    -0.02  -0.01  -0.04     0.03   0.00   0.01     0.10  -0.03  -0.02
  71   1     0.03   0.02  -0.05    -0.05  -0.01   0.05     0.04  -0.05   0.01
  72   1     0.02   0.02  -0.01    -0.04  -0.01   0.00    -0.02  -0.01   0.02
  73   1    -0.00  -0.00   0.03     0.00   0.00  -0.05     0.01   0.02   0.00
                      7                      8                      9
                        a                      a                      a 
 Frequencies --    43.9050                54.7461                57.5472
 Red. masses --    11.7457                11.8210                10.6668
 Frc consts  --     0.0000                 0.0000                 0.0000
 IR Inten    --     0.0487                 0.8702                 0.0727
 Raman Activ --     0.0000                 0.0000                 0.0000
 Depolar     --     0.0000                 0.0000                 0.0000
 Atom AN      X      Y      Z        X      Y      Z        X      Y      Z
   1   6     0.00  -0.07   0.02     0.02  -0.21   0.08     0.06  -0.02   0.01
   2   6    -0.00  -0.11   0.03     0.03  -0.16   0.07     0.06  -0.03   0.03
   3   6     0.00  -0.08   0.02     0.05  -0.02   0.01     0.04  -0.02   0.04
   4   6     0.02  -0.01  -0.01     0.07   0.09  -0.03     0.03  -0.01   0.03
   5   6     0.02   0.03  -0.02     0.06   0.06  -0.03     0.03   0.00   0.00
   6   6     0.02  -0.00  -0.01     0.04  -0.09   0.03     0.04   0.00  -0.01
   7   8     0.05   0.11  -0.06     0.09   0.22  -0.11     0.02   0.02  -0.02
   8   6     0.02   0.03  -0.02     0.04   0.07  -0.04    -0.00   0.01   0.00
   9   6     0.02  -0.00  -0.01     0.00  -0.07   0.02    -0.02   0.01  -0.01
  10   6     0.00  -0.07   0.02    -0.03  -0.18   0.07    -0.04   0.00   0.01
  11   6    -0.01  -0.11   0.03    -0.02  -0.15   0.06    -0.04  -0.01   0.03
  12   6    -0.00  -0.07   0.02     0.02  -0.01   0.01    -0.02  -0.01   0.04
  13   6     0.01  -0.01  -0.01     0.05   0.09  -0.03    -0.01   0.00   0.03
  14   7     0.02   0.02  -0.02     0.09   0.23  -0.09     0.01  -0.00   0.04
  15   6     0.02   0.02  -0.01     0.07   0.14  -0.03     0.01   0.00   0.04
  16   6     0.02   0.03   0.00     0.11   0.10   0.01     0.01   0.01   0.03
  17   6     0.02   0.03   0.01     0.09   0.04   0.04     0.01   0.01  -0.00
  18   6     0.02   0.04   0.00     0.03   0.02   0.03     0.01   0.01  -0.02
  19   6     0.03   0.03   0.00    -0.01   0.06   0.01     0.01   0.01  -0.01
  20   6     0.03   0.02  -0.00     0.01   0.12  -0.02     0.01   0.01   0.03
  21   6     0.03   0.03   0.00    -0.06   0.05   0.00     0.01   0.01  -0.04
  22   6     0.03   0.03   0.01    -0.11   0.09  -0.00     0.01   0.03  -0.18
  23   6     0.04   0.03   0.01    -0.17   0.07  -0.01     0.01   0.03  -0.16
  24   6     0.04   0.04   0.01    -0.18   0.01  -0.01     0.00   0.00   0.03
  25   6     0.04   0.04   0.00    -0.13  -0.03  -0.00     0.00  -0.01   0.14
  26   6     0.03   0.04   0.00    -0.07  -0.01   0.00     0.01  -0.00   0.09
  27   6     0.03   0.04  -0.00    -0.02  -0.05   0.01     0.01  -0.01   0.11
  28   7     0.03   0.04  -0.00    -0.03  -0.09  -0.01     0.01  -0.02   0.20
  29   6     0.02   0.04  -0.00     0.01  -0.11  -0.02     0.01  -0.01   0.10
  30   6     0.02   0.04   0.01     0.01  -0.11  -0.04     0.01  -0.02   0.16
  31   6     0.03   0.03   0.01     0.02  -0.12  -0.05     0.01  -0.01   0.04
  32   6     0.01  -0.05   0.03     0.03  -0.07  -0.05     0.01  -0.00   0.02
  33   6     0.10  -0.07   0.09    -0.01  -0.01  -0.04    -0.04  -0.02  -0.03
  34   6     0.05  -0.24   0.05     0.03   0.13   0.02    -0.05  -0.05  -0.13
  35   7    -0.07  -0.42  -0.06     0.11   0.23   0.08    -0.02  -0.07  -0.19
  36   6    -0.14  -0.36  -0.10     0.13   0.14   0.05     0.03  -0.03  -0.10
  37   6    -0.11  -0.18  -0.06     0.10   0.00  -0.01     0.04  -0.00  -0.00
  38   6     0.03   0.04  -0.01     0.03  -0.11  -0.04     0.01   0.01  -0.12
  39   6    -0.01   0.07  -0.02    -0.00  -0.08  -0.04     0.00   0.01  -0.08
  40   6    -0.14   0.11   0.05    -0.09  -0.07  -0.02     0.19  -0.07  -0.22
  41   6    -0.24   0.19   0.08    -0.19   0.00   0.02     0.15  -0.06  -0.08
  42   7    -0.21   0.25   0.04    -0.22   0.08   0.04    -0.11   0.04   0.20
  43   6    -0.05   0.19  -0.05    -0.10   0.05   0.00    -0.28   0.10   0.31
  44   6     0.05   0.11  -0.08    -0.00  -0.02  -0.04    -0.23   0.08   0.16
  45   6     0.03   0.03  -0.01     0.03  -0.11  -0.01     0.01   0.02  -0.21
  46   6     0.02   0.04  -0.00     0.03  -0.10   0.00     0.01   0.01  -0.10
  47   7     0.03   0.05  -0.00     0.05  -0.07   0.03     0.01   0.02  -0.16
  48   6     0.03   0.04   0.00     0.02  -0.04   0.02     0.01   0.01  -0.03
  49   1    -0.00  -0.03   0.01    -0.00  -0.10   0.04     0.02  -0.01  -0.00
  50   1    -0.00  -0.05   0.02     0.00  -0.07   0.03     0.02  -0.01   0.01
  51   1    -0.00  -0.03   0.01     0.02   0.01  -0.00     0.01  -0.01   0.02
  52   1     0.01   0.01  -0.01     0.01  -0.03   0.01     0.01   0.00  -0.01
  53   1     0.01   0.01  -0.01     0.00  -0.02   0.01    -0.01   0.01  -0.01
  54   1    -0.00  -0.03   0.01    -0.02  -0.08   0.03    -0.01   0.00   0.00
  55   1    -0.01  -0.05   0.02    -0.01  -0.07   0.03    -0.02  -0.00   0.01
  56   1    -0.00  -0.03   0.01     0.01   0.00  -0.00    -0.01  -0.00   0.02
  57   1     0.00   0.01   0.00     0.04   0.03   0.01     0.00   0.00   0.01
  58   1     0.00   0.01   0.00     0.04   0.00   0.02     0.00   0.00  -0.00
  59   1     0.01   0.01   0.00    -0.01   0.05  -0.01     0.00   0.00   0.02
  60   1     0.01   0.01   0.00    -0.03   0.04  -0.00     0.00   0.01  -0.10
  61   1     0.01   0.01   0.00    -0.06   0.03  -0.00     0.00   0.01  -0.08
  62   1     0.01   0.01   0.00    -0.06  -0.00  -0.01     0.00  -0.00   0.02
  63   1     0.01   0.01   0.00    -0.04  -0.02  -0.00     0.00  -0.01   0.08
  64   1     0.00   0.01   0.00     0.00  -0.03  -0.01     0.00  -0.01   0.08
  65   1     0.06   0.01   0.05    -0.02  -0.02  -0.02    -0.02  -0.01  -0.00
  66   1     0.03  -0.08   0.03     0.00   0.05   0.01    -0.03  -0.02  -0.05
  67   1    -0.07  -0.14  -0.05     0.05   0.06   0.03     0.02  -0.01  -0.04
  68   1    -0.05  -0.05  -0.03     0.04  -0.01  -0.01     0.02   0.00   0.01
  69   1    -0.05   0.02   0.03    -0.03  -0.04  -0.01     0.11  -0.04  -0.12
  70   1    -0.10   0.07   0.04    -0.08   0.01   0.01     0.09  -0.03  -0.05
  71   1    -0.00   0.06  -0.03    -0.03   0.03   0.00    -0.14   0.05   0.15
  72   1     0.05   0.02  -0.04     0.02  -0.01  -0.02    -0.11   0.04   0.07
  73   1     0.01   0.01  -0.01     0.01  -0.03   0.00     0.00   0.01  -0.10
                     10                     11                     12
                        a                      a                      a 
 Frequencies --    59.8367                72.1888                83.6176
 Red. masses --    10.1018                10.3471                10.9776
 Frc consts  --     0.0000                 0.0000                 0.0000
 IR Inten    --     0.0740                 0.5346                 0.6753
 Raman Activ --     0.0000                 0.0000                 0.0000
 Depolar     --     0.0000                 0.0000                 0.0000
 Atom AN      X      Y      Z        X      Y      Z        X      Y      Z
   1   6    -0.05  -0.01   0.00    -0.01   0.01   0.00    -0.14  -0.04   0.01
   2   6    -0.05   0.01  -0.02    -0.00   0.01   0.01    -0.12   0.07  -0.08
   3   6    -0.03   0.02  -0.04    -0.01   0.00   0.02    -0.07   0.10  -0.12
   4   6    -0.01   0.01  -0.03    -0.02  -0.02   0.02    -0.04   0.03  -0.08
   5   6    -0.02  -0.00  -0.00    -0.01  -0.01   0.01    -0.05  -0.03  -0.00
   6   6    -0.04  -0.01   0.01    -0.01  -0.00   0.01    -0.10  -0.08   0.05
   7   8    -0.00  -0.01   0.01    -0.02  -0.01   0.01    -0.02  -0.04   0.01
   8   6     0.01  -0.00  -0.01    -0.02   0.01   0.00     0.03   0.00  -0.03
   9   6     0.02  -0.01   0.00    -0.03   0.05  -0.02     0.07   0.04  -0.03
  10   6     0.04  -0.01  -0.01    -0.04   0.06  -0.02     0.09   0.04  -0.05
  11   6     0.04  -0.00  -0.03    -0.05   0.02   0.01     0.08  -0.03  -0.06
  12   6     0.03   0.01  -0.04    -0.04  -0.02   0.03     0.04  -0.05  -0.07
  13   6     0.01   0.01  -0.03    -0.03  -0.02   0.02     0.02  -0.01  -0.07
  14   7     0.00   0.02  -0.05    -0.02  -0.04   0.04     0.00   0.03  -0.11
  15   6    -0.00   0.01  -0.04    -0.02  -0.02   0.03    -0.01  -0.00  -0.07
  16   6     0.00   0.00  -0.00    -0.02  -0.02   0.09    -0.00  -0.03   0.19
  17   6     0.00  -0.01   0.05    -0.02  -0.01   0.08    -0.00  -0.03   0.33
  18   6    -0.00  -0.01   0.05    -0.00   0.00  -0.00     0.01  -0.02   0.22
  19   6    -0.01  -0.00   0.00    -0.00   0.01  -0.08     0.01  -0.00  -0.00
  20   6    -0.01   0.01  -0.05    -0.00  -0.01  -0.06     0.00   0.01  -0.17
  21   6    -0.01  -0.00   0.01     0.00   0.01  -0.11     0.02   0.00  -0.01
  22   6    -0.01   0.00  -0.01     0.01   0.04  -0.36     0.03  -0.01  -0.02
  23   6    -0.01  -0.00  -0.01     0.01   0.02  -0.21     0.04  -0.01   0.01
  24   6    -0.01  -0.00   0.00     0.01  -0.02   0.21     0.04   0.00   0.05
  25   6    -0.01  -0.01   0.01     0.00  -0.03   0.37     0.03   0.01   0.06
  26   6    -0.01  -0.01   0.02    -0.00  -0.01   0.17     0.02   0.01   0.03
  27   6    -0.00  -0.01   0.03    -0.00  -0.01   0.14     0.01   0.01   0.05
  28   7    -0.00  -0.01   0.00    -0.00  -0.01   0.14     0.01   0.03  -0.10
  29   6    -0.00  -0.01   0.02    -0.00   0.00  -0.00     0.01   0.03  -0.08
  30   6    -0.00  -0.00  -0.04    -0.00  -0.00  -0.06     0.01   0.03  -0.22
  31   6     0.00  -0.01  -0.01     0.01  -0.00  -0.12     0.01   0.03  -0.17
  32   6     0.00   0.01  -0.03     0.01  -0.01  -0.10     0.01   0.01  -0.13
  33   6     0.09   0.25   0.24     0.08   0.05   0.02     0.06  -0.11  -0.17
  34   6     0.10   0.29   0.27     0.10   0.10   0.15     0.05  -0.16  -0.08
  35   7     0.03   0.07   0.04     0.05   0.08   0.17    -0.00  -0.08   0.07
  36   6    -0.05  -0.20  -0.24    -0.03  -0.01   0.01    -0.05   0.06   0.13
  37   6    -0.06  -0.22  -0.28    -0.05  -0.06  -0.11    -0.05   0.10   0.03
  38   6    -0.01  -0.02   0.07     0.01   0.00  -0.13     0.01   0.01  -0.07
  39   6    -0.01  -0.00   0.03     0.01  -0.01  -0.09     0.02   0.01  -0.06
  40   6     0.07  -0.11  -0.14    -0.06   0.10   0.08     0.09  -0.02  -0.10
  41   6     0.10  -0.11  -0.23    -0.05   0.08   0.14     0.05   0.00  -0.02
  42   7     0.03  -0.02  -0.16     0.05  -0.05   0.04    -0.06   0.05   0.11
  43   6    -0.06   0.09   0.03     0.11  -0.15  -0.12    -0.11   0.05   0.12
  44   6    -0.08   0.09   0.11     0.09  -0.12  -0.17    -0.06   0.02   0.03
  45   6    -0.00  -0.02   0.13     0.01   0.01  -0.13     0.01   0.01   0.07
  46   6    -0.00  -0.02   0.11     0.00   0.01  -0.08     0.01   0.01   0.10
  47   7    -0.00  -0.02   0.15     0.00   0.01  -0.08     0.01  -0.01   0.29
  48   6    -0.00  -0.02   0.08    -0.00   0.01   0.01     0.01  -0.01   0.21
  49   1    -0.02  -0.01   0.01    -0.00   0.00  -0.00    -0.05  -0.02   0.02
  50   1    -0.02   0.01  -0.01     0.00   0.01   0.00    -0.04   0.03  -0.03
  51   1    -0.01   0.01  -0.02    -0.00   0.00   0.00    -0.02   0.05  -0.06
  52   1    -0.01  -0.01   0.01    -0.00  -0.00   0.00    -0.03  -0.04   0.03
  53   1     0.01  -0.01   0.01    -0.01   0.02  -0.01     0.02   0.02  -0.00
  54   1     0.01  -0.00   0.00    -0.01   0.03  -0.01     0.04   0.02  -0.02
  55   1     0.01  -0.00  -0.01    -0.02   0.00   0.01     0.03  -0.02  -0.02
  56   1     0.01   0.00  -0.01    -0.02  -0.01   0.02     0.01  -0.03  -0.02
  57   1     0.00   0.00  -0.00    -0.01  -0.01   0.04    -0.00  -0.01   0.08
  58   1     0.00  -0.00   0.02    -0.01  -0.00   0.04    -0.00  -0.01   0.15
  59   1    -0.00   0.00  -0.02     0.00  -0.00  -0.02     0.00   0.01  -0.11
  60   1    -0.00   0.00  -0.00     0.00   0.02  -0.20     0.01  -0.00  -0.01
  61   1    -0.00   0.00  -0.00     0.00   0.01  -0.12     0.01  -0.00   0.00
  62   1    -0.00  -0.00   0.00     0.00  -0.01   0.11     0.01   0.00   0.02
  63   1    -0.00  -0.00   0.01    -0.00  -0.02   0.18     0.01   0.01   0.03
  64   1    -0.00   0.00  -0.04    -0.00  -0.00  -0.01     0.00   0.01  -0.09
  65   1     0.04   0.12   0.12     0.04   0.02   0.01     0.03  -0.05  -0.08
  66   1     0.05   0.15   0.14     0.04   0.05   0.08     0.03  -0.08  -0.04
  67   1    -0.03  -0.11  -0.13    -0.02  -0.01   0.00    -0.03   0.04   0.08
  68   1    -0.03  -0.12  -0.14    -0.03  -0.03  -0.06    -0.03   0.06   0.02
  69   1     0.03  -0.06  -0.06    -0.03   0.06   0.05     0.04  -0.01  -0.05
  70   1     0.05  -0.06  -0.11    -0.03   0.05   0.08     0.03  -0.00  -0.01
  71   1    -0.03   0.05   0.03     0.05  -0.07  -0.06    -0.06   0.02   0.06
  72   1    -0.04   0.05   0.07     0.04  -0.06  -0.08    -0.03   0.01   0.01
  73   1     0.00  -0.01   0.05     0.00   0.00  -0.04     0.01   0.00   0.05
                     13                     14                     15
                        a                      a                      a 
 Frequencies --    93.5452                99.5247               107.5821
 Red. masses --    10.9679                11.5479                10.2603
 Frc consts  --     0.0000                 0.0000                 0.0000
 IR Inten    --     2.8602                 0.2133                 0.6299
 Raman Activ --     0.0000                 0.0000                 0.0000
 Depolar     --     0.0000                 0.0000                 0.0000
 Atom AN      X      Y      Z        X      Y      Z        X      Y      Z
   1   6    -0.06   0.11  -0.06    -0.14   0.12  -0.03    -0.08  -0.12   0.05
   2   6    -0.09  -0.03  -0.02    -0.16   0.02  -0.00    -0.03   0.14  -0.08
   3   6    -0.08  -0.10  -0.01    -0.16  -0.07   0.02    -0.00   0.22  -0.13
   4   6    -0.05  -0.03  -0.03    -0.12  -0.07   0.03    -0.01   0.07  -0.06
   5   6    -0.04   0.03  -0.03    -0.11  -0.01   0.02    -0.04  -0.05   0.01
   6   6    -0.04   0.12  -0.05    -0.12   0.10  -0.01    -0.08  -0.19   0.09
   7   8    -0.03  -0.03   0.00    -0.15  -0.06   0.03    -0.02  -0.01  -0.00
   8   6    -0.02  -0.05   0.00    -0.12  -0.03   0.01     0.01   0.05  -0.04
   9   6    -0.01  -0.12   0.04    -0.12   0.04  -0.03     0.06   0.17  -0.08
  10   6     0.02  -0.09   0.01    -0.13   0.08  -0.04     0.06   0.10  -0.06
  11   6     0.06   0.04  -0.07    -0.14   0.04  -0.01     0.00  -0.12   0.01
  12   6     0.04   0.08  -0.10    -0.14  -0.02   0.03    -0.03  -0.19   0.03
  13   6    -0.00   0.01  -0.05    -0.12  -0.06   0.02    -0.01  -0.05  -0.01
  14   7    -0.03  -0.01  -0.06    -0.11  -0.11   0.05    -0.01   0.02  -0.06
  15   6    -0.02  -0.01  -0.03    -0.08  -0.02   0.01    -0.01  -0.00  -0.02
  16   6    -0.03   0.02  -0.20    -0.09  -0.00   0.03    -0.00  -0.02   0.17
  17   6    -0.02   0.02  -0.09    -0.07   0.05  -0.01    -0.01  -0.02   0.18
  18   6    -0.01   0.00   0.14     0.02   0.08  -0.05    -0.00  -0.01   0.07
  19   6    -0.00  -0.01   0.24     0.03   0.07  -0.06    -0.01  -0.00   0.01
  20   6    -0.01  -0.02   0.19     0.01   0.01  -0.04    -0.01   0.01  -0.09
  21   6     0.00  -0.01   0.24     0.03   0.07  -0.05    -0.00  -0.00   0.04
  22   6     0.01  -0.01   0.15     0.04   0.04   0.02     0.00  -0.02   0.18
  23   6     0.02   0.03  -0.14     0.06   0.05   0.08     0.01  -0.02   0.11
  24   6     0.03   0.05  -0.31     0.07   0.06   0.05     0.01   0.01  -0.12
  25   6     0.02   0.04  -0.12     0.05   0.08  -0.02     0.01   0.02  -0.17
  26   6     0.00   0.01   0.15     0.03   0.08  -0.06     0.00   0.01  -0.05
  27   6    -0.00   0.00   0.22     0.02   0.08  -0.06    -0.00   0.00   0.01
  28   7    -0.00  -0.00   0.23     0.01   0.03  -0.03    -0.00  -0.01   0.15
  29   6     0.00   0.00   0.10     0.06  -0.02   0.01     0.00  -0.01   0.12
  30   6    -0.00  -0.01   0.03     0.05  -0.10   0.03     0.00  -0.03   0.26
  31   6     0.01  -0.01  -0.11     0.11  -0.15   0.03     0.01  -0.02   0.12
  32   6     0.01  -0.03  -0.11     0.12  -0.15  -0.00     0.01  -0.02   0.10
  33   6     0.06  -0.02  -0.05     0.07  -0.10  -0.01    -0.03   0.05   0.11
  34   6     0.08   0.02   0.05     0.10   0.01  -0.02    -0.03   0.10   0.05
  35   7     0.05   0.04   0.11     0.20   0.08  -0.00     0.02   0.05  -0.04
  36   6    -0.01   0.00   0.02     0.23   0.00  -0.01     0.05  -0.04  -0.08
  37   6    -0.02  -0.03  -0.08     0.20  -0.11  -0.01     0.05  -0.07   0.00
  38   6     0.03  -0.00  -0.17     0.15  -0.14   0.03     0.01   0.01  -0.12
  39   6     0.03  -0.01  -0.15     0.13  -0.12  -0.01     0.00   0.01  -0.10
  40   6     0.04   0.05  -0.05     0.04  -0.15  -0.04     0.00   0.07  -0.00
  41   6     0.01   0.06   0.08    -0.09  -0.03  -0.02     0.00   0.06   0.08
  42   7    -0.03  -0.00   0.12    -0.14   0.11   0.04     0.03  -0.03   0.05
  43   6    -0.02  -0.07   0.01    -0.01   0.11   0.03     0.04  -0.09  -0.05
  44   6     0.01  -0.08  -0.13     0.13  -0.01   0.00     0.01  -0.06  -0.11
  45   6     0.03   0.01  -0.12     0.15  -0.07   0.04     0.01   0.02  -0.26
  46   6     0.01   0.01   0.02     0.09  -0.01   0.02     0.00   0.01  -0.12
  47   7     0.01   0.01   0.09     0.10   0.05  -0.01     0.00   0.01  -0.15
  48   6     0.00   0.01   0.18     0.04   0.09  -0.04    -0.00   0.00  -0.01
  49   1    -0.02   0.05  -0.02    -0.04   0.06  -0.02    -0.03  -0.07   0.03
  50   1    -0.03  -0.02  -0.00    -0.05   0.01  -0.00    -0.01   0.07  -0.04
  51   1    -0.03  -0.06   0.01    -0.05  -0.04   0.01     0.01   0.11  -0.06
  52   1    -0.01   0.06  -0.02    -0.03   0.05  -0.00    -0.03  -0.10   0.05
  53   1    -0.01  -0.06   0.03    -0.03   0.02  -0.02     0.03   0.08  -0.03
  54   1     0.01  -0.04   0.01    -0.04   0.04  -0.02     0.03   0.06  -0.03
  55   1     0.03   0.03  -0.03    -0.04   0.02  -0.00    -0.00  -0.07   0.01
  56   1     0.02   0.05  -0.05    -0.04  -0.01   0.02    -0.02  -0.10   0.02
  57   1    -0.01   0.01  -0.11    -0.03  -0.00   0.02    -0.00  -0.01   0.08
  58   1    -0.01   0.01  -0.06    -0.03   0.03   0.00    -0.00  -0.01   0.08
  59   1     0.00  -0.01   0.08     0.02  -0.01  -0.02    -0.00   0.01  -0.07
  60   1     0.00  -0.01   0.07     0.01   0.01   0.01    -0.00  -0.01   0.10
  61   1     0.01   0.01  -0.07     0.02   0.01   0.04     0.00  -0.01   0.07
  62   1     0.01   0.02  -0.16     0.02   0.02   0.03     0.00   0.01  -0.07
  63   1     0.01   0.02  -0.06     0.02   0.03  -0.01     0.00   0.01  -0.08
  64   1    -0.01  -0.01   0.02    -0.00  -0.03   0.01    -0.00  -0.01   0.13
  65   1     0.03  -0.01  -0.02     0.00  -0.04  -0.01    -0.02   0.02   0.05
  66   1     0.03   0.01   0.03     0.02   0.02  -0.01    -0.02   0.05   0.02
  67   1    -0.01   0.00   0.02     0.08   0.01  -0.00     0.02  -0.02  -0.05
  68   1    -0.02  -0.01  -0.03     0.07  -0.05  -0.00     0.03  -0.04  -0.00
  69   1     0.02   0.03  -0.02     0.02  -0.07  -0.02    -0.00   0.04   0.00
  70   1     0.00   0.03   0.05    -0.05  -0.01  -0.01    -0.00   0.03   0.05
  71   1    -0.01  -0.04   0.01    -0.01   0.06   0.02     0.02  -0.05  -0.02
  72   1    -0.00  -0.04  -0.06     0.06   0.00   0.00     0.00  -0.03  -0.05
  73   1     0.01   0.01  -0.05     0.06  -0.02   0.01     0.00   0.01  -0.12
                     16                     17                     18
                        a                      a                      a 
 Frequencies --   122.1397               138.3800               149.3721
 Red. masses --    10.4165                11.2230                11.3764
 Frc consts  --     0.0000                 0.0000                 0.0000
 IR Inten    --     5.1019                 1.2775                 1.1303
 Raman Activ --     0.0000                 0.0000                 0.0000
 Depolar     --     0.0000                 0.0000                 0.0000
 Atom AN      X      Y      Z        X      Y      Z        X      Y      Z
   1   6     0.10  -0.09   0.01     0.12   0.14  -0.12     0.09  -0.06   0.03
   2   6     0.14   0.12  -0.04     0.06  -0.14  -0.01     0.10  -0.03   0.04
   3   6     0.11   0.14  -0.02     0.03  -0.29   0.05     0.08   0.03   0.04
   4   6     0.03  -0.00   0.01     0.03  -0.20   0.01     0.04   0.03   0.02
   5   6     0.01  -0.09   0.03     0.06  -0.10  -0.01     0.05   0.04   0.00
   6   6     0.03  -0.18   0.04     0.11   0.13  -0.12     0.07  -0.01   0.00
   7   8     0.01  -0.07   0.02     0.05  -0.25   0.06     0.06   0.10  -0.02
   8   6     0.01   0.01   0.00     0.06  -0.14   0.02     0.03   0.03   0.02
   9   6     0.10   0.25  -0.09     0.14  -0.02   0.00    -0.00  -0.05   0.05
  10   6     0.11   0.16  -0.07     0.22   0.06  -0.06    -0.02  -0.06   0.06
  11   6     0.02  -0.19   0.07     0.20  -0.02  -0.06     0.01   0.05   0.03
  12   6    -0.04  -0.33   0.12     0.12  -0.14  -0.04     0.04   0.11   0.01
  13   6    -0.03  -0.15   0.08     0.06  -0.13   0.00     0.04   0.06   0.02
  14   7    -0.03  -0.10   0.07     0.02  -0.12  -0.01     0.02   0.01   0.04
  15   6    -0.01   0.00   0.01     0.03   0.03  -0.01     0.00  -0.01  -0.01
  16   6    -0.05   0.05  -0.24    -0.02   0.06   0.14    -0.02   0.00   0.01
  17   6    -0.04   0.08  -0.30    -0.01   0.09   0.17    -0.03   0.02  -0.05
  18   6    -0.02   0.07  -0.09    -0.00   0.10   0.05    -0.04   0.02  -0.11
  19   6     0.00   0.04   0.06     0.02   0.10  -0.04    -0.01  -0.00  -0.17
  20   6     0.00   0.00   0.13     0.03   0.06  -0.07    -0.01  -0.01  -0.14
  21   6    -0.02   0.04   0.08    -0.04   0.10  -0.06     0.02  -0.00  -0.15
  22   6    -0.02   0.05   0.00    -0.10   0.15   0.01     0.12  -0.10  -0.01
  23   6    -0.02   0.06  -0.07    -0.16   0.12   0.08     0.25  -0.08   0.13
  24   6    -0.02   0.06  -0.04    -0.17   0.08   0.05     0.27   0.02   0.06
  25   6    -0.02   0.04   0.04    -0.11   0.05  -0.04     0.17   0.11  -0.10
  26   6    -0.02   0.04   0.08    -0.06   0.07  -0.07     0.03   0.07  -0.15
  27   6    -0.03   0.05   0.06    -0.05   0.07  -0.04    -0.04   0.09  -0.05
  28   7    -0.04   0.04   0.04    -0.07   0.05  -0.01    -0.06   0.06   0.12
  29   6    -0.03   0.02   0.00    -0.05   0.03   0.03    -0.07   0.05   0.18
  30   6    -0.04  -0.00  -0.11    -0.06  -0.01   0.07    -0.10  -0.03   0.14
  31   6    -0.02  -0.03  -0.09    -0.04  -0.03   0.03    -0.08  -0.06  -0.04
  32   6    -0.02  -0.04  -0.11    -0.06  -0.04   0.02    -0.10  -0.09  -0.11
  33   6     0.01  -0.05  -0.09    -0.09  -0.01   0.02    -0.11  -0.07  -0.09
  34   6     0.02  -0.02  -0.00    -0.07   0.04   0.02    -0.07   0.04   0.04
  35   7     0.00   0.03   0.08    -0.05   0.06   0.01    -0.07   0.12   0.13
  36   6    -0.03   0.03   0.04    -0.02   0.00  -0.01    -0.09   0.02   0.02
  37   6    -0.05  -0.01  -0.06    -0.03  -0.05  -0.00    -0.12  -0.09  -0.10
  38   6     0.01  -0.04   0.04    -0.01  -0.01  -0.03    -0.04  -0.04  -0.07
  39   6     0.02  -0.05   0.02     0.01  -0.02  -0.05     0.00  -0.08  -0.14
  40   6     0.01  -0.07  -0.02     0.00  -0.01  -0.03     0.01  -0.07  -0.11
  41   6    -0.03  -0.04  -0.03    -0.02  -0.00   0.01    -0.05  -0.04   0.01
  42   7    -0.06   0.02   0.01    -0.03  -0.01   0.03    -0.13  -0.05   0.09
  43   6    -0.03   0.03   0.03    -0.02  -0.03  -0.01    -0.08  -0.10  -0.00
  44   6     0.01  -0.01   0.02     0.00  -0.04  -0.04    -0.03  -0.13  -0.12
  45   6     0.01  -0.01   0.15     0.00   0.03  -0.04    -0.02   0.02   0.09
  46   6    -0.01   0.02   0.10    -0.02   0.04  -0.00    -0.06   0.05   0.16
  47   7    -0.01   0.05   0.08    -0.01   0.07   0.02    -0.06   0.08   0.14
  48   6    -0.02   0.06   0.00    -0.02   0.08   0.02    -0.04   0.07  -0.02
  49   1     0.03  -0.04   0.01     0.04   0.10  -0.06     0.03  -0.03   0.01
  50   1     0.05   0.07  -0.02     0.02  -0.06   0.00     0.03  -0.01   0.02
  51   1     0.04   0.07  -0.00     0.00  -0.12   0.03     0.02   0.02   0.01
  52   1     0.00  -0.09   0.01     0.04   0.08  -0.05     0.02  -0.01  -0.01
  53   1     0.04   0.14  -0.04     0.04   0.00   0.01    -0.00  -0.03   0.02
  54   1     0.05   0.10  -0.04     0.08   0.05  -0.03    -0.01  -0.04   0.02
  55   1    -0.00  -0.09   0.04     0.07   0.00  -0.03     0.00   0.02   0.01
  56   1    -0.03  -0.15   0.04     0.03  -0.06  -0.01     0.02   0.05   0.00
  57   1    -0.02   0.01  -0.10    -0.02   0.01   0.06    -0.01  -0.00   0.02
  58   1    -0.02   0.03  -0.13    -0.01   0.03   0.08    -0.01   0.00  -0.01
  59   1     0.00  -0.00   0.08     0.01   0.02  -0.03    -0.00  -0.00  -0.05
  60   1    -0.01   0.02  -0.01    -0.03   0.05   0.01     0.03  -0.06   0.01
  61   1    -0.01   0.02  -0.04    -0.05   0.04   0.05     0.09  -0.05   0.09
  62   1    -0.01   0.02  -0.03    -0.06   0.02   0.03     0.10   0.01   0.04
  63   1    -0.01   0.01   0.02    -0.04  -0.00  -0.02     0.05   0.07  -0.04
  64   1    -0.02  -0.00  -0.05    -0.02  -0.01   0.03    -0.05  -0.02   0.05
  65   1     0.01  -0.02  -0.04    -0.03  -0.01   0.01    -0.03  -0.03  -0.04
  66   1     0.01  -0.01   0.00    -0.03   0.02   0.01    -0.01   0.03   0.03
  67   1    -0.01   0.02   0.03     0.00   0.00  -0.01    -0.02   0.01   0.02
  68   1    -0.02  -0.00  -0.02    -0.00  -0.02  -0.00    -0.04  -0.04  -0.04
  69   1     0.00  -0.03  -0.01     0.00  -0.00  -0.01     0.01  -0.02  -0.04
  70   1    -0.01  -0.02  -0.01    -0.01   0.00   0.01    -0.02  -0.00   0.02
  71   1    -0.01   0.02   0.01    -0.01  -0.01  -0.00    -0.03  -0.03   0.01
  72   1     0.01   0.00   0.01     0.00  -0.01  -0.02    -0.01  -0.05  -0.05
  73   1     0.01  -0.00   0.07     0.01   0.01  -0.02     0.01   0.01   0.03
                     19                     20                     21
                        a                      a                      a 
 Frequencies --   156.7770               196.2969               199.4658
 Red. masses --    11.3765                11.5338                11.6575
 Frc consts  --     0.0000                 0.0000                 0.0000
 IR Inten    --     1.6653                 1.9762                 1.0723
 Raman Activ --     0.0000                 0.0000                 0.0000
 Depolar     --     0.0000                 0.0000                 0.0000
 Atom AN      X      Y      Z        X      Y      Z        X      Y      Z
   1   6     0.01  -0.04  -0.01    -0.04   0.06  -0.01    -0.00   0.06  -0.01
   2   6     0.02   0.01  -0.04    -0.06  -0.04   0.01    -0.02  -0.03   0.03
   3   6     0.02   0.04  -0.05    -0.03  -0.06   0.00    -0.02  -0.06   0.03
   4   6     0.01   0.03  -0.05     0.02  -0.02   0.00     0.01  -0.01   0.02
   5   6     0.01   0.01  -0.03     0.02  -0.02   0.01     0.00  -0.03   0.03
   6   6     0.00  -0.04  -0.01     0.00   0.06   0.01     0.01   0.05   0.00
   7   8     0.03   0.03  -0.02     0.00  -0.10   0.04    -0.03  -0.12   0.06
   8   6     0.03   0.01  -0.02     0.01  -0.02   0.00    -0.01  -0.02   0.01
   9   6     0.06  -0.04   0.03    -0.01   0.01  -0.03    -0.02   0.07  -0.04
  10   6     0.10  -0.05   0.01    -0.04   0.04  -0.03    -0.04   0.06  -0.02
  11   6     0.11  -0.01  -0.04    -0.05  -0.01   0.01    -0.07  -0.05   0.04
  12   6     0.07   0.02  -0.07    -0.02  -0.02   0.03    -0.05  -0.05   0.06
  13   6     0.03   0.02  -0.05     0.02   0.00   0.00    -0.01  -0.01   0.02
  14   7     0.00   0.03  -0.06     0.05   0.06  -0.03     0.03   0.08  -0.02
  15   6    -0.01  -0.01   0.02     0.05   0.06  -0.02     0.04   0.10  -0.05
  16   6    -0.04   0.02   0.05     0.07   0.03   0.18     0.06   0.10  -0.11
  17   6    -0.04   0.04   0.14     0.06   0.02   0.04     0.06   0.07  -0.06
  18   6    -0.04   0.04   0.15     0.04   0.03  -0.12     0.03   0.05   0.03
  19   6    -0.01   0.00   0.18     0.03   0.04  -0.10     0.03   0.06  -0.02
  20   6    -0.01  -0.01   0.14     0.04   0.07  -0.18     0.04   0.09  -0.05
  21   6     0.01   0.01   0.15     0.03   0.02   0.05     0.05   0.06  -0.02
  22   6     0.10  -0.04  -0.02     0.04   0.00   0.15     0.08   0.04  -0.02
  23   6     0.20   0.01  -0.15     0.05   0.02   0.03     0.11   0.05   0.02
  24   6     0.22   0.07  -0.03     0.05   0.03  -0.16     0.11   0.05   0.03
  25   6     0.14   0.12   0.14     0.04   0.02  -0.03     0.09   0.07  -0.01
  26   6     0.02   0.07   0.15     0.03   0.00   0.11     0.04   0.05  -0.02
  27   6    -0.04   0.10   0.03     0.03  -0.02   0.14     0.04   0.02   0.00
  28   7    -0.06   0.09  -0.17     0.02  -0.05   0.32     0.04  -0.02  -0.05
  29   6    -0.05   0.06  -0.20     0.02  -0.03   0.11     0.05  -0.04  -0.03
  30   6    -0.08  -0.04  -0.13     0.02  -0.01  -0.02     0.07  -0.03  -0.04
  31   6    -0.05  -0.10   0.07    -0.00   0.02  -0.13     0.03   0.00  -0.01
  32   6    -0.05  -0.10   0.11    -0.01   0.03  -0.22     0.09   0.12   0.12
  33   6    -0.14  -0.04   0.07     0.08  -0.03  -0.19     0.12   0.14   0.15
  34   6    -0.13   0.04  -0.01     0.08  -0.06  -0.03     0.08  -0.00   0.01
  35   7    -0.04   0.07  -0.04     0.00   0.00   0.12     0.05  -0.15  -0.15
  36   6     0.04   0.00  -0.01    -0.09   0.03   0.04     0.07  -0.01  -0.01
  37   6     0.03  -0.08   0.06    -0.10   0.03  -0.15     0.11   0.15   0.14
  38   6    -0.02  -0.09   0.09    -0.03  -0.02   0.10    -0.10  -0.04  -0.11
  39   6    -0.03  -0.12   0.13    -0.09  -0.01   0.22    -0.21  -0.01  -0.08
  40   6    -0.11  -0.16   0.07    -0.16  -0.05   0.17    -0.22   0.02  -0.02
  41   6    -0.14  -0.13  -0.04    -0.08  -0.10  -0.05    -0.12  -0.09  -0.00
  42   7    -0.09  -0.07  -0.10     0.02  -0.09  -0.17    -0.08  -0.28  -0.08
  43   6    -0.02  -0.01  -0.02    -0.03   0.03   0.02    -0.17  -0.25  -0.05
  44   6     0.01  -0.05   0.10    -0.09   0.05   0.22    -0.28  -0.13  -0.03
  45   6     0.00   0.01  -0.10    -0.02  -0.02   0.01    -0.07  -0.04  -0.05
  46   6    -0.03   0.07  -0.20     0.01  -0.02  -0.09    -0.01  -0.07   0.05
  47   7    -0.03   0.12  -0.19     0.02   0.02  -0.28     0.02  -0.03   0.19
  48   6    -0.03   0.10   0.02     0.02   0.01  -0.13     0.02  -0.00   0.10
  49   1     0.00  -0.02   0.00    -0.01   0.03  -0.00     0.00   0.04  -0.01
  50   1     0.00   0.00  -0.01    -0.02  -0.02   0.00    -0.01  -0.02   0.01
  51   1     0.01   0.02  -0.01    -0.01  -0.03  -0.01    -0.01  -0.03   0.01
  52   1    -0.00  -0.02  -0.00     0.00   0.03   0.01     0.00   0.03   0.00
  53   1     0.01  -0.02   0.02    -0.00   0.00  -0.02    -0.00   0.03  -0.02
  54   1     0.03  -0.02   0.01    -0.01   0.02  -0.01    -0.01   0.04  -0.02
  55   1     0.04  -0.00  -0.02    -0.02  -0.01   0.01    -0.03  -0.03   0.02
  56   1     0.02   0.01  -0.03    -0.01  -0.01   0.02    -0.02  -0.02   0.02
  57   1    -0.02   0.00  -0.01     0.03   0.01   0.11     0.02   0.03  -0.04
  58   1    -0.01   0.01   0.04     0.02   0.00   0.03     0.02   0.02  -0.02
  59   1    -0.00  -0.01   0.04     0.01   0.03  -0.08     0.01   0.03  -0.01
  60   1     0.02  -0.03  -0.02     0.01  -0.01   0.08     0.02   0.01  -0.01
  61   1     0.08  -0.01  -0.10     0.01   0.00   0.01     0.03   0.01   0.01
  62   1     0.08   0.03  -0.03     0.01   0.01  -0.10     0.03   0.01   0.02
  63   1     0.04   0.06   0.06     0.01   0.01  -0.02     0.03   0.03  -0.00
  64   1    -0.04  -0.01  -0.04     0.01   0.00  -0.02     0.02  -0.01  -0.01
  65   1    -0.07  -0.02   0.03     0.05  -0.01  -0.07     0.04   0.06   0.06
  66   1    -0.05   0.03  -0.01     0.05  -0.03   0.00     0.02  -0.01  -0.01
  67   1     0.03   0.01  -0.02    -0.05   0.02   0.04     0.01  -0.02  -0.02
  68   1     0.03  -0.04   0.02    -0.06   0.02  -0.06     0.04   0.06   0.06
  69   1    -0.04  -0.07   0.03    -0.07  -0.03   0.07    -0.07   0.02   0.00
  70   1    -0.05  -0.05  -0.03    -0.02  -0.05  -0.05    -0.01  -0.01   0.02
  71   1     0.01   0.02  -0.02     0.01   0.03  -0.01    -0.04  -0.09  -0.02
  72   1     0.02  -0.00   0.04    -0.02   0.03   0.08    -0.12  -0.04  -0.01
  73   1     0.02   0.01  -0.03    -0.01  -0.01   0.02    -0.03  -0.01  -0.02
                     22                     23                     24
                        a                      a                      a 
 Frequencies --   212.4040               234.6151               239.1431
 Red. masses --    11.6678                10.8792                11.7590
 Frc consts  --     0.0000                 0.0000                 0.0000
 IR Inten    --     0.1681                 1.9993                 0.0555
 Raman Activ --     0.0000                 0.0000                 0.0000
 Depolar     --     0.0000                 0.0000                 0.0000
 Atom AN      X      Y      Z        X      Y      Z        X      Y      Z
   1   6     0.10  -0.13  -0.01    -0.07   0.05  -0.02    -0.13   0.04   0.01
   2   6     0.13   0.03  -0.03    -0.08   0.03  -0.04    -0.10   0.21  -0.12
   3   6     0.07   0.09   0.00    -0.05  -0.02  -0.04    -0.05  -0.03  -0.08
   4   6    -0.04  -0.00  -0.01     0.00   0.02  -0.04     0.02  -0.16   0.02
   5   6    -0.03   0.05  -0.04    -0.01  -0.03  -0.01     0.04  -0.08   0.01
   6   6     0.02  -0.09  -0.05    -0.05  -0.02   0.02    -0.07  -0.15   0.13
   7   8     0.01   0.23  -0.10    -0.04  -0.10   0.02     0.14   0.26  -0.16
   8   6    -0.02   0.02   0.01    -0.00   0.02  -0.04     0.06   0.01  -0.05
   9   6     0.04  -0.10   0.11     0.02   0.05  -0.05    -0.02  -0.10  -0.04
  10   6     0.14  -0.08   0.06     0.02  -0.02  -0.03    -0.06  -0.08  -0.02
  11   6     0.18   0.08  -0.07    -0.00  -0.09  -0.02    -0.02   0.09  -0.06
  12   6     0.08   0.04  -0.09    -0.00  -0.02  -0.05     0.02   0.05  -0.02
  13   6    -0.04  -0.02   0.00    -0.00   0.05  -0.06     0.04  -0.07  -0.01
  14   7    -0.12  -0.18   0.07     0.03   0.11  -0.08     0.02  -0.26   0.08
  15   6    -0.13  -0.12   0.05     0.03   0.03   0.10     0.05  -0.08   0.10
  16   6    -0.18  -0.08   0.06     0.06   0.03  -0.05     0.01  -0.03   0.08
  17   6    -0.17  -0.00   0.04     0.05  -0.00   0.10     0.04   0.05   0.02
  18   6    -0.10   0.03  -0.01     0.03  -0.01   0.12     0.10   0.07  -0.03
  19   6    -0.07  -0.00  -0.02     0.02  -0.01   0.20     0.14   0.05   0.06
  20   6    -0.09  -0.09   0.03     0.02  -0.01   0.44     0.13  -0.05   0.16
  21   6    -0.05   0.02  -0.05     0.03   0.03  -0.10     0.12   0.07   0.01
  22   6    -0.06   0.03  -0.02     0.03   0.04  -0.21     0.03   0.16  -0.00
  23   6    -0.07   0.02   0.05     0.03   0.01   0.05    -0.08   0.13   0.01
  24   6    -0.07   0.04   0.03     0.03  -0.02   0.22    -0.09   0.04   0.03
  25   6    -0.06   0.05  -0.05     0.03   0.01  -0.11    -0.00  -0.03  -0.01
  26   6    -0.05   0.05  -0.05     0.03   0.02  -0.23     0.09   0.01  -0.02
  27   6    -0.05   0.06   0.00     0.03   0.00  -0.17     0.08   0.01  -0.04
  28   7    -0.05   0.06   0.11     0.03  -0.02  -0.05     0.08  -0.01   0.03
  29   6    -0.01   0.04   0.07     0.02  -0.02   0.10     0.06  -0.02   0.04
  30   6     0.02   0.04   0.04     0.02  -0.01   0.21     0.04  -0.03   0.03
  31   6     0.08   0.01  -0.05     0.01   0.01   0.02    -0.02   0.02  -0.02
  32   6     0.14   0.04  -0.06    -0.01  -0.07  -0.12    -0.04   0.12  -0.02
  33   6     0.24  -0.01  -0.02    -0.00  -0.13  -0.16    -0.03   0.14   0.01
  34   6     0.24  -0.08  -0.02     0.03  -0.05  -0.03    -0.05   0.05   0.02
  35   7     0.23  -0.11  -0.03     0.05   0.09   0.14    -0.15  -0.04  -0.02
  36   6     0.17  -0.01  -0.00    -0.00  -0.01   0.01    -0.15   0.02   0.01
  37   6     0.17   0.06  -0.03    -0.04  -0.12  -0.16    -0.12   0.13   0.03
  38   6    -0.02  -0.02  -0.01    -0.01   0.02  -0.01    -0.02  -0.02   0.02
  39   6    -0.10   0.02   0.05    -0.09   0.08   0.04     0.02  -0.09  -0.03
  40   6    -0.12   0.03   0.07    -0.10   0.11   0.09    -0.01  -0.13  -0.07
  41   6    -0.04  -0.03  -0.01     0.02   0.02  -0.01    -0.09  -0.09  -0.01
  42   7     0.02  -0.10  -0.09     0.09  -0.06  -0.09    -0.14  -0.07   0.04
  43   6    -0.05  -0.04   0.00    -0.05   0.01   0.02    -0.03  -0.09  -0.02
  44   6    -0.13   0.01   0.08    -0.14   0.07   0.08     0.02  -0.13  -0.05
  45   6    -0.02  -0.00  -0.00    -0.01  -0.01  -0.01     0.00   0.01   0.09
  46   6    -0.05   0.04   0.01     0.01  -0.02   0.01     0.06  -0.01   0.03
  47   7    -0.07   0.06  -0.02     0.01  -0.02  -0.02     0.08   0.02  -0.07
  48   6    -0.08   0.06  -0.03     0.02  -0.01  -0.04     0.08   0.03  -0.09
  49   1     0.03  -0.07   0.00    -0.03   0.03  -0.01    -0.05   0.03   0.01
  50   1     0.05   0.02  -0.01    -0.03   0.01  -0.02    -0.03   0.13  -0.07
  51   1     0.03   0.05   0.02    -0.02  -0.02  -0.01    -0.02  -0.02  -0.04
  52   1     0.00  -0.04  -0.04    -0.01  -0.01   0.02    -0.02  -0.05   0.07
  53   1     0.01  -0.04   0.07     0.01   0.02  -0.01    -0.01  -0.04  -0.02
  54   1     0.05  -0.04   0.03     0.01  -0.01  -0.01    -0.03  -0.04  -0.00
  55   1     0.07   0.05  -0.04    -0.00  -0.05   0.00    -0.01   0.06  -0.03
  56   1     0.02   0.01  -0.05    -0.00  -0.01  -0.02     0.01   0.03   0.01
  57   1    -0.07  -0.03   0.02     0.02   0.02  -0.08    -0.01  -0.01   0.03
  58   1    -0.06   0.01   0.02     0.02  -0.00   0.02    -0.00   0.03  -0.00
  59   1    -0.02  -0.03   0.01     0.00  -0.00   0.19     0.05  -0.02   0.07
  60   1    -0.02   0.01  -0.01     0.01   0.02  -0.11     0.01   0.07  -0.01
  61   1    -0.02   0.00   0.03     0.01   0.00   0.04    -0.04   0.05   0.00
  62   1    -0.02   0.01   0.02     0.00  -0.02   0.15    -0.05   0.00   0.02
  63   1    -0.02   0.01  -0.02     0.01   0.01  -0.04    -0.00  -0.03  -0.01
  64   1    -0.01   0.01   0.02     0.01  -0.01   0.08     0.02  -0.01   0.01
  65   1     0.09   0.01  -0.01     0.00  -0.05  -0.06     0.00   0.04   0.00
  66   1     0.07  -0.03  -0.01     0.01  -0.01   0.00    -0.00   0.00   0.01
  67   1     0.03  -0.00   0.01    -0.00   0.01   0.02    -0.05  -0.00  -0.00
  68   1     0.05   0.02  -0.01    -0.02  -0.04  -0.06    -0.05   0.06   0.01
  69   1    -0.04   0.01   0.03    -0.04   0.05   0.04    -0.00  -0.05  -0.02
  70   1    -0.00  -0.01  -0.01     0.02   0.00  -0.01    -0.03  -0.02   0.01
  71   1    -0.01  -0.02  -0.01    -0.01  -0.01   0.01    -0.01  -0.02  -0.01
  72   1    -0.05   0.01   0.03    -0.06   0.02   0.03     0.01  -0.04  -0.02
  73   1     0.01   0.00   0.00    -0.01  -0.00  -0.01    -0.00  -0.00   0.04
                     25                     26                     27
                        a                      a                      a 
 Frequencies --   246.1818               250.7101               262.9925
 Red. masses --    11.5765                10.6103                11.0308
 Frc consts  --     0.0000                 0.0000                 0.0000
 IR Inten    --     3.5322                 5.5654                 1.8077
 Raman Activ --     0.0000                 0.0000                 0.0000
 Depolar     --     0.0000                 0.0000                 0.0000
 Atom AN      X      Y      Z        X      Y      Z        X      Y      Z
   1   6    -0.00   0.04   0.02     0.06   0.18  -0.08     0.08  -0.01  -0.02
   2   6     0.02   0.13  -0.03     0.05   0.15  -0.06     0.09  -0.00   0.03
   3   6     0.00  -0.06   0.03    -0.02  -0.21   0.09     0.01   0.01   0.07
   4   6     0.00  -0.16   0.08    -0.03  -0.23   0.10    -0.07   0.00   0.04
   5   6     0.03  -0.08   0.05    -0.03  -0.25   0.11    -0.08  -0.00   0.02
   6   6    -0.01  -0.11   0.09    -0.02  -0.19   0.08     0.00  -0.03  -0.04
   7   8     0.11   0.19  -0.07     0.02  -0.09   0.04    -0.10   0.01   0.02
   8   6     0.05   0.03  -0.01     0.08   0.26  -0.11    -0.06   0.05   0.00
   9   6    -0.02  -0.02  -0.02     0.08   0.25  -0.10     0.01   0.06   0.04
  10   6    -0.09  -0.04   0.02    -0.04  -0.19   0.08     0.04  -0.02   0.04
  11   6    -0.07   0.06   0.02    -0.05  -0.23   0.10     0.04  -0.05   0.01
  12   6     0.00   0.06   0.05     0.07   0.22  -0.09    -0.01   0.02  -0.04
  13   6     0.04  -0.04   0.04     0.09   0.30  -0.12    -0.05   0.04  -0.01
  14   7     0.00  -0.20   0.10     0.02   0.06  -0.03    -0.06  -0.00   0.01
  15   6     0.02  -0.04  -0.08    -0.02   0.00  -0.01    -0.05   0.00  -0.04
  16   6    -0.01  -0.00  -0.14    -0.02  -0.01   0.03    -0.04   0.01  -0.17
  17   6    -0.00   0.04  -0.08    -0.03  -0.02   0.01    -0.03   0.00   0.03
  18   6     0.04   0.04   0.08    -0.05  -0.03  -0.03     0.01  -0.00   0.16
  19   6     0.07   0.03  -0.08    -0.06  -0.03  -0.02    -0.00   0.02  -0.01
  20   6     0.07  -0.00  -0.23    -0.05  -0.01  -0.03    -0.01   0.00   0.01
  21   6     0.04   0.03  -0.02    -0.05  -0.03   0.01    -0.00   0.03  -0.17
  22   6     0.01   0.06   0.02    -0.03  -0.06   0.02     0.01   0.02  -0.18
  23   6    -0.03   0.05   0.03    -0.00  -0.05  -0.02     0.03  -0.02   0.17
  24   6    -0.03   0.02  -0.03     0.00  -0.01  -0.03     0.03  -0.01   0.11
  25   6    -0.00  -0.01  -0.01    -0.02   0.01   0.02     0.02   0.04  -0.23
  26   6     0.03   0.00   0.03    -0.04   0.00   0.02    -0.00   0.02  -0.13
  27   6     0.01   0.00   0.08    -0.04   0.02   0.01     0.00  -0.02   0.12
  28   7     0.00  -0.01  -0.04    -0.04   0.04   0.01    -0.01  -0.08   0.23
  29   6     0.00  -0.01  -0.09    -0.04   0.05   0.01     0.03  -0.09   0.01
  30   6    -0.01  -0.02  -0.08    -0.03   0.04  -0.00     0.03  -0.07  -0.13
  31   6    -0.00  -0.04   0.03     0.01   0.01  -0.00    -0.02  -0.03  -0.10
  32   6    -0.04  -0.19   0.05     0.03   0.02   0.00    -0.02   0.10  -0.03
  33   6    -0.14  -0.18  -0.03     0.07   0.01   0.02    -0.01   0.15   0.03
  34   6    -0.11  -0.02  -0.03     0.06  -0.01   0.00    -0.04   0.05   0.01
  35   7     0.01   0.13   0.07     0.07  -0.04  -0.03    -0.15  -0.06  -0.06
  36   6     0.06  -0.03   0.00     0.05  -0.00  -0.01    -0.13   0.04   0.02
  37   6     0.02  -0.23  -0.04     0.06   0.03   0.01    -0.10   0.15   0.06
  38   6     0.03   0.01  -0.08    -0.01   0.00   0.02     0.05  -0.04  -0.02
  39   6    -0.09   0.11   0.05     0.02  -0.02  -0.01     0.11  -0.11   0.15
  40   6    -0.11   0.18   0.14     0.03  -0.03  -0.03     0.04  -0.15   0.10
  41   6     0.04   0.07   0.01     0.00  -0.01  -0.00    -0.05  -0.06   0.00
  42   7     0.17  -0.04  -0.13    -0.03   0.02   0.03    -0.01   0.07  -0.04
  43   6    -0.03   0.05   0.03     0.01  -0.00  -0.01     0.10   0.10   0.01
  44   6    -0.16   0.14   0.12     0.04  -0.02  -0.03     0.16   0.01   0.12
  45   6     0.03  -0.01  -0.22    -0.01   0.02   0.05     0.05  -0.03  -0.30
  46   6     0.03  -0.01  -0.05    -0.05   0.05   0.01     0.06  -0.06  -0.14
  47   7     0.04  -0.01   0.20    -0.06   0.03  -0.03     0.07  -0.05   0.08
  48   6     0.03   0.00   0.20    -0.05   0.01  -0.03     0.02  -0.02   0.19
  49   1     0.00   0.04  -0.00     0.03   0.14  -0.06     0.04  -0.00  -0.02
  50   1     0.01   0.09  -0.03     0.03   0.12  -0.05     0.04   0.00   0.01
  51   1    -0.00  -0.01  -0.00    -0.01  -0.07   0.03     0.01   0.01   0.04
  52   1    -0.00  -0.03   0.03    -0.01  -0.06   0.03    -0.00  -0.01  -0.04
  53   1    -0.01  -0.01  -0.03     0.03   0.08  -0.04     0.00   0.03   0.03
  54   1    -0.04  -0.03   0.01    -0.03  -0.14   0.06     0.02  -0.02   0.02
  55   1    -0.03   0.04   0.01    -0.04  -0.17   0.07     0.02  -0.03   0.00
  56   1     0.01   0.04   0.02     0.02   0.07  -0.03    -0.00   0.00  -0.03
  57   1    -0.01  -0.00  -0.05    -0.00  -0.00   0.02    -0.01   0.01  -0.10
  58   1    -0.01   0.02  -0.03    -0.00  -0.01   0.01    -0.01   0.01   0.02
  59   1     0.03  -0.00  -0.09    -0.02  -0.00  -0.01     0.00  -0.01   0.01
  60   1     0.00   0.02   0.02    -0.01  -0.02   0.01     0.00   0.00  -0.08
  61   1    -0.01   0.02   0.02     0.00  -0.02  -0.01     0.01  -0.01   0.12
  62   1    -0.02   0.00  -0.02     0.01   0.00  -0.02     0.01  -0.01   0.08
  63   1    -0.00  -0.01  -0.00    -0.01   0.01   0.01     0.01   0.02  -0.10
  64   1    -0.00  -0.00  -0.02    -0.02   0.01  -0.00     0.02  -0.01  -0.05
  65   1    -0.07  -0.07  -0.01     0.03   0.01   0.01     0.00   0.05   0.01
  66   1    -0.05   0.01  -0.01     0.02  -0.00  -0.00     0.00   0.00   0.01
  67   1     0.05   0.01   0.00     0.01  -0.00  -0.00    -0.05   0.00   0.00
  68   1     0.02  -0.09  -0.02     0.02   0.01   0.01    -0.04   0.07   0.02
  69   1    -0.04   0.07   0.05     0.01  -0.01  -0.01     0.01  -0.07   0.03
  70   1     0.03   0.01  -0.01    -0.00  -0.00   0.00    -0.04  -0.03  -0.02
  71   1    -0.01   0.00   0.01     0.00   0.00  -0.00     0.04   0.05  -0.01
  72   1    -0.06   0.05   0.04     0.01  -0.01  -0.01     0.08   0.02   0.05
  73   1     0.00  -0.00  -0.09     0.01   0.01   0.02     0.00  -0.01  -0.12
                     28                     29                     30
                        a                      a                      a 
 Frequencies --   276.2101               284.4136               299.0424
 Red. masses --    11.4398                11.2741                11.5252
 Frc consts  --     0.0000                 0.0000                 0.0000
 IR Inten    --     0.2008                 1.4879                 1.8717
 Raman Activ --     0.0000                 0.0000                 0.0000
 Depolar     --     0.0000                 0.0000                 0.0000
 Atom AN      X      Y      Z        X      Y      Z        X      Y      Z
   1   6     0.13   0.02  -0.09    -0.02   0.15  -0.04    -0.11  -0.03   0.02
   2   6     0.14   0.06  -0.01    -0.02   0.15  -0.07    -0.12  -0.03  -0.05
   3   6    -0.03  -0.06   0.14    -0.03  -0.21   0.04     0.01   0.03  -0.14
   4   6    -0.16  -0.06   0.07     0.04  -0.13   0.03     0.11   0.02  -0.09
   5   6    -0.17  -0.05   0.02     0.04  -0.12   0.04     0.11   0.02  -0.05
   6   6    -0.04  -0.14  -0.07    -0.03  -0.18   0.12     0.01   0.07   0.02
   7   8    -0.22   0.16  -0.06     0.14   0.25  -0.14     0.13  -0.13   0.00
   8   6    -0.16   0.05   0.00     0.00  -0.14   0.05     0.09   0.00  -0.03
   9   6    -0.00  -0.01   0.13    -0.06  -0.22   0.06     0.03   0.01  -0.07
  10   6     0.16  -0.01   0.04     0.00   0.15  -0.08    -0.02  -0.05  -0.03
  11   6     0.16  -0.01  -0.07     0.00   0.16  -0.05    -0.01  -0.02   0.00
  12   6    -0.03  -0.06  -0.12    -0.05  -0.21   0.11     0.06   0.06  -0.00
  13   6    -0.16   0.03  -0.04    -0.00  -0.14   0.07     0.07   0.02  -0.01
  14   7    -0.11   0.08  -0.02     0.09   0.25  -0.10     0.02  -0.08   0.02
  15   6    -0.07   0.09   0.02     0.06   0.16  -0.02     0.00  -0.03   0.16
  16   6    -0.01   0.05   0.11     0.10   0.13  -0.02    -0.04   0.00   0.21
  17   6    -0.00   0.04   0.02     0.06  -0.01   0.01    -0.04   0.06  -0.06
  18   6     0.04   0.05  -0.09    -0.07  -0.05   0.01    -0.04   0.07  -0.20
  19   6    -0.00   0.08  -0.02    -0.11  -0.03   0.01    -0.04   0.03  -0.01
  20   6    -0.01   0.10   0.00    -0.07   0.11   0.06    -0.03  -0.03   0.20
  21   6     0.01   0.06   0.06    -0.13  -0.06  -0.03    -0.09   0.02  -0.03
  22   6     0.06   0.02   0.09    -0.04  -0.14  -0.06    -0.04  -0.03  -0.04
  23   6     0.11   0.05  -0.06     0.07  -0.13   0.02     0.06  -0.00   0.06
  24   6     0.11   0.04  -0.05     0.09  -0.04   0.03     0.08   0.07   0.01
  25   6     0.06   0.04   0.10    -0.01   0.05  -0.05     0.01   0.12  -0.06
  26   6     0.00   0.02   0.05    -0.11   0.01  -0.03    -0.10   0.07   0.01
  27   6     0.04  -0.04  -0.06    -0.09  -0.00   0.02    -0.10   0.04   0.05
  28   7     0.02  -0.16  -0.08    -0.09   0.01   0.06    -0.14  -0.10   0.24
  29   6     0.08  -0.21  -0.01    -0.08   0.01   0.01    -0.05  -0.15  -0.02
  30   6     0.09  -0.12   0.03    -0.06   0.02  -0.04    -0.03  -0.10  -0.27
  31   6    -0.00  -0.03  -0.01    -0.01  -0.01  -0.03    -0.03  -0.10  -0.14
  32   6    -0.03  -0.01  -0.00     0.02   0.01  -0.01    -0.02  -0.08   0.06
  33   6    -0.07   0.02  -0.01     0.07   0.02   0.03    -0.04   0.04   0.14
  34   6    -0.08   0.03   0.00     0.07  -0.01   0.01    -0.06   0.04   0.02
  35   7    -0.10   0.02   0.01     0.07  -0.05  -0.04    -0.04  -0.06  -0.11
  36   6    -0.08  -0.00   0.01     0.06   0.01  -0.00     0.04   0.01   0.02
  37   6    -0.07  -0.01   0.01     0.06   0.04   0.01     0.05   0.01   0.14
  38   6     0.02  -0.01  -0.03    -0.01  -0.00   0.01     0.05  -0.06  -0.09
  39   6    -0.04   0.08  -0.08     0.03  -0.01   0.02    -0.01   0.05  -0.06
  40   6     0.01   0.14  -0.01     0.05  -0.02   0.00     0.02   0.14   0.04
  41   6     0.08   0.08   0.02     0.03   0.01   0.01     0.09   0.10   0.03
  42   7     0.09   0.02   0.00     0.02   0.06   0.02     0.15   0.06  -0.03
  43   6    -0.02   0.02   0.01     0.04   0.04  -0.00     0.01   0.07   0.01
  44   6    -0.07   0.07  -0.04     0.06   0.02  -0.00    -0.05   0.11  -0.01
  45   6     0.01  -0.15   0.12    -0.03  -0.00  -0.02     0.03  -0.14   0.04
  46   6     0.09  -0.21   0.06    -0.07   0.02  -0.02     0.02  -0.14   0.07
  47   7     0.13  -0.13  -0.04    -0.09  -0.00  -0.01     0.04  -0.03   0.09
  48   6     0.05  -0.03  -0.11    -0.08  -0.02   0.01    -0.04   0.06  -0.13
  49   1     0.06   0.03  -0.06     0.00   0.11  -0.03    -0.05  -0.03   0.03
  50   1     0.08   0.06  -0.01    -0.00   0.11  -0.05    -0.06  -0.03  -0.02
  51   1    -0.00  -0.01   0.08    -0.02  -0.09   0.00    -0.00  -0.01  -0.06
  52   1    -0.02  -0.06  -0.06    -0.01  -0.06   0.06     0.01   0.03   0.04
  53   1    -0.00   0.01   0.09    -0.02  -0.08   0.01     0.01  -0.00  -0.03
  54   1     0.07   0.00   0.02     0.01   0.12  -0.06    -0.02  -0.04  -0.00
  55   1     0.07  -0.00  -0.04     0.01   0.12  -0.04    -0.02  -0.02   0.01
  56   1    -0.02  -0.05  -0.07    -0.02  -0.07   0.05     0.02   0.02   0.02
  57   1     0.01   0.02   0.06     0.05   0.04  -0.01    -0.02  -0.01   0.09
  58   1    -0.01   0.02   0.01     0.04  -0.03   0.01    -0.01   0.02  -0.03
  59   1     0.01   0.02   0.00    -0.04   0.05   0.04    -0.01  -0.01   0.09
  60   1     0.01  -0.01   0.04    -0.02  -0.06  -0.03    -0.01  -0.03  -0.03
  61   1     0.03   0.01  -0.05     0.04  -0.05   0.02     0.03  -0.02   0.03
  62   1     0.03   0.01  -0.04     0.05  -0.00   0.02     0.04   0.02   0.01
  63   1     0.02   0.03   0.05     0.00   0.04  -0.02     0.01   0.06  -0.03
  64   1     0.06  -0.03   0.01    -0.02   0.00  -0.02     0.00  -0.02  -0.11
  65   1    -0.03   0.00  -0.00     0.03   0.01   0.01    -0.03   0.02   0.06
  66   1    -0.02   0.01   0.01     0.02  -0.00  -0.00    -0.03   0.02   0.00
  67   1    -0.02   0.00  -0.00     0.01   0.00   0.00     0.03   0.01  -0.00
  68   1    -0.02   0.00   0.00     0.02   0.01   0.01     0.03   0.00   0.05
  69   1     0.00   0.07   0.00     0.02  -0.01  -0.00     0.00   0.07   0.02
  70   1     0.04   0.03   0.01     0.00   0.00  -0.00     0.03   0.03   0.01
  71   1    -0.01  -0.01   0.01     0.01   0.01  -0.00    -0.01   0.00   0.01
  72   1    -0.03   0.02  -0.01     0.03   0.01   0.00    -0.02   0.04   0.00
  73   1    -0.03  -0.06   0.05    -0.00   0.00  -0.01    -0.00  -0.05   0.02
                     31                     32                     33
                        a                      a                      a 
 Frequencies --   315.6784               334.6254               337.9203
 Red. masses --    11.3176                 8.4393                 8.4830
 Frc consts  --     0.0000                 0.0000                 0.0000
 IR Inten    --     3.1625                 0.0404                 0.0514
 Raman Activ --     0.0000                 0.0000                 0.0000
 Depolar     --     0.0000                 0.0000                 0.0000
 Atom AN      X      Y      Z        X      Y      Z        X      Y      Z
   1   6     0.03   0.02  -0.03     0.00   0.00  -0.00    -0.00   0.00  -0.00
   2   6     0.03   0.02   0.01     0.00   0.00   0.00    -0.00   0.00  -0.00
   3   6    -0.04  -0.01   0.06    -0.00  -0.00   0.01    -0.00  -0.00  -0.00
   4   6    -0.06   0.04   0.02    -0.00   0.00   0.00     0.00   0.00  -0.00
   5   6    -0.08   0.01   0.01    -0.01   0.00   0.00     0.00  -0.00  -0.00
   6   6    -0.03  -0.05  -0.02    -0.00  -0.00   0.00    -0.00  -0.00   0.00
   7   8    -0.17   0.03  -0.02    -0.01   0.00   0.00    -0.00  -0.00  -0.00
   8   6    -0.11   0.02  -0.02    -0.01  -0.00  -0.00    -0.00   0.00  -0.00
   9   6    -0.02  -0.02   0.06    -0.00  -0.00   0.00    -0.00  -0.00   0.00
  10   6     0.08   0.01  -0.01     0.00   0.00  -0.00     0.00   0.00  -0.00
  11   6     0.07  -0.02  -0.06     0.00  -0.00  -0.00     0.00  -0.00  -0.00
  12   6    -0.05  -0.06  -0.09    -0.00  -0.01  -0.00    -0.00  -0.00  -0.00
  13   6    -0.10   0.04  -0.07    -0.00   0.00  -0.00    -0.00   0.00  -0.00
  14   7     0.01   0.13  -0.05     0.00   0.01  -0.01     0.00   0.01  -0.00
  15   6     0.03   0.01   0.10     0.00  -0.00  -0.00     0.00  -0.00   0.01
  16   6     0.09  -0.04   0.16     0.01  -0.01  -0.00     0.00  -0.00   0.02
  17   6     0.08  -0.05  -0.05     0.01  -0.01   0.00     0.00  -0.00  -0.02
  18   6     0.07  -0.04  -0.18     0.00  -0.01  -0.00     0.00  -0.00  -0.02
  19   6     0.06  -0.03  -0.05     0.01  -0.01  -0.00    -0.00  -0.00  -0.00
  20   6     0.05   0.00   0.13     0.00  -0.00   0.00    -0.00  -0.00   0.01
  21   6     0.12  -0.02  -0.05     0.01  -0.00  -0.00    -0.00  -0.00   0.00
  22   6     0.05   0.05  -0.07     0.00   0.00  -0.01    -0.00  -0.01   0.02
  23   6    -0.07  -0.01   0.10    -0.01  -0.00   0.01    -0.00  -0.00  -0.02
  24   6    -0.08  -0.07  -0.01    -0.01  -0.01  -0.00    -0.00  -0.00  -0.00
  25   6     0.00  -0.12  -0.13    -0.00  -0.01  -0.02    -0.00  -0.00   0.02
  26   6     0.12  -0.08   0.03     0.01  -0.01   0.01    -0.00   0.00  -0.01
  27   6     0.10  -0.05   0.12     0.01  -0.00   0.02    -0.00   0.00  -0.02
  28   7     0.13   0.08   0.29     0.01   0.02   0.02     0.00   0.01   0.00
  29   6     0.01   0.19  -0.05    -0.00   0.03  -0.01    -0.00   0.01   0.00
  30   6    -0.02   0.15  -0.34    -0.00   0.01  -0.02    -0.00   0.00  -0.00
  31   6     0.01   0.06   0.02     0.00   0.00  -0.02     0.00  -0.00  -0.01
  32   6    -0.01  -0.11   0.14     0.00  -0.02   0.00     0.00  -0.01  -0.02
  33   6    -0.09  -0.10   0.08    -0.06  -0.20  -0.20    -0.06  -0.23  -0.24
  34   6    -0.08  -0.02  -0.02     0.06   0.19   0.20     0.06   0.18   0.19
  35   7     0.03   0.07   0.01     0.00  -0.01  -0.01     0.01   0.01   0.02
  36   6     0.10  -0.02   0.00    -0.04  -0.19  -0.19    -0.05  -0.19  -0.20
  37   6     0.06  -0.16   0.04     0.07   0.19   0.22     0.06   0.19   0.20
  38   6    -0.02   0.05   0.04     0.00   0.00  -0.01     0.01  -0.00  -0.01
  39   6    -0.03   0.02  -0.01     0.00  -0.01  -0.01     0.00   0.00   0.02
  40   6    -0.03  -0.02  -0.06    -0.19   0.12   0.21     0.16  -0.11  -0.17
  41   6    -0.04  -0.02  -0.01     0.16  -0.12  -0.19    -0.17   0.12   0.19
  42   7    -0.07  -0.06   0.01     0.00  -0.01  -0.01     0.02  -0.00  -0.03
  43   6    -0.03  -0.07  -0.02    -0.18   0.11   0.20     0.16  -0.09  -0.17
  44   6    -0.04  -0.05  -0.02     0.17  -0.13  -0.20    -0.20   0.14   0.24
  45   6    -0.01   0.15   0.00     0.00   0.01   0.02     0.01   0.01  -0.02
  46   6    -0.03   0.17   0.04    -0.00   0.02  -0.01     0.00   0.01   0.01
  47   7    -0.05   0.05   0.09    -0.01   0.01  -0.01     0.00   0.00   0.04
  48   6     0.06  -0.03  -0.08     0.00   0.00   0.00     0.00   0.00  -0.01
  49   1     0.02   0.02  -0.02     0.00   0.00  -0.00    -0.00   0.00  -0.00
  50   1     0.02   0.01   0.01     0.00   0.00   0.00    -0.00   0.00  -0.00
  51   1    -0.01  -0.01   0.04    -0.00  -0.00   0.00    -0.00  -0.00  -0.00
  52   1    -0.01  -0.03  -0.02    -0.00  -0.00  -0.00    -0.00  -0.00   0.00
  53   1    -0.01  -0.01   0.05    -0.00  -0.00   0.00    -0.00  -0.00   0.00
  54   1     0.04   0.01   0.00     0.00   0.00  -0.00     0.00   0.00  -0.00
  55   1     0.04  -0.01  -0.03     0.00  -0.00  -0.00     0.00  -0.00  -0.00
  56   1    -0.02  -0.04  -0.04    -0.00  -0.00  -0.00    -0.00  -0.00  -0.00
  57   1     0.04  -0.01   0.08     0.00  -0.00  -0.00     0.00  -0.00   0.01
  58   1     0.03  -0.02  -0.02     0.00  -0.00   0.00     0.00  -0.00  -0.01
  59   1     0.01  -0.00   0.06     0.00  -0.00   0.00    -0.00  -0.00   0.00
  60   1     0.02   0.04  -0.05     0.00   0.00  -0.01    -0.00  -0.00   0.01
  61   1    -0.04   0.01   0.07    -0.00   0.00   0.01    -0.00  -0.00  -0.01
  62   1    -0.04  -0.03  -0.00    -0.00  -0.00  -0.00    -0.00  -0.00  -0.00
  63   1    -0.00  -0.06  -0.07    -0.00  -0.01  -0.01    -0.00  -0.00   0.01
  64   1    -0.03   0.05  -0.16    -0.00   0.00   0.00    -0.00  -0.00   0.00
  65   1    -0.05  -0.04   0.03    -0.04  -0.13  -0.12    -0.04  -0.14  -0.14
  66   1    -0.05   0.00  -0.03     0.04   0.14   0.15     0.05   0.14   0.15
  67   1     0.05   0.00  -0.01    -0.04  -0.14  -0.15    -0.04  -0.14  -0.15
  68   1     0.03  -0.08   0.00     0.04   0.13   0.14     0.04   0.13   0.13
  69   1    -0.00  -0.01  -0.02    -0.12   0.08   0.14     0.11  -0.08  -0.12
  70   1    -0.01   0.00   0.01     0.13  -0.09  -0.14    -0.13   0.08   0.14
  71   1    -0.00  -0.02  -0.01    -0.13   0.09   0.15     0.13  -0.08  -0.14
  72   1    -0.03  -0.02  -0.01     0.11  -0.08  -0.13    -0.12   0.09   0.14
  73   1     0.02   0.05  -0.01     0.00   0.00   0.02     0.01   0.00  -0.01
                     34                     35                     36
                        a                      a                      a 
 Frequencies --   343.4039               366.3310               370.9060
 Red. masses --    11.2092                11.2353                11.6521
 Frc consts  --     0.0000                 0.0000                 0.0000
 IR Inten    --     1.8604                 6.7203                 0.4669
 Raman Activ --     0.0000                 0.0000                 0.0000
 Depolar     --     0.0000                 0.0000                 0.0000
 Atom AN      X      Y      Z        X      Y      Z        X      Y      Z
   1   6     0.01  -0.02   0.01     0.05   0.03   0.03    -0.04  -0.07   0.09
   2   6     0.02  -0.00   0.01     0.05   0.02   0.06    -0.02   0.03   0.07
   3   6     0.01   0.02   0.00    -0.00   0.00   0.09     0.01   0.13   0.01
   4   6    -0.02  -0.02   0.01    -0.05   0.05   0.04    -0.01  -0.09   0.10
   5   6    -0.00  -0.00   0.00    -0.06   0.02   0.04    -0.00   0.00   0.03
   6   6     0.01   0.02  -0.01    -0.02  -0.01   0.02     0.01   0.12   0.00
   7   8     0.04   0.01   0.02    -0.06   0.04   0.03    -0.13   0.02  -0.05
   8   6     0.03  -0.01   0.02     0.01  -0.02  -0.01    -0.09  -0.01  -0.06
   9   6     0.01   0.02  -0.02    -0.01  -0.03  -0.01    -0.01   0.08  -0.07
  10   6    -0.03  -0.01   0.02    -0.02   0.03  -0.03     0.02  -0.14  -0.04
  11   6    -0.03   0.01   0.03    -0.03  -0.00  -0.02     0.04  -0.05  -0.12
  12   6     0.01   0.03   0.03    -0.02  -0.03   0.01     0.00   0.05  -0.17
  13   6     0.03  -0.04   0.03     0.02   0.00  -0.02    -0.11  -0.10  -0.04
  14   7    -0.02  -0.08   0.02     0.04   0.09  -0.07    -0.02  -0.35   0.18
  15   6    -0.01   0.01  -0.12     0.02  -0.07  -0.12     0.14   0.25   0.04
  16   6    -0.04   0.03  -0.16     0.02  -0.07  -0.13     0.11   0.31   0.00
  17   6    -0.02   0.02   0.14     0.02  -0.06   0.13     0.09   0.15   0.06
  18   6    -0.01   0.02   0.15     0.05  -0.03   0.05     0.02   0.10   0.03
  19   6     0.00   0.03   0.02     0.07  -0.06  -0.00     0.09   0.04  -0.02
  20   6    -0.00   0.01  -0.06     0.06  -0.08  -0.02     0.17   0.25   0.05
  21   6     0.01   0.04  -0.02     0.03  -0.07  -0.01    -0.03  -0.07  -0.03
  22   6     0.02   0.07  -0.20    -0.01  -0.05  -0.02     0.03  -0.15   0.00
  23   6     0.03   0.03   0.20    -0.08  -0.07   0.01     0.04  -0.17  -0.02
  24   6     0.03   0.03   0.02    -0.07  -0.06  -0.01     0.04  -0.20  -0.04
  25   6     0.03   0.05  -0.23    -0.04  -0.07  -0.02    -0.01  -0.15   0.01
  26   6     0.00  -0.00   0.14     0.04  -0.04   0.01    -0.04  -0.13  -0.02
  27   6     0.00  -0.05   0.29    -0.02   0.05   0.03    -0.10  -0.04  -0.00
  28   7    -0.00  -0.07  -0.01    -0.02   0.13  -0.03    -0.10   0.02  -0.02
  29   6     0.01  -0.07  -0.06    -0.04   0.12   0.06    -0.10   0.03   0.01
  30   6     0.03   0.02  -0.11    -0.10  -0.09   0.06    -0.10   0.01   0.03
  31   6    -0.01   0.04   0.04     0.00  -0.16  -0.26    -0.05  -0.02  -0.03
  32   6    -0.00  -0.02   0.06    -0.02  -0.14  -0.08    -0.02  -0.01  -0.03
  33   6    -0.02  -0.08  -0.00    -0.03   0.11   0.12     0.04   0.00   0.02
  34   6     0.00  -0.01   0.01    -0.05   0.07   0.03     0.04  -0.01   0.02
  35   7     0.05   0.03   0.02    -0.12  -0.09  -0.14     0.06  -0.04  -0.03
  36   6     0.05  -0.04  -0.03    -0.01   0.06   0.07     0.04   0.01  -0.00
  37   6     0.04  -0.05   0.01    -0.01   0.04   0.13     0.04   0.03   0.00
  38   6    -0.07   0.03   0.16     0.16  -0.12  -0.23    -0.03  -0.00  -0.01
  39   6    -0.09   0.10  -0.06     0.09  -0.05  -0.14    -0.00  -0.01   0.01
  40   6     0.06   0.06  -0.15    -0.07   0.08   0.07     0.02  -0.00   0.01
  41   6     0.05   0.06   0.01    -0.05   0.06   0.06     0.01   0.01   0.00
  42   7    -0.03   0.03   0.10     0.13  -0.07  -0.14     0.02   0.03   0.00
  43   6     0.00  -0.07  -0.05    -0.05   0.03   0.04     0.01   0.02  -0.00
[...]
  62   1    -0.00   0.00   0.00    -0.00   0.00   0.00     0.01  -0.02  -0.00
  63   1    -0.01   0.00   0.00     0.01  -0.00  -0.00    -0.01   0.00   0.00
  64   1     0.15  -0.48  -0.06    -0.23   0.75   0.09    -0.00   0.01   0.00
  65   1     0.01  -0.02   0.02    -0.05   0.10  -0.08     0.00  -0.00   0.00
  66   1    -0.01  -0.00   0.01     0.01   0.01  -0.01    -0.00  -0.00   0.00
  67   1     0.00  -0.01   0.00    -0.01   0.01  -0.01    -0.00   0.00  -0.00
  68   1    -0.05  -0.05   0.06     0.08   0.08  -0.10     0.00   0.00  -0.00
  69   1     0.10  -0.02   0.10     0.07  -0.01   0.06     0.00  -0.00   0.00
  70   1     0.00  -0.01   0.01     0.00  -0.01   0.01     0.00  -0.00   0.00
  71   1     0.01  -0.00   0.01     0.01  -0.00   0.01    -0.00   0.00  -0.00
  72   1     0.01  -0.08   0.06     0.01  -0.09   0.07    -0.00   0.00  -0.00
  73   1     0.26  -0.75  -0.09     0.16  -0.46  -0.05     0.00  -0.00  -0.00
                    205                    206                    207
                        a                      a                      a 
 Frequencies --  3099.2885              3101.2876              3105.4998
 Red. masses --     1.8129                 1.8570                 1.8656
 Frc consts  --     0.0000                 0.0000                 0.0000
 IR Inten    --    31.4279                12.7662                41.8000
 Raman Activ --     0.0000                 0.0000                 0.0000
 Depolar     --     0.0000                 0.0000                 0.0000
 Atom AN      X      Y      Z        X      Y      Z        X      Y      Z
   1   6     0.01   0.00   0.01    -0.02  -0.01  -0.03     0.05   0.02   0.06
   2   6    -0.00   0.00   0.00     0.01  -0.01  -0.02    -0.05   0.05   0.11
   3   6     0.01  -0.00  -0.00    -0.01   0.00   0.00    -0.18   0.04   0.02
   4   6     0.00   0.00   0.00    -0.00   0.00  -0.00    -0.00  -0.00  -0.01
   5   6    -0.00   0.00   0.00     0.00  -0.00  -0.00    -0.00   0.00   0.00
   6   6    -0.00   0.00   0.00     0.02  -0.01  -0.00    -0.09   0.02   0.01
   7   8     0.00  -0.00   0.00    -0.00   0.00  -0.00     0.00   0.00   0.00
   8   6    -0.01   0.00  -0.00     0.00  -0.00   0.00    -0.00   0.00   0.00
   9   6    -0.09   0.02  -0.00     0.00  -0.00   0.00     0.04  -0.01   0.00
  10   6     0.09  -0.09  -0.16    -0.00   0.00   0.01    -0.01   0.01   0.02
  11   6    -0.03  -0.01  -0.05     0.00   0.00   0.00     0.03   0.01   0.04
  12   6     0.14  -0.04   0.01    -0.00   0.00  -0.00     0.07  -0.02   0.00
  13   6     0.00  -0.00  -0.00    -0.00   0.00   0.00     0.00  -0.00  -0.00
  14   7    -0.00   0.00   0.00    -0.00  -0.00   0.00    -0.00   0.00   0.00
  15   6    -0.00   0.00  -0.00     0.01  -0.00  -0.00    -0.00  -0.00  -0.00
  16   6    -0.01   0.02   0.00     0.00  -0.01  -0.00    -0.00   0.00   0.00
  17   6    -0.00  -0.00  -0.00     0.00   0.00   0.00    -0.00  -0.00  -0.00
  18   6    -0.00  -0.00  -0.00    -0.00  -0.00  -0.00    -0.00  -0.00   0.00
  19   6     0.00   0.00   0.00    -0.00   0.01   0.00    -0.00   0.00  -0.00
  20   6     0.01   0.01   0.00     0.12   0.12   0.01     0.00   0.00  -0.00
  21   6    -0.00   0.00   0.00    -0.00   0.01   0.00    -0.00   0.00   0.00
  22   6    -0.01   0.00   0.00    -0.18   0.03   0.00    -0.03   0.00   0.00
  23   6    -0.00  -0.00  -0.00    -0.06  -0.06  -0.01    -0.01  -0.01  -0.00
  24   6     0.00  -0.00  -0.00     0.01  -0.04  -0.00     0.00  -0.00  -0.00
  25   6    -0.00   0.00   0.00    -0.02   0.00   0.00    -0.00   0.00   0.00
  26   6     0.00  -0.00  -0.00     0.00  -0.00  -0.00     0.00  -0.00  -0.00
  27   6    -0.00  -0.00  -0.00    -0.00   0.00   0.00    -0.00   0.00   0.00
  28   7    -0.00  -0.00  -0.00     0.00  -0.00  -0.00    -0.00  -0.00  -0.00
  29   6     0.00   0.00   0.00     0.00   0.00   0.00     0.00   0.00   0.00
  30   6    -0.00   0.00   0.00    -0.00   0.00   0.00     0.00  -0.00  -0.00
  31   6    -0.00   0.00   0.00    -0.00  -0.00  -0.00     0.00   0.00   0.00
  32   6     0.00  -0.00  -0.00     0.00  -0.00  -0.00    -0.00   0.00   0.00
  33   6     0.00  -0.00   0.00    -0.00   0.00  -0.00    -0.00   0.00  -0.00
  34   6    -0.00  -0.00   0.00     0.00   0.00  -0.00     0.00   0.00  -0.00
  35   7     0.00  -0.00   0.00    -0.00   0.00   0.00    -0.00   0.00  -0.00
  36   6    -0.00   0.00  -0.00     0.00  -0.00   0.00     0.00  -0.00   0.00
  37   6     0.00   0.00  -0.00    -0.00  -0.00   0.00    -0.00  -0.00   0.00
  38   6    -0.00  -0.00  -0.00     0.00   0.00   0.00     0.00   0.00   0.00
  39   6     0.00   0.00   0.00     0.00   0.00  -0.00    -0.00  -0.00   0.00
  40   6     0.00  -0.00   0.00    -0.00   0.00  -0.00    -0.00   0.00  -0.00
  41   6    -0.00  -0.00   0.00     0.00   0.00  -0.00     0.00   0.00  -0.00
  42   7     0.00   0.00   0.00    -0.00  -0.00   0.00    -0.00  -0.00  -0.00
  43   6    -0.00  -0.00  -0.00     0.00   0.00   0.00     0.00   0.00   0.00
  44   6    -0.00   0.00  -0.00    -0.00  -0.00   0.00     0.00  -0.00   0.00
  45   6     0.00  -0.00  -0.00    -0.00   0.00   0.00    -0.00   0.00   0.00
  46   6     0.00  -0.00  -0.00    -0.00   0.00   0.00    -0.00   0.00   0.00
  47   7     0.00   0.00   0.00     0.00  -0.00  -0.00     0.00   0.00  -0.00
  48   6    -0.00   0.00   0.00     0.00   0.00   0.00    -0.00  -0.00   0.00
  49   1    -0.02  -0.01  -0.03     0.08   0.03   0.10    -0.17  -0.06  -0.21
  50   1     0.00  -0.00  -0.00    -0.03   0.03   0.07     0.17  -0.18  -0.36
  51   1    -0.03   0.01   0.00     0.04  -0.01  -0.00     0.63  -0.13  -0.05
  52   1     0.01  -0.00  -0.00    -0.08   0.02   0.01     0.33  -0.08  -0.02
  53   1     0.33  -0.07   0.01    -0.02   0.00  -0.00    -0.13   0.03  -0.01
  54   1    -0.30   0.31   0.55     0.01  -0.01  -0.02     0.04  -0.04  -0.06
  55   1     0.10   0.03   0.15    -0.01  -0.00  -0.01    -0.09  -0.03  -0.13
  56   1    -0.51   0.13  -0.02     0.02  -0.00   0.00    -0.25   0.06  -0.01
  57   1     0.02  -0.06  -0.01    -0.01   0.03   0.00     0.00  -0.01  -0.00
  58   1     0.01   0.01   0.00    -0.01  -0.01  -0.00     0.00   0.00   0.00
  59   1    -0.03  -0.03  -0.00    -0.42  -0.43  -0.03    -0.01  -0.01  -0.00
  60   1     0.03  -0.00  -0.00     0.64  -0.11  -0.00     0.09  -0.02  -0.00
  61   1     0.01   0.01   0.00     0.18   0.21   0.02     0.02   0.02   0.00
  62   1    -0.00   0.00   0.00    -0.04   0.12   0.01    -0.00   0.01   0.00
  63   1     0.00  -0.00  -0.00     0.08  -0.01  -0.00     0.01  -0.00  -0.00
  64   1     0.00  -0.00  -0.00     0.00  -0.00  -0.00    -0.00   0.00   0.00
  65   1    -0.00   0.00  -0.00     0.00  -0.00   0.00     0.00  -0.00   0.00
  66   1     0.00   0.00  -0.00    -0.00  -0.00   0.00    -0.00  -0.00   0.00
  67   1     0.00  -0.00   0.00    -0.00   0.00  -0.00    -0.00   0.00  -0.00
  68   1    -0.00  -0.00   0.00     0.00   0.00  -0.00     0.00   0.00  -0.00
  69   1    -0.00   0.00  -0.00     0.00  -0.00   0.00     0.00  -0.00   0.00
  70   1    -0.00   0.00  -0.00     0.00  -0.00   0.00     0.00  -0.00   0.00
  71   1     0.00  -0.00   0.00    -0.00   0.00  -0.00    -0.00   0.00  -0.00
  72   1     0.00  -0.00   0.00     0.00   0.00  -0.00    -0.00   0.00  -0.00
  73   1    -0.00   0.00   0.00     0.00  -0.00  -0.00     0.00  -0.00  -0.00
                    208                    209                    210
                        a                      a                      a 
 Frequencies --  3106.3748              3110.5743              3111.9110
 Red. masses --     1.8644                 1.8569                 1.8184
 Frc consts  --     0.0000                 0.0000                 0.0000
 IR Inten    --    37.5960                14.2655                28.0592
 Raman Activ --     0.0000                 0.0000                 0.0000
 Depolar     --     0.0000                 0.0000                 0.0000
 Atom AN      X      Y      Z        X      Y      Z        X      Y      Z
   1   6     0.02   0.01   0.02     0.00   0.00   0.00     0.00   0.00   0.00
   2   6    -0.02   0.02   0.04    -0.00   0.00   0.00    -0.00   0.00   0.01
   3   6    -0.07   0.01   0.01    -0.00   0.00   0.00    -0.02   0.00   0.00
   4   6    -0.00  -0.00  -0.00    -0.00  -0.00  -0.00    -0.00   0.00  -0.00
   5   6    -0.00   0.00   0.00     0.00   0.00  -0.00    -0.00   0.00   0.00
   6   6    -0.03   0.01   0.00     0.00  -0.00  -0.00    -0.00   0.00   0.00
   7   8     0.00  -0.00  -0.00     0.00  -0.00  -0.00    -0.00  -0.00  -0.00
   8   6    -0.00  -0.00  -0.00     0.00   0.00   0.00     0.00  -0.00  -0.00
   9   6    -0.09   0.02  -0.00     0.00  -0.00   0.00    -0.00   0.00  -0.00
  10   6     0.03  -0.03  -0.05     0.00  -0.00  -0.00    -0.00   0.00   0.00
  11   6    -0.07  -0.02  -0.10    -0.00  -0.00  -0.00    -0.00  -0.00  -0.00
  12   6    -0.19   0.05  -0.01    -0.00   0.00  -0.00    -0.00   0.00  -0.00
  13   6    -0.00   0.00   0.01    -0.00   0.00   0.00    -0.00   0.00   0.00
  14   7    -0.00   0.00  -0.00    -0.00  -0.00   0.00    -0.00  -0.00   0.00
  15   6     0.00   0.00   0.00     0.00   0.00   0.00     0.01   0.00   0.00
  16   6     0.00  -0.01  -0.00     0.00  -0.00  -0.00     0.01  -0.02  -0.00
  17   6     0.00   0.00   0.00    -0.01  -0.01  -0.00    -0.04  -0.04  -0.00
  18   6     0.00   0.00  -0.00    -0.00  -0.00  -0.00    -0.00  -0.00  -0.00
  19   6    -0.00   0.00  -0.00     0.00   0.00   0.00     0.00   0.01   0.00
  20   6    -0.00  -0.00  -0.00     0.03   0.03   0.00     0.14   0.14   0.01
  21   6    -0.00   0.00   0.00    -0.00  -0.00  -0.00     0.00  -0.00  -0.00
  22   6    -0.01   0.00   0.00     0.02  -0.00   0.00     0.16  -0.03  -0.00
  23   6    -0.00  -0.00  -0.00    -0.01  -0.01  -0.00     0.03   0.03   0.00
  24   6     0.00  -0.00  -0.00     0.02  -0.07  -0.01    -0.01   0.02   0.00
  25   6    -0.00   0.00   0.00     0.26  -0.04  -0.00    -0.04   0.01   0.00
  26   6     0.00  -0.00  -0.00     0.01   0.00   0.00    -0.00   0.00   0.00
  27   6     0.00   0.00   0.00     0.00  -0.00  -0.00    -0.00  -0.00  -0.00
  28   7    -0.00  -0.00   0.00    -0.00   0.00   0.00     0.00  -0.00  -0.00
  29   6     0.00   0.00   0.00    -0.00  -0.00  -0.00    -0.00   0.00   0.00
  30   6     0.00  -0.00  -0.00     0.00  -0.00  -0.00    -0.00   0.00   0.00
  31   6     0.00   0.00   0.00     0.00  -0.00  -0.00    -0.00   0.00   0.00
  32   6    -0.00   0.00   0.00     0.00  -0.00   0.00    -0.00   0.00  -0.00
  33   6    -0.00   0.00  -0.00    -0.00   0.00  -0.00     0.00  -0.00   0.00
  34   6     0.00   0.00  -0.00     0.00   0.00  -0.00    -0.00  -0.00   0.00
  35   7    -0.00   0.00   0.00    -0.00   0.00   0.00     0.00  -0.00  -0.00
  36   6     0.00  -0.00   0.00     0.00  -0.00   0.00    -0.00   0.00  -0.00
  37   6    -0.00  -0.00   0.00    -0.00  -0.00   0.00     0.00   0.00  -0.00
  38   6     0.00  -0.00  -0.00    -0.00   0.00   0.00    -0.00  -0.00  -0.00
  39   6    -0.00  -0.00  -0.00     0.00   0.00   0.00    -0.00  -0.00   0.00
  40   6    -0.00   0.00  -0.00    -0.00   0.00  -0.00     0.00  -0.00   0.00
  41   6    -0.00   0.00  -0.00     0.00   0.00  -0.00    -0.00  -0.00   0.00
  42   7    -0.00  -0.00   0.00    -0.00  -0.00  -0.00     0.00   0.00   0.00
  43   6     0.00   0.00   0.00     0.00   0.00   0.00    -0.00  -0.00  -0.00
  44   6     0.00  -0.00   0.00     0.00  -0.00   0.00    -0.00   0.00  -0.00
  45   6     0.00  -0.00  -0.00     0.00  -0.00  -0.00     0.00  -0.00  -0.00
  46   6     0.00  -0.00  -0.00    -0.00   0.00   0.00     0.00  -0.00   0.00
  47   7     0.00   0.00   0.00     0.00   0.00   0.00     0.00   0.00   0.00
  48   6    -0.00  -0.00  -0.00     0.00  -0.00  -0.00    -0.00   0.00  -0.00
  49   1    -0.07  -0.02  -0.08    -0.00  -0.00  -0.00    -0.00  -0.00  -0.00
  50   1     0.06  -0.07  -0.13     0.00  -0.00  -0.01     0.01  -0.01  -0.02
  51   1     0.24  -0.05  -0.02     0.02  -0.00  -0.00     0.06  -0.01  -0.01
  52   1     0.12  -0.03  -0.01    -0.01   0.00   0.00     0.01  -0.00  -0.00
  53   1     0.33  -0.07   0.01    -0.01   0.00  -0.00     0.01  -0.00   0.00
  54   1    -0.10   0.10   0.19    -0.00   0.00   0.00     0.00  -0.00  -0.00
  55   1     0.23   0.08   0.34     0.00   0.00   0.00     0.00   0.00   0.00
  56   1     0.65  -0.17   0.03     0.01  -0.00   0.00     0.02  -0.00   0.00
  57   1    -0.01   0.03   0.00    -0.00   0.01   0.00    -0.02   0.07   0.01
  58   1    -0.01  -0.01  -0.00     0.02   0.02   0.00     0.14   0.14   0.01
  59   1     0.01   0.01   0.00    -0.10  -0.10  -0.01    -0.48  -0.50  -0.04
  60   1     0.05  -0.01  -0.00    -0.07   0.01   0.00    -0.58   0.10   0.00
  61   1     0.01   0.01   0.00     0.03   0.03   0.00    -0.09  -0.10  -0.01
  62   1    -0.00   0.00   0.00    -0.07   0.21   0.02     0.03  -0.08  -0.01
  63   1     0.01  -0.00  -0.00    -0.91   0.15   0.01     0.13  -0.02  -0.00
  64   1    -0.00   0.00   0.00    -0.00   0.01   0.00     0.00  -0.00  -0.00
  65   1     0.00  -0.00   0.00     0.00  -0.00   0.00    -0.00   0.00  -0.00
  66   1    -0.00  -0.00   0.00    -0.00  -0.00   0.00     0.00   0.00  -0.00
  67   1    -0.00   0.00  -0.00    -0.00   0.00  -0.00     0.00  -0.00   0.00
  68   1     0.00   0.00  -0.00     0.00   0.00  -0.00    -0.00  -0.00   0.00
  69   1     0.00  -0.00   0.00     0.00  -0.00   0.00    -0.00   0.00  -0.00
  70   1     0.00  -0.00   0.00     0.00  -0.00   0.00    -0.00   0.00  -0.00
  71   1    -0.00   0.00  -0.00    -0.00   0.00  -0.00     0.00  -0.00   0.00
  72   1    -0.00   0.00  -0.00    -0.00   0.00  -0.00     0.00  -0.00   0.00
  73   1    -0.00   0.00   0.00    -0.00   0.00   0.00    -0.00   0.00   0.00
                    211                    212                    213
                        a                      a                      a 
 Frequencies --  3112.0035              3113.2197              3113.7774
 Red. masses --     1.8560                 1.8893                 1.8878
 Frc consts  --     0.0000                 0.0000                 0.0000
 IR Inten    --    11.0715                21.9956                56.1454
 Raman Activ --     0.0000                 0.0000                 0.0000
 Depolar     --     0.0000                 0.0000                 0.0000
 Atom AN      X      Y      Z        X      Y      Z        X      Y      Z
   1   6    -0.00  -0.00  -0.00     0.06   0.02   0.07    -0.06  -0.02  -0.07
   2   6     0.00  -0.00  -0.00    -0.02   0.02   0.03     0.02  -0.02  -0.03
   3   6     0.00  -0.00  -0.00    -0.02   0.00   0.00     0.02  -0.00  -0.00
   4   6     0.00  -0.00   0.00    -0.00   0.00  -0.00     0.00  -0.00  -0.00
   5   6    -0.00   0.00   0.00     0.00  -0.00  -0.01    -0.00   0.00   0.01
   6   6    -0.01   0.00   0.00     0.16  -0.04  -0.01    -0.17   0.04   0.01
   7   8     0.00   0.00   0.00     0.00   0.00   0.00     0.00  -0.00  -0.00
   8   6    -0.00  -0.00  -0.00    -0.00  -0.00  -0.01    -0.00  -0.00  -0.01
   9   6    -0.00   0.00  -0.00    -0.17   0.04  -0.01    -0.16   0.04  -0.01
  10   6    -0.00   0.00   0.00    -0.04   0.04   0.08    -0.04   0.04   0.07
  11   6    -0.00  -0.00  -0.00     0.03   0.01   0.04     0.03   0.01   0.03
  12   6     0.00   0.00   0.00     0.03  -0.01   0.00     0.03  -0.01   0.00
  13   6     0.00  -0.00  -0.00     0.00  -0.00  -0.00     0.00  -0.00  -0.00
  14   7    -0.00   0.00  -0.00     0.00   0.00   0.00    -0.00   0.00   0.00
  15   6     0.00   0.00   0.00    -0.00  -0.00  -0.00     0.00  -0.00  -0.00
  16   6     0.02  -0.07  -0.01     0.00  -0.00  -0.00    -0.00   0.00   0.00
  17   6    -0.18  -0.18  -0.02    -0.00  -0.00  -0.00     0.00   0.00   0.00
  18   6    -0.01   0.00   0.00    -0.00  -0.00   0.00    -0.00   0.00   0.00
  19   6     0.00  -0.00  -0.00     0.00  -0.00  -0.00     0.00  -0.00   0.00
  20   6    -0.03  -0.03  -0.00    -0.00  -0.00  -0.00     0.00   0.00   0.00
  21   6    -0.00   0.00   0.00    -0.00   0.00   0.00    -0.00  -0.00  -0.00
  22   6    -0.04   0.01   0.00    -0.00   0.00   0.00     0.00  -0.00   0.00
  23   6    -0.01  -0.01  -0.00    -0.00  -0.00  -0.00    -0.00  -0.00  -0.00
  24   6     0.00  -0.00  -0.00     0.00   0.00   0.00     0.00  -0.00  -0.00
  25   6     0.00  -0.00  -0.00    -0.00   0.00   0.00     0.00  -0.00  -0.00
  26   6     0.00  -0.00  -0.00     0.00  -0.00  -0.00     0.00   0.00   0.00
  27   6     0.00  -0.00  -0.00    -0.00  -0.00   0.00    -0.00   0.00   0.00
  28   7    -0.00  -0.00  -0.00    -0.00  -0.00  -0.00     0.00   0.00   0.00
  29   6    -0.00   0.00   0.00    -0.00   0.00   0.00    -0.00  -0.00  -0.00
  30   6     0.00  -0.00  -0.00     0.00  -0.00  -0.00     0.00  -0.00  -0.00
  31   6     0.00   0.00   0.00     0.00  -0.00  -0.00    -0.00  -0.00  -0.00
  32   6    -0.00  -0.00  -0.00     0.00  -0.00   0.00     0.00  -0.00   0.00
  33   6     0.00  -0.00   0.00     0.00  -0.00   0.00    -0.00   0.00  -0.00
  34   6    -0.00  -0.00   0.00    -0.00  -0.00   0.00     0.00   0.00  -0.00
  35   7     0.00  -0.00  -0.00     0.00  -0.00  -0.00    -0.00   0.00   0.00
  36   6    -0.00  -0.00   0.00     0.00  -0.00   0.00     0.00  -0.00   0.00
  37   6     0.00   0.00  -0.00    -0.00  -0.00   0.00    -0.00  -0.00   0.00
  38   6    -0.00  -0.00  -0.00    -0.00   0.00   0.00    -0.00   0.00   0.00
  39   6    -0.00  -0.00   0.00     0.00   0.00   0.00     0.00   0.00   0.00
  40   6     0.00  -0.00   0.00     0.00  -0.00   0.00    -0.00  -0.00  -0.00
  41   6    -0.00  -0.00   0.00     0.00   0.00  -0.00     0.00   0.00  -0.00
  42   7    -0.00   0.00   0.00     0.00  -0.00  -0.00    -0.00  -0.00  -0.00
  43   6    -0.00  -0.00  -0.00     0.00   0.00   0.00     0.00   0.00   0.00
  44   6    -0.00   0.00  -0.00     0.00  -0.00   0.00    -0.00  -0.00   0.00
  45   6     0.00  -0.00  -0.00    -0.00  -0.00  -0.00    -0.00   0.00   0.00
  46   6     0.00  -0.00   0.00     0.00   0.00   0.00    -0.00   0.00   0.00
  47   7    -0.00   0.00   0.00    -0.00   0.00   0.00    -0.00  -0.00  -0.00
  48   6    -0.00  -0.00  -0.00    -0.00  -0.00   0.00     0.00  -0.00   0.00
  49   1     0.01   0.00   0.01    -0.18  -0.06  -0.23     0.19   0.06   0.24
  50   1    -0.00   0.00   0.01     0.05  -0.05  -0.11    -0.05   0.06   0.11
  51   1    -0.02   0.00   0.00     0.08  -0.02  -0.01    -0.08   0.02   0.01
  52   1     0.02  -0.01  -0.00    -0.55   0.14   0.04     0.58  -0.14  -0.04
  53   1     0.00  -0.00   0.00     0.57  -0.13   0.02     0.56  -0.12   0.02
  54   1     0.00  -0.00  -0.00     0.14  -0.14  -0.25     0.13  -0.13  -0.24
  55   1     0.00   0.00   0.00    -0.08  -0.03  -0.12    -0.08  -0.03  -0.11
  56   1    -0.00   0.00   0.00    -0.10   0.02  -0.00    -0.09   0.02  -0.00
  57   1    -0.07   0.22   0.02    -0.00   0.00   0.00     0.00  -0.01  -0.00
  58   1     0.63   0.65   0.06     0.01   0.01   0.00    -0.01  -0.02  -0.00
  59   1     0.11   0.12   0.01     0.01   0.01   0.00    -0.00  -0.00  -0.00
  60   1     0.14  -0.02  -0.00     0.01  -0.00  -0.00    -0.00   0.00  -0.00
  61   1     0.02   0.02   0.00     0.00   0.00   0.00     0.00   0.00   0.00
  62   1    -0.00   0.01   0.00    -0.00   0.00   0.00    -0.00   0.01   0.00
  63   1    -0.00   0.00   0.00     0.00  -0.00  -0.00    -0.01   0.00   0.00
  64   1    -0.00   0.00   0.00    -0.00   0.00   0.00    -0.00   0.00   0.00
  65   1    -0.00   0.00  -0.00    -0.00   0.00  -0.00     0.00  -0.00   0.00
  66   1     0.00   0.00  -0.00     0.00   0.00  -0.00    -0.00  -0.00   0.00
  67   1    -0.00   0.00  -0.00    -0.00   0.00  -0.00    -0.00   0.00  -0.00
  68   1    -0.00  -0.00   0.00     0.00   0.00  -0.00     0.00   0.00  -0.00
  69   1    -0.00   0.00  -0.00    -0.00   0.00  -0.00     0.00  -0.00   0.00
  70   1    -0.00   0.00  -0.00     0.00  -0.00   0.00     0.00  -0.00   0.00
  71   1     0.00   0.00   0.00    -0.00   0.00  -0.00    -0.00   0.00  -0.00
  72   1     0.00  -0.00   0.00    -0.00   0.00  -0.00    -0.00   0.00  -0.00
  73   1    -0.00   0.01   0.00    -0.00   0.00   0.00     0.00  -0.00  -0.00
