126
 energy: -186.619858209610 gnorm: 0.000094270486 xtb: 6.7.1 (edcfbbe)
C            5.30653177664520        9.70597463358017        3.19222071913502
C            4.47132563901335        8.83922849119494        2.29660770746694
C            4.20678339983318        7.51825317716640        2.67476886354049
C            3.45066603030781        6.66723608284399        1.89469527781619
C            2.95830305181529        7.15689131281326        0.69361135982256
C            3.18354391226452        8.49707219182049        0.30842271215088
C            3.94799981004834        9.33111747974731        1.11417646763698
C            2.47970465264606        8.68803127015635       -0.92896706375568
C            2.32897343087532        9.76812312940492       -1.78942279654905
C            1.56782042498820        9.62134735007434       -2.93521073937021
C            1.37678968501786       10.76451699321880       -3.88794724517464
C            0.96879625167798        8.38821488530412       -3.21666952570574
C            1.10348072746981        7.29744939382355       -2.38219350178412
C            1.85625173999789        7.45657403870355       -1.22823227080126
N            2.16810267128182        6.53529056941326       -0.24967624174501
C            1.74003356308605        5.19870096869403       -0.22236395651364
C            0.37462829875427        4.92821976372927       -0.16536088029070
C           -0.07975152157368        3.62823335020832       -0.12748074842217
C            0.83443269082557        2.57652901656777       -0.14539693831185
C            0.36872840228672        1.19223143659653       -0.09392840452864
N            1.28242291813671        0.22553908186074       -0.09229744543981
C            0.81365860852431       -1.01859679837728       -0.04670385434504
C            1.77849314498397       -2.11606415214903       -0.04355561708329
C            1.34039081812887       -3.43831632643125        0.00034360397292
C            2.26186545424680       -4.46227525942810        0.01506524160647
C            3.62694878484435       -4.18577271068165       -0.01433038350812
N            4.53776703827745       -5.25349478190526        0.01311469282880
C            5.48042610362946       -5.49511027343207        0.98965292833752
C            5.71544669692848       -4.81777318604077        2.17740563885795
C            6.71870912707739       -5.28937817903767        2.99932066634794
C            7.47901756082213       -6.41855582864180        2.67558241671817
C            8.55807947674255       -6.87089194262654        3.61472388494654
C            7.21585827504079       -7.10922963810787        1.50609261279738
C            6.21209478418483       -6.65727907025326        0.65907137221340
C            5.66785157054822       -7.14176891244295       -0.57870061862174
C            5.96472964426211       -8.22318841582634       -1.39853393801791
C            5.23553799828867       -8.41530553411187       -2.55831028000953
C            5.52078913181735       -9.57404496945454       -3.46769982550837
C            4.21760056025054       -7.51563535135278       -2.89459286575472
C            3.90253839829527       -6.43131537822540       -2.10136934026850
C            4.62832152554973       -6.25372613313104       -0.93289941344756
C            4.08283240976120       -2.86341804710949       -0.09410701146723
C            5.54334453428774       -2.55314089204961       -0.21564635028623
C            3.14349702587904       -1.84652770271202       -0.09737203876695
N           -0.47961659282251       -1.32548189012415       -0.00171213938336
C           -1.32294480548314       -0.29694228198499       -0.00250281025989
C           -2.75434707025521       -0.58464959368529        0.05394601142236
C           -3.20533815351918       -1.90108637673335        0.13091104542430
C           -4.55746367582404       -2.15623534172618        0.19786188737214
C           -5.47600508013192       -1.10888956404821        0.18798640333951
N           -6.84577286943997       -1.40463609129458        0.26985766712328
C           -7.55960888674525       -2.15527288272038       -0.64141170231193
C           -7.13410979142972       -2.75240984749467       -1.81869753585404
C           -8.07171794224231       -3.43123749323523       -2.56990921528260
C           -9.41375375728267       -3.52189009511644       -2.18339159064226
C          -10.37735582705103       -4.27873370360473       -3.04928399963961
C           -9.83342068138883       -2.91146587074066       -1.01507118787629
C           -8.91107142980175       -2.22348830817337       -0.23682935586135
C           -9.00360975197641       -1.49234263808306        0.99599236416533
C          -10.04382999432770       -1.22961242448633        1.87815109479765
C           -9.79048032562248       -0.50640602631905        3.02999789371040
C          -10.88742733544847       -0.19654809592721        4.00553510296241
C           -8.48939853060921       -0.06860336053008        3.30108048628489
C           -7.43675087161389       -0.31504506798883        2.44337520690893
C           -7.70504812508165       -1.01068074212920        1.27337364544778
C           -5.04039392360779        0.21787345728256        0.07452047559170
C           -6.01787215120461        1.34839225714299       -0.02741679863548
C           -3.67794915023157        0.45681804324644        0.01932067540346
N           -0.94293068553086        0.97708054619163       -0.04935427714273
C            2.19673426019080        2.85259157996822       -0.22606381358698
C            2.67028017649615        4.15251144179551       -0.27583079782116
C            4.13567353600809        4.42510346617593       -0.42535001796471
H            6.29918544880587        9.27536350420968        3.32120712426770
H            4.84952401814421        9.78783872219990        4.17794385328795
H            5.41413975736046       10.70457482021501        2.77656193144205
H            4.60397669092053        7.15945195161681        3.61372846131921
H            3.23198535946858        5.66057533484899        2.21918284839646
H            4.12418571921112       10.35552424347609        0.82035293028975
H            2.80446181387562       10.71130832896140       -1.56332318517759
H            1.75147899911945       10.50291045163711       -4.87709827552739
H            0.31868492578792       11.00521140522077       -3.98671332634656
H            1.90237118641167       11.65089215014609       -3.54196572440684
H            0.38387002382809        8.29140105298858       -4.12021368004486
H            0.64116084819844        6.35094509980307       -2.62052066683257
H           -0.31954675023497        5.75558561220845       -0.14025944128778
H           -1.13332750494384        3.40643770542108       -0.07487214111142
H            0.28179918264460       -3.63945980614536        0.03023670429753
H            1.93996442096665       -5.49245913581939        0.06091386440952
H            5.11931287260248       -3.96276599417414        2.46034417237409
H            6.92294312241370       -4.77719187785268        3.92889412540632
H            9.30919546908807       -6.09072311540995        3.73567532275202
H            8.14191944807560       -7.08641047972494        4.59834662402209
H            9.04740553837449       -7.76703949281655        3.24186246358207
H            7.77841297571221       -7.99633351713137        1.25436089420829
H            6.75906555662687       -8.90430661422209       -1.13032719164177
H            5.77907443176908       -9.22116356869865       -4.46565153152592
H            4.64199309503403      -10.21193865461934       -3.55824772096148
H            6.34477131167884      -10.17269555218364       -3.08787226812538
H            3.66408534458837       -7.67861294700192       -3.80834556218922
H            3.11935032701149       -5.74252203163768       -2.38167808683950
H            5.68300780463822       -1.57151498563207       -0.66142691300924
H            6.04356676025287       -3.29762976169363       -0.83277865040495
H            6.02807289990082       -2.55658357235928        0.76032715491842
H            3.46028954274760       -0.81665246666831       -0.15657222517105
H           -2.48458962818614       -2.70251895625854        0.14603562438343
H           -4.92392324247376       -3.16986236125889        0.27054119617792
H           -6.10438642132014       -2.68565865607472       -2.13746130767200
H           -7.76471828616139       -3.90889585634013       -3.48941714513830
H          -11.37957178764735       -4.25405770592891       -2.62910154810223
H          -10.06710773826013       -5.31888016933690       -3.14500212634096
H          -10.40976074365958       -3.84852874222018       -4.04981708860227
H          -10.86775276562541       -2.96549418888737       -0.70836443677421
H          -11.03834323068630       -1.59454593796539        1.66703386283150
H          -11.83307796443674       -0.61752591031666        3.67375455487186
H          -11.00699011530736        0.88113913729595        4.11410562316228
H          -10.65113862218306       -0.60493818358054        4.98763147304093
H           -8.30646183362282        0.47394851908386        4.21776375778994
H           -6.43400608637789        0.00464993685819        2.68583423951575
H           -6.37342903250888        1.65004855072816        0.95751592483995
H           -5.54916535435690        2.20885241448437       -0.49823201668482
H           -6.88667992487862        1.05249427184665       -0.61311473159552
H           -3.30810377870275        1.46685977751443       -0.06755377760752
H            2.88599440609386        2.02318921940199       -0.26459037248928
H            4.63772563985614        3.55849175391419       -0.84812005917109
H            4.59368193180679        4.64828253186361        0.53794922943791
H            4.30214889541682        5.28330500497442       -1.07426074168594
