 Entering Gaussian System
 *********************************************
 Gaussian 98:
 frequency output generated by the xtb code
 *********************************************
                         Standard orientation:
 --------------------------------------------------------------------
  Center     Atomic     Atomic              Coordinates (Angstroms)
  Number     Number      Type              X           Y           Z
 --------------------------------------------------------------------
    1          6             0       -5.401916    1.110649    0.177935
    2          6             0       -4.629903    1.404355    1.294766
    3          6             0       -3.341702    0.928258    1.400727
    4          6             0       -2.790288    0.144308    0.376665
    5          7             0       -1.489491   -0.337388    0.486652
    6          6             0       -0.538915    0.405052    1.200659
    7          6             0        0.356074   -0.253151    2.054171
    8          6             0        1.330836    0.463845    2.716024
    9          6             0        1.427468    1.836536    2.550639
   10          6             0        0.530198    2.494737    1.717075
   11          6             0       -0.446882    1.790556    1.046963
   12          6             0       -1.137963   -1.561585   -0.045163
   13          6             0       -2.032520   -2.650181   -0.004667
   14          6             0       -1.632780   -3.916041   -0.314869
   15          6             0       -0.280105   -4.166856   -0.708494
   16          6             0        0.613278   -3.131054   -0.779542
   17          6             0        0.235459   -1.814057   -0.501316
   18          7             0        1.116035   -0.777140   -0.730048
   19          6             0        0.824966    0.423429   -1.354458
   20          6             0       -0.302201    0.791704   -2.068086
   21          6             0       -0.335344    2.055920   -2.632751
   22          6             0        0.744729    2.933303   -2.496717
   23          6             0        1.889947    2.559943   -1.825202
   24          6             0        1.950597    1.289148   -1.257430
   25          6             0        2.960796    0.568181   -0.556153
   26          6             0        4.245269    0.890396   -0.125582
   27          6             0        4.955442   -0.042931    0.605189
   28          6             0        4.402592   -1.279664    0.927708
   29          6             0        3.125130   -1.626214    0.503966
   30          6             0        2.419730   -0.710087   -0.252062
   31          6             0       -3.578513   -0.154953   -0.743391
   32          6             0       -4.864770    0.328150   -0.837404
   33          1             0       -6.411307    1.483444    0.100624
   34          1             0       -5.043395    2.002741    2.092975
   35          1             0       -2.751624    1.140643    2.279723
   36          1             0        0.265801   -1.320943    2.191327
   37          1             0        2.019574   -0.051503    3.368409
   38          1             0        2.195798    2.391647    3.065430
   39          1             0        0.602012    3.563178    1.582098
   40          1             0       -1.127884    2.296169    0.378679
   41          1             0       -3.042400   -2.469879    0.335276
   42          1             0       -2.324999   -4.739872   -0.248897
   43          1             0        0.018204   -5.168053   -0.973669
   44          1             0        1.619277   -3.308633   -1.130776
   45          1             0       -1.129209    0.111472   -2.198920
   46          1             0       -1.205533    2.364875   -3.191735
   47          1             0        0.680864    3.915252   -2.942579
   48          1             0        2.730081    3.232821   -1.743113
   49          1             0        4.668441    1.857260   -0.351785
   50          1             0        5.953604    0.191928    0.945402
   51          1             0        4.971461   -1.980702    1.519314
   52          1             0        2.700593   -2.580114    0.776977
   53          1             0       -3.166535   -0.755581   -1.540511
   54          1             0       -5.456450    0.099558   -1.711358
 --------------------------------------------------------------------
     1 basis functions        1 primitive gaussians
     1 alpha electrons        1 beta electrons
 
 Harmonic frequencies (cm**-1), IR intensities (km*mol⁻¹),
 Raman scattering activities (A**4/amu), Raman depolarization ratios,
 reduced masses (AMU), force constants (mDyne/A) and normal coordinates:
                      1                      2                      3
                        a                      a                      a 
 Frequencies --    12.4279                32.6354                40.5969
 Red. masses --    10.8430                10.7813                10.7500
 Frc consts  --     0.0000                 0.0000                 0.0000
 IR Inten    --     0.1698                 0.2926                 0.1942
 Raman Activ --     0.0000                 0.0000                 0.0000
 Depolar     --     0.0000                 0.0000                 0.0000
 Atom AN      X      Y      Z        X      Y      Z        X      Y      Z
   1   6    -0.10  -0.18   0.05    -0.04  -0.07   0.32    -0.11  -0.06   0.04
   2   6    -0.11  -0.17   0.06     0.02  -0.15   0.30    -0.11  -0.07   0.05
   3   6    -0.09  -0.10   0.04     0.05  -0.12   0.16    -0.10  -0.03   0.03
   4   6    -0.05  -0.04   0.02    -0.00  -0.00   0.04    -0.08   0.00   0.02
   5   7    -0.02   0.02   0.01     0.02   0.01  -0.07    -0.08   0.02   0.02
   6   6    -0.04   0.09  -0.04     0.03   0.01  -0.08    -0.09  -0.02   0.08
   7   6     0.05   0.18  -0.07     0.02   0.03  -0.06    -0.16  -0.07   0.11
   8   6     0.01   0.26  -0.12     0.01   0.04  -0.06    -0.16  -0.12   0.16
   9   6    -0.12   0.27  -0.13     0.01   0.04  -0.09    -0.09  -0.13   0.18
  10   6    -0.21   0.19  -0.09     0.01   0.02  -0.11    -0.03  -0.07   0.15
  11   6    -0.17   0.10  -0.05     0.02   0.01  -0.10    -0.03  -0.02   0.10
  12   6     0.00   0.02   0.03    -0.01   0.02  -0.10    -0.03   0.04  -0.01
  13   6     0.01   0.01   0.05    -0.03   0.04  -0.16    -0.01   0.02  -0.08
  14   6    -0.00   0.02   0.02    -0.04   0.04  -0.17     0.04   0.03  -0.06
  15   6    -0.03   0.02  -0.05    -0.03   0.01  -0.10     0.08   0.07   0.04
  16   6    -0.03   0.03  -0.06    -0.00  -0.00  -0.05     0.06   0.09   0.11
  17   6    -0.01   0.02  -0.01     0.00  -0.00  -0.06     0.01   0.09   0.08
  18   7     0.01   0.01   0.02     0.02  -0.01  -0.04    -0.01   0.11   0.11
  19   6     0.06   0.04   0.05     0.05  -0.03  -0.09     0.04   0.07   0.01
  20   6     0.06   0.11   0.09     0.08  -0.05  -0.15     0.03   0.09   0.04
  21   6     0.11   0.13   0.12     0.12  -0.08  -0.21     0.10   0.03  -0.10
  22   6     0.16   0.07   0.12     0.12  -0.08  -0.19     0.18  -0.04  -0.25
  23   6     0.16  -0.01   0.08     0.07  -0.04  -0.10     0.18  -0.06  -0.27
  24   6     0.11  -0.02   0.05     0.04  -0.02  -0.04     0.11  -0.01  -0.13
  25   6     0.09  -0.09   0.00    -0.01   0.01   0.06     0.10  -0.01  -0.12
  26   6     0.12  -0.17  -0.03    -0.05   0.04   0.17     0.16  -0.07  -0.26
  27   6     0.09  -0.23  -0.07    -0.11   0.07   0.27     0.13  -0.05  -0.21
  28   6     0.03  -0.20  -0.07    -0.12   0.07   0.24     0.05   0.04  -0.02
  29   6    -0.00  -0.13  -0.05    -0.07   0.04   0.13    -0.01   0.10   0.11
  30   6     0.03  -0.07  -0.01    -0.02   0.01   0.05     0.02   0.06   0.04
  31   6    -0.03  -0.05   0.01    -0.06   0.09   0.06    -0.07   0.02   0.01
  32   6    -0.06  -0.12   0.03    -0.08   0.06   0.20    -0.09  -0.02   0.02
  33   1    -0.04  -0.07   0.02    -0.02  -0.03   0.12    -0.03  -0.03   0.02
  34   1    -0.04  -0.06   0.02     0.02  -0.07   0.11    -0.04  -0.03   0.02
  35   1    -0.03  -0.03   0.01     0.03  -0.05   0.04    -0.03  -0.01   0.01
  36   1     0.04   0.05  -0.02     0.01   0.01  -0.01    -0.06  -0.02   0.03
  37   1     0.02   0.09  -0.04     0.00   0.02  -0.01    -0.06  -0.05   0.05
  38   1    -0.04   0.10  -0.05    -0.00   0.01  -0.03    -0.03  -0.05   0.06
  39   1    -0.09   0.06  -0.03     0.00   0.01  -0.04     0.01  -0.02   0.05
  40   1    -0.07   0.01  -0.01     0.00  -0.00  -0.03     0.00   0.00   0.02
  41   1     0.01   0.00   0.03    -0.01   0.01  -0.06    -0.01  -0.00  -0.04
  42   1    -0.00   0.00   0.01    -0.02   0.01  -0.06     0.02   0.00  -0.03
  43   1    -0.01   0.01  -0.03    -0.01   0.00  -0.03     0.04   0.02   0.01
  44   1    -0.01   0.01  -0.03     0.00  -0.00  -0.00     0.03   0.03   0.05
  45   1     0.00   0.05   0.03     0.03  -0.02  -0.05    -0.01   0.04   0.04
  46   1     0.03   0.05   0.04     0.04  -0.03  -0.08     0.03   0.01  -0.02
  47   1     0.06   0.02   0.04     0.04  -0.03  -0.07     0.07  -0.03  -0.10
  48   1     0.06  -0.02   0.02     0.02  -0.01  -0.02     0.07  -0.04  -0.11
  49   1     0.05  -0.06  -0.01    -0.01   0.01   0.06     0.06  -0.04  -0.12
  50   1     0.03  -0.08  -0.03    -0.04   0.03   0.11     0.05  -0.03  -0.09
  51   1     0.00  -0.07  -0.03    -0.05   0.03   0.09     0.01   0.02   0.01
  52   1    -0.01  -0.03  -0.02    -0.02   0.01   0.03    -0.02   0.05   0.07
  53   1     0.00  -0.00  -0.00    -0.03   0.06  -0.01    -0.02   0.02  -0.00
  54   1    -0.01  -0.04   0.01    -0.04   0.04   0.06    -0.02  -0.00   0.00
                      4                      5                      6
                        a                      a                      a 
 Frequencies --    56.0917                71.3134                73.7343
 Red. masses --    10.3735                10.6499                10.5398
 Frc consts  --     0.0000                 0.0000                 0.0000
 IR Inten    --     0.0842                 0.2925                 0.1012
 Raman Activ --     0.0000                 0.0000                 0.0000
 Depolar     --     0.0000                 0.0000                 0.0000
 Atom AN      X      Y      Z        X      Y      Z        X      Y      Z
   1   6    -0.10  -0.21  -0.00    -0.10   0.02   0.04     0.13   0.28  -0.06
   2   6    -0.04   0.06  -0.11    -0.08  -0.01   0.03     0.13   0.25  -0.06
   3   6     0.00   0.17  -0.11    -0.08  -0.02  -0.01     0.04   0.03   0.04
   4   6    -0.01   0.02  -0.01    -0.11  -0.00  -0.04    -0.03  -0.13   0.12
   5   7    -0.01   0.05   0.00    -0.12  -0.01  -0.06    -0.06  -0.18   0.16
   6   6     0.02   0.01  -0.00    -0.09  -0.02  -0.06    -0.05  -0.09   0.07
   7   6    -0.03  -0.05   0.01    -0.11  -0.05  -0.06    -0.01   0.01   0.10
   8   6     0.04  -0.13  -0.02     0.04  -0.11  -0.21    -0.00   0.10  -0.00
   9   6     0.18  -0.14  -0.06     0.19  -0.14  -0.36    -0.03   0.09  -0.15
  10   6     0.23  -0.08  -0.07     0.17  -0.10  -0.30    -0.07  -0.01  -0.18
  11   6     0.14  -0.00  -0.03     0.02  -0.04  -0.14    -0.08  -0.10  -0.07
  12   6    -0.01   0.03   0.03    -0.06   0.02  -0.07     0.01  -0.13   0.09
  13   6     0.04  -0.02   0.20    -0.05   0.01  -0.18     0.07  -0.17  -0.01
  14   6     0.06  -0.01   0.19     0.01  -0.00  -0.07     0.12  -0.11  -0.21
  15   6     0.01   0.05  -0.01     0.08  -0.00   0.18     0.11   0.00  -0.30
  16   6    -0.04   0.09  -0.13     0.08   0.00   0.25     0.06   0.05  -0.16
  17   6    -0.05   0.07  -0.09     0.02   0.02   0.11    -0.00  -0.00   0.02
  18   7    -0.06   0.09  -0.08     0.03   0.01   0.10    -0.05   0.05   0.10
  19   6    -0.01   0.10  -0.05     0.02   0.01   0.08    -0.04   0.04   0.06
  20   6    -0.00   0.17  -0.03     0.00   0.03   0.12    -0.07   0.06   0.13
  21   6     0.07   0.18  -0.02    -0.03   0.05   0.19    -0.04   0.04   0.07
  22   6     0.12   0.11  -0.03    -0.03   0.06   0.19     0.02  -0.02  -0.06
  23   6     0.10   0.05  -0.03     0.00   0.03   0.11     0.04  -0.04  -0.10
  24   6     0.03   0.05  -0.04     0.03   0.01   0.06     0.01  -0.01  -0.03
  25   6    -0.02   0.01  -0.01     0.05   0.00   0.02     0.00  -0.01  -0.02
  26   6    -0.03  -0.03   0.07     0.07   0.01  -0.04     0.02  -0.04  -0.05
  27   6    -0.11  -0.05   0.13     0.09   0.03  -0.04    -0.02  -0.02   0.02
  28   6    -0.17  -0.03   0.10     0.08   0.05   0.03    -0.07   0.03   0.11
  29   6    -0.15   0.01   0.02     0.06   0.05   0.09    -0.09   0.05   0.13
  30   6    -0.07   0.03  -0.03     0.04   0.01   0.07    -0.04   0.03   0.07
  31   6    -0.06  -0.21   0.08    -0.13   0.05  -0.04    -0.06  -0.15   0.14
  32   6    -0.11  -0.34   0.09    -0.13   0.06   0.00     0.02   0.05   0.05
  33   1    -0.04  -0.09   0.00    -0.03   0.01   0.02     0.06   0.13  -0.04
  34   1    -0.01   0.05  -0.06    -0.02  -0.01   0.02     0.06   0.12  -0.04
  35   1     0.01   0.10  -0.05    -0.02  -0.01  -0.01     0.01   0.01   0.01
  36   1    -0.04  -0.01   0.01    -0.07  -0.01   0.01     0.01   0.01   0.06
  37   1     0.00  -0.05  -0.00     0.01  -0.04  -0.07     0.01   0.05   0.01
  38   1     0.07  -0.06  -0.03     0.10  -0.06  -0.15    -0.01   0.04  -0.07
  39   1     0.09  -0.03  -0.03     0.08  -0.03  -0.11    -0.03  -0.01  -0.09
  40   1     0.05   0.01  -0.01     0.00  -0.00  -0.03    -0.03  -0.05  -0.03
  41   1     0.02  -0.01   0.10    -0.03   0.00  -0.10     0.02  -0.08   0.02
  42   1     0.03  -0.01   0.09     0.00  -0.00  -0.04     0.04  -0.04  -0.09
  43   1     0.01   0.02  -0.01     0.04  -0.00   0.08     0.04   0.02  -0.13
  44   1    -0.02   0.04  -0.07     0.04  -0.00   0.11     0.02   0.04  -0.06
  45   1    -0.02   0.07  -0.00     0.00   0.01   0.03    -0.04   0.03   0.07
  46   1     0.02   0.07  -0.00    -0.02   0.02   0.07    -0.02   0.02   0.03
  47   1     0.05   0.03  -0.01    -0.02   0.02   0.07     0.02  -0.01  -0.03
  48   1     0.04   0.00  -0.01     0.00   0.01   0.03     0.02  -0.02  -0.05
  49   1     0.00  -0.01   0.03     0.02   0.00  -0.03     0.02  -0.02  -0.03
  50   1    -0.04  -0.02   0.06     0.03   0.01  -0.02    -0.00  -0.01   0.00
  51   1    -0.07  -0.01   0.04     0.03   0.02   0.01    -0.03   0.01   0.05
  52   1    -0.06   0.01  -0.00     0.02   0.02   0.05    -0.04   0.02   0.05
  53   1    -0.02  -0.09   0.04    -0.04   0.02  -0.02    -0.04  -0.08   0.06
  54   1    -0.04  -0.16   0.05    -0.04   0.03   0.00     0.00   0.02   0.02
                      7                      8                      9
                        a                      a                      a 
 Frequencies --    80.6980                86.0883               106.8142
 Red. masses --    10.2254                10.6546                10.2469
 Frc consts  --     0.0000                 0.0000                 0.0000
 IR Inten    --     0.4178                 0.2982                 0.4134
 Raman Activ --     0.0000                 0.0000                 0.0000
 Depolar     --     0.0000                 0.0000                 0.0000
 Atom AN      X      Y      Z        X      Y      Z        X      Y      Z
   1   6    -0.02   0.02   0.18    -0.08  -0.22  -0.06    -0.00  -0.10   0.03
   2   6     0.16   0.20   0.01    -0.11  -0.05  -0.09     0.07   0.07  -0.06
   3   6     0.16   0.19  -0.11    -0.06   0.09  -0.04     0.10   0.13  -0.10
   4   6     0.01   0.03  -0.07     0.02   0.06   0.03     0.07   0.06  -0.06
   5   7     0.01   0.03  -0.17     0.02   0.06   0.13     0.07   0.04  -0.07
   6   6    -0.00   0.02  -0.13     0.02   0.06   0.11     0.07   0.03  -0.06
   7   6    -0.17   0.04   0.06    -0.00   0.07   0.14     0.14   0.01  -0.14
   8   6    -0.29   0.05   0.22     0.06   0.05   0.06     0.09   0.01  -0.07
   9   6    -0.22   0.04   0.15     0.16   0.03  -0.05    -0.04   0.04   0.11
  10   6    -0.01   0.02  -0.09     0.17   0.03  -0.07    -0.09   0.06   0.18
  11   6     0.09   0.01  -0.23     0.10   0.04   0.02    -0.02   0.05   0.08
  12   6     0.02  -0.00  -0.10    -0.00   0.05   0.12     0.02   0.03  -0.07
  13   6     0.02  -0.00  -0.09    -0.08   0.12  -0.05    -0.05   0.07  -0.15
  14   6     0.03  -0.01  -0.05    -0.20   0.14  -0.31    -0.10   0.06  -0.16
  15   6     0.04  -0.03  -0.01    -0.21   0.09  -0.32    -0.07  -0.02  -0.01
  16   6     0.04  -0.04   0.01    -0.11   0.02  -0.07    -0.00  -0.07   0.07
  17   6     0.04  -0.02  -0.02    -0.01   0.01   0.13     0.03  -0.04  -0.00
  18   7     0.05  -0.04  -0.00     0.02  -0.01   0.17     0.05  -0.08  -0.06
  19   6     0.03  -0.03   0.01    -0.00  -0.04   0.11     0.03  -0.08  -0.06
  20   6     0.05  -0.07  -0.04     0.00  -0.13   0.06    -0.07  -0.01   0.13
  21   6     0.02  -0.05   0.00    -0.02  -0.17  -0.03    -0.16   0.05   0.27
  22   6    -0.03  -0.00   0.10    -0.06  -0.13  -0.05    -0.12   0.02   0.16
  23   6    -0.04   0.03   0.13    -0.06  -0.04   0.00     0.00  -0.08  -0.09
  24   6     0.00   0.00   0.08    -0.03  -0.01   0.08     0.06  -0.11  -0.18
  25   6     0.02   0.00   0.05    -0.00   0.03   0.08     0.08  -0.10  -0.19
  26   6     0.03   0.01   0.02     0.01   0.04   0.02     0.07  -0.07  -0.18
  27   6     0.08  -0.02  -0.07     0.08   0.04  -0.05    -0.03   0.05   0.07
  28   6     0.11  -0.05  -0.11     0.13   0.02  -0.06    -0.10   0.13   0.27
  29   6     0.10  -0.04  -0.07     0.10   0.00   0.02    -0.05   0.07   0.19
  30   6     0.05  -0.02   0.01     0.03   0.01   0.10     0.04  -0.05  -0.04
  31   6    -0.16  -0.11   0.08     0.07  -0.05   0.02     0.01  -0.06   0.01
  32   6    -0.18  -0.14   0.22     0.02  -0.20  -0.02    -0.03  -0.15   0.07
  33   1    -0.01  -0.00   0.08    -0.04  -0.10  -0.02    -0.01  -0.05   0.02
  34   1     0.08   0.10  -0.01    -0.05  -0.01  -0.04     0.03   0.04  -0.03
  35   1     0.08   0.09  -0.06    -0.02   0.06  -0.01     0.04   0.07  -0.04
  36   1    -0.07   0.01   0.03    -0.02   0.02   0.06     0.06  -0.00  -0.07
  37   1    -0.13   0.02   0.11     0.01   0.02   0.02     0.04  -0.00  -0.04
  38   1    -0.09   0.01   0.08     0.06   0.00  -0.04    -0.03   0.01   0.05
  39   1     0.02   0.00  -0.04     0.07   0.00  -0.04    -0.05   0.02   0.09
  40   1     0.07  -0.00  -0.11     0.03   0.01  -0.00    -0.01   0.02   0.04
  41   1     0.00  -0.00  -0.03    -0.02   0.04  -0.00    -0.02   0.03  -0.06
  42   1     0.01  -0.00  -0.01    -0.08   0.05  -0.14    -0.04   0.03  -0.07
  43   1     0.01  -0.01   0.00    -0.08   0.03  -0.15    -0.03  -0.01   0.01
  44   1     0.02  -0.01   0.01    -0.03  -0.00  -0.01     0.01  -0.04   0.05
  45   1     0.03  -0.03  -0.03     0.01  -0.05   0.02    -0.03   0.00   0.05
  46   1     0.01  -0.02  -0.01    -0.00  -0.07  -0.03    -0.07   0.04   0.14
  47   1    -0.02   0.01   0.04    -0.02  -0.05  -0.04    -0.05   0.02   0.08
  48   1    -0.02   0.02   0.06    -0.03  -0.00  -0.01     0.01  -0.03  -0.05
  49   1     0.00   0.01   0.01    -0.00   0.02   0.00     0.03  -0.04  -0.09
  50   1     0.03  -0.01  -0.03     0.03   0.01  -0.03    -0.02   0.02   0.03
  51   1     0.04  -0.02  -0.05     0.05   0.00  -0.04    -0.05   0.07   0.14
  52   1     0.04  -0.02  -0.03     0.04  -0.01   0.00    -0.03   0.04   0.09
  53   1    -0.08  -0.06   0.02     0.04  -0.01   0.01    -0.00  -0.02   0.00
  54   1    -0.09  -0.08   0.10     0.02  -0.09  -0.01    -0.02  -0.08   0.04
                     10                     11                     12
                        a                      a                      a 
 Frequencies --   108.2239               144.3262               155.5359
 Red. masses --    10.0751                 9.9717                10.2482
 Frc consts  --     0.0000                 0.0000                 0.0000
 IR Inten    --     0.4220                 0.9839                 1.4634
 Raman Activ --     0.0000                 0.0000                 0.0000
 Depolar     --     0.0000                 0.0000                 0.0000
 Atom AN      X      Y      Z        X      Y      Z        X      Y      Z
   1   6     0.07  -0.10  -0.01     0.02  -0.04   0.01    -0.06   0.11   0.01
   2   6    -0.01  -0.23   0.08     0.03   0.02  -0.01    -0.07  -0.01   0.05
   3   6     0.02  -0.15   0.06     0.04   0.05  -0.01    -0.08  -0.06   0.01
   4   6     0.09   0.00  -0.02     0.04   0.02   0.01    -0.09  -0.01  -0.04
   5   7     0.08  -0.00  -0.00     0.03  -0.00   0.01    -0.06   0.07  -0.09
   6   6     0.07   0.01   0.00     0.04  -0.01   0.00    -0.08   0.07  -0.07
   7   6    -0.11   0.07   0.23     0.09  -0.00  -0.05    -0.12  -0.01  -0.09
   8   6    -0.18   0.11   0.30     0.10   0.01  -0.07    -0.07  -0.10  -0.08
   9   6    -0.01   0.07   0.05     0.04   0.02  -0.01    -0.01  -0.10  -0.02
  10   6     0.20  -0.00  -0.23    -0.02   0.02   0.06     0.00  -0.01   0.03
  11   6     0.21  -0.02  -0.22    -0.01  -0.00   0.05    -0.04   0.07   0.00
  12   6     0.03  -0.02   0.03    -0.01  -0.00  -0.02     0.04   0.03   0.05
  13   6     0.01   0.00   0.05     0.01  -0.02  -0.06     0.11  -0.01   0.33
  14   6    -0.00  -0.00   0.03     0.06  -0.01  -0.06     0.05  -0.01   0.22
  15   6    -0.02  -0.01  -0.01     0.09   0.02   0.02    -0.08   0.05  -0.26
  16   6    -0.01  -0.02  -0.05     0.06   0.04   0.04    -0.08   0.04  -0.30
  17   6    -0.01  -0.02  -0.04    -0.02   0.02  -0.00     0.02   0.02  -0.04
  18   7    -0.04   0.00  -0.05    -0.07   0.07   0.05     0.12  -0.03   0.02
  19   6    -0.03  -0.00  -0.06    -0.03   0.03  -0.03     0.12  -0.07  -0.03
  20   6    -0.06   0.04   0.01     0.08  -0.10  -0.26     0.10  -0.17  -0.05
  21   6    -0.10   0.10   0.12     0.07  -0.09  -0.26    -0.01  -0.14   0.02
  22   6    -0.09   0.09   0.13    -0.09   0.05   0.08    -0.10  -0.05   0.13
  23   6    -0.04   0.02   0.00    -0.16   0.14   0.26    -0.04   0.01   0.07
  24   6    -0.01  -0.03  -0.09    -0.08   0.08   0.12     0.09  -0.04  -0.03
  25   6    -0.00  -0.04  -0.11    -0.06   0.04   0.08     0.11  -0.02  -0.05
  26   6     0.02  -0.09  -0.15     0.08  -0.15  -0.19     0.14  -0.02  -0.12
  27   6    -0.05  -0.06  -0.04     0.05  -0.22  -0.25     0.11   0.06   0.01
  28   6    -0.13   0.02   0.10    -0.14  -0.06   0.08     0.07   0.11   0.16
  29   6    -0.14   0.04   0.09    -0.23   0.09   0.26     0.09   0.06   0.13
  30   6    -0.05  -0.00  -0.03    -0.12   0.09   0.15     0.10  -0.01   0.03
  31   6     0.16   0.12  -0.11     0.04  -0.01   0.01    -0.12   0.04  -0.03
  32   6     0.16   0.10  -0.11     0.03  -0.05   0.02    -0.09   0.12  -0.01
  33   1     0.01  -0.04   0.00     0.00  -0.02   0.01    -0.01   0.05   0.00
  34   1    -0.03  -0.11   0.04     0.01   0.01  -0.01    -0.01  -0.02   0.03
  35   1    -0.00  -0.07   0.03     0.01   0.02  -0.01    -0.02  -0.04   0.01
  36   1    -0.06   0.03   0.11     0.04  -0.00  -0.02    -0.05  -0.00  -0.04
  37   1    -0.10   0.05   0.15     0.05   0.00  -0.04    -0.03  -0.05  -0.03
  38   1    -0.01   0.02   0.02     0.01   0.01  -0.00     0.01  -0.05  -0.00
  39   1     0.10  -0.01  -0.12    -0.02   0.01   0.03     0.01  -0.00   0.03
  40   1     0.09  -0.02  -0.11    -0.01  -0.00   0.02    -0.01   0.04   0.01
  41   1     0.01   0.01   0.02    -0.00  -0.02  -0.03     0.06  -0.00   0.17
  42   1    -0.00   0.00   0.01     0.02  -0.01  -0.03     0.03  -0.01   0.13
  43   1    -0.01  -0.00  -0.01     0.04   0.01   0.01    -0.05   0.03  -0.15
  44   1    -0.01  -0.01  -0.02     0.03   0.02   0.03    -0.04   0.02  -0.13
  45   1    -0.02   0.02   0.00     0.05  -0.06  -0.12     0.05  -0.07  -0.02
  46   1    -0.04   0.04   0.06     0.05  -0.05  -0.14    -0.01  -0.05   0.01
  47   1    -0.04   0.04   0.07    -0.04   0.03   0.05    -0.06  -0.00   0.07
  48   1    -0.01   0.00   0.00    -0.08   0.07   0.14    -0.03   0.03   0.03
  49   1     0.03  -0.04  -0.07     0.07  -0.08  -0.11     0.05  -0.02  -0.07
  50   1    -0.01  -0.03  -0.02     0.05  -0.11  -0.15     0.03   0.02  -0.00
  51   1    -0.06   0.02   0.06    -0.05  -0.02   0.04     0.01   0.05   0.08
  52   1    -0.06   0.03   0.05    -0.11   0.06   0.12     0.02   0.02   0.05
  53   1     0.06   0.06  -0.04     0.02   0.00   0.00    -0.05   0.01  -0.01
  54   1     0.06   0.06  -0.05     0.01  -0.02   0.01    -0.03   0.05  -0.01
                     13                     14                     15
                        a                      a                      a 
 Frequencies --   173.3089               184.5879               228.4343
 Red. masses --    10.8069                10.8421                10.3931
 Frc consts  --     0.0000                 0.0000                 0.0000
 IR Inten    --     1.1440                 0.6807                 0.3017
 Raman Activ --     0.0000                 0.0000                 0.0000
 Depolar     --     0.0000                 0.0000                 0.0000
 Atom AN      X      Y      Z        X      Y      Z        X      Y      Z
   1   6     0.02   0.06  -0.08    -0.10   0.05  -0.05    -0.16  -0.22   0.17
   2   6    -0.04   0.06  -0.04    -0.14   0.06  -0.02    -0.04   0.06   0.01
   3   6    -0.09  -0.04   0.10    -0.14   0.05   0.05     0.09   0.36  -0.15
   4   6    -0.05  -0.10   0.16    -0.08   0.02   0.10     0.07   0.25  -0.10
   5   7    -0.05  -0.09   0.17    -0.06   0.06   0.11    -0.05  -0.07   0.10
   6   6    -0.04  -0.08   0.13    -0.06   0.07   0.13    -0.04  -0.13   0.14
   7   6    -0.01  -0.03   0.14    -0.07   0.07   0.13    -0.00  -0.06   0.14
   8   6    -0.01   0.03   0.08    -0.00   0.04   0.07     0.03   0.03   0.00
   9   6    -0.02   0.02  -0.03     0.08   0.02  -0.00    -0.03   0.02  -0.10
  10   6    -0.04  -0.04  -0.06     0.06   0.04   0.03    -0.14  -0.04  -0.03
  11   6    -0.06  -0.09   0.04    -0.02   0.07   0.12    -0.12  -0.14   0.07
  12   6    -0.03  -0.02   0.03     0.04   0.10   0.01    -0.05  -0.08   0.08
  13   6    -0.10   0.02  -0.02     0.11   0.04  -0.12     0.03  -0.14   0.05
  14   6    -0.19   0.01  -0.04     0.19   0.06  -0.11     0.11  -0.12   0.03
  15   6    -0.17  -0.04   0.07     0.23   0.06   0.03     0.10  -0.05  -0.08
  16   6    -0.11  -0.07   0.09     0.15   0.11   0.06     0.03   0.01  -0.07
  17   6    -0.02  -0.03  -0.01     0.05   0.09   0.02    -0.03  -0.03   0.06
  18   7     0.04  -0.08  -0.15     0.08   0.02  -0.12    -0.04  -0.03   0.03
  19   6     0.09  -0.07  -0.21     0.09  -0.03  -0.14    -0.01  -0.05  -0.02
  20   6     0.16   0.02  -0.28     0.04  -0.16  -0.12     0.02  -0.01  -0.05
  21   6     0.21   0.10  -0.11    -0.13  -0.13  -0.03     0.06   0.01  -0.01
  22   6     0.12   0.17   0.17    -0.21  -0.04   0.07     0.05   0.02   0.07
  23   6     0.08   0.07   0.17    -0.11   0.02  -0.04     0.04  -0.04   0.05
  24   6     0.06  -0.05  -0.12     0.09  -0.02  -0.14    -0.00  -0.07  -0.04
  25   6     0.05  -0.05  -0.13     0.10  -0.05  -0.14    -0.01  -0.07  -0.06
  26   6     0.01   0.07  -0.12     0.04  -0.11   0.11    -0.04   0.02  -0.05
  27   6     0.02   0.19  -0.00    -0.08  -0.15   0.19    -0.03   0.09   0.02
  28   6     0.05   0.18   0.03    -0.08  -0.20   0.02     0.02   0.06  -0.01
  29   6     0.10   0.05  -0.04    -0.03  -0.13  -0.17     0.05  -0.03  -0.04
  30   6     0.05  -0.05  -0.12     0.08  -0.05  -0.18    -0.01  -0.06  -0.03
  31   6    -0.01  -0.14   0.14    -0.05   0.01   0.08     0.11   0.37  -0.15
  32   6     0.02  -0.08   0.02    -0.05   0.01   0.01    -0.01   0.12  -0.01
  33   1     0.02   0.04  -0.06    -0.03   0.02  -0.03    -0.09  -0.17   0.11
  34   1    -0.01   0.04  -0.03    -0.05   0.03  -0.02    -0.01  -0.00   0.02
  35   1    -0.04  -0.01   0.04    -0.05   0.02   0.02     0.04   0.15  -0.06
  36   1     0.00  -0.01   0.06    -0.03   0.02   0.05     0.02  -0.02   0.06
  37   1     0.00   0.03   0.03    -0.00   0.01   0.02     0.03   0.03  -0.01
  38   1    -0.00   0.02  -0.03     0.05  -0.00  -0.02     0.00   0.02  -0.06
  39   1    -0.01  -0.01  -0.04     0.03   0.01  -0.00    -0.06  -0.01  -0.03
  40   1    -0.03  -0.04   0.01    -0.01   0.02   0.04    -0.05  -0.06   0.02
  41   1    -0.03   0.02  -0.00     0.02  -0.01  -0.06     0.00  -0.06   0.00
  42   1    -0.07   0.01  -0.03     0.06   0.01  -0.06     0.05  -0.05   0.01
  43   1    -0.05  -0.02   0.04     0.08   0.02   0.02     0.04  -0.00  -0.05
  44   1    -0.03  -0.05   0.04     0.05   0.05   0.01     0.00   0.03  -0.04
  45   1     0.04   0.02  -0.12     0.04  -0.08  -0.03     0.00   0.00  -0.03
  46   1     0.07   0.04  -0.05    -0.05  -0.05   0.00     0.02   0.01  -0.01
  47   1     0.02   0.08   0.11    -0.10   0.00   0.06     0.01   0.01   0.04
  48   1     0.02   0.02   0.12    -0.06   0.04  -0.01     0.02  -0.02   0.03
  49   1    -0.02   0.03  -0.05     0.03  -0.03   0.08    -0.03   0.01  -0.02
  50   1    -0.01   0.08   0.02    -0.04  -0.04   0.11    -0.02   0.04   0.02
  51   1     0.01   0.07   0.03    -0.05  -0.07   0.01     0.01   0.03   0.00
  52   1     0.05   0.01  -0.00    -0.03  -0.03  -0.07     0.03  -0.02  -0.01
  53   1     0.01  -0.05   0.05    -0.01   0.00   0.03     0.04   0.14  -0.06
  54   1     0.02  -0.03   0.00    -0.00  -0.00  -0.00    -0.00   0.03   0.00
                     16                     17                     18
                        a                      a                      a 
 Frequencies --   241.3735               247.7622               265.0290
 Red. masses --    10.6373                10.5104                10.9681
 Frc consts  --     0.0000                 0.0000                 0.0000
 IR Inten    --     4.8724                 4.7061                 3.5351
 Raman Activ --     0.0000                 0.0000                 0.0000
 Depolar     --     0.0000                 0.0000                 0.0000
 Atom AN      X      Y      Z        X      Y      Z        X      Y      Z
   1   6    -0.11   0.06  -0.04     0.12   0.03   0.07    -0.11   0.07  -0.05
   2   6    -0.16  -0.02   0.01     0.20  -0.05   0.03    -0.12   0.03  -0.03
   3   6    -0.13   0.01   0.03     0.16  -0.14  -0.11    -0.13  -0.01   0.02
   4   6    -0.08   0.02   0.05     0.04  -0.07  -0.21    -0.04   0.01   0.04
   5   7    -0.03   0.05   0.01     0.08   0.08  -0.16     0.01   0.05  -0.02
   6   6     0.09   0.11  -0.18    -0.14   0.16   0.07     0.01   0.07   0.07
   7   6     0.12   0.06  -0.24    -0.27   0.13   0.18     0.02   0.13   0.11
   8   6     0.03  -0.02  -0.04    -0.06   0.00   0.01     0.05   0.11   0.11
   9   6    -0.03   0.01   0.21     0.19  -0.04  -0.16     0.19   0.10   0.04
  10   6     0.14   0.05   0.06     0.01   0.08   0.13     0.15   0.08   0.07
  11   6     0.23   0.10  -0.16    -0.16   0.19   0.25     0.06   0.10   0.16
  12   6    -0.02  -0.08   0.25     0.11  -0.05   0.14    -0.03   0.08  -0.26
  13   6     0.08  -0.12   0.13     0.08   0.01   0.08     0.03  -0.03  -0.24
  14   6     0.11  -0.07  -0.20     0.00   0.02  -0.11     0.15  -0.06   0.09
  15   6     0.13  -0.02  -0.14     0.00  -0.03  -0.07     0.13  -0.14   0.05
  16   6     0.11  -0.03   0.17     0.07  -0.10   0.11     0.01  -0.04  -0.27
  17   6    -0.02  -0.03   0.23     0.07  -0.08   0.13    -0.07  -0.09  -0.29
  18   7    -0.10  -0.06   0.04    -0.05  -0.04   0.01    -0.01  -0.13  -0.08
  19   6    -0.11  -0.06   0.02    -0.10  -0.01   0.03    -0.07  -0.09   0.02
  20   6    -0.05   0.05  -0.04    -0.05   0.06  -0.01    -0.06  -0.02   0.05
  21   6     0.10   0.05  -0.06     0.07   0.04  -0.08     0.05  -0.01   0.07
  22   6     0.12   0.03   0.06     0.08   0.03  -0.01     0.12  -0.09   0.01
  23   6     0.04  -0.05   0.12    -0.00  -0.00   0.09     0.06  -0.13   0.07
  24   6    -0.07  -0.10   0.00    -0.08  -0.04   0.02    -0.10  -0.10   0.10
  25   6    -0.07  -0.11  -0.08    -0.05  -0.06  -0.09    -0.12  -0.09   0.10
  26   6    -0.10   0.01  -0.08    -0.06  -0.01  -0.08    -0.11   0.03  -0.08
  27   6    -0.08   0.09  -0.00    -0.09   0.03  -0.00     0.01   0.10  -0.13
  28   6    -0.02   0.06  -0.02    -0.07   0.02   0.00     0.04   0.12   0.01
  29   6     0.02  -0.05  -0.05    -0.03  -0.04  -0.06     0.03  -0.02   0.11
  30   6    -0.04  -0.11  -0.06    -0.02  -0.06  -0.09    -0.06  -0.11   0.07
  31   6    -0.07   0.03   0.05    -0.04  -0.08  -0.14    -0.08   0.01   0.06
  32   6    -0.05   0.08  -0.03    -0.04  -0.02   0.03    -0.08   0.01   0.01
  33   1    -0.03   0.02  -0.02     0.04   0.03   0.04    -0.02   0.04  -0.03
  34   1    -0.06  -0.02   0.01     0.08  -0.02   0.03    -0.03   0.01  -0.01
  35   1    -0.04   0.02   0.01     0.07  -0.08  -0.04    -0.05   0.00   0.02
  36   1     0.04   0.01  -0.10    -0.12   0.04   0.07     0.01   0.04   0.04
  37   1    -0.01  -0.03  -0.01    -0.02  -0.02  -0.01     0.00   0.02   0.04
  38   1    -0.05  -0.00   0.14     0.13  -0.04  -0.12     0.08   0.02  -0.01
  39   1     0.05   0.02   0.04     0.01   0.02   0.06     0.05   0.02   0.01
  40   1     0.09   0.05  -0.06    -0.06   0.09   0.11     0.01   0.05   0.06
  41   1     0.02  -0.07   0.04     0.03   0.00   0.03    -0.00  -0.03  -0.10
  42   1     0.03  -0.02  -0.11    -0.01   0.02  -0.06     0.05  -0.02   0.07
  43   1     0.04   0.01  -0.08    -0.01  -0.01  -0.04     0.04  -0.05   0.06
  44   1     0.04   0.03   0.07     0.02  -0.03   0.04     0.00   0.01  -0.09
  45   1    -0.03   0.04  -0.02    -0.03   0.04  -0.01    -0.03   0.01   0.00
  46   1     0.05   0.03  -0.04     0.04   0.01  -0.05     0.02   0.02   0.02
  47   1     0.05   0.01   0.03     0.04   0.01  -0.00     0.06  -0.03  -0.02
  48   1     0.02  -0.03   0.07     0.01  -0.01   0.05     0.04  -0.06   0.02
  49   1    -0.05   0.01  -0.03    -0.03  -0.00  -0.02    -0.06   0.01  -0.06
  50   1    -0.04   0.05   0.02    -0.03   0.02   0.02     0.01   0.03  -0.08
  51   1     0.00   0.03   0.01    -0.02   0.02   0.02     0.03   0.05   0.01
  52   1     0.03  -0.02  -0.00    -0.00  -0.01  -0.01     0.04  -0.02   0.04
  53   1    -0.02   0.00   0.02    -0.04  -0.03  -0.05    -0.03   0.00   0.01
  54   1     0.00   0.03  -0.02    -0.05  -0.00   0.03    -0.01  -0.00  -0.00
                     19                     20                     21
                        a                      a                      a 
 Frequencies --   269.6171               309.8925               327.4146
 Red. masses --    10.3525                10.7916                11.0940
 Frc consts  --     0.0000                 0.0000                 0.0000
 IR Inten    --     3.3705                 0.2096                 2.4797
 Raman Activ --     0.0000                 0.0000                 0.0000
 Depolar     --     0.0000                 0.0000                 0.0000
 Atom AN      X      Y      Z        X      Y      Z        X      Y      Z
   1   6     0.01   0.01   0.01    -0.22   0.12   0.04    -0.07  -0.06  -0.00
   2   6     0.01  -0.01   0.01    -0.06  -0.02  -0.04    -0.12   0.05  -0.00
   3   6     0.01  -0.01  -0.01    -0.07  -0.11  -0.22    -0.06   0.17   0.07
   4   6     0.00  -0.00  -0.03    -0.06  -0.08  -0.23    -0.00   0.05   0.17
   5   7     0.01   0.02  -0.02     0.01  -0.09   0.00     0.01  -0.00   0.05
   6   6    -0.02   0.05  -0.00     0.06  -0.13   0.12    -0.04   0.06  -0.04
   7   6    -0.04   0.03   0.00     0.22   0.02   0.12    -0.11  -0.01  -0.05
   8   6     0.00  -0.01  -0.02     0.18   0.14   0.11    -0.12  -0.07  -0.01
   9   6     0.04  -0.01  -0.01     0.11   0.15   0.12    -0.05  -0.08  -0.08
  10   6     0.01   0.02   0.05     0.09  -0.02   0.02    -0.03  -0.00  -0.04
  11   6    -0.02   0.06   0.04     0.13  -0.14   0.08    -0.11   0.08   0.00
  12   6    -0.00  -0.02   0.07     0.09  -0.10   0.08     0.15  -0.01   0.05
  13   6     0.02  -0.05   0.06     0.03  -0.04   0.07     0.18   0.01   0.14
  14   6     0.02  -0.02  -0.04    -0.10  -0.06  -0.03    -0.04  -0.01  -0.14
  15   6     0.02  -0.01  -0.07    -0.10  -0.08  -0.00    -0.03  -0.15  -0.04
  16   6     0.03  -0.01   0.05    -0.02  -0.14   0.05     0.06  -0.23   0.10
  17   6     0.00  -0.03   0.06     0.10  -0.07   0.02     0.13  -0.11  -0.11
  18   7    -0.02  -0.01   0.01     0.07  -0.02  -0.10     0.17  -0.18  -0.39
  19   6     0.09  -0.14  -0.30     0.05   0.03  -0.03     0.04  -0.03  -0.08
  20   6     0.08  -0.07  -0.26     0.02   0.05   0.02    -0.04   0.07   0.09
  21   6    -0.06   0.12   0.18    -0.03   0.04  -0.02    -0.05   0.05   0.06
  22   6    -0.03   0.08   0.15    -0.03   0.05  -0.09     0.05  -0.03  -0.18
  23   6     0.12  -0.13  -0.23    -0.04   0.09  -0.03    -0.04   0.05   0.03
  24   6     0.06  -0.12  -0.23     0.02   0.10   0.01    -0.06   0.10   0.15
  25   6    -0.10   0.05   0.17     0.05   0.11   0.03    -0.03   0.12   0.14
  26   6    -0.15   0.12   0.25     0.08   0.00   0.06     0.02   0.02   0.08
  27   6     0.03  -0.04  -0.13     0.05  -0.08  -0.00     0.08  -0.10  -0.14
  28   6     0.10  -0.09  -0.23    -0.02  -0.04   0.03    -0.04   0.01   0.07
  29   6    -0.09   0.08   0.21    -0.03   0.07   0.01    -0.06   0.08   0.09
  30   6    -0.12   0.10   0.25     0.05   0.09  -0.04     0.07   0.02  -0.10
  31   6    -0.01  -0.01  -0.02    -0.28   0.02  -0.16     0.08   0.10   0.13
  32   6    -0.01   0.01   0.00    -0.29   0.12   0.00     0.08   0.06  -0.00
  33   1     0.00   0.01   0.01    -0.06   0.05   0.04    -0.03  -0.05  -0.01
  34   1     0.01  -0.01   0.01     0.03  -0.02   0.02    -0.05   0.02  -0.01
  35   1     0.01  -0.01  -0.00    -0.01  -0.05  -0.07    -0.03   0.09   0.02
  36   1    -0.02   0.01   0.00     0.12   0.00   0.05    -0.06  -0.00  -0.02
  37   1     0.00  -0.01  -0.01     0.06   0.05   0.03    -0.05  -0.02   0.01
  38   1     0.02  -0.01  -0.01     0.01   0.07   0.04     0.00  -0.04  -0.03
  39   1     0.00   0.01   0.02     0.00  -0.01  -0.03     0.01  -0.00  -0.00
  40   1    -0.00   0.03   0.02     0.04  -0.05   0.01    -0.04   0.03   0.02
  41   1     0.00  -0.02   0.02     0.02   0.01   0.03     0.07   0.01   0.08
  42   1     0.01  -0.01  -0.03    -0.04  -0.01  -0.02    -0.04   0.02  -0.06
  43   1     0.00   0.00  -0.05    -0.04  -0.03  -0.00    -0.02  -0.05   0.01
  44   1     0.01   0.01   0.02    -0.01  -0.07   0.02     0.03  -0.10   0.07
  45   1     0.02  -0.02  -0.10     0.00   0.01   0.02    -0.02   0.03   0.04
  46   1    -0.06   0.08   0.13    -0.02   0.00   0.00    -0.03   0.02   0.04
  47   1    -0.03   0.06   0.12    -0.01   0.01  -0.04     0.04  -0.03  -0.12
  48   1     0.05  -0.06  -0.08    -0.02   0.04  -0.01    -0.01   0.02   0.01
  49   1    -0.06   0.05   0.11     0.04  -0.00   0.03     0.02   0.01   0.04
  50   1     0.04  -0.04  -0.10     0.02  -0.04  -0.01     0.05  -0.06  -0.10
  51   1     0.08  -0.07  -0.16    -0.02  -0.02   0.01    -0.03   0.01   0.04
  52   1    -0.03   0.03   0.08    -0.03   0.03  -0.00    -0.04   0.04   0.04
  53   1    -0.01  -0.00  -0.01    -0.14  -0.00  -0.07     0.05   0.03   0.05
  54   1    -0.01   0.00   0.00    -0.11   0.04   0.01     0.06   0.02  -0.02
                     22                     23                     24
                        a                      a                      a 
 Frequencies --   357.3131               378.0238               379.2985
 Red. masses --    10.4954                 9.4005                 9.7329
 Frc consts  --     0.0000                 0.0000                 0.0000
 IR Inten    --     0.3516                 1.5633                 2.0821
 Raman Activ --     0.0000                 0.0000                 0.0000
 Depolar     --     0.0000                 0.0000                 0.0000
 Atom AN      X      Y      Z        X      Y      Z        X      Y      Z
   1   6    -0.00   0.07  -0.04     0.01  -0.01   0.02    -0.02   0.02  -0.03
   2   6    -0.02  -0.01  -0.02     0.10   0.19  -0.10    -0.08  -0.09   0.04
   3   6    -0.04  -0.07   0.01    -0.07  -0.22   0.07     0.01   0.12  -0.01
   4   6     0.03   0.06  -0.05    -0.01  -0.01  -0.04     0.01   0.03   0.05
   5   7     0.06   0.11  -0.11    -0.02   0.00   0.08     0.03   0.02  -0.15
   6   6     0.06  -0.17   0.12    -0.05   0.01   0.04     0.06  -0.04  -0.05
   7   6     0.12  -0.16   0.08     0.14  -0.05  -0.20    -0.04   0.02   0.11
   8   6     0.04   0.01   0.04    -0.11  -0.02   0.10     0.03   0.04   0.01
   9   6    -0.09   0.01  -0.05    -0.06  -0.02   0.03     0.08   0.03  -0.05
  10   6    -0.09  -0.07  -0.12     0.12  -0.04  -0.19    -0.05   0.02   0.09
  11   6    -0.04  -0.20   0.00    -0.14   0.03   0.12     0.04  -0.04   0.01
  12   6     0.04   0.20  -0.26     0.06   0.00   0.18    -0.10   0.00  -0.26
  13   6     0.12   0.23   0.18     0.01   0.05   0.02     0.04  -0.09   0.15
  14   6     0.09   0.26   0.05     0.02   0.07  -0.02    -0.03  -0.08  -0.08
  15   6     0.01   0.22  -0.21     0.04   0.04   0.06    -0.04  -0.04  -0.13
  16   6     0.18   0.05   0.22     0.02   0.05  -0.04     0.04  -0.09   0.23
  17   6     0.07   0.06   0.03     0.03   0.01   0.06    -0.05  -0.01  -0.14
  18   7     0.02  -0.03  -0.05     0.02  -0.02  -0.08    -0.06   0.04   0.09
  19   6    -0.07  -0.06  -0.01    -0.03   0.01   0.05    -0.04   0.08   0.11
  20   6    -0.09  -0.02   0.03     0.08  -0.09  -0.18     0.12  -0.06  -0.22
  21   6     0.02  -0.02   0.02    -0.03   0.04   0.13    -0.07   0.08   0.08
  22   6     0.08  -0.08   0.02     0.02  -0.01   0.04    -0.06   0.07   0.05
  23   6     0.02  -0.08   0.09     0.09  -0.08  -0.13     0.06  -0.05  -0.22
  24   6    -0.07  -0.09   0.03    -0.09   0.06   0.18    -0.05   0.10   0.15
  25   6    -0.07  -0.09  -0.03    -0.09   0.06   0.17    -0.06   0.08   0.15
  26   6    -0.14   0.03   0.02     0.03  -0.04  -0.14     0.11  -0.11  -0.17
  27   6    -0.07   0.01  -0.10    -0.04   0.01  -0.02    -0.01   0.02   0.11
  28   6    -0.03   0.00  -0.04    -0.09   0.06   0.10    -0.02   0.02   0.11
  29   6    -0.06  -0.04   0.08     0.04  -0.08  -0.15     0.12  -0.10  -0.22
  30   6    -0.00  -0.11  -0.05    -0.03   0.01   0.04    -0.05   0.05   0.11
  31   6    -0.02   0.00   0.01     0.08   0.21  -0.16    -0.03  -0.08   0.13
  32   6    -0.05  -0.05   0.04    -0.09  -0.18   0.10     0.05   0.08  -0.04
  33   1     0.01   0.04  -0.02    -0.00  -0.01   0.02    -0.00   0.01  -0.02
  34   1    -0.00  -0.01   0.00     0.06   0.12  -0.06    -0.04  -0.06   0.02
  35   1    -0.02  -0.04   0.02    -0.04  -0.14   0.05     0.00   0.08  -0.01
  36   1     0.07  -0.05   0.03     0.08  -0.03  -0.11    -0.02   0.01   0.06
  37   1     0.03   0.04   0.02    -0.06   0.00   0.07     0.01   0.01  -0.00
  38   1    -0.04   0.03  -0.02    -0.03  -0.00   0.03     0.04   0.01  -0.04
  39   1    -0.04  -0.02  -0.07     0.09  -0.02  -0.11    -0.05   0.01   0.05
  40   1    -0.03  -0.10  -0.01    -0.07   0.01   0.07     0.01  -0.01   0.00
  41   1     0.07   0.06   0.15    -0.01   0.02  -0.03     0.04  -0.04   0.13
  42   1     0.04   0.07   0.09    -0.00   0.02  -0.05     0.00  -0.03   0.02
  43   1    -0.04   0.06  -0.10     0.01   0.01   0.01     0.00  -0.01  -0.03
  44   1     0.07   0.01   0.13    -0.01   0.02  -0.05     0.04  -0.05   0.15
  45   1    -0.04   0.01   0.01     0.06  -0.06  -0.12     0.08  -0.06  -0.15
  46   1     0.02   0.01   0.00    -0.02   0.03   0.06    -0.03   0.02   0.04
  47   1     0.04  -0.03  -0.01     0.01  -0.01  -0.00    -0.02   0.02   0.02
  48   1     0.01  -0.04   0.04     0.06  -0.06  -0.11     0.06  -0.05  -0.16
  49   1    -0.07   0.03   0.03     0.04  -0.04  -0.11     0.08  -0.07  -0.14
  50   1    -0.02   0.01  -0.04    -0.00  -0.01  -0.02    -0.01   0.01   0.04
  51   1     0.00   0.02  -0.01    -0.03   0.03   0.05    -0.02   0.01   0.05
  52   1    -0.02   0.00   0.07     0.04  -0.06  -0.11     0.08  -0.07  -0.14
  53   1    -0.02  -0.01   0.01     0.04   0.12  -0.08    -0.01  -0.05   0.06
  54   1    -0.02  -0.04   0.02    -0.06  -0.11   0.07     0.04   0.04  -0.03
                     25                     26                     27
                        a                      a                      a 
 Frequencies --   383.8885               388.3473               400.7566
 Red. masses --     9.7197                 9.6740                10.6572
 Frc consts  --     0.0000                 0.0000                 0.0000
 IR Inten    --     1.1293                 1.1503                 3.2763
 Raman Activ --     0.0000                 0.0000                 0.0000
 Depolar     --     0.0000                 0.0000                 0.0000
 Atom AN      X      Y      Z        X      Y      Z        X      Y      Z
   1   6     0.00  -0.02  -0.01    -0.04   0.00  -0.04     0.08  -0.08   0.07
   2   6    -0.01   0.02  -0.02     0.02   0.26  -0.15     0.14   0.06  -0.01
   3   6    -0.00   0.03   0.03    -0.17  -0.23   0.22     0.06  -0.11  -0.03
   4   6     0.01   0.03   0.04     0.01   0.05   0.09    -0.06  -0.08  -0.07
   5   7     0.01  -0.01  -0.09     0.04   0.01  -0.11    -0.13  -0.07   0.16
   6   6     0.03  -0.01  -0.09     0.05   0.00  -0.07    -0.09   0.04   0.05
   7   6     0.19   0.01  -0.25    -0.13   0.05   0.15    -0.05   0.07   0.03
   8   6    -0.20   0.07   0.25     0.09   0.01  -0.09     0.06   0.02  -0.07
   9   6     0.09   0.02  -0.03     0.05   0.01  -0.02     0.02   0.04   0.08
  10   6     0.20  -0.02  -0.16    -0.09   0.04   0.16     0.03   0.02   0.06
  11   6    -0.21   0.07   0.31     0.14  -0.02  -0.13     0.08   0.03  -0.05
  12   6    -0.13  -0.03  -0.21    -0.04  -0.03  -0.16    -0.17   0.01  -0.05
  13   6    -0.02  -0.14   0.08     0.03  -0.08   0.00    -0.03  -0.12   0.28
  14   6    -0.03  -0.13  -0.02    -0.00  -0.12   0.06    -0.04  -0.00  -0.24
  15   6    -0.04  -0.06  -0.11    -0.05  -0.11  -0.12     0.05   0.12   0.06
  16   6    -0.01  -0.06   0.15    -0.00  -0.14   0.07    -0.03   0.18   0.15
  17   6    -0.07  -0.01  -0.09     0.03  -0.07   0.02    -0.27   0.18  -0.38
  18   7    -0.06   0.05   0.14    -0.02   0.00   0.10    -0.05   0.02  -0.17
  19   6     0.02   0.03   0.01    -0.02   0.02   0.05     0.07   0.04  -0.08
  20   6    -0.02   0.07   0.08     0.00   0.06   0.03    -0.02  -0.02   0.06
  21   6     0.01  -0.02  -0.12    -0.00   0.03  -0.06    -0.06  -0.05   0.02
  22   6    -0.06   0.05  -0.01    -0.04   0.07  -0.02     0.01  -0.12  -0.03
  23   6    -0.07   0.07   0.03    -0.05   0.04  -0.02    -0.00   0.01   0.07
  24   6     0.08  -0.02  -0.14     0.02   0.01  -0.06     0.08  -0.00   0.05
  25   6     0.09  -0.04  -0.13     0.05   0.01  -0.09     0.00  -0.10   0.05
  26   6     0.02  -0.00   0.08     0.02   0.00   0.05    -0.01  -0.02   0.05
  27   6     0.04   0.00   0.08     0.02  -0.02   0.04     0.11   0.02  -0.02
  28   6     0.09  -0.06  -0.07     0.04  -0.05  -0.03     0.08   0.05   0.03
  29   6     0.01   0.05   0.07    -0.00   0.04   0.03     0.05  -0.00   0.06
  30   6     0.00   0.01   0.02     0.02   0.03  -0.01    -0.02  -0.13  -0.04
  31   6     0.04   0.05   0.03     0.14   0.34  -0.06     0.03   0.04  -0.17
  32   6     0.02  -0.01   0.00    -0.09  -0.24   0.14    -0.01  -0.03  -0.02
  33   1    -0.00  -0.01  -0.00    -0.01  -0.00  -0.02     0.01  -0.04   0.04
  34   1    -0.01   0.01  -0.01     0.02   0.15  -0.09     0.06   0.04  -0.02
  35   1    -0.01   0.01   0.02    -0.10  -0.13   0.11     0.04  -0.07  -0.01
  36   1     0.11  -0.01  -0.13    -0.08   0.02   0.09    -0.02   0.02   0.01
  37   1    -0.14   0.03   0.16     0.05  -0.01  -0.06     0.03  -0.01  -0.05
  38   1     0.04  -0.00  -0.02     0.02   0.00  -0.02    -0.00   0.01   0.04
  39   1     0.10  -0.02  -0.11    -0.07   0.02   0.10     0.01   0.01   0.02
  40   1    -0.13   0.05   0.19     0.07  -0.01  -0.07     0.05   0.02  -0.03
  41   1     0.01  -0.05   0.08     0.01  -0.02   0.02     0.02  -0.07   0.17
  42   1     0.01  -0.05   0.04     0.00  -0.03   0.06     0.01  -0.02  -0.10
  43   1     0.00  -0.01  -0.03    -0.02  -0.03  -0.07     0.08   0.03   0.12
  44   1     0.02  -0.03   0.11     0.01  -0.05   0.05     0.03   0.06   0.14
  45   1    -0.02   0.03   0.06    -0.00   0.02   0.01     0.00  -0.02   0.05
  46   1     0.01  -0.03  -0.05     0.00  -0.01  -0.03    -0.02  -0.01   0.02
  47   1    -0.03   0.02   0.02    -0.01   0.02   0.00     0.01  -0.04  -0.03
  48   1    -0.04   0.05   0.05    -0.02   0.02  -0.00    -0.02   0.03   0.02
  49   1    -0.01   0.01   0.06     0.01   0.01   0.04    -0.04   0.01   0.01
  50   1    -0.00   0.02   0.05    -0.00   0.00   0.03     0.04   0.01  -0.02
  51   1     0.03  -0.03  -0.04     0.01  -0.02  -0.02     0.02   0.02   0.02
  52   1    -0.01   0.03   0.06    -0.02   0.03   0.03     0.04  -0.00   0.05
  53   1     0.02   0.01   0.01     0.09   0.18  -0.05     0.01   0.03  -0.06
  54   1     0.01  -0.01   0.00    -0.04  -0.16   0.07    -0.03   0.00   0.01
                     28                     29                     30
                        a                      a                      a 
 Frequencies --   410.2690               423.6797               433.7596
 Red. masses --     9.8474                10.4370                10.5272
 Frc consts  --     0.0000                 0.0000                 0.0000
 IR Inten    --     0.8642                 7.9257                 0.6120
 Raman Activ --     0.0000                 0.0000                 0.0000
 Depolar     --     0.0000                 0.0000                 0.0000
 Atom AN      X      Y      Z        X      Y      Z        X      Y      Z
   1   6    -0.02  -0.03   0.02    -0.03   0.19  -0.11    -0.12  -0.10   0.07
   2   6     0.00   0.01  -0.01    -0.12  -0.08   0.03     0.01   0.10  -0.08
   3   6     0.01   0.02  -0.02    -0.08  -0.01   0.04    -0.02  -0.00  -0.04
   4   6    -0.02  -0.06   0.03     0.14   0.26  -0.08    -0.05  -0.21   0.10
   5   7    -0.01  -0.04   0.02     0.16   0.15  -0.21     0.04  -0.06   0.08
   6   6    -0.01   0.01  -0.02     0.20  -0.09  -0.11    -0.05   0.04   0.07
   7   6    -0.00   0.02  -0.01     0.04  -0.11   0.06    -0.01   0.00  -0.02
   8   6    -0.00   0.01   0.00    -0.05  -0.02   0.09     0.02  -0.05  -0.05
   9   6     0.02   0.01   0.02     0.01  -0.05  -0.17    -0.07  -0.03   0.03
  10   6     0.02   0.01   0.01    -0.13  -0.02   0.01     0.01  -0.01  -0.04
  11   6     0.01   0.02   0.00    -0.05  -0.09   0.00    -0.01   0.03  -0.05
  12   6     0.00  -0.02  -0.03     0.07  -0.09   0.30     0.22   0.03  -0.05
  13   6     0.01  -0.03   0.01     0.03  -0.01   0.16     0.18   0.15   0.12
  14   6    -0.04  -0.04  -0.02    -0.04   0.05  -0.26    -0.04   0.14  -0.13
  15   6    -0.03  -0.03   0.02     0.08  -0.03   0.25    -0.02  -0.07   0.11
  16   6    -0.02  -0.03  -0.01    -0.03   0.03  -0.17     0.09  -0.16  -0.07
  17   6     0.01   0.01  -0.06    -0.09   0.02  -0.21     0.09  -0.07  -0.30
  18   7    -0.00   0.03   0.03    -0.06   0.04   0.03    -0.02   0.10   0.22
  19   6    -0.06   0.15   0.37    -0.01   0.06   0.06     0.01  -0.00   0.05
  20   6     0.16  -0.19  -0.08    -0.00  -0.00   0.02    -0.02  -0.04   0.12
  21   6     0.09  -0.13   0.10    -0.01  -0.03  -0.04     0.11  -0.11  -0.04
  22   6     0.00  -0.02   0.19    -0.03  -0.01   0.05     0.02  -0.01   0.11
  23   6     0.19  -0.03  -0.14     0.02  -0.00  -0.02     0.07   0.01   0.03
  24   6    -0.01   0.12   0.19     0.05  -0.01  -0.02     0.07  -0.07  -0.17
  25   6     0.11  -0.04  -0.25     0.02  -0.06  -0.03    -0.02   0.03  -0.03
  26   6    -0.08   0.17   0.12    -0.00  -0.01   0.02    -0.00   0.05  -0.15
  27   6    -0.06   0.00  -0.15     0.03   0.03   0.03    -0.20   0.08   0.08
  28   6    -0.13   0.03  -0.14     0.06   0.00  -0.02    -0.08  -0.04  -0.15
  29   6    -0.21   0.11   0.10     0.01   0.01   0.05    -0.09  -0.06  -0.06
  30   6     0.09  -0.06  -0.32    -0.03  -0.03   0.03    -0.11   0.14   0.24
  31   6    -0.01  -0.01   0.01    -0.01   0.04   0.08    -0.01   0.06  -0.00
  32   6     0.01   0.04  -0.02    -0.07  -0.10   0.09     0.00   0.11  -0.02
  33   1    -0.01  -0.01   0.01     0.01   0.09  -0.06    -0.05  -0.06   0.04
  34   1     0.01   0.01  -0.01    -0.06  -0.08   0.04     0.04   0.08  -0.04
  35   1     0.01   0.02  -0.01    -0.06  -0.04   0.05    -0.00   0.04  -0.03
  36   1    -0.00   0.01  -0.00    -0.01  -0.03   0.04    -0.00  -0.00  -0.03
  37   1    -0.01  -0.00   0.00    -0.03   0.03   0.07     0.02  -0.02  -0.04
  38   1     0.00   0.00   0.01     0.02  -0.01  -0.08    -0.03  -0.01   0.02
  39   1     0.01   0.00   0.00    -0.07   0.00   0.03     0.03  -0.00  -0.02
  40   1     0.00   0.01   0.00    -0.05  -0.05   0.02     0.01   0.00  -0.03
  41   1     0.01  -0.00   0.02     0.00  -0.00   0.03     0.08   0.07   0.09
  42   1    -0.01  -0.01  -0.00    -0.04   0.03  -0.19    -0.05   0.07  -0.05
  43   1     0.00  -0.01   0.03     0.05  -0.03   0.19    -0.02  -0.05   0.13
  44   1    -0.00  -0.02   0.02    -0.01   0.01  -0.05     0.03  -0.09   0.03
  45   1     0.12  -0.12  -0.13     0.01  -0.01   0.01    -0.02   0.00   0.07
  46   1     0.05  -0.06  -0.02     0.01  -0.02  -0.03     0.04  -0.03  -0.03
  47   1    -0.02  -0.01   0.04    -0.02   0.00   0.03    -0.03   0.01   0.07
  48   1     0.10  -0.06  -0.17     0.00   0.00  -0.02     0.01   0.01   0.05
  49   1    -0.08   0.10   0.16    -0.02   0.01   0.01     0.03  -0.01  -0.09
  50   1    -0.02  -0.02  -0.01     0.01   0.02   0.01    -0.07   0.02   0.06
  51   1    -0.05   0.03  -0.01     0.02  -0.00  -0.02     0.01  -0.03  -0.10
  52   1    -0.13   0.10   0.14     0.01   0.00   0.02    -0.02  -0.03  -0.06
  53   1     0.00   0.00  -0.00    -0.02  -0.03   0.04    -0.00   0.05  -0.03
  54   1     0.01   0.03  -0.01    -0.03  -0.11   0.05     0.03   0.07  -0.04
                     31                     32                     33
                        a                      a                      a 
 Frequencies --   437.1943               465.2432               509.8648
 Red. masses --    10.8188                10.0387                10.9844
 Frc consts  --     0.0000                 0.0000                 0.0000
 IR Inten    --     1.0309                 1.8197                 0.4019
 Raman Activ --     0.0000                 0.0000                 0.0000
 Depolar     --     0.0000                 0.0000                 0.0000
 Atom AN      X      Y      Z        X      Y      Z        X      Y      Z
   1   6     0.04   0.05  -0.04    -0.16  -0.17   0.09     0.01   0.02  -0.01
   2   6    -0.02  -0.03   0.02     0.05   0.13  -0.13    -0.01  -0.01   0.01
   3   6    -0.01  -0.00   0.04    -0.01  -0.05  -0.01     0.00  -0.00  -0.02
   4   6     0.04   0.12  -0.04    -0.09  -0.34   0.18     0.02   0.03  -0.03
   5   7    -0.00   0.01  -0.06     0.07  -0.08  -0.11    -0.02  -0.05   0.10
   6   6     0.06  -0.03  -0.09     0.27  -0.09  -0.34     0.01   0.01  -0.03
   7   6    -0.00   0.02   0.02     0.04   0.01   0.01    -0.00   0.02  -0.01
   8   6    -0.02   0.03   0.04    -0.09   0.05   0.18    -0.01  -0.00   0.01
   9   6     0.07   0.01  -0.04     0.20  -0.02  -0.18     0.02  -0.01  -0.01
  10   6    -0.02   0.01   0.05    -0.12  -0.02   0.16    -0.01   0.00   0.02
  11   6     0.01  -0.01   0.02     0.02  -0.06  -0.00    -0.00   0.02  -0.01
  12   6    -0.11  -0.04  -0.02     0.03  -0.09   0.07    -0.01   0.01  -0.05
  13   6    -0.08  -0.13  -0.00    -0.10   0.06   0.01    -0.00   0.01   0.00
  14   6    -0.03  -0.12   0.02    -0.02   0.08   0.04    -0.00   0.01   0.01
  15   6    -0.01   0.02  -0.05    -0.01   0.21   0.05    -0.01   0.01  -0.01
  16   6    -0.04   0.06   0.10     0.04   0.14  -0.02     0.01  -0.01   0.00
  17   6    -0.02   0.05   0.09     0.02   0.08   0.07     0.01  -0.00  -0.01
  18   7     0.04   0.01  -0.08     0.00   0.02  -0.05    -0.09   0.04  -0.15
  19   6     0.23  -0.07  -0.14    -0.02  -0.00  -0.05    -0.28  -0.01  -0.01
  20   6     0.06  -0.18   0.21    -0.04  -0.01  -0.03    -0.32  -0.01  -0.08
  21   6     0.13  -0.22   0.21    -0.04   0.01   0.01    -0.03  -0.04  -0.11
  22   6     0.15  -0.20   0.01     0.02  -0.05  -0.00     0.07  -0.19   0.23
  23   6     0.14   0.10   0.15     0.01  -0.03   0.03     0.10  -0.29   0.08
  24   6     0.13   0.04  -0.06    -0.01  -0.02   0.03    -0.07  -0.20   0.03
  25   6     0.00   0.15   0.10    -0.02  -0.03   0.03     0.16   0.13   0.03
  26   6     0.04   0.16  -0.12    -0.02  -0.01   0.01     0.29   0.00   0.09
  27   6    -0.17   0.06  -0.08     0.02  -0.01  -0.03     0.24  -0.02   0.17
  28   6    -0.29   0.09  -0.13     0.01   0.02   0.04    -0.00   0.05  -0.07
  29   6    -0.20  -0.00  -0.20     0.02  -0.02   0.01    -0.06   0.28  -0.14
  30   6    -0.07   0.17   0.01     0.01  -0.05  -0.02    -0.05   0.26  -0.06
  31   6     0.02   0.01   0.01    -0.05   0.02   0.03     0.01   0.01  -0.02
  32   6    -0.01  -0.06   0.02     0.01   0.16  -0.08    -0.01  -0.02   0.02
  33   1     0.02   0.03  -0.02    -0.05  -0.07   0.05     0.00   0.00  -0.00
  34   1    -0.02  -0.03   0.02     0.06   0.13  -0.09    -0.00  -0.02   0.01
  35   1    -0.01  -0.03   0.02     0.01   0.07  -0.04    -0.00  -0.02   0.00
  36   1    -0.01   0.01   0.03    -0.04   0.02   0.08    -0.01   0.01   0.00
  37   1    -0.03   0.01   0.03    -0.10   0.03   0.14    -0.01  -0.00   0.01
  38   1     0.03   0.00  -0.02     0.08  -0.00  -0.09     0.00  -0.00  -0.00
  39   1    -0.03   0.01   0.04    -0.12   0.01   0.13    -0.01   0.00   0.02
  40   1    -0.01   0.01   0.02    -0.05   0.00   0.07    -0.01   0.01   0.01
  41   1    -0.03  -0.04  -0.01    -0.03   0.03  -0.02     0.00   0.00   0.01
  42   1     0.01  -0.05   0.00     0.01   0.01  -0.01     0.00   0.00   0.01
  43   1     0.02   0.02  -0.06    -0.01   0.06  -0.01    -0.00   0.00   0.00
  44   1    -0.01   0.02   0.02     0.00   0.04  -0.04     0.00  -0.01   0.01
  45   1     0.01  -0.05   0.12    -0.01  -0.00  -0.01    -0.10   0.01  -0.04
  46   1     0.02  -0.04   0.10    -0.01   0.02   0.01     0.05   0.06  -0.08
  47   1    -0.00  -0.07  -0.03     0.02  -0.02  -0.01     0.05  -0.04   0.10
  48   1     0.00   0.06   0.10    -0.00  -0.01   0.01     0.05  -0.11   0.02
  49   1     0.04   0.02  -0.08    -0.01   0.00   0.00     0.12  -0.01   0.02
  50   1    -0.04  -0.04  -0.01     0.01  -0.00  -0.02     0.07  -0.04   0.07
  51   1    -0.08   0.02  -0.04     0.00   0.01   0.02    -0.06  -0.05  -0.04
  52   1    -0.06  -0.01  -0.11     0.02  -0.01   0.00    -0.03   0.08  -0.06
  53   1     0.00  -0.01   0.01     0.01   0.08  -0.04    -0.01  -0.01   0.00
  54   1    -0.01  -0.05   0.02     0.05   0.13  -0.08    -0.01  -0.02   0.01
                     34                     35                     36
                        a                      a                      a 
 Frequencies --   513.4787               519.6084               541.2069
 Red. masses --    11.6230                 9.9806                11.4128
 Frc consts  --     0.0000                 0.0000                 0.0000
 IR Inten    --     8.8294                 0.9526                 2.9417
 Raman Activ --     0.0000                 0.0000                 0.0000
 Depolar     --     0.0000                 0.0000                 0.0000
 Atom AN      X      Y      Z        X      Y      Z        X      Y      Z
   1   6     0.01  -0.16   0.04    -0.01   0.01   0.00     0.04  -0.04   0.01
   2   6     0.06   0.08  -0.06    -0.00  -0.00   0.00     0.02   0.02   0.01
   3   6     0.02   0.00   0.14    -0.00  -0.00  -0.01     0.01   0.00   0.04
   4   6    -0.12  -0.13   0.17     0.01  -0.00  -0.00    -0.06  -0.01   0.02
   5   7     0.08   0.30  -0.57     0.01  -0.00   0.01    -0.03   0.08  -0.09
   6   6    -0.16  -0.07   0.22     0.00   0.00  -0.00    -0.01  -0.04   0.02
   7   6    -0.02  -0.08   0.07     0.00   0.00  -0.00    -0.00  -0.04   0.02
   8   6     0.05   0.06  -0.12     0.00  -0.01   0.00    -0.01   0.03  -0.01
   9   6    -0.08   0.10   0.13    -0.00  -0.00  -0.00     0.01   0.03   0.00
  10   6     0.09   0.02  -0.10    -0.00  -0.00  -0.00     0.00   0.02   0.00
  11   6     0.03  -0.10   0.14    -0.01   0.00  -0.00     0.03  -0.04   0.03
  12   6    -0.04  -0.03   0.09     0.00  -0.01   0.01    -0.02   0.01   0.11
  13   6     0.00  -0.05   0.06    -0.01   0.00   0.01    -0.02  -0.00  -0.06
  14   6    -0.01  -0.06  -0.09    -0.01   0.01  -0.00     0.04  -0.02   0.06
  15   6     0.03  -0.05   0.07     0.00  -0.00   0.02     0.00   0.01  -0.08
  16   6    -0.08   0.02  -0.06     0.01  -0.00  -0.03    -0.03   0.02   0.09
  17   6    -0.06   0.01   0.08     0.00  -0.01  -0.01    -0.02   0.03   0.07
  18   7    -0.07   0.02   0.03    -0.01   0.02   0.03     0.10  -0.19  -0.53
  19   6    -0.01  -0.02  -0.06     0.00  -0.05  -0.09     0.01   0.14   0.19
  20   6    -0.04  -0.02  -0.01     0.06  -0.08  -0.22     0.01   0.08   0.17
  21   6    -0.03  -0.00   0.04    -0.15   0.14   0.28     0.05  -0.10  -0.17
  22   6     0.04  -0.07  -0.01     0.14  -0.13  -0.26    -0.11   0.07   0.15
  23   6     0.01  -0.02   0.05    -0.08   0.05   0.21     0.05   0.01  -0.14
  24   6     0.01  -0.03   0.01    -0.11   0.07   0.23     0.08   0.06   0.04
  25   6     0.04   0.03   0.01     0.11  -0.08  -0.23    -0.03  -0.09   0.05
  26   6     0.06   0.02   0.05     0.11  -0.08  -0.18     0.02  -0.09  -0.15
  27   6     0.09  -0.02  -0.01    -0.10   0.12   0.28    -0.09   0.13   0.20
  28   6    -0.03   0.05   0.02     0.14  -0.13  -0.28     0.10  -0.06  -0.22
  29   6    -0.02   0.06  -0.06    -0.08   0.11   0.17    -0.07   0.02   0.18
  30   6    -0.01   0.03  -0.08    -0.03   0.06   0.06    -0.14   0.00   0.21
  31   6    -0.02  -0.01   0.08    -0.00  -0.00   0.00    -0.02  -0.03  -0.02
  32   6     0.05   0.06  -0.11    -0.00   0.00   0.01     0.01   0.00  -0.05
  33   1     0.00  -0.04   0.01    -0.00   0.00  -0.00     0.01  -0.01   0.00
  34   1     0.02   0.10  -0.07     0.00  -0.00   0.00     0.00   0.02  -0.01
  35   1     0.02   0.07   0.01    -0.00   0.00  -0.00     0.02   0.01   0.00
  36   1     0.09  -0.04  -0.02    -0.00   0.00  -0.00     0.01  -0.01   0.02
  37   1     0.08   0.02  -0.11    -0.00  -0.00   0.00     0.00   0.01  -0.01
  38   1    -0.01   0.02   0.04    -0.00  -0.00  -0.00     0.00   0.00   0.00
  39   1     0.06  -0.01  -0.13     0.00  -0.00   0.00    -0.01   0.01  -0.01
  40   1     0.05  -0.06  -0.02    -0.00   0.00  -0.00     0.01  -0.02   0.00
  41   1    -0.01  -0.03  -0.02    -0.00   0.00  -0.00    -0.02  -0.01  -0.05
  42   1    -0.01  -0.01  -0.07    -0.00   0.00  -0.01     0.01  -0.01   0.01
  43   1     0.03  -0.01   0.02    -0.00  -0.00   0.01    -0.00   0.02  -0.07
  44   1    -0.03   0.03  -0.04     0.00  -0.00  -0.00    -0.01   0.03  -0.00
  45   1    -0.01  -0.00   0.00     0.04  -0.04  -0.10     0.04  -0.02   0.03
  46   1    -0.01   0.02   0.02    -0.06   0.07   0.13     0.05  -0.08  -0.12
  47   1     0.02  -0.02  -0.01     0.10  -0.08  -0.19    -0.05   0.02   0.06
  48   1    -0.00  -0.00   0.03    -0.01   0.00   0.04     0.02   0.00  -0.10
  49   1     0.02   0.01   0.03     0.02  -0.02  -0.03     0.00  -0.04  -0.12
  50   1     0.03  -0.02  -0.01    -0.08   0.08   0.19    -0.04   0.06   0.08
  51   1    -0.03   0.00   0.02     0.06  -0.07  -0.13     0.08  -0.05  -0.15
  52   1    -0.01   0.02  -0.02    -0.05   0.06   0.10     0.02  -0.02   0.03
  53   1     0.05   0.05   0.01    -0.00   0.00  -0.00     0.01   0.00  -0.00
  54   1     0.05   0.08  -0.07    -0.00   0.00   0.00    -0.00   0.02  -0.02
                     37                     38                     39
                        a                      a                      a 
 Frequencies --   556.6912               572.7238               580.3479
 Red. masses --    11.3117                11.3392                11.3261
 Frc consts  --     0.0000                 0.0000                 0.0000
 IR Inten    --    10.0403                 2.8750                 0.4830
 Raman Activ --     0.0000                 0.0000                 0.0000
 Depolar     --     0.0000                 0.0000                 0.0000
 Atom AN      X      Y      Z        X      Y      Z        X      Y      Z
   1   6    -0.16   0.07  -0.02     0.01   0.03  -0.10     0.09  -0.00  -0.10
   2   6    -0.04  -0.05  -0.09     0.05  -0.13  -0.07     0.09  -0.13  -0.03
   3   6    -0.01  -0.03  -0.09     0.12   0.07   0.10     0.14   0.10   0.15
   4   6     0.17  -0.05   0.03     0.03   0.06   0.07    -0.06   0.08   0.06
   5   7     0.21  -0.05  -0.05    -0.03  -0.16  -0.10    -0.12  -0.10  -0.02
   6   6    -0.01   0.10   0.08    -0.15  -0.03  -0.05    -0.11  -0.05  -0.09
   7   6    -0.04   0.05   0.05    -0.09   0.15  -0.00    -0.02   0.14  -0.03
   8   6     0.08  -0.07  -0.03     0.04   0.05  -0.06     0.03   0.06   0.01
   9   6    -0.12  -0.05   0.05     0.06   0.06   0.14     0.11   0.05   0.08
  10   6     0.03  -0.01  -0.08     0.07  -0.12  -0.01     0.01  -0.15   0.03
  11   6    -0.10   0.10  -0.01    -0.05  -0.03   0.04    -0.03  -0.07  -0.01
  12   6     0.05  -0.20   0.21    -0.06  -0.19  -0.03     0.03  -0.03  -0.08
  13   6    -0.25   0.02  -0.15    -0.31  -0.05   0.13     0.02   0.01   0.08
  14   6     0.01   0.02   0.22    -0.09   0.10  -0.00    -0.05   0.04  -0.05
  15   6    -0.03   0.14  -0.17     0.04   0.26   0.07     0.00   0.04   0.08
  16   6     0.25  -0.08   0.15     0.28   0.03  -0.11     0.05  -0.01  -0.09
  17   6    -0.01  -0.08  -0.24     0.12  -0.08  -0.07     0.12  -0.02   0.09
  18   7    -0.18   0.11  -0.01     0.11  -0.07  -0.06     0.05   0.01   0.03
  19   6     0.09   0.15  -0.05    -0.07  -0.10   0.02     0.08   0.03   0.02
  20   6     0.04   0.04  -0.01    -0.08  -0.09   0.05     0.12   0.19  -0.04
  21   6    -0.11   0.00  -0.03     0.17  -0.08   0.06    -0.18   0.15  -0.15
  22   6    -0.03  -0.11   0.01     0.04   0.09   0.03    -0.09  -0.03  -0.03
  23   6     0.02  -0.00   0.03     0.05   0.08  -0.04    -0.16  -0.23   0.03
  24   6     0.17   0.02   0.06    -0.18   0.05  -0.08     0.14  -0.14   0.13
  25   6     0.04  -0.14   0.09    -0.10   0.12  -0.09     0.17  -0.10   0.12
  26   6     0.03  -0.02   0.04    -0.09  -0.10  -0.03     0.15   0.22  -0.02
  27   6     0.13   0.06   0.00    -0.08  -0.07   0.03    -0.03   0.09  -0.06
  28   6    -0.05   0.12  -0.05     0.12  -0.13   0.07    -0.18   0.10  -0.13
  29   6    -0.03  -0.01  -0.03     0.10   0.09   0.03    -0.14  -0.21   0.03
  30   6    -0.14  -0.11  -0.04     0.09   0.10   0.01     0.03  -0.10   0.04
  31   6     0.02   0.06   0.12    -0.05   0.15   0.11    -0.09   0.13   0.05
  32   6    -0.00   0.04   0.10    -0.11  -0.06  -0.06    -0.15  -0.09  -0.14
  33   1    -0.04   0.02  -0.01     0.01   0.03   0.01     0.03   0.03   0.02
  34   1     0.02  -0.02  -0.01    -0.02  -0.06  -0.02    -0.03  -0.05  -0.02
  35   1    -0.04   0.02  -0.01    -0.00   0.03   0.05     0.02   0.02   0.05
  36   1    -0.01   0.01  -0.04     0.00   0.04  -0.01     0.01   0.04   0.01
  37   1     0.06  -0.03  -0.05     0.01  -0.03  -0.05    -0.01  -0.02  -0.00
  38   1    -0.03  -0.01   0.01     0.01   0.03   0.03     0.02   0.03   0.02
  39   1     0.07  -0.01  -0.04     0.02  -0.04  -0.04    -0.02  -0.04  -0.01
  40   1    -0.01   0.02  -0.03     0.02   0.03   0.01     0.01   0.02   0.01
  41   1    -0.08   0.01  -0.06    -0.08   0.01   0.04     0.01   0.03   0.03
  42   1     0.04  -0.03   0.07     0.04  -0.03  -0.04    -0.01   0.01  -0.03
  43   1    -0.06   0.04  -0.10    -0.03   0.06   0.03    -0.01   0.00   0.03
  44   1     0.07  -0.05   0.04     0.07  -0.03  -0.03     0.01  -0.02  -0.04
  45   1     0.04  -0.03   0.03    -0.04   0.01  -0.02     0.05   0.03   0.01
  46   1    -0.04   0.01   0.00     0.06  -0.02   0.00    -0.06   0.02  -0.03
  47   1     0.00  -0.03   0.01    -0.03   0.02  -0.01     0.06   0.01   0.02
  48   1    -0.03   0.04  -0.01     0.05  -0.02  -0.00    -0.06  -0.04  -0.01
  49   1    -0.04   0.01  -0.01     0.02  -0.04   0.01     0.02   0.07  -0.02
  50   1     0.04   0.00   0.01    -0.03   0.03  -0.01    -0.00  -0.05   0.02
  51   1    -0.03   0.03  -0.01     0.03  -0.04   0.02    -0.02   0.06  -0.03
  52   1     0.04  -0.02   0.03    -0.02   0.04  -0.01    -0.01  -0.06   0.03
  53   1    -0.03   0.02   0.01     0.01   0.02   0.05     0.02   0.02   0.04
  54   1     0.03  -0.01   0.01    -0.01  -0.06  -0.02    -0.04  -0.05  -0.03
                     40                     41                     42
                        a                      a                      a 
 Frequencies --   583.1937               588.5450               590.2442
 Red. masses --    11.3199                11.2775                11.4112
 Frc consts  --     0.0000                 0.0000                 0.0000
 IR Inten    --     3.4644                 1.1262                 3.0342
 Raman Activ --     0.0000                 0.0000                 0.0000
 Depolar     --     0.0000                 0.0000                 0.0000
 Atom AN      X      Y      Z        X      Y      Z        X      Y      Z
   1   6    -0.12   0.03  -0.03    -0.01   0.04   0.14     0.15  -0.08   0.02
   2   6     0.03  -0.08  -0.11    -0.25   0.24   0.20     0.04   0.05   0.08
   3   6     0.05  -0.03  -0.03    -0.28  -0.02  -0.19     0.01   0.04   0.11
   4   6     0.13  -0.04   0.04     0.01  -0.04  -0.10    -0.17   0.05  -0.01
   5   7     0.15   0.00  -0.07     0.03  -0.01  -0.15    -0.12   0.13  -0.04
   6   6     0.00   0.13  -0.00    -0.07   0.00  -0.05    -0.03   0.04  -0.08
   7   6     0.05   0.23   0.09    -0.02   0.15   0.03     0.13   0.26   0.01
   8   6     0.27  -0.11   0.15     0.11   0.00   0.03     0.23  -0.03   0.24
   9   6    -0.06  -0.12   0.09     0.03   0.00   0.10     0.09  -0.08   0.03
  10   6    -0.05  -0.25  -0.10     0.01  -0.17  -0.03    -0.12  -0.36   0.01
  11   6    -0.26   0.11  -0.13    -0.10  -0.01  -0.03    -0.19  -0.04  -0.19
  12   6     0.11   0.02  -0.11    -0.07  -0.07  -0.10    -0.07   0.08   0.13
  13   6     0.21  -0.12  -0.05    -0.15  -0.06   0.11    -0.00   0.16  -0.02
  14   6    -0.09  -0.23  -0.03    -0.06   0.03  -0.06     0.15   0.16   0.02
  15   6    -0.09   0.01   0.05     0.03   0.12   0.08     0.07  -0.15  -0.08
  16   6    -0.26   0.19   0.07     0.10   0.05  -0.09     0.04  -0.17  -0.00
  17   6     0.04   0.21   0.10     0.07  -0.04   0.06    -0.14  -0.12  -0.03
  18   7     0.10   0.09  -0.08     0.09  -0.07  -0.03    -0.16  -0.07   0.04
  19   6    -0.07   0.06  -0.03     0.01  -0.06   0.04     0.04  -0.02   0.01
  20   6    -0.13  -0.03  -0.03     0.05   0.07   0.03     0.06  -0.05   0.03
  21   6    -0.02  -0.02  -0.02    -0.00   0.04  -0.05     0.05  -0.04   0.07
  22   6     0.03  -0.06   0.06    -0.04   0.05  -0.01     0.01   0.03  -0.04
  23   6     0.07   0.01   0.01    -0.08  -0.11  -0.01     0.02   0.10  -0.02
  24   6    -0.03   0.01   0.00    -0.02  -0.06   0.03     0.03   0.06  -0.04
  25   6    -0.05  -0.00  -0.02     0.06   0.02   0.03    -0.03   0.00  -0.01
  26   6    -0.06  -0.00  -0.04     0.06   0.09  -0.03    -0.00  -0.09   0.05
  27   6    -0.08  -0.01  -0.01    -0.05   0.02  -0.01     0.12  -0.01   0.04
  28   6     0.06  -0.06   0.04    -0.05  -0.01  -0.04     0.01   0.05   0.00
  29   6     0.03  -0.06   0.07    -0.04  -0.06   0.03     0.00   0.14  -0.08
  30   6     0.06  -0.02   0.04     0.06   0.01   0.02    -0.12   0.02  -0.06
  31   6    -0.02   0.08   0.11     0.23  -0.20  -0.13    -0.05  -0.07  -0.09
  32   6    -0.05   0.03   0.03     0.32   0.04   0.26    -0.02  -0.03  -0.13
  33   1    -0.03   0.02   0.01    -0.02  -0.05  -0.08     0.04  -0.02   0.01
  34   1     0.03  -0.02  -0.02    -0.03   0.07   0.07    -0.02   0.03  -0.01
  35   1    -0.02   0.02   0.01    -0.05  -0.02  -0.07     0.03  -0.00   0.01
  36   1    -0.02   0.06  -0.02     0.00   0.04  -0.00     0.01   0.07  -0.00
  37   1     0.09  -0.06   0.01     0.03  -0.03  -0.02     0.03  -0.04   0.07
  38   1    -0.05   0.05  -0.02    -0.01   0.04   0.01    -0.02   0.08  -0.04
  39   1     0.05  -0.07  -0.02     0.02  -0.05  -0.02    -0.03  -0.10   0.03
  40   1    -0.05   0.05  -0.05    -0.00   0.02  -0.01    -0.04   0.03  -0.04
  41   1     0.07   0.01  -0.02    -0.04  -0.02   0.03    -0.01  -0.01  -0.01
  42   1    -0.05  -0.04  -0.01     0.02  -0.02  -0.05     0.02   0.06   0.04
  43   1     0.06   0.04  -0.02    -0.00   0.03   0.03    -0.03  -0.06   0.00
  44   1    -0.08   0.04   0.01     0.02   0.00  -0.04     0.02  -0.01   0.01
  45   1    -0.03  -0.01  -0.01     0.01   0.03  -0.00     0.02  -0.01   0.01
  46   1     0.01   0.02  -0.02    -0.01  -0.01  -0.02     0.00  -0.02   0.03
  47   1     0.00  -0.02   0.02     0.02   0.02   0.01    -0.03   0.00  -0.02
  48   1     0.02   0.00  -0.00    -0.01  -0.04  -0.00    -0.00   0.04   0.00
  49   1    -0.01  -0.01  -0.01     0.03   0.02  -0.00    -0.01  -0.02   0.01
  50   1    -0.02   0.02  -0.02    -0.01  -0.02   0.01     0.03   0.01   0.01
  51   1     0.04  -0.00   0.00    -0.00   0.01  -0.01    -0.03  -0.02   0.00
  52   1     0.01  -0.02   0.00    -0.02  -0.01   0.01     0.01   0.04  -0.02
  53   1    -0.02   0.03   0.02     0.02  -0.05  -0.06     0.02  -0.02  -0.01
  54   1     0.02  -0.01  -0.01     0.06   0.04   0.08    -0.04   0.02  -0.02
                     43                     44                     45
                        a                      a                      a 
 Frequencies --   601.0139               619.3112               648.0694
 Red. masses --    11.4293                11.5262                10.1890
 Frc consts  --     0.0000                 0.0000                 0.0000
 IR Inten    --     1.8976                 4.5325                 6.6352
 Raman Activ --     0.0000                 0.0000                 0.0000
 Depolar     --     0.0000                 0.0000                 0.0000
 Atom AN      X      Y      Z        X      Y      Z        X      Y      Z
   1   6     0.15   0.04  -0.00     0.05  -0.05   0.02     0.07   0.25  -0.11
   2   6    -0.12   0.06   0.18     0.03   0.04   0.02    -0.12  -0.28   0.14
   3   6    -0.07   0.14   0.04    -0.00   0.00   0.07     0.09   0.21  -0.20
   4   6    -0.13   0.05  -0.01    -0.06   0.04  -0.01    -0.14  -0.42   0.20
   5   7    -0.16  -0.09  -0.12    -0.00   0.11  -0.05     0.04   0.04  -0.06
   6   6    -0.16  -0.14  -0.10     0.02   0.02   0.05    -0.04   0.03   0.10
   7   6    -0.07   0.08  -0.10     0.05  -0.01   0.00     0.06  -0.02  -0.03
   8   6    -0.10   0.14  -0.07     0.02  -0.02   0.06    -0.02  -0.01   0.08
   9   6     0.16   0.12   0.08    -0.01  -0.03  -0.05     0.02  -0.03  -0.06
  10   6     0.04  -0.11   0.08    -0.04  -0.01   0.01    -0.05   0.03   0.05
  11   6     0.07  -0.18   0.05     0.00  -0.00  -0.05     0.03   0.02  -0.06
  12   6     0.25  -0.11   0.16     0.05  -0.03   0.33    -0.01   0.01   0.01
  13   6     0.19   0.06  -0.16    -0.05  -0.03  -0.17     0.01   0.01   0.01
  14   6    -0.06  -0.09   0.10     0.04  -0.08   0.14     0.03   0.01   0.00
  15   6    -0.12   0.04  -0.05    -0.05   0.05  -0.16     0.01  -0.00  -0.01
  16   6    -0.02  -0.03   0.09    -0.02   0.07   0.22    -0.05   0.03   0.02
  17   6     0.13   0.11  -0.13    -0.14   0.11  -0.43    -0.08   0.01  -0.00
  18   7    -0.01   0.22   0.02     0.19  -0.07   0.09    -0.01  -0.07  -0.01
  19   6    -0.06   0.16  -0.09    -0.05  -0.18   0.04    -0.00  -0.05   0.05
  20   6    -0.17  -0.06  -0.08     0.02   0.03   0.02     0.05  -0.00   0.03
  21   6    -0.09  -0.03   0.00     0.07   0.05  -0.02     0.03   0.00   0.03
  22   6     0.06  -0.16   0.07    -0.00   0.11  -0.02    -0.00   0.05  -0.04
  23   6     0.14   0.08   0.05    -0.12  -0.17  -0.01    -0.05  -0.01   0.00
  24   6     0.06   0.05  -0.01    -0.17  -0.12   0.02    -0.01  -0.03  -0.03
  25   6    -0.07  -0.07  -0.02     0.09   0.17  -0.06     0.00   0.02  -0.01
  26   6    -0.10  -0.05  -0.00     0.11   0.20  -0.05     0.02   0.00   0.01
  27   6    -0.02  -0.00  -0.03    -0.17  -0.04  -0.05     0.02  -0.01   0.01
  28   6     0.07  -0.02   0.07    -0.03  -0.11   0.02    -0.01   0.01  -0.00
  29   6     0.06  -0.05   0.04    -0.00  -0.11   0.04    -0.02   0.03  -0.02
  30   6    -0.01  -0.06   0.03     0.23   0.08   0.05    -0.02   0.02   0.00
  31   6     0.09  -0.01  -0.12    -0.05  -0.04  -0.03     0.14   0.24  -0.15
  32   6     0.08  -0.10   0.04    -0.02   0.01  -0.08    -0.08  -0.26   0.21
  33   1     0.04  -0.01  -0.04     0.01  -0.01   0.01     0.07   0.19  -0.11
  34   1    -0.07  -0.00   0.05    -0.01   0.02  -0.01     0.02  -0.00   0.01
  35   1    -0.00   0.01   0.00     0.01  -0.01   0.01     0.07   0.19  -0.12
  36   1     0.04   0.02   0.00     0.01  -0.01  -0.01     0.03  -0.01  -0.04
  37   1    -0.05  -0.01  -0.03     0.01   0.00   0.02     0.01   0.00   0.01
  38   1     0.05   0.02   0.02     0.00   0.00  -0.03     0.02  -0.01  -0.04
  39   1    -0.04  -0.03  -0.02    -0.01  -0.00   0.01     0.01   0.00   0.01
  40   1     0.04  -0.01   0.02    -0.00  -0.01  -0.02     0.02  -0.01  -0.04
  41   1     0.06   0.08  -0.04    -0.02  -0.02  -0.05    -0.00  -0.00  -0.01
  42   1    -0.05   0.00   0.04     0.02  -0.03   0.03     0.00   0.01  -0.01
  43   1    -0.02   0.02  -0.03     0.03   0.02  -0.04     0.01   0.00  -0.01
  44   1    -0.02  -0.06   0.02     0.00   0.02   0.08    -0.01   0.03   0.00
  45   1    -0.03  -0.04  -0.01    -0.03   0.05  -0.02     0.01   0.00  -0.01
  46   1    -0.00   0.05  -0.01     0.01  -0.00  -0.00     0.00  -0.02   0.01
  47   1     0.00  -0.05   0.01     0.03   0.04   0.01     0.00   0.01  -0.01
  48   1     0.02   0.05   0.00     0.00  -0.10   0.02    -0.01  -0.01   0.01
  49   1    -0.04  -0.01  -0.01     0.09   0.04   0.03     0.01  -0.00  -0.00
  50   1    -0.01   0.03  -0.03    -0.05  -0.04   0.01     0.01  -0.01  -0.00
  51   1     0.03   0.01   0.02     0.03   0.00   0.02    -0.01  -0.01  -0.01
  52   1     0.03  -0.02   0.01    -0.06  -0.01   0.00    -0.00   0.01  -0.01
  53   1     0.04  -0.02  -0.01     0.00  -0.01  -0.00     0.07   0.18  -0.11
  54   1    -0.02  -0.03   0.04    -0.02   0.02  -0.02     0.01  -0.00   0.02
                     46                     47                     48
                        a                      a                      a 
 Frequencies --   651.3896               654.5815               680.0184
 Red. masses --    10.5294                11.1691                10.9913
 Frc consts  --     0.0000                 0.0000                 0.0000
 IR Inten    --     4.0852                 2.6755                26.3137
 Raman Activ --     0.0000                 0.0000                 0.0000
 Depolar     --     0.0000                 0.0000                 0.0000
 Atom AN      X      Y      Z        X      Y      Z        X      Y      Z
   1   6    -0.04  -0.02   0.01     0.03   0.03  -0.01     0.18  -0.05   0.01
   2   6     0.02   0.02  -0.04    -0.02  -0.03   0.04    -0.04   0.05   0.16
   3   6    -0.00  -0.04   0.01     0.01   0.04  -0.02    -0.03   0.09   0.09
   4   6     0.05   0.05  -0.02    -0.04  -0.06   0.03    -0.18  -0.01   0.02
   5   7     0.03   0.02  -0.04    -0.01  -0.01   0.03    -0.02   0.11   0.01
   6   6    -0.28   0.08   0.33     0.17  -0.04  -0.19     0.16   0.09   0.06
   7   6     0.17   0.01  -0.21    -0.09  -0.01   0.11     0.11  -0.09   0.12
   8   6    -0.16   0.02   0.25     0.09  -0.01  -0.14     0.14  -0.12   0.10
   9   6     0.14  -0.06  -0.18    -0.08   0.03   0.09    -0.14  -0.10  -0.09
  10   6    -0.18   0.02   0.22     0.11  -0.01  -0.12    -0.00   0.16  -0.07
  11   6     0.13   0.01  -0.23    -0.08  -0.01   0.13    -0.02   0.16  -0.02
  12   6    -0.01  -0.01  -0.06    -0.00   0.02   0.03    -0.10  -0.00  -0.06
  13   6    -0.05  -0.06   0.03     0.05   0.05  -0.02    -0.17  -0.11   0.08
  14   6    -0.05  -0.03  -0.01     0.04   0.03  -0.00    -0.08  -0.05  -0.00
  15   6    -0.00   0.01   0.03     0.00  -0.04  -0.02     0.02  -0.02   0.03
  16   6     0.05  -0.00  -0.04    -0.05  -0.02  -0.01     0.17  -0.10  -0.07
  17   6     0.07  -0.03   0.03    -0.05   0.01  -0.01     0.16  -0.09   0.01
  18   7    -0.02   0.08   0.09    -0.07   0.05   0.20     0.07   0.11  -0.02
  19   6     0.09  -0.04  -0.21     0.15  -0.15  -0.33     0.02   0.11  -0.17
  20   6    -0.08   0.04   0.07    -0.07   0.05   0.13    -0.18   0.04  -0.03
[...]
  49   1     0.14   0.31  -0.07    -0.08  -0.18   0.04    -0.05  -0.11   0.03
  50   1    -0.03  -0.01  -0.01     0.01   0.00   0.01     0.14   0.03   0.05
  51   1    -0.22   0.27  -0.22     0.12  -0.15   0.13     0.17  -0.20   0.17
  52   1    -0.13  -0.30   0.09     0.07   0.16  -0.04     0.14   0.31  -0.09
  53   1    -0.01   0.01   0.02    -0.01   0.01   0.02    -0.01   0.01   0.01
  54   1    -0.01  -0.00  -0.02     0.00   0.00   0.00    -0.02  -0.01  -0.04
                    145                    146                    147
                        a                      a                      a 
 Frequencies --  3088.9972              3089.6096              3090.1411
 Red. masses --     1.8367                 1.8422                 1.8501
 Frc consts  --     0.0000                 0.0000                 0.0000
 IR Inten    --     6.9661                 9.2019                29.3157
 Raman Activ --     0.0000                 0.0000                 0.0000
 Depolar     --     0.0000                 0.0000                 0.0000
 Atom AN      X      Y      Z        X      Y      Z        X      Y      Z
   1   6    -0.05   0.02  -0.00     0.09  -0.03   0.01     0.02  -0.01   0.00
   2   6     0.01  -0.01  -0.01     0.00  -0.00   0.00    -0.01   0.01   0.01
   3   6    -0.03  -0.01  -0.05     0.04   0.02   0.07     0.02   0.01   0.03
   4   6    -0.00   0.00  -0.00     0.01  -0.00   0.00     0.00  -0.00  -0.00
   5   7     0.00   0.00   0.00     0.00  -0.00  -0.00    -0.00  -0.00   0.00
   6   6    -0.00  -0.00  -0.00    -0.00  -0.00  -0.00     0.00   0.00   0.00
   7   6    -0.01  -0.10   0.01    -0.00  -0.06   0.01     0.00   0.06  -0.01
   8   6     0.09  -0.07   0.08     0.05  -0.04   0.05    -0.04   0.03  -0.04
   9   6    -0.07  -0.05  -0.04    -0.03  -0.02  -0.02     0.04   0.03   0.03
  10   6    -0.00  -0.00  -0.00    -0.00  -0.02   0.00    -0.00  -0.02   0.00
  11   6    -0.05   0.04  -0.04    -0.02   0.02  -0.02     0.03  -0.02   0.03
  12   6     0.00   0.00  -0.00    -0.00   0.00   0.00    -0.00  -0.00   0.00
  13   6     0.00  -0.00  -0.00    -0.01   0.00   0.00     0.00   0.00  -0.00
  14   6    -0.00  -0.00   0.00     0.01   0.01  -0.00     0.00   0.00  -0.00
  15   6     0.00  -0.00  -0.00     0.00  -0.00  -0.00     0.00  -0.01  -0.00
  16   6    -0.02   0.00   0.01    -0.00   0.00   0.00    -0.02   0.00   0.01
  17   6    -0.00  -0.00   0.00     0.00   0.00  -0.00    -0.00   0.00   0.00
  18   7     0.00   0.00   0.00     0.00  -0.00  -0.00     0.00   0.00  -0.00
  19   6    -0.00  -0.00   0.00    -0.00   0.00  -0.00    -0.00  -0.00   0.00
  20   6    -0.02  -0.02  -0.00     0.02   0.02   0.00    -0.05  -0.04  -0.01
  21   6     0.02  -0.01   0.01     0.00  -0.00   0.00     0.06  -0.02   0.04
  22   6     0.00  -0.02   0.01    -0.00   0.02  -0.01     0.01  -0.08   0.03
  23   6    -0.00  -0.00  -0.00     0.03   0.02   0.00    -0.06  -0.04  -0.01
  24   6    -0.00   0.00  -0.00     0.00  -0.00   0.00    -0.00   0.00  -0.00
  25   6    -0.00   0.00  -0.00    -0.00   0.00  -0.00    -0.00   0.00  -0.00
  26   6     0.04   0.09  -0.02     0.01   0.03  -0.01     0.06   0.13  -0.03
  27   6     0.04   0.01   0.01     0.01   0.00   0.00     0.07   0.02   0.02
  28   6    -0.01   0.01  -0.01    -0.01   0.01  -0.01     0.00  -0.00   0.00
  29   6     0.02   0.06  -0.02     0.01   0.02  -0.00     0.04   0.09  -0.03
  30   6     0.00  -0.00   0.00     0.00  -0.00   0.00     0.00  -0.00   0.00
  31   6    -0.03   0.04   0.05     0.06  -0.09  -0.13     0.01  -0.02  -0.02
  32   6     0.03   0.01   0.04    -0.07  -0.03  -0.10    -0.00  -0.00  -0.01
  33   1     0.17  -0.06   0.01    -0.33   0.12  -0.03    -0.07   0.03  -0.01
  34   1    -0.02   0.03   0.05    -0.00   0.00   0.00     0.02  -0.03  -0.04
  35   1     0.10   0.04   0.16    -0.16  -0.06  -0.24    -0.07  -0.03  -0.10
  36   1     0.03   0.33  -0.04     0.01   0.19  -0.02    -0.02  -0.21   0.03
  37   1    -0.31   0.23  -0.29    -0.17   0.13  -0.16     0.16  -0.12   0.15
  38   1     0.24   0.18   0.16     0.11   0.08   0.08    -0.15  -0.11  -0.10
  39   1     0.00   0.01  -0.00     0.00   0.06  -0.01     0.01   0.08  -0.01
  40   1     0.16  -0.12   0.16     0.08  -0.06   0.08    -0.10   0.07  -0.10
  41   1    -0.02   0.00   0.01     0.04  -0.01  -0.02    -0.00   0.00   0.00
  42   1     0.00   0.00  -0.00    -0.03  -0.03   0.00    -0.01  -0.01   0.00
  43   1    -0.00   0.01   0.00    -0.00   0.02   0.00    -0.01   0.04   0.01
  44   1     0.05  -0.01  -0.02     0.01  -0.00  -0.00     0.07  -0.01  -0.02
  45   1     0.09   0.07   0.01    -0.07  -0.06  -0.01     0.18   0.15   0.03
  46   1    -0.08   0.03  -0.05    -0.01   0.00  -0.01    -0.23   0.08  -0.15
  47   1    -0.00   0.06  -0.03     0.00  -0.05   0.02    -0.02   0.25  -0.11
  48   1     0.01   0.01   0.00    -0.10  -0.08  -0.01     0.19   0.15   0.02
  49   1    -0.14  -0.32   0.08    -0.04  -0.10   0.02    -0.19  -0.44   0.10
  50   1    -0.14  -0.03  -0.05    -0.02  -0.01  -0.01    -0.23  -0.06  -0.08
  51   1     0.04  -0.05   0.04     0.03  -0.04   0.03    -0.01   0.01  -0.01
  52   1    -0.09  -0.19   0.05    -0.03  -0.06   0.02    -0.14  -0.31   0.09
  53   1     0.09  -0.13  -0.18    -0.22   0.32   0.43    -0.04   0.06   0.07
  54   1    -0.09  -0.03  -0.13     0.23   0.09   0.33     0.01   0.01   0.02
                    148                    149                    150
                        a                      a                      a 
 Frequencies --  3092.1024              3092.7230              3095.0888
 Red. masses --     1.8594                 1.8718                 1.8685
 Frc consts  --     0.0000                 0.0000                 0.0000
 IR Inten    --    35.1050                46.3750                13.8536
 Raman Activ --     0.0000                 0.0000                 0.0000
 Depolar     --     0.0000                 0.0000                 0.0000
 Atom AN      X      Y      Z        X      Y      Z        X      Y      Z
   1   6    -0.00   0.00  -0.00     0.04  -0.02  -0.00     0.02  -0.01   0.00
   2   6     0.00  -0.00  -0.00    -0.05   0.07   0.09    -0.01   0.02   0.02
   3   6    -0.01  -0.00  -0.01     0.10   0.04   0.15     0.03   0.01   0.05
   4   6    -0.00   0.00  -0.00     0.00  -0.00   0.00     0.00  -0.00   0.00
   5   7    -0.00   0.00  -0.00     0.00   0.00   0.00    -0.00   0.00   0.00
   6   6     0.00   0.00   0.00    -0.00   0.00  -0.00    -0.00  -0.00  -0.00
   7   6     0.00   0.03  -0.00    -0.00  -0.03   0.00     0.01   0.04  -0.00
   8   6    -0.03   0.02  -0.02     0.03  -0.02   0.03    -0.07   0.05  -0.06
   9   6     0.01   0.01   0.01     0.01   0.01   0.00    -0.05  -0.04  -0.04
  10   6     0.00   0.01  -0.00    -0.00  -0.06   0.01     0.01   0.14  -0.02
  11   6     0.02  -0.02   0.02     0.02  -0.01   0.02    -0.11   0.08  -0.10
  12   6    -0.00   0.00   0.00     0.00  -0.00   0.00    -0.00   0.00   0.00
  13   6     0.00  -0.00  -0.00     0.00  -0.00  -0.00     0.00  -0.00  -0.00
  14   6     0.01   0.01  -0.00    -0.00  -0.01   0.00     0.00   0.00   0.00
  15   6     0.00   0.00   0.00    -0.00   0.00   0.00    -0.00   0.00   0.00
  16   6    -0.01   0.00   0.00    -0.00   0.00   0.00    -0.00   0.00   0.00
  17   6     0.00  -0.00  -0.00     0.00  -0.00  -0.00     0.00  -0.00  -0.00
  18   7     0.00   0.00  -0.00    -0.00  -0.00  -0.00    -0.00   0.00  -0.00
  19   6     0.00   0.00  -0.00    -0.00  -0.00   0.00     0.00  -0.00   0.00
  20   6     0.06   0.05   0.01    -0.00  -0.00  -0.00    -0.01  -0.01  -0.00
  21   6    -0.06   0.02  -0.04    -0.01   0.00  -0.01     0.00  -0.00   0.00
  22   6    -0.01   0.11  -0.05    -0.00   0.01  -0.00    -0.00   0.00  -0.00
  23   6     0.12   0.10   0.01     0.01   0.01   0.00     0.01   0.00   0.00
  24   6     0.00  -0.00   0.00     0.00  -0.00   0.00    -0.00   0.00  -0.00
  25   6    -0.00   0.00  -0.00     0.00  -0.00   0.00    -0.00   0.00  -0.00
  26   6     0.04   0.10  -0.02    -0.00  -0.01   0.00     0.01   0.02  -0.01
  27   6     0.04   0.01   0.01    -0.01  -0.00  -0.00     0.02   0.00   0.01
  28   6    -0.01   0.01  -0.01    -0.01   0.01  -0.01     0.02  -0.02   0.02
  29   6     0.03   0.06  -0.02    -0.00  -0.00   0.00    -0.01  -0.02   0.00
  30   6     0.00   0.00   0.00     0.00   0.00   0.00    -0.00   0.00  -0.00
  31   6    -0.01   0.02   0.02    -0.03   0.04   0.06    -0.01   0.01   0.01
  32   6     0.01   0.00   0.01     0.06   0.02   0.08     0.01   0.01   0.02
  33   1     0.01  -0.01   0.00    -0.14   0.05  -0.01    -0.07   0.03  -0.01
  34   1    -0.00   0.00   0.00     0.16  -0.23  -0.31     0.04  -0.06  -0.08
  35   1     0.03   0.01   0.05    -0.36  -0.13  -0.53    -0.12  -0.04  -0.18
  36   1    -0.01  -0.12   0.02     0.01   0.09  -0.01    -0.01  -0.14   0.02
  37   1     0.09  -0.07   0.08    -0.11   0.08  -0.10     0.23  -0.17   0.22
  38   1    -0.05  -0.04  -0.03    -0.02  -0.02  -0.02     0.20   0.14   0.13
  39   1    -0.00  -0.02   0.00     0.01   0.20  -0.02    -0.03  -0.50   0.06
  40   1    -0.09   0.07  -0.08    -0.06   0.04  -0.05     0.36  -0.27   0.36
  41   1    -0.01   0.00   0.00    -0.01   0.00   0.00    -0.00   0.00   0.00
  42   1    -0.03  -0.03   0.00     0.02   0.02  -0.00    -0.00  -0.00   0.00
  43   1     0.00  -0.00  -0.00     0.00  -0.01  -0.00     0.00  -0.01  -0.00
  44   1     0.04  -0.01  -0.01     0.00  -0.00  -0.00     0.00  -0.00  -0.00
  45   1    -0.23  -0.19  -0.04     0.00   0.00   0.00     0.03   0.02   0.00
  46   1     0.22  -0.08   0.14     0.04  -0.01   0.03    -0.01   0.00  -0.00
  47   1     0.02  -0.35   0.16     0.00  -0.03   0.02     0.00  -0.01   0.00
  48   1    -0.43  -0.34  -0.04    -0.02  -0.02  -0.00    -0.02  -0.02  -0.00
  49   1    -0.15  -0.35   0.08     0.02   0.04  -0.01    -0.03  -0.07   0.02
  50   1    -0.14  -0.03  -0.05     0.03   0.01   0.01    -0.07  -0.02  -0.02
  51   1     0.04  -0.05   0.04     0.02  -0.02   0.02    -0.06   0.07  -0.06
  52   1    -0.09  -0.21   0.06     0.00   0.00  -0.00     0.02   0.05  -0.01
  53   1     0.04  -0.05  -0.07     0.10  -0.15  -0.20     0.02  -0.03  -0.03
  54   1    -0.02  -0.01  -0.03    -0.19  -0.07  -0.28    -0.05  -0.02  -0.07
                    151                    152                    153
                        a                      a                      a 
 Frequencies --  3096.6651              3098.1029              3100.7793
 Red. masses --     1.8948                 1.8183                 1.8739
 Frc consts  --     0.0000                 0.0000                 0.0000
 IR Inten    --    77.8610                47.4853                39.2881
 Raman Activ --     0.0000                 0.0000                 0.0000
 Depolar     --     0.0000                 0.0000                 0.0000
 Atom AN      X      Y      Z        X      Y      Z        X      Y      Z
   1   6     0.02  -0.01   0.00     0.01  -0.00   0.00     0.06  -0.02   0.01
   2   6     0.00  -0.00  -0.01     0.00  -0.00  -0.00     0.01  -0.02  -0.02
   3   6    -0.00  -0.00  -0.01    -0.00  -0.00  -0.00    -0.01  -0.00  -0.01
   4   6     0.00  -0.00  -0.00     0.00   0.00   0.00     0.00  -0.00  -0.00
   5   7     0.00  -0.00  -0.00    -0.00  -0.00  -0.00    -0.00  -0.00   0.00
   6   6     0.00   0.00   0.00    -0.00  -0.00   0.00    -0.00  -0.00  -0.00
   7   6    -0.00  -0.02   0.00     0.00   0.00  -0.00    -0.00  -0.00   0.00
   8   6     0.01  -0.01   0.01    -0.00   0.00  -0.00     0.01  -0.00   0.01
   9   6     0.00   0.00   0.00    -0.00  -0.00  -0.00     0.01   0.01   0.01
  10   6    -0.00  -0.03   0.00    -0.00   0.00  -0.00     0.00   0.00  -0.00
  11   6     0.02  -0.01   0.02    -0.00   0.00  -0.00     0.00  -0.00   0.00
  12   6    -0.00   0.00   0.00     0.00   0.01  -0.00    -0.00   0.00   0.00
  13   6    -0.01  -0.00   0.00    -0.06   0.01   0.02     0.00  -0.00  -0.00
  14   6    -0.01  -0.01   0.00    -0.13  -0.16   0.01     0.00   0.00  -0.00
  15   6    -0.01   0.03   0.01    -0.04   0.14   0.04    -0.00   0.01   0.00
  16   6     0.01  -0.00  -0.00    -0.06   0.02   0.02    -0.00   0.00   0.00
  17   6     0.00  -0.00  -0.00    -0.00  -0.01  -0.00     0.00  -0.00  -0.00
  18   7    -0.00  -0.00  -0.00     0.00   0.00  -0.00     0.00  -0.00   0.00
  19   6     0.00   0.00   0.00     0.00   0.00  -0.00     0.00  -0.01   0.00
  20   6     0.01   0.01   0.00     0.00   0.00   0.00    -0.17  -0.14  -0.03
  21   6     0.01  -0.00   0.00     0.00   0.00   0.00    -0.11   0.04  -0.07
  22   6    -0.00   0.00  -0.00    -0.00  -0.00  -0.00    -0.00   0.05  -0.02
  23   6     0.01   0.01   0.00     0.00   0.00   0.00     0.02   0.02   0.00
  24   6    -0.00   0.00  -0.00    -0.00  -0.00  -0.00     0.00   0.00   0.00
  25   6    -0.00   0.00  -0.00    -0.00  -0.00   0.00    -0.00  -0.00   0.00
  26   6     0.03   0.07  -0.02    -0.00  -0.00   0.00     0.00   0.00  -0.00
  27   6     0.09   0.02   0.03    -0.01  -0.00  -0.00     0.00   0.00   0.00
  28   6     0.10  -0.12   0.10    -0.01   0.01  -0.01     0.00  -0.00   0.00
  29   6    -0.06  -0.14   0.04     0.01   0.02  -0.01    -0.00  -0.00   0.00
  30   6    -0.01  -0.00  -0.00     0.00   0.00   0.00    -0.00   0.00  -0.00
  31   6    -0.00   0.00   0.00     0.00  -0.01  -0.01     0.00  -0.01  -0.01
  32   6     0.00   0.00   0.00    -0.00  -0.00  -0.00     0.01   0.00   0.02
  33   1    -0.06   0.02  -0.00    -0.02   0.01  -0.00    -0.21   0.08  -0.02
  34   1    -0.01   0.02   0.02    -0.01   0.01   0.01    -0.04   0.06   0.08
  35   1     0.01   0.00   0.02     0.01   0.00   0.01     0.03   0.01   0.05
  36   1     0.01   0.06  -0.01    -0.00  -0.01   0.00     0.00   0.01  -0.00
  37   1    -0.05   0.04  -0.05     0.01  -0.01   0.01    -0.02   0.01  -0.02
  38   1    -0.01  -0.00  -0.00     0.00   0.00   0.00    -0.04  -0.03  -0.03
  39   1     0.01   0.10  -0.01    -0.00  -0.00   0.00    -0.00  -0.01   0.00
  40   1    -0.06   0.05  -0.06     0.00  -0.00   0.00    -0.01   0.01  -0.01
  41   1     0.02  -0.00  -0.01     0.19  -0.03  -0.06    -0.01   0.00   0.00
  42   1     0.02   0.03  -0.00     0.47   0.56  -0.04    -0.01  -0.01   0.00
  43   1     0.03  -0.11  -0.03     0.15  -0.50  -0.13     0.01  -0.03  -0.01
  44   1    -0.03   0.00   0.01     0.19  -0.03  -0.06     0.00  -0.00  -0.00
  45   1    -0.03  -0.03  -0.01    -0.01  -0.01  -0.00     0.60   0.49   0.09
  46   1    -0.02   0.01  -0.01    -0.00   0.00  -0.00     0.35  -0.13   0.23
  47   1     0.00  -0.01   0.01    -0.00   0.00  -0.00     0.01  -0.15   0.07
  48   1    -0.02  -0.02  -0.00    -0.00  -0.00  -0.00    -0.07  -0.05  -0.01
  49   1    -0.10  -0.23   0.05     0.00   0.00  -0.00    -0.00  -0.00   0.00
  50   1    -0.30  -0.07  -0.10     0.02   0.00   0.01    -0.01  -0.00  -0.00
  51   1    -0.33   0.41  -0.35     0.03  -0.04   0.03    -0.00   0.00  -0.00
  52   1     0.21   0.48  -0.14    -0.03  -0.07   0.02     0.01   0.01  -0.00
  53   1     0.00  -0.00  -0.00    -0.01   0.02   0.02    -0.02   0.03   0.04
  54   1    -0.01  -0.00  -0.02     0.00   0.00   0.01    -0.04  -0.01  -0.05
                    154                    155                    156
                        a                      a                      a 
 Frequencies --  3102.1561              3104.7902              3108.5117
 Red. masses --     1.9021                 1.9098                 1.8881
 Frc consts  --     0.0000                 0.0000                 0.0000
 IR Inten    --     6.8451                31.5035                15.0846
 Raman Activ --     0.0000                 0.0000                 0.0000
 Depolar     --     0.0000                 0.0000                 0.0000
 Atom AN      X      Y      Z        X      Y      Z        X      Y      Z
   1   6    -0.20   0.08  -0.02    -0.03   0.01  -0.00    -0.01   0.00  -0.00
   2   6    -0.04   0.06   0.08    -0.01   0.01   0.01    -0.00   0.00   0.00
   3   6     0.03   0.01   0.04     0.01   0.00   0.01     0.00   0.00   0.00
   4   6     0.00  -0.00   0.00     0.00  -0.00   0.00    -0.00   0.00   0.00
   5   7     0.00   0.00   0.00     0.00   0.00   0.00    -0.00  -0.00  -0.00
   6   6    -0.00   0.00  -0.00    -0.00  -0.00  -0.00    -0.00  -0.00  -0.00
   7   6     0.00   0.00   0.00    -0.00  -0.03   0.00    -0.00  -0.00   0.00
   8   6    -0.01   0.01  -0.01     0.06  -0.05   0.06     0.01  -0.01   0.01
   9   6    -0.02  -0.02  -0.02     0.15   0.11   0.10     0.02   0.01   0.01
  10   6    -0.00  -0.02   0.00     0.01   0.13  -0.02     0.00   0.02  -0.00
  11   6     0.01  -0.00   0.01    -0.04   0.03  -0.04    -0.01   0.00  -0.01
  12   6    -0.00  -0.00  -0.00    -0.00  -0.00  -0.00     0.00   0.00  -0.00
  13   6     0.00  -0.00  -0.00     0.00  -0.00  -0.00    -0.04   0.01   0.01
  14   6    -0.00   0.00   0.00     0.01   0.02  -0.00    -0.10  -0.13   0.01
  15   6    -0.00   0.01   0.00    -0.01   0.03   0.01     0.05  -0.20  -0.05
  16   6    -0.00  -0.00   0.00    -0.01   0.00   0.00     0.06  -0.01  -0.02
  17   6     0.00   0.00  -0.00     0.00  -0.00  -0.00    -0.00   0.01   0.00
  18   7    -0.00  -0.00  -0.00    -0.00  -0.00   0.00    -0.00  -0.00   0.00
  19   6     0.00  -0.00   0.00     0.00   0.00  -0.00    -0.00  -0.00  -0.00
  20   6    -0.05  -0.04  -0.01     0.00   0.00   0.00    -0.00  -0.00  -0.00
  21   6    -0.03   0.01  -0.02     0.00  -0.00   0.00    -0.01   0.00  -0.01
  22   6    -0.00   0.02  -0.01    -0.00   0.00  -0.00    -0.00   0.01  -0.00
  23   6     0.01   0.01   0.00     0.00   0.00   0.00     0.01   0.01   0.00
  24   6     0.00   0.00   0.00    -0.00   0.00  -0.00     0.00  -0.00   0.00
  25   6    -0.00   0.00  -0.00     0.00   0.00   0.00    -0.00   0.00  -0.00
  26   6     0.00   0.01  -0.00     0.00   0.01  -0.00     0.00   0.01  -0.00
  27   6     0.01   0.00   0.00     0.01   0.00   0.00     0.01   0.00   0.00
  28   6     0.01  -0.01   0.01     0.00  -0.00   0.00     0.01  -0.01   0.01
  29   6    -0.00  -0.01   0.00    -0.00  -0.00   0.00    -0.00  -0.01   0.00
  30   6    -0.00  -0.00  -0.00    -0.00   0.00  -0.00     0.00  -0.00   0.00
  31   6     0.02  -0.03  -0.03     0.00  -0.00  -0.00     0.00  -0.00  -0.00
  32   6    -0.06  -0.02  -0.08    -0.01  -0.00  -0.01    -0.00  -0.00  -0.00
  33   1     0.70  -0.26   0.05     0.11  -0.04   0.01     0.02  -0.01   0.00
  34   1     0.13  -0.18  -0.24     0.02  -0.03  -0.04     0.01  -0.01  -0.01
  35   1    -0.09  -0.03  -0.14    -0.02  -0.01  -0.03    -0.00  -0.00  -0.01
  36   1    -0.00  -0.01   0.00     0.01   0.11  -0.01     0.00   0.01  -0.00
  37   1     0.03  -0.02   0.03    -0.21   0.16  -0.20    -0.03   0.02  -0.03
  38   1     0.08   0.06   0.05    -0.52  -0.38  -0.35    -0.07  -0.05  -0.05
  39   1     0.00   0.07  -0.01    -0.03  -0.42   0.05    -0.00  -0.06   0.01
  40   1    -0.02   0.02  -0.02     0.12  -0.09   0.12     0.02  -0.01   0.02
  41   1    -0.00   0.00   0.00    -0.01   0.00   0.00     0.12  -0.02  -0.04
  42   1     0.00   0.00  -0.00    -0.05  -0.05   0.00     0.36   0.43  -0.03
  43   1     0.01  -0.04  -0.01     0.03  -0.10  -0.03    -0.20   0.68   0.18
  44   1     0.00  -0.00  -0.00     0.03  -0.00  -0.01    -0.18   0.03   0.06
  45   1     0.16   0.13   0.02    -0.01  -0.01  -0.00     0.01   0.01   0.00
  46   1     0.11  -0.04   0.07    -0.01   0.00  -0.01     0.03  -0.01   0.02
  47   1     0.00  -0.06   0.03     0.00  -0.01   0.00     0.00  -0.02   0.01
  48   1    -0.03  -0.03  -0.00    -0.02  -0.01  -0.00    -0.03  -0.02  -0.00
  49   1    -0.01  -0.03   0.01    -0.01  -0.02   0.01    -0.01  -0.03   0.01
  50   1    -0.03  -0.01  -0.01    -0.02  -0.00  -0.01    -0.02  -0.01  -0.01
  51   1    -0.03   0.03  -0.03    -0.01   0.01  -0.01    -0.02   0.03  -0.03
  52   1     0.02   0.04  -0.01     0.00   0.00  -0.00     0.01   0.02  -0.01
  53   1    -0.06   0.09   0.11    -0.01   0.01   0.02    -0.00   0.01   0.01
  54   1     0.18   0.07   0.26     0.03   0.01   0.04     0.01   0.00   0.01
