$hessian                                                                        
        0.5879209356  -0.1661308960   0.0869998140  -0.1477054273  -0.0300235737
       -0.1320575013  -0.0524862657   0.0157220893  -0.0180855510   0.0151225316
       -0.0083366711  -0.0007440726  -0.0040176851  -0.0046734373  -0.0022976939
        0.0048911758   0.0003718740   0.0021772192  -0.0030075500   0.0020438363
       -0.0023844896   0.0007163666   0.0007220406   0.0006784182  -0.0021996934
        0.0007397081  -0.0021217351   0.0029274106  -0.0004599262   0.0029220235
       -0.0018678994  -0.0028555096  -0.0010154330   0.0061137008   0.0063937531
        0.0033079665  -0.0031861034  -0.0045259449  -0.0014953306   0.0029391055
        0.0019451885  -0.0008823503  -0.0058174830  -0.0021593980   0.0013507826
        0.0008008971   0.0066528097  -0.0004041270  -0.0039141607  -0.0056310329
       -0.0001071713   0.0027433858   0.0021118027   0.0004087363   0.0032732108
        0.0012620065  -0.0004486534  -0.0007144002   0.0015520161  -0.0010597262
        0.0018064072  -0.0008094620   0.0009929024  -0.0014271718  -0.0005594485
       -0.0003277644   0.0001678658  -0.0017488172   0.0008321470  -0.0033780404
        0.0008249732  -0.0020960306   0.0024100890  -0.0014903278   0.0020684936
       -0.0011879778  -0.0010854097  -0.0000260289  -0.0000052995   0.0011518520
       -0.0003761132  -0.0032798068  -0.0007843070  -0.0013098525   0.0033445036
       -0.0001599966   0.0016881791  -0.0019239827   0.0021231669  -0.0005473556
       -0.0322042771   0.0194119482   0.0123492066  -0.1065906100   0.0713217204
        0.0767605044  -0.2642015696   0.0946002297  -0.0167797728   0.0056948454
        0.0016692359   0.0076876836  -0.0039137075   0.0044572998  -0.0012197658
        0.0001231044   0.0000568385  -0.0001253070  -0.0000211141   0.0000423771
       -0.0000989802   0.0000255374   0.0001200247   0.0000837419  -0.0000454070
       -0.0000928265   0.0000759878  -0.0001439362  -0.0003714151   0.0000602123
        0.0001874958   0.0003447444  -0.0001877315   0.0000320537  -0.0000013620
        0.0003168354   0.0000240756   0.0000350612   0.0001789249   0.0000008782
       -0.0001051351  -0.0002027900   0.0000754948   0.0002008494  -0.0000568132
        0.0000245998   0.0000195146   0.0000494273  -0.0000267950   0.0000154317
       -0.0000823444   0.0001105874  -0.0000323758  -0.0001199291  -0.0000542023
       -0.0000024565  -0.0000213379  -0.0000418994   0.0000683888   0.0000571805
        0.0001263823  -0.0000328935   0.0001257382  -0.0000717667  -0.0000137604
        0.0001108859  -0.0037013342   0.0049951560  -0.0015954391   0.0055329256
       -0.0088895542  -0.0130058200
       -0.1661308960   0.2888980732   0.1812277682   0.0079621397  -0.0699534405
       -0.0354984105  -0.0133871029   0.0100362186   0.0048270366  -0.0098081638
       -0.0060495980  -0.0059642695   0.0015466086   0.0014602718   0.0022140871
       -0.0020680551  -0.0011934874  -0.0007311765   0.0022145863  -0.0003724864
        0.0015527282  -0.0010748683  -0.0015474501  -0.0005521889   0.0008326711
        0.0007805504   0.0005810661  -0.0012920188  -0.0002507077  -0.0010520487
        0.0008665306   0.0021144391   0.0006604107  -0.0019871462  -0.0007996070
       -0.0017383952   0.0004915272  -0.0004680984   0.0004185487  -0.0018518030
        0.0007085155   0.0005384475   0.0019553383  -0.0003084091  -0.0003712274
        0.0002366578  -0.0004074213   0.0005296427   0.0032873476   0.0006944572
       -0.0010202368  -0.0012991197  -0.0010769167  -0.0002428040  -0.0013940378
       -0.0006721872   0.0001532553   0.0002274331  -0.0008152859   0.0003655877
       -0.0006265737   0.0004891899  -0.0002482018   0.0004173350   0.0001773123
       -0.0000613763   0.0000614939   0.0004740688  -0.0001880156   0.0013414524
       -0.0000289180   0.0008266323  -0.0009880178   0.0004682142  -0.0006946299
        0.0004312931   0.0005729732  -0.0000847837  -0.0000056444  -0.0007688909
        0.0002403926   0.0016089674   0.0005711285   0.0005889670  -0.0015768384
       -0.0000028995  -0.0007786593   0.0008457729  -0.0008312188   0.0001311263
        0.0475340450  -0.0207216228  -0.0024459925   0.0348931616  -0.1302282773
       -0.1180340904   0.0949612115  -0.0731931508   0.0014513295  -0.0088150133
       -0.0036712306  -0.0154936231   0.0048759383   0.0048904524  -0.0023600392
       -0.0000432181  -0.0000489990   0.0000140388  -0.0000149531  -0.0000092384
        0.0000708053   0.0000041467  -0.0000625158  -0.0000893463   0.0000268928
        0.0000608348  -0.0000402734  -0.0000045594   0.0002259012  -0.0000502324
       -0.0001867486   0.0000052993  -0.0000597829  -0.0000443010  -0.0000108819
       -0.0002150973   0.0000220810  -0.0000364754   0.0000447002  -0.0000077342
        0.0000474797   0.0000443073   0.0000255116  -0.0001086337   0.0000895363
       -0.0000357140   0.0000268606   0.0000166072   0.0000403077   0.0000084738
       -0.0000003329  -0.0000402135   0.0000410258   0.0000672929   0.0000289360
        0.0000193481   0.0000167579   0.0000280144  -0.0000260924  -0.0000202812
       -0.0000522993   0.0000087277  -0.0000476060   0.0000208715   0.0000071731
       -0.0000655790   0.0045383578   0.0049987727  -0.0024547534   0.0014084096
       -0.0041216211  -0.0060676182
        0.0869998140   0.1812277682   0.4907920496  -0.0632491021  -0.0653514348
       -0.2107822577  -0.0668398827   0.0273170567  -0.0055013886   0.0004504686
       -0.0051365443  -0.0152674823  -0.0002898304  -0.0004382586   0.0018848462
       -0.0000106598  -0.0020512587   0.0004286450   0.0015779805   0.0010366270
        0.0008307100  -0.0014111458  -0.0022819272  -0.0004494047  -0.0003940436
        0.0020965032  -0.0008008713   0.0001379223  -0.0008690865   0.0006298841
       -0.0002362933   0.0014751204   0.0003740944   0.0016197866   0.0036138674
       -0.0002078577  -0.0016373649  -0.0046412250  -0.0003713398  -0.0008953829
        0.0028257296   0.0002412665  -0.0012752616  -0.0023420815   0.0003997201
        0.0010564694   0.0047235255   0.0005885062   0.0025408958  -0.0035024409
       -0.0017881357  -0.0000355830  -0.0001440322  -0.0002134588   0.0000769716
       -0.0002127065  -0.0001250620  -0.0001753516  -0.0001790379  -0.0001262359
        0.0002264742   0.0002807478   0.0003000125  -0.0003620162  -0.0001391161
       -0.0003658878   0.0002116954  -0.0004400906   0.0002730801  -0.0002378531
        0.0005033862  -0.0001397270  -0.0000011819  -0.0002979330   0.0003383778
       -0.0000091622   0.0001471618  -0.0001099053   0.0000013664  -0.0003496217
        0.0000905519   0.0002783613   0.0003344233   0.0000340210  -0.0002091631
       -0.0001282398  -0.0000665724   0.0000296067   0.0001590876  -0.0001112719
        0.0565405842  -0.0238707839   0.0057670792   0.0111531530  -0.0881630543
       -0.1897694391  -0.0168957566   0.0015866487  -0.0421260200  -0.0119872755
       -0.0070419651  -0.0202186561  -0.0009741388  -0.0024229330   0.0028801382
        0.0000252142  -0.0000555378  -0.0000676512  -0.0000432508   0.0000150621
        0.0000581963   0.0000425591  -0.0000101883  -0.0000875285   0.0000040315
        0.0000356009  -0.0000194116  -0.0002223514   0.0001091485  -0.0000587830
       -0.0000445072   0.0001795393  -0.0002349007  -0.0000423572  -0.0000297924
       -0.0001193231   0.0000638311  -0.0000308567   0.0002461359  -0.0000211597
       -0.0000051683  -0.0000747336   0.0001194412  -0.0000599137   0.0000890271
       -0.0000373658   0.0000577035   0.0001074373   0.0000405559  -0.0000029007
       -0.0000653225   0.0000158449   0.0000428951   0.0000356162  -0.0000014226
        0.0000193426   0.0000122769   0.0000037556   0.0000090483   0.0000117888
        0.0000071484  -0.0000095678   0.0000165492  -0.0000197492   0.0000067741
       -0.0000272965  -0.0017241724  -0.0014875782   0.0026583727   0.0060588537
       -0.0161074922  -0.0197924580
       -0.1477054273   0.0079621397  -0.0632491021   0.5682674354  -0.1691426596
        0.0615338150  -0.2943536087   0.0822580064  -0.0509493564  -0.0383591118
        0.0399822163   0.0450359093   0.0082356181   0.0077270480   0.0020775296
       -0.0056061117  -0.0000502334  -0.0031131740   0.0029867660  -0.0026284749
        0.0024204601  -0.0003155493  -0.0000114115  -0.0006183028   0.0025790759
       -0.0015005940   0.0026583658  -0.0032710887   0.0006910648  -0.0033413386
        0.0023288984   0.0029898305   0.0009130257  -0.0085058056  -0.0085837570
       -0.0037207868   0.0041428331   0.0077779328   0.0018886167  -0.0030787890
       -0.0036971492   0.0007526852   0.0074910585   0.0036245601  -0.0016973468
       -0.0013569188  -0.0100093613   0.0003617399   0.0039328835   0.0082322334
        0.0007801218  -0.0032834275  -0.0025843595  -0.0003738036  -0.0039718181
       -0.0013738673   0.0004367195   0.0009660715  -0.0018064033   0.0013694317
       -0.0023285361   0.0008063068  -0.0014364081   0.0018559960   0.0006099273
        0.0005691590  -0.0002071963   0.0023134357  -0.0011267299   0.0041512541
       -0.0012148779   0.0026169113  -0.0029098578   0.0018601247  -0.0025840071
        0.0013288680   0.0013160468   0.0000665980  -0.0000652373  -0.0013622503
        0.0005430025   0.0039518782   0.0008565259   0.0015644823  -0.0040846860
        0.0002093676  -0.0020827125   0.0024410820  -0.0026881028   0.0006981287
       -0.0244896618   0.0096184373  -0.0046290565   0.0410143804  -0.0326190271
       -0.0268052063  -0.0185975671  -0.0039830124  -0.0223138291  -0.0743766765
        0.0553382238   0.0651298098  -0.0184512251   0.0065587095  -0.0044053270
       -0.0001198346  -0.0001408084   0.0001417976   0.0000204979  -0.0000796130
        0.0001324197  -0.0000256077  -0.0000434781   0.0000358649   0.0000167920
        0.0001171851  -0.0001087066  -0.0001166495   0.0002844136   0.0000582288
       -0.0003593677  -0.0001609389   0.0003358161  -0.0000859355   0.0000154667
       -0.0002963155  -0.0000690818   0.0000191344  -0.0003915679   0.0000270057
        0.0000503435   0.0002011543  -0.0001308472  -0.0001291259  -0.0001461981
       -0.0000384159  -0.0000252673  -0.0001307831  -0.0000281849   0.0000318889
        0.0000497729  -0.0001005939   0.0000151084   0.0001154059   0.0000023440
        0.0000065263   0.0000397404   0.0000591472  -0.0000453179  -0.0000109610
       -0.0000801603   0.0000200195  -0.0000621227   0.0000558255  -0.0000263778
       -0.0000489995  -0.0006081241  -0.0009129237   0.0000461052   0.0012253919
        0.0035271687   0.0010693237
       -0.0300235737  -0.0699534405  -0.0653514348  -0.1691426596   0.3058904507
        0.2060179472   0.1213785094  -0.0956921136   0.0037101527   0.0199173492
       -0.0187807479  -0.0170669784   0.0032047410   0.0006247493  -0.0041112444
        0.0009621282  -0.0002835083  -0.0003453194  -0.0004402696   0.0001764746
       -0.0001187715   0.0000740604   0.0000521363   0.0001399363  -0.0002821437
        0.0001345268  -0.0002942964   0.0004362012   0.0000331645   0.0004212983
       -0.0005714615  -0.0005971121  -0.0000290191   0.0005986370   0.0008550162
        0.0002675294  -0.0003867789  -0.0005156667  -0.0001690740   0.0001238278
        0.0003599624   0.0000573857  -0.0002243789  -0.0001177866  -0.0000623539
        0.0000441852   0.0003286221  -0.0002230444  -0.0001745595  -0.0006532203
        0.0002454469   0.0001684825   0.0002869188   0.0001037119   0.0002516755
        0.0000801719   0.0000412517  -0.0001174450   0.0001022032  -0.0001177338
        0.0001279821  -0.0000285680   0.0000630898  -0.0001602108   0.0000276241
       -0.0000512680   0.0000793070  -0.0001348829   0.0000967061  -0.0002202639
        0.0000700671  -0.0001952488   0.0002575787   0.0000001601   0.0001063091
       -0.0001051597  -0.0000594328  -0.0000212309   0.0000740904   0.0001560615
       -0.0000557680  -0.0003282140  -0.0001658017  -0.0000497132   0.0003399678
       -0.0000506831   0.0002148469  -0.0002971306   0.0000806529  -0.0001346819
        0.0038219543  -0.0016576591   0.0069773229  -0.0100420442  -0.0059512825
       -0.0200121956   0.0069827575   0.0023213220   0.0082299603   0.0545271351
       -0.1221985717  -0.1126026954  -0.0041583565   0.0025860418  -0.0005710031
       -0.0000145794   0.0000368250  -0.0000319997   0.0000059954   0.0000151487
       -0.0000379419  -0.0000176537  -0.0000144585  -0.0000255007  -0.0000082881
       -0.0000157117   0.0000206090   0.0000203607   0.0000194273  -0.0000551624
        0.0001940432  -0.0001100043  -0.0000396289   0.0000468936   0.0000102118
        0.0000824791   0.0000134517  -0.0000013099   0.0000234561   0.0000091915
       -0.0000179195   0.0000029738   0.0000061903   0.0000009922   0.0000440412
        0.0000221546  -0.0000226061   0.0000048045   0.0000062544  -0.0000213548
        0.0000245094  -0.0000087574  -0.0000111283  -0.0000092994  -0.0000005708
       -0.0000092405   0.0000009818  -0.0000190334  -0.0000090832  -0.0000229882
       -0.0000191359   0.0000150011  -0.0000249507   0.0000130454   0.0000108690
       -0.0000218235  -0.0001443193   0.0000846404   0.0003994201   0.0031988372
        0.0027138530  -0.0054438000
       -0.1320575013  -0.0354984105  -0.2107822577   0.0615338150   0.2060179472
        0.5270886922   0.0148766311  -0.0277682986  -0.0796265883   0.0087476513
       -0.0007571748   0.0074822576   0.0026658878  -0.0012898952  -0.0017555330
       -0.0039012105   0.0011244313  -0.0011970540   0.0013772325  -0.0021470610
        0.0013540631   0.0002809297   0.0007415434  -0.0002468284   0.0018239818
       -0.0015949586   0.0019753663  -0.0020276884   0.0008546144  -0.0023076615
        0.0013822326   0.0013119324   0.0003401225  -0.0047721233  -0.0076342151
       -0.0029044580   0.0033474617   0.0061851610   0.0014372315  -0.0020695077
       -0.0029763885   0.0005979092   0.0056613855   0.0030431086  -0.0013473047
       -0.0010143914  -0.0081578267   0.0001693997   0.0024266878   0.0063439817
        0.0007048792  -0.0025029330  -0.0018578259  -0.0001550333  -0.0028403113
       -0.0009631496   0.0003863294   0.0005201792  -0.0013326588   0.0009257178
       -0.0016900309   0.0006207040  -0.0010600829   0.0012129694   0.0005229178
        0.0003751953  -0.0000366278   0.0016408231  -0.0007317533   0.0030007338
       -0.0008320143   0.0017958981  -0.0019127355   0.0014442066  -0.0018722664
        0.0009279994   0.0009646971   0.0000054207   0.0000528871  -0.0008788824
        0.0003621330   0.0027503305   0.0004539684   0.0011574951  -0.0028302606
        0.0001314623  -0.0014012880   0.0016739344  -0.0019845264   0.0005059784
       -0.0107858271   0.0117022473   0.0033577156   0.0148097940  -0.0381708282
       -0.0541735579  -0.0028602156  -0.0001262245  -0.0023330132   0.0652529017
       -0.1120713223  -0.1834003322  -0.0229416631   0.0085538878  -0.0036023371
       -0.0001105825  -0.0000652830   0.0000982396   0.0000129318  -0.0000558844
        0.0000527273  -0.0000591099  -0.0000702459  -0.0000020978  -0.0000305266
        0.0000253730  -0.0000453586   0.0001325519   0.0002646354   0.0000230132
       -0.0000424781  -0.0002923090   0.0002284733  -0.0000067201   0.0000285786
       -0.0001862387  -0.0000585286   0.0000343785  -0.0003251503   0.0000294686
        0.0000239369   0.0001688190  -0.0000667244  -0.0000789992  -0.0000061617
        0.0000261422  -0.0000671791  -0.0000747905  -0.0000040326  -0.0000181198
        0.0000839694  -0.0000953017  -0.0000062275   0.0000854945   0.0000075973
       -0.0000179766   0.0000242518   0.0000123603  -0.0000509620  -0.0000405467
       -0.0000965751   0.0000372436  -0.0000941711   0.0000618895  -0.0000033990
       -0.0000631679  -0.0004497265  -0.0001387870   0.0005176233   0.0006547655
       -0.0051647468  -0.0015693830
       -0.0524862657  -0.0133871029  -0.0668398827  -0.2943536087   0.1213785094
        0.0148766311   0.5990669484  -0.1564788252   0.1149767329  -0.0836523961
        0.0299970556   0.0174785996  -0.0300250290   0.0218311196   0.0192256495
        0.0039378919   0.0022469225   0.0055149722  -0.0026161333   0.0024490601
       -0.0020451771   0.0006406765   0.0003745951   0.0006909526  -0.0027147298
        0.0012516052  -0.0027672562   0.0037802664  -0.0004059531   0.0038739869
       -0.0044904261  -0.0038486184  -0.0008650191   0.0012854000   0.0066820679
        0.0040112312  -0.0032682789  -0.0066225342  -0.0016304668   0.0025712054
        0.0028366892  -0.0003903027  -0.0056629995  -0.0026009983   0.0011528438
        0.0003901843   0.0072107458  -0.0003480045  -0.0041421561  -0.0043839171
       -0.0004218980   0.0030408133   0.0022999978   0.0005865834   0.0035231719
        0.0013795740  -0.0005060952  -0.0008741110   0.0014848591  -0.0011912219
        0.0020042410  -0.0006384407   0.0011079763  -0.0016858123  -0.0005239386
       -0.0004461079   0.0002624975  -0.0019623957   0.0010050437  -0.0035091453
        0.0009722898  -0.0022983098   0.0026407419  -0.0014032937   0.0021170016
       -0.0011879218  -0.0011737683  -0.0000534145   0.0001154346   0.0013713267
       -0.0005214692  -0.0035823279  -0.0010050903  -0.0013180890   0.0036593676
       -0.0001935886   0.0018891450  -0.0022039684   0.0022234300  -0.0005832965
        0.0272706886  -0.0126752858   0.0045912891  -0.0229562989   0.0158458184
        0.0137301576  -0.0005985020   0.0009648934  -0.0040965248  -0.0126799409
        0.0061733598   0.0016077986  -0.1207238168  -0.0229968733  -0.1182596476
        0.0000988738   0.0000480256  -0.0000199401   0.0000166290   0.0000589598
       -0.0001094226   0.0000353594   0.0000449455  -0.0000103725  -0.0000492762
       -0.0000929910   0.0001480363  -0.0009936328  -0.0009073816   0.0002270160
        0.0005412107   0.0001390364  -0.0002958930   0.0001254530   0.0000351986
        0.0003704243   0.0000447273   0.0000447361   0.0002195326  -0.0000878299
        0.0001130525  -0.0001497580  -0.0000114827   0.0001708958   0.0000768187
        0.0000570856  -0.0000348432   0.0000871075   0.0000141802  -0.0000339789
       -0.0000226994   0.0000886199  -0.0000317103  -0.0001056327  -0.0000200615
       -0.0000154801  -0.0000334762  -0.0000780411   0.0000362132   0.0000081983
        0.0000504154  -0.0000073820   0.0000498267  -0.0000365514   0.0000083263
        0.0000647032  -0.0006656841   0.0011203918  -0.0047977933   0.0000943444
        0.0006306902   0.0004389125
        0.0157220893   0.0100362186   0.0273170567   0.0822580064  -0.0956921136
       -0.0277682986  -0.1564788252   0.2755828312   0.1716651219   0.0402327422
       -0.1163769789  -0.0836022177   0.0298616091  -0.0112085370  -0.0064183164
       -0.0073715897  -0.0026507190  -0.0034924074   0.0041357676  -0.0015642199
        0.0028596967  -0.0015940888  -0.0019523507  -0.0012252317   0.0020458161
        0.0003597275   0.0017201261  -0.0029363741  -0.0000904200  -0.0026163834
        0.0015633589   0.0039237286   0.0013710244  -0.0039533364  -0.0042283343
       -0.0038120480   0.0028710173   0.0052695363   0.0014633399  -0.0033160963
       -0.0017378360   0.0007777266   0.0062111091   0.0020973921  -0.0011818428
       -0.0001721117  -0.0067729103   0.0008419382   0.0056465917   0.0054482231
       -0.0012505205  -0.0035826234  -0.0031637327  -0.0004799889  -0.0037097339
       -0.0014965205   0.0004868319   0.0007636232  -0.0019116790   0.0011547566
       -0.0020505384   0.0009887758  -0.0011752093   0.0013155637   0.0005150453
        0.0001948874   0.0002115820   0.0017221623  -0.0007339015   0.0034700339
       -0.0005804708   0.0021795648  -0.0024138943   0.0012675754  -0.0019720466
        0.0009080681   0.0015898448  -0.0002363825   0.0000091586  -0.0019714211
        0.0007974193   0.0042081772   0.0012734666   0.0015233047  -0.0041790451
       -0.0000339225  -0.0020528422   0.0024708487  -0.0023379528   0.0004980284
       -0.0179570134  -0.0035209059  -0.0265132359   0.0110769591  -0.0086793595
        0.0004301808   0.0009545490   0.0046804512  -0.0033001507   0.0172494138
       -0.0073832815  -0.0011467969  -0.0226913799  -0.0453245807  -0.0433160886
       -0.0001463517   0.0000228430   0.0000581000  -0.0000075008  -0.0000306361
        0.0001927919  -0.0000132066  -0.0000240108  -0.0000641371   0.0000255818
        0.0001734984  -0.0000885611  -0.0003788439   0.0006214934  -0.0000298771
       -0.0005576095  -0.0001164786  -0.0000450407  -0.0000960343  -0.0000021514
       -0.0003254724  -0.0000557266   0.0000295657  -0.0003015215   0.0000458821
       -0.0000410550   0.0000902370  -0.0000255952  -0.0001222438  -0.0000750501
       -0.0000582638   0.0000243721  -0.0000403748  -0.0000009694   0.0000159792
        0.0000214991  -0.0001051729   0.0000278711   0.0001211411  -0.0000068515
        0.0000049254   0.0000609923   0.0000370359  -0.0000417964  -0.0000232244
       -0.0000791347   0.0000355215  -0.0000772729   0.0000485603   0.0000168126
       -0.0000737109   0.0006516292   0.0040573363  -0.0027381477  -0.0000568625
       -0.0007285788   0.0003505346
       -0.0180855510   0.0048270366  -0.0055013886  -0.0509493564   0.0037101527
       -0.0796265883   0.1149767329   0.1716651219   0.5141173371   0.0539234703
       -0.1038305284  -0.1802966903   0.0152110581   0.0015013694   0.0048458083
       -0.0056670979  -0.0015452851  -0.0027069724   0.0037495473  -0.0010728616
        0.0025187958  -0.0017668026  -0.0023224023  -0.0010969236   0.0016154499
        0.0008769599   0.0012358193  -0.0025860272  -0.0004609073  -0.0024859168
        0.0021583808   0.0040994356   0.0012923736  -0.0064133171  -0.0051515813
       -0.0027420132   0.0025567285   0.0038847917   0.0015820700  -0.0032535419
       -0.0013225121   0.0006673409   0.0053274363   0.0014266761  -0.0009338597
       -0.0003108568  -0.0050716781   0.0007796844   0.0052221013   0.0047682435
       -0.0008678350  -0.0030173005  -0.0025285565  -0.0005284454  -0.0032114152
       -0.0014430003   0.0004696255   0.0006462094  -0.0015811513   0.0010995345
       -0.0018014391   0.0008336292  -0.0009224697   0.0011558185   0.0004434750
        0.0001114291   0.0001358745   0.0013942565  -0.0005739219   0.0031139988
       -0.0003629150   0.0019110414  -0.0021494430   0.0011494545  -0.0017297880
        0.0008359898   0.0013427880  -0.0002133323   0.0000262571  -0.0016793819
        0.0006240044   0.0036152532   0.0011186089   0.0013361580  -0.0036163218
        0.0000177633  -0.0017897272   0.0020932073  -0.0020234655   0.0004486856
       -0.0137303822  -0.0169527456  -0.0439584308   0.0055363616   0.0038866396
        0.0068718669  -0.0042651155  -0.0031663659  -0.0021351951   0.0205525583
       -0.0094315227  -0.0002041038  -0.1182033206  -0.0430693496  -0.2105648287
       -0.0000297981  -0.0001393968   0.0001315110  -0.0000333332  -0.0000525080
        0.0001799404   0.0000035260  -0.0001088453  -0.0000568492   0.0000750745
        0.0000886313  -0.0000526519   0.0008122322   0.0006660905   0.0001914875
       -0.0005866776  -0.0002511170  -0.0000131523  -0.0001079907   0.0000131162
       -0.0004660893  -0.0000287572  -0.0000151825  -0.0001159192  -0.0000052859
        0.0000728971   0.0001478941  -0.0000620317  -0.0001514446  -0.0000824808
       -0.0000616668  -0.0000006820   0.0000152527   0.0000213687  -0.0000107295
        0.0000487429  -0.0001041520   0.0000349557   0.0001235153   0.0000300639
        0.0000074809   0.0000402315   0.0000404089  -0.0000581654  -0.0000508030
       -0.0000991999   0.0000343345  -0.0001022220   0.0000667034   0.0000043312
       -0.0000993431  -0.0035032140  -0.0034641329  -0.0018003425   0.0001475845
       -0.0005998251   0.0009281340
        0.0151225316  -0.0098081638   0.0004504686  -0.0383591118   0.0199173492
        0.0087476513  -0.0836523961   0.0402327422   0.0539234703   0.5211279799
       -0.1235911715   0.0874956117  -0.2028778323   0.0674559588  -0.0149707403
       -0.0426956992  -0.0029793854  -0.0232772688   0.0065789713  -0.0042191534
        0.0049128461  -0.0026349973  -0.0023159783  -0.0027640106   0.0036572077
        0.0002589799   0.0031710911  -0.0050931829   0.0000782320  -0.0047777994
        0.0025056072   0.0091597806   0.0033497985  -0.0222582987   0.0068050655
        0.0089384859   0.0055114637   0.0111779544   0.0013799398  -0.0020331559
       -0.0072845283  -0.0005025219   0.0082073807   0.0059519650  -0.0013764506
       -0.0012872026  -0.0145650202   0.0009347447   0.0044827932   0.0146190856
       -0.0002883805  -0.0057119280  -0.0060660047  -0.0009367812  -0.0065869237
       -0.0011508307   0.0006016634   0.0016578356  -0.0033737729   0.0016396895
       -0.0029127768   0.0015687372  -0.0020848955   0.0022292621   0.0006776050
        0.0005523312   0.0002401954   0.0030670316  -0.0015586568   0.0046407151
       -0.0017295925   0.0033877795  -0.0037994706   0.0017294603  -0.0029960828
        0.0014963368   0.0024409628  -0.0002104750  -0.0000273902  -0.0031401480
        0.0013351713   0.0069452444   0.0020882600   0.0024732475  -0.0068128950
        0.0001016600  -0.0035675740   0.0043075146  -0.0038054657   0.0010482406
       -0.1137678934  -0.0214057025  -0.1028362258  -0.0541662717   0.0170899738
       -0.0135911679   0.0010676461  -0.0001779793  -0.0001765877  -0.0033034999
        0.0051328584  -0.0020383168   0.0055637855  -0.0078975750  -0.0137384572
       -0.0002438872  -0.0004237304   0.0002108103   0.0000218068  -0.0002948548
        0.0003988559   0.0000957875   0.0000842381   0.0002579243   0.0003190957
        0.0004998466  -0.0002306966  -0.0000568232   0.0001544888   0.0003612959
        0.0005788436  -0.0010963542   0.0002283535  -0.0000445121  -0.0002935672
       -0.0004207555  -0.0000592601   0.0000061439  -0.0006829544   0.0001129124
       -0.0000771191   0.0002254196   0.0003198184   0.0000135797   0.0005391180
       -0.0000225062   0.0001212449  -0.0001539398  -0.0000437877   0.0001088882
        0.0000332668  -0.0001464234   0.0000293795   0.0001594977  -0.0001069740
       -0.0000267945   0.0001420934   0.0000274123  -0.0000601170   0.0000247246
       -0.0000680629   0.0000327710  -0.0000589926   0.0000973515  -0.0000531065
        0.0000253099   0.0052611699   0.0011873662   0.0076423129  -0.0034035062
        0.0040445069  -0.0013514820
       -0.0083366711  -0.0060495980  -0.0051365443   0.0399822163  -0.0187807479
       -0.0007571748   0.0299970556  -0.1163769789  -0.1038305284  -0.1235911715
        0.3058870425   0.1905976145   0.0541011959  -0.0885757173  -0.0184475553
       -0.0023161095   0.0130016031   0.0098998117  -0.0055729900  -0.0007340536
       -0.0036243674   0.0020787125   0.0027025969   0.0000974260  -0.0006733647
       -0.0018183222  -0.0002108645   0.0019479303   0.0005696216   0.0000735044
       -0.0033240881  -0.0049910643  -0.0025640852   0.0279718574  -0.0166180123
       -0.0047221413   0.0014681832  -0.0014185173   0.0005407006   0.0021037577
       -0.0008697344  -0.0006598868  -0.0022011738   0.0003124292   0.0001281298
        0.0004747189   0.0003011159  -0.0007031220  -0.0032818634  -0.0036316010
        0.0000471380   0.0010281521   0.0010187936   0.0009983232   0.0014486468
        0.0010038751  -0.0006459244  -0.0002092172   0.0008620351  -0.0002298708
        0.0006677655  -0.0005107571   0.0004198117  -0.0004645402  -0.0001625712
        0.0000226367  -0.0002679356  -0.0006126712   0.0003090563  -0.0010891057
        0.0001468574  -0.0008815483   0.0008740005  -0.0002701548   0.0006334640
       -0.0001006204  -0.0008289749   0.0002393001  -0.0000683570   0.0012831191
       -0.0005233237  -0.0020046140  -0.0008589112  -0.0006889259   0.0018876693
        0.0001334716   0.0009228348  -0.0009189384   0.0008491918   0.0000460619
       -0.0052690571  -0.0704870816  -0.0422873825  -0.0068403208   0.0059501665
        0.0067417868  -0.0004088570   0.0001050849  -0.0003501289   0.0039785934
        0.0050018670  -0.0023081780   0.0005879219  -0.0035289458  -0.0062623725
        0.0001095008  -0.0001077776   0.0003054074  -0.0001220198  -0.0000516277
       -0.0002876201  -0.0002155044  -0.0000065540   0.0001923795  -0.0001516648
       -0.0002294107   0.0000789632  -0.0011009802  -0.0006277508   0.0005060982
        0.0005444944  -0.0019463895   0.0007198900   0.0000197278   0.0001896439
        0.0000100496  -0.0000194434   0.0000338742   0.0000439891   0.0000200007
       -0.0001615264  -0.0000272803  -0.0001498982   0.0000309055  -0.0001583933
        0.0001036482  -0.0000781299   0.0000296907   0.0000138408  -0.0000548932
        0.0000180854   0.0000282452  -0.0000360990  -0.0000462560   0.0000409161
       -0.0000314621  -0.0000755361  -0.0000154551   0.0000119363   0.0000018929
        0.0000101015   0.0000014515   0.0000055806  -0.0000237409  -0.0000049059
        0.0000169368  -0.0080235109  -0.0044048022  -0.0154633728   0.0052723601
        0.0054690617  -0.0027541802
       -0.0007440726  -0.0059642695  -0.0152674823   0.0450359093  -0.0170669784
        0.0074822576   0.0174785996  -0.0836022177  -0.1802966903   0.0874956117
        0.1905976145   0.4845712895  -0.0149805966  -0.0115966057  -0.0491710526
       -0.0198489689   0.0035648253  -0.0086823988  -0.0046194389  -0.0031474468
       -0.0012752684   0.0004503743   0.0017073917  -0.0004815197   0.0001714392
       -0.0011948888   0.0004252797   0.0000870232   0.0005493694  -0.0002753298
        0.0001214305   0.0002985718  -0.0006755825   0.0120142405  -0.0064413495
       -0.0005245879   0.0004260842   0.0011667821  -0.0007839190   0.0005295047
       -0.0005897125   0.0000995673   0.0002193343   0.0009625605  -0.0005306153
        0.0004231213  -0.0016254712  -0.0010558786  -0.0012852591  -0.0044344569
        0.0027923749   0.0008477679   0.0019427974  -0.0005213399   0.0007810061
       -0.0004738764   0.0007054810  -0.0002246896   0.0006725113  -0.0000257942