$hessian                                                                        
        0.4714570230   0.0120218904  -0.0052921827  -0.2082640133   0.0359830094
       -0.0127457049  -0.0215578231   0.0082507548   0.0037661646   0.0011832691
        0.0022241651   0.0016067588  -0.0007698787   0.0000304196  -0.0001000185
        0.0003091688  -0.0002252049   0.0001584621  -0.0002748380   0.0000402442
        0.0000065754   0.0000428187  -0.0000071767  -0.0000045674   0.0000266029
        0.0000484461   0.0000508332  -0.0000257812   0.0000230258  -0.0000501843
       -0.0000176685   0.0000479101  -0.0000035820  -0.0000116090   0.0000288196
       -0.0000187110   0.0000104098  -0.0000109336   0.0000216290   0.0000295205
        0.0000028868   0.0000092997   0.0000306842  -0.0000142331   0.0000500604
        0.0000147871   0.0000401706   0.0000533746   0.0001241217  -0.0000585459
       -0.0000216179  -0.0000166549   0.0000341047   0.0000069464  -0.0000046752
       -0.0000004120   0.0000033206   0.0000030702   0.0000033497  -0.0000098354
       -0.0000008928   0.0000025978   0.0000023118   0.0000103867  -0.0000001213
        0.0000066555   0.0000002522  -0.0000099266  -0.0000058561  -0.0000043644
       -0.0000062900  -0.0000014179   0.0000127419  -0.0000019502   0.0000083842
        0.0000120810  -0.0000132365   0.0000172270  -0.0000504972   0.0000146237
       -0.0000207761   0.0001523276  -0.0000518795   0.0000156918  -0.0001161838
       -0.0000016523   0.0000172130   0.0000368373   0.0000995170  -0.0000069489
        0.0000870517  -0.0000257069   0.0000065766  -0.0000264481   0.0000153668
       -0.0000067855  -0.0000000122   0.0000460347  -0.0000413064   0.0001146769
       -0.0000565829   0.0000216523  -0.0001492006   0.0000053658   0.0000285435
        0.0000207482   0.0000602355  -0.0000551757  -0.0000661719  -0.0000084318
        0.0000244026   0.0000982867  -0.0001072614   0.0000623378   0.0000138784
        0.0001832632  -0.0001803376  -0.0001291514  -0.0000871122   0.0001895420
        0.0000909680   0.0000045019  -0.0000171953   0.0000202401  -0.0000557462
        0.0000460651  -0.0001933116  -0.0000089611  -0.0000030904   0.0000383896
        0.0000297433   0.0000061010   0.0000151472  -0.0000520998  -0.0000535168
        0.0000286029  -0.0000147931  -0.0000423028  -0.0000477104  -0.0000407045
       -0.0000030834   0.0000091408  -0.0000008750   0.0000086037  -0.0000561254
       -0.0000119494   0.0000713727  -0.0000128765  -0.0000486873  -0.0000479740
        0.0004234694  -0.0003196013  -0.0030804188  -0.0243352931   0.0028372588
       -0.0073723361  -0.0398491956   0.0155748263  -0.0099751224  -0.1002138169
       -0.0885269134  -0.0516498054  -0.0784073211   0.0122820937   0.0844056853
        0.0007994644  -0.0009206879  -0.0009673126  -0.0006729050   0.0001765088
       -0.0001101138  -0.0000115268   0.0000072119  -0.0000782407  -0.0000051470
       -0.0000249475   0.0000079647  -0.0000022126  -0.0000101869   0.0000123323
        0.0000044909   0.0000062779   0.0000063002  -0.0000197550   0.0000110583
       -0.0000081869   0.0000023634  -0.0000369458  -0.0000113477  -0.0000099373
       -0.0000327492  -0.0000012183  -0.0000051593   0.0000019748  -0.0000024140
       -0.0000024828   0.0000040940   0.0000041857  -0.0000106512  -0.0000179547
       -0.0000299304  -0.0000034144  -0.0000027271  -0.0000131166  -0.0000051852
        0.0000086968  -0.0000147170  -0.0000016916  -0.0000070699   0.0000063257
       -0.0000083016   0.0000018509  -0.0000068758   0.0000023031   0.0000030450
       -0.0000026972  -0.0000081645  -0.0000078744  -0.0000005663   0.0000041150
        0.0000013230  -0.0000010865  -0.0000074481  -0.0000091657  -0.0000033725
        0.0000019076   0.0000057393   0.0000013237   0.0000018516   0.0000060415
       -0.0000019712  -0.0000184438  -0.0000026176  -0.0000147957   0.0000004003
        0.0000041725  -0.0000006041   0.0000149872  -0.0000317040   0.0000021440
       -0.0000020587  -0.0000078182  -0.0000097979  -0.0000125770   0.0000177983
       -0.0000074967   0.0000100973   0.0000089238  -0.0000048063  -0.0000081943
        0.0000171825  -0.0000071580  -0.0000187874   0.0000025526   0.0000014980
       -0.0000095408  -0.0000070190   0.0000111508   0.0000075747  -0.0000103541
       -0.0000206078  -0.0000003593  -0.0000036888  -0.0000278529   0.0000008821
       -0.0000106226   0.0000002191   0.0000043338   0.0000115534   0.0000086344
        0.0000061861   0.0000199829   0.0000213380   0.0000009754   0.0000194566
       -0.0000141261   0.0000124277   0.0000012771   0.0000194803   0.0000051522
        0.0000091047  -0.0000005952   0.0000173492   0.0000249609  -0.0000205628
       -0.0000177094  -0.0000020280   0.0000647186  -0.0008156420   0.0002449616
       -0.0000659515   0.0009652453   0.0003627758   0.0014179697
        0.0120218904   0.4926272768   0.0202664961   0.0324514564  -0.0686933863
       -0.0001348564   0.0174195125  -0.0050792639  -0.0018112228   0.0014637091
        0.0033190043  -0.0049173348   0.0002413486  -0.0001116332   0.0002840748
       -0.0004449993  -0.0009859224   0.0006580702  -0.0002121843  -0.0000106171
       -0.0000262446   0.0000236436   0.0000067221   0.0000568770   0.0000007304
        0.0000244462  -0.0000639588   0.0000504937  -0.0000345370   0.0000345216
        0.0000125042   0.0000016588   0.0000226846   0.0000419300  -0.0000043947
        0.0000143572   0.0000328164   0.0000404273   0.0000035056   0.0000021127
        0.0000158171   0.0000047430  -0.0000007414   0.0000103688  -0.0000101107
       -0.0000113673   0.0000119404  -0.0000118188   0.0000104800  -0.0000166821
       -0.0000574782  -0.0000060900  -0.0000268349   0.0000030360   0.0000131334
        0.0000242566  -0.0000051290  -0.0000049894  -0.0000048178   0.0000073830
        0.0000039693   0.0000010283   0.0000002387  -0.0000019455  -0.0000026198
       -0.0000051620   0.0000058181   0.0000018639   0.0000041744   0.0000096614
        0.0000021850   0.0000030150  -0.0000121444  -0.0000142292  -0.0000014268
        0.0000205592   0.0000203446   0.0000093235   0.0000477202  -0.0000318723
        0.0000216603  -0.0000055331  -0.0000311318  -0.0000525349   0.0000296545
       -0.0000388793   0.0000107429   0.0000144393   0.0000001807   0.0000030822
       -0.0000290936  -0.0000060951   0.0000038865   0.0000312495   0.0000097504
       -0.0000182232  -0.0000157844   0.0000096151  -0.0000066614   0.0000188168
        0.0000003164  -0.0000103542  -0.0000143528   0.0000115614  -0.0000096122
       -0.0000180486   0.0000015168   0.0000000225  -0.0000286289  -0.0000093716
        0.0000126828   0.0000119367   0.0000039904  -0.0000050000  -0.0000611256
        0.0000028177   0.0000223769   0.0000114477  -0.0000034254  -0.0000164650
        0.0000728799  -0.0000230185  -0.0000000161  -0.0000356834   0.0000082594
        0.0000246817   0.0002990293  -0.0000770540   0.0000166071  -0.0000591672
       -0.0000060804   0.0000099387  -0.0000065229   0.0000157240   0.0000159427
       -0.0000252028   0.0000068530   0.0000281279   0.0000097415   0.0000350000
        0.0000129177  -0.0000230583   0.0000275119  -0.0000074879  -0.0000335767
       -0.0000119373  -0.0000133886   0.0000106093   0.0000318329  -0.0000065169
        0.0000314848   0.0048655517  -0.0044305254  -0.0069045187   0.0033930947
       -0.0008739071   0.0200533816  -0.2039986526   0.1055459912  -0.0887127173
       -0.1737386992  -0.0822387358   0.0130238959  -0.0487324611  -0.0351234500
        0.0002885492  -0.0013220635   0.0016517471   0.0008047135  -0.0002155483
       -0.0000321315  -0.0000099122  -0.0000117592   0.0000315288  -0.0000237547
        0.0000226942  -0.0000366393  -0.0000141547   0.0000046198  -0.0000213355
       -0.0000065608  -0.0000086070  -0.0000116126  -0.0000176835  -0.0000112681
        0.0000059205  -0.0000082181   0.0000052853   0.0000049707   0.0000003427
        0.0000051173  -0.0000006219  -0.0000093181  -0.0000072772   0.0000063000
       -0.0000088117  -0.0000100882  -0.0000056482  -0.0000015258   0.0000130389
        0.0000038120  -0.0000014104   0.0000062054  -0.0000009466  -0.0000039972
       -0.0000042994  -0.0000006637  -0.0000008494   0.0000025698  -0.0000060723
        0.0000004358  -0.0000008644   0.0000006355  -0.0000004323  -0.0000019150
        0.0000006938   0.0000017416   0.0000030783   0.0000009009  -0.0000042457
        0.0000018764   0.0000021836   0.0000008621   0.0000033673   0.0000004878
       -0.0000018472  -0.0000018588   0.0000002327  -0.0000021622  -0.0000014722
       -0.0000006917   0.0000044047   0.0000011416   0.0000029319  -0.0000021969
       -0.0000008423  -0.0000052457  -0.0000126954   0.0000188634  -0.0000124874
        0.0000019647   0.0000052466  -0.0000029220   0.0000057029  -0.0000049504
        0.0000047030  -0.0000076009  -0.0000070576   0.0000059028   0.0000053547
       -0.0000100465   0.0000078889   0.0000143405  -0.0000032811  -0.0000007976
        0.0000086255   0.0000076195  -0.0000080014  -0.0000066327   0.0000013840
        0.0000041142   0.0000017659  -0.0000037779   0.0000071548  -0.0000050935
        0.0000106668  -0.0000103729   0.0000100698   0.0000048982  -0.0000084127
        0.0000141520  -0.0000039088  -0.0000166970   0.0000065940   0.0000015232
        0.0000004580   0.0000213007  -0.0000033703   0.0000079139   0.0000058729
       -0.0000110066  -0.0000031966   0.0000268982   0.0000159924  -0.0000175398
        0.0000010270  -0.0000153192  -0.0000201406  -0.0005703843   0.0000071974
       -0.0001035322  -0.0013298112  -0.0013191038   0.0013316882
       -0.0052921827   0.0202664961   0.5164670783  -0.0093952452  -0.0007137854
       -0.0651291307   0.0197298529  -0.0063971547   0.0009379944   0.0008648296
       -0.0052149223  -0.0008868897  -0.0001595440   0.0001103713  -0.0000429490
        0.0002692832   0.0006400087  -0.0002051627   0.0001254052  -0.0000165275
        0.0000195723   0.0000156951  -0.0000058953  -0.0000266209  -0.0000250306
       -0.0000448741  -0.0000279541  -0.0000415978   0.0000215120  -0.0000245451
       -0.0000042765   0.0000117773  -0.0000042521   0.0000037052   0.0000096666
       -0.0000273754   0.0000147418   0.0000030307  -0.0000150075   0.0000024664
       -0.0000037431  -0.0000023384   0.0000090867   0.0000138209   0.0000279909
        0.0000107351  -0.0000144757   0.0000339260   0.0000176767   0.0000207805
        0.0000125464   0.0000032817   0.0000088282  -0.0000026540  -0.0000118028
       -0.0000098797  -0.0000016904  -0.0000041960   0.0000022980  -0.0000032936
        0.0000004697  -0.0000002576   0.0000007197   0.0000037284  -0.0000002192
        0.0000008019  -0.0000030469  -0.0000024379  -0.0000043218  -0.0000030342
       -0.0000021887  -0.0000032954   0.0000069543   0.0000071155   0.0000060129
       -0.0000100124  -0.0000099114  -0.0000029929  -0.0000363657   0.0000288365
       -0.0000111663  -0.0000148096   0.0000422076   0.0000262463  -0.0000154073
        0.0000053503  -0.0000083691   0.0000038752   0.0000106893   0.0000067122
        0.0000114718   0.0000029070  -0.0000000665  -0.0000178604  -0.0000101797
        0.0000144255   0.0000101467  -0.0000030794   0.0000005001  -0.0000136488
       -0.0000037994   0.0000038210   0.0000129658  -0.0000075230   0.0000041849
        0.0000118301  -0.0000069959   0.0000016012   0.0000147653   0.0000108294
       -0.0000112462  -0.0000049200  -0.0000082894   0.0000042901   0.0000296043
        0.0000017810  -0.0000174973  -0.0000032513   0.0000058973   0.0000106829
       -0.0000391546   0.0000186370   0.0000049867   0.0000155350   0.0000023170
       -0.0000165975  -0.0001943731   0.0000372613  -0.0000109895  -0.0000049069
        0.0000026785  -0.0000043395  -0.0000022981  -0.0000123575   0.0000170588
        0.0000195684   0.0000143067   0.0000015784  -0.0000010710  -0.0000053877
       -0.0000042571  -0.0000046534   0.0000069420  -0.0000052703   0.0000232465
       -0.0000068695  -0.0000158797   0.0000236915  -0.0000282307  -0.0000479579
       -0.0020433933  -0.0041078794  -0.0016268914  -0.0232965232   0.0037876434
       -0.0043367634  -0.0129735133   0.1058640205  -0.1106122616  -0.0525278217
       -0.0819228047  -0.0934848111   0.0844692830  -0.0352276807  -0.2416693723
        0.0015813236   0.0013546466   0.0004176563   0.0011668937  -0.0002807793
       -0.0000970606  -0.0000164855  -0.0000134420  -0.0000003427   0.0000185240
       -0.0000157572   0.0000195993   0.0000068947  -0.0000009180   0.0000139054
       -0.0000060084   0.0000053752   0.0000099004  -0.0000199375   0.0000007310
        0.0000173936  -0.0000024688  -0.0000137856   0.0000071593  -0.0000007469
       -0.0000076190   0.0000039054  -0.0000048029  -0.0000001572   0.0000033517
        0.0000024345   0.0000056053   0.0000031457   0.0000009627  -0.0000016554
        0.0000007051   0.0000045213   0.0000067046   0.0000076429   0.0000017475
       -0.0000008646  -0.0000005164   0.0000009957  -0.0000017771   0.0000032889
        0.0000002378   0.0000013826   0.0000002897   0.0000013335   0.0000004230
        0.0000005366  -0.0000015879  -0.0000011347  -0.0000009442   0.0000015431
        0.0000006734  -0.0000010091  -0.0000019162  -0.0000016394  -0.0000002103
        0.0000005919   0.0000023130   0.0000006648   0.0000014197   0.0000019136
        0.0000000280  -0.0000005477   0.0000004222  -0.0000032034   0.0000072453
        0.0000016916   0.0000030308  -0.0000022324  -0.0000104758  -0.0000040013
        0.0000026785  -0.0000092723  -0.0000003920  -0.0000012810   0.0000030775
       -0.0000035101   0.0000045731   0.0000044226  -0.0000052008  -0.0000031008
        0.0000067104  -0.0000063054  -0.0000085427   0.0000014038  -0.0000003210
       -0.0000059073  -0.0000049638   0.0000041382   0.0000037829  -0.0000025992
       -0.0000044232  -0.0000032804  -0.0000004432  -0.0000077642   0.0000014529
       -0.0000079352   0.0000054592  -0.0000122612   0.0000047116   0.0000119485
       -0.0000053317   0.0000074674   0.0000127170  -0.0000036146  -0.0000078052
        0.0000099304   0.0000089681  -0.0000094815  -0.0000035446  -0.0000031374
        0.0000086983   0.0000055203  -0.0000171559  -0.0000019246   0.0000312340
       -0.0000051489  -0.0000187423   0.0000334639  -0.0012085951   0.0001730133
       -0.0002094794  -0.0010639884   0.0016511244   0.0004130929
       -0.2082640133   0.0324514564  -0.0093952452   0.6043042057  -0.0947278920
        0.0585437238  -0.1332923732   0.0806926432   0.0992535491  -0.0288208336
        0.0192371846   0.0199452602   0.0060259919  -0.0041753940  -0.0018826248
       -0.0017625423   0.0003477810  -0.0000582313   0.0006861439   0.0000516848
        0.0002482019  -0.0000685003   0.0001259748  -0.0000215791   0.0000345199
       -0.0000649958  -0.0001431357   0.0000789431  -0.0000441394   0.0000744979
        0.0000041576  -0.0000875478  -0.0000014189   0.0000118873   0.0000177075
        0.0000480552  -0.0000351663   0.0000500886  -0.0000292267  -0.0000252764
        0.0000300340  -0.0000114509  -0.0000291025   0.0000438392  -0.0000524213
       -0.0000546386   0.0000008343  -0.0000753621  -0.0002407100   0.0002360259
       -0.0000159792  -0.0000051676  -0.0000496812  -0.0000416889   0.0000350448
        0.0000311224  -0.0000037796  -0.0000009218  -0.0000152928   0.0000201065
       -0.0000051677  -0.0000089535   0.0000009424  -0.0000049839   0.0000068824
       -0.0000126564   0.0000070769   0.0000117967   0.0000000861   0.0000097289
        0.0000123204  -0.0000024782  -0.0000176234   0.0000057813  -0.0000137275
        0.0000054798   0.0000391009  -0.0000057652   0.0002521628  -0.0002134017
        0.0000309363  -0.0002021852   0.0000571559  -0.0000505492   0.0002637944
       -0.0000024952  -0.0000238489  -0.0001379190  -0.0001877618   0.0000259573
       -0.0001236111   0.0000349582  -0.0000076512   0.0000769990  -0.0000478635
       -0.0000103274  -0.0000040245  -0.0000118709   0.0000199853  -0.0000728548
        0.0000489777  -0.0000212691   0.0001330891   0.0000256716  -0.0000493061
       -0.0000423614  -0.0000758714   0.0000741623  -0.0000137356   0.0000187219
       -0.0000153420  -0.0000366473   0.0000431611  -0.0000219748  -0.0001490018
       -0.0000809466   0.0001503200   0.0001017505   0.0000538958  -0.0001832574
        0.0001018861  -0.0000116735  -0.0000073117  -0.0001811335   0.0000823001
       -0.0000028537   0.0006985788  -0.0004430034  -0.0001146221  -0.0000977090
       -0.0000238280   0.0000419632  -0.0000332327   0.0000474075   0.0000727894
       -0.0000841495  -0.0000404156   0.0000582089   0.0000870631   0.0000658555
       -0.0000230129  -0.0000676630  -0.0000468347  -0.0000180498   0.0001128471
        0.0000331434  -0.0000278219  -0.0000064352   0.0000791468   0.0000643055
       -0.0394623236  -0.0017995956  -0.0225696992  -0.1541208293  -0.0493694628
       -0.1322248393  -0.0101889819   0.0080811733  -0.0047256996  -0.0207208153
        0.0016088864  -0.0064228857  -0.0161910929   0.0066649261   0.0033423967
        0.0056458345  -0.0084364501  -0.0116258360  -0.0049782251   0.0028642614
       -0.0010713813  -0.0000729106   0.0000182528   0.0001326956   0.0000380362
       -0.0000318328   0.0000125440   0.0000169714  -0.0000061124  -0.0000039988
       -0.0000105374  -0.0000146350  -0.0000069510   0.0000509759  -0.0000519917
        0.0000191331   0.0000074081   0.0000367794   0.0000036944   0.0000064526
        0.0000201229   0.0000017564   0.0000037657  -0.0000100237   0.0000058863
        0.0000027325  -0.0000056930  -0.0000045300   0.0000214241   0.0000129594
        0.0000422512   0.0000434816  -0.0000110804   0.0000829795  -0.0000215787
       -0.0000071049  -0.0000024017  -0.0000053649   0.0000007003  -0.0000081230
        0.0000018810  -0.0000047536   0.0000032821  -0.0000034214  -0.0000066827
        0.0000018954   0.0000036494   0.0000025770   0.0000000103  -0.0000056214
       -0.0000038231  -0.0000012806   0.0000051836   0.0000028193  -0.0000000041
       -0.0000041720  -0.0000057060  -0.0000032722  -0.0000028476  -0.0000081309
        0.0000005094   0.0000073312  -0.0000054551   0.0000099224   0.0000022156
       -0.0000184133   0.0000103156   0.0000067832   0.0000400531  -0.0000096059
        0.0000005245   0.0000361530   0.0000125985  -0.0000004821  -0.0000182970
        0.0000251955  -0.0000186893  -0.0000135279   0.0000140996   0.0000064221
       -0.0000174621   0.0000134883   0.0000213598  -0.0000051887   0.0000007483
        0.0000088695   0.0000135915  -0.0000151306  -0.0000224737   0.0000166049
        0.0000281877   0.0000086870  -0.0000062879   0.0000370327  -0.0000053880
        0.0000225219  -0.0000111683   0.0000445786  -0.0000060249  -0.0000651364
        0.0000082471  -0.0000174437  -0.0000353912   0.0000159294  -0.0000080341
        0.0000182607   0.0000204747   0.0000094298  -0.0000224037  -0.0000003523
       -0.0000101566  -0.0000007726   0.0000455734   0.0000151798   0.0000039002
       -0.0000963880   0.0000371823  -0.0001353887  -0.0049506578   0.0027034539
       -0.0013087905   0.0056866941   0.0040689509   0.0101228247
        0.0359830094  -0.0686933863  -0.0007137854  -0.0947278920   0.2941926766
        0.2087208323   0.0421925612  -0.1271879210  -0.1129196937   0.0488994470
       -0.0070146963   0.0104506714  -0.0042819522  -0.0201191902  -0.0267668725
        0.0004352792  -0.0002550656  -0.0000901297  -0.0002149753  -0.0000589569
       -0.0000063321  -0.0000992409  -0.0000256031  -0.0000641147  -0.0000873174
       -0.0001326826  -0.0000270311  -0.0000099134   0.0001323297   0.0000324613
       -0.0000535988  -0.0000105765  -0.0000928592  -0.0000036252  -0.0000018518
       -0.0000212662   0.0000046197  -0.0000220244   0.0000051586   0.0000134028
       -0.0000040582   0.0000003511   0.0000448012  -0.0000775630   0.0000533991
        0.0000281437   0.0001063338   0.0000495749   0.0001028275  -0.0001441938
        0.0000586709  -0.0000154984   0.0000205940   0.0000103543  -0.0000276951
       -0.0000154820  -0.0000080173   0.0000041841   0.0000018468  -0.0000047030
       -0.0000016873   0.0000012725  -0.0000037270   0.0000020394  -0.0000028863
        0.0000021464  -0.0000036934  -0.0000053345  -0.0000043410  -0.0000033294
       -0.0000069800  -0.0000037773   0.0000106408   0.0000055768   0.0000037484
       -0.0000135602  -0.0000097597  -0.0000031682  -0.0001155353   0.0001904631
       -0.0000174685  -0.0000278419  -0.0000633060   0.0000923667  -0.0000919919
        0.0000428216   0.0000051570   0.0000355285   0.0000312621   0.0000025852
        0.0000587558  -0.0000031104  -0.0000067139  -0.0000650578   0.0000009142
        0.0000253286   0.0000225565  -0.0000345312   0.0000298183  -0.0000475956
        0.0000173814   0.0000015271   0.0000303459  -0.0000275216   0.0000200732
        0.0000127659   0.0000108492  -0.0000113621   0.0000740661  -0.0000109423
       -0.0000061283  -0.0000593674   0.0000563685  -0.0000323250   0.0001121298
       -0.0000859805   0.0000294711   0.0000202273   0.0000321018  -0.0000257536
       -0.0001613977   0.0000146229   0.0000188557   0.0001208565  -0.0000106765
       -0.0000522472  -0.0002034870   0.0000147102   0.0000261780   0.0002243058
       -0.0001083367  -0.0000175714   0.0000524646   0.0001076390   0.0000427799
       -0.0000125007  -0.0000218788  -0.0000197049   0.0000024150  -0.0000499867
       -0.0000277553   0.0000016289   0.0000197801   0.0000084797  -0.0000238904
        0.0000675414   0.0000632188   0.0000875167  -0.0002044030  -0.0001399327
       -0.0322858640   0.0172043288   0.0148172463  -0.0102822544  -0.0842225424
       -0.0642538857   0.0262934589  -0.0074442281   0.0038480287  -0.0205525094
        0.0051248113  -0.0018949539   0.0063334181  -0.0021512385  -0.0016243474
        0.0033633958  -0.0053315607  -0.0094271362   0.0026664578   0.0059441470
       -0.0027287128   0.0001347638   0.0000598213   0.0000007040   0.0000082381
       -0.0000147225   0.0000285742   0.0000005514  -0.0000115376   0.0000159015
        0.0000092808   0.0000086968   0.0000075881  -0.0000010867   0.0000106849
       -0.0000238257   0.0000017838  -0.0000044210  -0.0000046812   0.0000017834
       -0.0000061743  -0.0000016845  -0.0000015961   0.0000042047  -0.0000027822
        0.0000048608   0.0000060666   0.0000018304   0.0000001697  -0.0000024852
        0.0000016735   0.0000183487   0.0000072242   0.0000113401   0.0000091334
       -0.0000024933   0.0000033406   0.0000014312  -0.0000030618   0.0000041932
        0.0000014022   0.0000017268  -0.0000007267   0.0000020034   0.0000009064
       -0.0000006844  -0.0000016182  -0.0000016072  -0.0000016045   0.0000032611
       -0.0000003454  -0.0000007163  -0.0000016237  -0.0000003776  -0.0000023787
        0.0000011517   0.0000036188  -0.0000008568   0.0000017349   0.0000022044
       -0.0000011277  -0.0000001975   0.0000014026  -0.0000016814   0.0000042837
        0.0000010927   0.0000052140  -0.0000010778  -0.0000111248  -0.0000030394
        0.0000027929  -0.0000151799   0.0000007439   0.0000027943   0.0000010271
       -0.0000077532   0.0000076632   0.0000067903  -0.0000064839  -0.0000049747
        0.0000083850  -0.0000055576  -0.0000113342   0.0000015380   0.0000006207
       -0.0000086223  -0.0000090710   0.0000080396   0.0000041846  -0.0000010533
        0.0000003387  -0.0000028205  -0.0000019320  -0.0000048573   0.0000054164
       -0.0000145005   0.0000117728  -0.0000404768   0.0000143948   0.0000446660
       -0.0000154338   0.0000113180   0.0000248772  -0.0000085572  -0.0000040695
        0.0000034117  -0.0000204671  -0.0000116857  -0.0000046819  -0.0000046821
        0.0000180474   0.0000084558  -0.0000451213  -0.0000082621   0.0000255857
       -0.0000486579   0.0000885661   0.0000908908   0.0031472018   0.0058446575
       -0.0026293848  -0.0069158646  -0.0057601878  -0.0149979200
       -0.0127457049  -0.0001348564  -0.0651291307   0.0585437238   0.2087208323
        0.5293838637   0.0325317682  -0.0951908015  -0.1960148899   0.0711621882
       -0.0025521371   0.0276994635  -0.0020024508  -0.0263144323  -0.0527212827
       -0.0000873119  -0.0003886680  -0.0003287557  -0.0001323014  -0.0001283864
        0.0000750082  -0.0002284732  -0.0001738495  -0.0000386131  -0.0002866660
       -0.0002514836  -0.0000505105  -0.0000141763   0.0001412626   0.0001536970
       -0.0001064460  -0.0000177048  -0.0001636242   0.0000078554   0.0000037929
        0.0000051169  -0.0000088306   0.0000133735  -0.0000064519  -0.0000020283
        0.0000069999  -0.0000028086   0.0000699643  -0.0001244514   0.0000693709
       -0.0000087397   0.0002427058   0.0000839012   0.0002069971  -0.0001642577
        0.0001169362  -0.0000362381  -0.0000338686  -0.0000043857  -0.0000026194
        0.0000241818  -0.0000010849  -0.0000037494  -0.0000005722   0.0000104574
        0.0000014841   0.0000037197  -0.0000041085  -0.0000000919   0.0000000039
       -0.0000032383   0.0000010831   0.0000036542   0.0000023801   0.0000048600
        0.0000057804   0.0000004731  -0.0000069133  -0.0000087955   0.0000034654
        0.0000109553   0.0000298370   0.0000102867  -0.0000464017   0.0002417121
        0.0000097476  -0.0001065874  -0.0000990700   0.0001455025  -0.0000744835
        0.0000522608   0.0000095678   0.0000362662  -0.0000268227   0.0000202080
        0.0000514739  -0.0000080114  -0.0000041395  -0.0000407672   0.0000213847
       -0.0000022007   0.0000133635  -0.0000481787   0.0000471066  -0.0000446821
        0.0000483354  -0.0000274636   0.0000393425  -0.0000168623   0.0000077664
       -0.0000225373   0.0000281464  -0.0000193650   0.0000745237  -0.0000423962
        0.0000183197  -0.0000873363   0.0001250215  -0.0000799371   0.0000611004
       -0.0001506491   0.0001170976   0.0000664540   0.0000551269  -0.0001063161
       -0.0001089239  -0.0000289271   0.0000425909   0.0001159225   0.0000083862
       -0.0000769163   0.0000473203  -0.0001458003   0.0000434903   0.0002794298
       -0.0004126323   0.0000165724   0.0000884064   0.0002266376   0.0001560495
       -0.0000912708  -0.0000612416   0.0000250130   0.0000967949   0.0000053039
       -0.0000556982  -0.0000216797   0.0000115952  -0.0000054675   0.0000364719
        0.0000010847   0.0000959825   0.0001312246  -0.0001501724  -0.0001506394
       -0.0730634738   0.0287188990   0.0141052537  -0.0652452268  -0.0820830386
       -0.2204560036  -0.0165541281   0.0052604076  -0.0008747444  -0.0148808613
        0.0020129518  -0.0025555155   0.0267541114  -0.0073755338   0.0004984258
        0.0078667969  -0.0148436059  -0.0202754432  -0.0017490061  -0.0025881703
        0.0030361336   0.0001563082   0.0000446995   0.0001013592   0.0000225577
        0.0000164688   0.0000151602   0.0000049584  -0.0000083350   0.0000106726
       -0.0000003093  -0.0000025438   0.0000071538   0.0000101009  -0.0000172028
       -0.0000036652   0.0000050811   0.0000009232   0.0000004142   0.0000002013
       -0.0000034215   0.0000055215  -0.0000000846  -0.0000002058   0.0000039358
        0.0000020945   0.0000016575   0.0000026296  -0.0000018121   0.0000001518
        0.0000216060   0.0000404333  -0.0000045457   0.0000478962  -0.0000045136
       -0.0000081257  -0.0000037064   0.0000001554   0.0000032299  -0.0000017291
       -0.0000000220  -0.0000009896   0.0000032207  -0.0000004516  -0.0000013942
        0.0000025369  -0.0000000433   0.0000017444   0.0000024966  -0.0000035648
        0.0000013317   0.0000011400  -0.0000017017  -0.0000000652   0.0000025389
       -0.0000028438   0.0000002777   0.0000046542  -0.0000009875   0.0000003208
        0.0000008818   0.0000039151  -0.0000011366   0.0000030056   0.0000068862
       -0.0000074197   0.0000043258  -0.0000277178   0.0000227040  -0.0000360270
        0.0000094837  -0.0000008449  -0.0000054538   0.0000066016  -0.0000066459
       -0.0000030858  -0.0000057878  -0.0000050650   0.0000024638   0.0000038215
       -0.0000067107   0.0000014280   0.0000095599  -0.0000018228  -0.0000001549
        0.0000045907   0.0000060396  -0.0000054492  -0.0000098017   0.0000105521
        0.0000120556   0.0000044270  -0.0000019385   0.0000160211  -0.0000011397
        0.0000047638  -0.0000038100  -0.0000351470   0.0000156639   0.0000318802
       -0.0000033539  -0.0000012921   0.0000033056  -0.0000030821  -0.0000065951
        0.0000031032  -0.0000084461  -0.0000120298  -0.0000083892  -0.0000011811
        0.0000052618   0.0000008543  -0.0000161238   0.0000261151   0.0000104324
       -0.0001430021   0.0001176567   0.0000390221  -0.0007801744  -0.0027783957
        0.0030526020  -0.0097296598  -0.0098508566  -0.0201933610
       -0.0215578231   0.0174195125   0.0197298529  -0.1332923732   0.0421925612
        0.0325317682   0.6401220665  -0.1029954505   0.0685987032  -0.3225884765
        0.0834619381   0.0111010489  -0.0404179182  -0.0303647254  -0.0721207739
        0.0016510465  -0.0006843851  -0.0028462843  -0.0009230284  -0.0001707944
       -0.0004487051  -0.0002693812  -0.0001097188  -0.0000859722  -0.0001876135
       -0.0002141938  -0.0003323713   0.0000003162   0.0001822985   0.0001506390
       -0.0000900317   0.0000360900  -0.0000988167  -0.0000085764   0.0000097709
        0.0000125964  -0.0000136090  -0.0000221643   0.0000123707  -0.0000071709
       -0.0000061553   0.0000044922   0.0000730085  -0.0001234048   0.0001053517
        0.0000114715   0.0002289449   0.0001940274   0.0004698683  -0.0004462455
        0.0003368882  -0.0000033435   0.0000107855   0.0000353126  -0.0000159173
       -0.0000052058   0.0000134452   0.0000125897   0.0000070827   0.0000040333
        0.0000010889   0.0000011942  -0.0000047354   0.0000037737   0.0000093984
        0.0000047529  -0.0000010081  -0.0000007658   0.0000036490  -0.0000061841
        0.0000050782   0.0000016171   0.0000063041  -0.0000040517   0.0000098036
       -0.0000037315   0.0000159117   0.0000003364  -0.0002711971   0.0005367389