$hessian                                                                        
        0.4694107258   0.0117426118   0.0018087160  -0.2120283683   0.0278264252
       -0.0105617119  -0.0222075311   0.0069454930   0.0031289617   0.0002720867
        0.0022469549   0.0014545729  -0.0007641593   0.0003400161   0.0004856838
        0.0003061136  -0.0002388071   0.0001184549  -0.0001626047   0.0000315610
       -0.0000068848   0.0000425211  -0.0000111894  -0.0000128062   0.0000324247
        0.0000234931   0.0000797099  -0.0000200600   0.0000070173  -0.0000700774
       -0.0000244791   0.0000552706  -0.0000046092  -0.0000125719   0.0000408041
       -0.0000207901   0.0000109524  -0.0000062694   0.0000193301   0.0000320278
        0.0000048102   0.0000113011   0.0000240800   0.0000023954   0.0000635808
        0.0000055378  -0.0000033720   0.0000245203  -0.0000484257  -0.0000041627
       -0.0000165591   0.0000104086   0.0000635968   0.0000069889  -0.0000083116
       -0.0000021675  -0.0000026366  -0.0000027725  -0.0000005517  -0.0000084780
        0.0000052470   0.0000131684  -0.0000015767   0.0000073393  -0.0000039064
        0.0000098344  -0.0000027531  -0.0000087058  -0.0000055274  -0.0000051379
       -0.0000061104  -0.0000014927   0.0000113856  -0.0000004249   0.0000091784
        0.0000040754  -0.0000210538   0.0000266548   0.0000110425   0.0000024069
       -0.0000280807   0.0000058578  -0.0000363608   0.0000381279  -0.0000964079
       -0.0000620661   0.0000458687   0.0000128937   0.0000760740  -0.0000173871
        0.0000506735   0.0000042320  -0.0000064569  -0.0000451127  -0.0000300357
        0.0000156095   0.0000694716   0.0000144772  -0.0000116476  -0.0000252620
       -0.0000154940   0.0000080655   0.0000132343   0.0000082463  -0.0000072653
       -0.0000071646  -0.0000120970   0.0000070971  -0.0000029373   0.0000165509
       -0.0000092716  -0.0000016820  -0.0000520294   0.0000297691   0.0000727834
        0.0000929156  -0.0000651146  -0.0001030958  -0.0001051860   0.0000256593
       -0.0000268029   0.0000520988  -0.0000201702   0.0000322154   0.0000083999
       -0.0000203241  -0.0001105437   0.0000180302  -0.0000136869   0.0000266449
       -0.0000068558   0.0000257555   0.0000170548  -0.0000035567  -0.0000361293
        0.0000186167  -0.0000142043  -0.0000591275  -0.0000811731  -0.0000641236
        0.0000111754   0.0000107970  -0.0000035164   0.0000079616  -0.0000344087
        0.0000061957   0.0000746032  -0.0000007250  -0.0000083870  -0.0000531319
        0.0013811112  -0.0008918843  -0.0030562396  -0.0248065240   0.0008159325
       -0.0081134877  -0.0890342047  -0.0273154883   0.0911041786  -0.0433406387
        0.0313838153  -0.0076885359  -0.0792066932  -0.0523921477  -0.0686347014
        0.0011522873  -0.0011426669  -0.0010715132  -0.0007473670   0.0001124415
       -0.0001007638  -0.0000048346   0.0000033620  -0.0000835446  -0.0000037077
       -0.0000172754   0.0000151613  -0.0000067030  -0.0000104164   0.0000172983
        0.0000005676   0.0000055382   0.0000078482  -0.0000235340   0.0000116527
       -0.0000009348   0.0000045435  -0.0000388861  -0.0000077924  -0.0000081512
       -0.0000346893   0.0000010136  -0.0000033445   0.0000022193  -0.0000057776
       -0.0000035749   0.0000046030  -0.0000008168  -0.0000087624  -0.0000174313
       -0.0000311230  -0.0000068250  -0.0000025217  -0.0000041177   0.0000043273
        0.0000085539  -0.0000072789  -0.0000037662  -0.0000119396   0.0000059399
       -0.0000052922   0.0000008102  -0.0000066203   0.0000023979   0.0000047499
       -0.0000003119  -0.0000103513  -0.0000086577   0.0000003907   0.0000027591
        0.0000037395  -0.0000001753  -0.0000070530  -0.0000108649  -0.0000021730
        0.0000012132   0.0000069205   0.0000031586   0.0000008674   0.0000068236
        0.0000008064  -0.0000169281  -0.0000057204  -0.0000145160   0.0000000803
        0.0000096297  -0.0000084585   0.0000174216  -0.0000345746   0.0000081409
       -0.0000188508  -0.0000009486  -0.0000131230  -0.0000129115   0.0000360254
       -0.0000132569   0.0000080619   0.0000054805  -0.0000038344  -0.0000094306
        0.0000095837  -0.0000080659  -0.0000130964   0.0000034096  -0.0000022996
       -0.0000084173  -0.0000053269   0.0000013833   0.0000112339   0.0000141802
        0.0000148377   0.0000114417   0.0000151789   0.0000021400   0.0000053272
       -0.0000122360   0.0000091603   0.0000092786   0.0000055712  -0.0000015997
        0.0000029664   0.0000230394   0.0000230273   0.0000089246   0.0000156398
       -0.0000057144  -0.0000016067   0.0000193038  -0.0000244417   0.0000171222
        0.0000127488   0.0000215343   0.0000144901   0.0000164185  -0.0000304633
        0.0000024759  -0.0000177120   0.0000679570  -0.0007653189   0.0001809009
       -0.0000641638   0.0007252680   0.0003105047   0.0012256314
        0.0117426118   0.4936549689   0.0170855862   0.0229360894  -0.0652979222
       -0.0011816752   0.0163339888  -0.0025968121  -0.0020438613   0.0015430331
        0.0041270859  -0.0049576899   0.0003030220  -0.0001565498   0.0001444788
       -0.0003737984  -0.0010393922   0.0006922588  -0.0001691399  -0.0000466426
       -0.0000380186   0.0000231821   0.0000127127   0.0000390617   0.0000152524
        0.0000246900  -0.0000471312   0.0000420081  -0.0000169194   0.0000332160
        0.0000094158  -0.0000101208   0.0000211881   0.0000415950   0.0000003064
        0.0000098118   0.0000372952   0.0000435917   0.0000075806   0.0000056385
        0.0000185555   0.0000071450  -0.0000101625   0.0000124611  -0.0000160202
       -0.0000130679   0.0000027914  -0.0000172737   0.0000141382  -0.0000334483
       -0.0000395374  -0.0000192029  -0.0000289274   0.0000036915   0.0000109655
        0.0000026736   0.0000117675   0.0000029990  -0.0000002357   0.0000065271
       -0.0000036702  -0.0000053461   0.0000025552   0.0000012965   0.0000021580
       -0.0000048469   0.0000042686   0.0000048002   0.0000033810   0.0000075936
        0.0000036340   0.0000032370  -0.0000035008  -0.0000044060  -0.0000028571
        0.0000008147   0.0000165960  -0.0000058092  -0.0000157274   0.0000115995
        0.0000188720  -0.0000271050  -0.0000266160  -0.0000907916   0.0000376989
       -0.0000096553  -0.0000108022   0.0000157176  -0.0000042600   0.0000115158
       -0.0000233875  -0.0000032555   0.0000131183   0.0000228037   0.0000163244
       -0.0000080157  -0.0000331690  -0.0000038232   0.0000006546   0.0000121686
        0.0000049850  -0.0000027137  -0.0000075912  -0.0000019201   0.0000029240
        0.0000009707   0.0000060604  -0.0000032619   0.0000042858  -0.0000086944
        0.0000042575  -0.0000014097   0.0000284197  -0.0000152812  -0.0000434068
       -0.0000578025   0.0000386968   0.0000589470   0.0000664493  -0.0000172534
        0.0000181041  -0.0000284295   0.0000101598  -0.0000011801   0.0000002071
        0.0000217937   0.0003013534  -0.0000853704   0.0000318119  -0.0000029121
        0.0000459966   0.0000149425  -0.0000120103   0.0000037569   0.0000167750
       -0.0000145653   0.0000146343   0.0000369915   0.0000004004   0.0000201905
        0.0000002040  -0.0000217363   0.0000281335  -0.0000109440  -0.0000143106
       -0.0000034429  -0.0000059558  -0.0000205272  -0.0000071798  -0.0000261875
       -0.0005630239   0.0044239528  -0.0042975950  -0.0083177214   0.0022215879
       -0.0004931568  -0.0275110881  -0.0537079345   0.0470957461   0.0358327130
       -0.2631545037   0.0426495011  -0.0516935241  -0.1155727028  -0.0974916294
        0.0004081557  -0.0013871376   0.0016277926   0.0007527742  -0.0002248077
        0.0000064494  -0.0000070899  -0.0000111927   0.0000307768  -0.0000197750
        0.0000226575  -0.0000269484  -0.0000155745  -0.0000006206  -0.0000143820
       -0.0000036635  -0.0000086289  -0.0000102923  -0.0000285080  -0.0000202015
       -0.0000040230  -0.0000109968  -0.0000011271   0.0000018838  -0.0000024853
        0.0000011811  -0.0000006090  -0.0000124854  -0.0000083878   0.0000066045
       -0.0000091972  -0.0000093314  -0.0000049110  -0.0000048836   0.0000127698
        0.0000042688  -0.0000018952   0.0000032274  -0.0000011460  -0.0000068145
       -0.0000037188  -0.0000046892  -0.0000008507   0.0000068393  -0.0000042155
       -0.0000013437  -0.0000004748   0.0000009922  -0.0000014018  -0.0000018739
        0.0000012663   0.0000011482   0.0000017546   0.0000010968  -0.0000045564
        0.0000003385   0.0000018803  -0.0000000067   0.0000021192   0.0000011564
       -0.0000026687  -0.0000012857  -0.0000002596  -0.0000015977  -0.0000019268
        0.0000001240   0.0000034586   0.0000031877   0.0000031043  -0.0000013012
       -0.0000029197  -0.0000010979  -0.0000179197   0.0000209075  -0.0000212036
        0.0000100837   0.0000000296   0.0000028045   0.0000086574  -0.0000140732
        0.0000019217  -0.0000040374  -0.0000003156  -0.0000000865   0.0000040461
       -0.0000024975   0.0000023557   0.0000054526   0.0000001006   0.0000002635
        0.0000033859   0.0000046922  -0.0000014037  -0.0000086390  -0.0000067300
       -0.0000076531  -0.0000029900  -0.0000107556  -0.0000016031  -0.0000028131
        0.0000083029  -0.0000076860   0.0000129996   0.0000101599  -0.0000089788
        0.0000118402  -0.0000038411  -0.0000168093   0.0000116770  -0.0000186809
       -0.0000025736   0.0000066247   0.0000021107  -0.0000004121   0.0000215109
        0.0000071342   0.0000142051   0.0000112645   0.0000068427  -0.0000185745
        0.0000111307  -0.0000007246  -0.0000102420  -0.0006130798   0.0000368984
       -0.0001360413  -0.0009610681  -0.0013170108   0.0013857533
        0.0018087160   0.0170855862   0.5188572053  -0.0137063663  -0.0002175297
       -0.0654419775   0.0199274958  -0.0057810507   0.0004564056   0.0005553752
       -0.0050954120  -0.0007953189   0.0000871642   0.0000750578   0.0000408207
        0.0001402359   0.0006922474  -0.0002054737   0.0001558711  -0.0000508900
        0.0000150593   0.0000155920  -0.0000017753  -0.0000106397  -0.0000151827
       -0.0000204756  -0.0000508375  -0.0000259339   0.0000183827  -0.0000256984
        0.0000017535  -0.0000028780   0.0000007651   0.0000038409   0.0000023805
       -0.0000252905   0.0000098975   0.0000140829  -0.0000144833  -0.0000044195
       -0.0000007094  -0.0000064389  -0.0000066894   0.0000201306   0.0000106115
       -0.0000054150  -0.0000045321   0.0000273453   0.0000295167   0.0000290825
        0.0000144059   0.0000078601  -0.0000086901  -0.0000069092   0.0000008261
        0.0000060791  -0.0000067723  -0.0000002392  -0.0000006666   0.0000000717
       -0.0000017787  -0.0000005134   0.0000017617   0.0000022272  -0.0000003801
       -0.0000024587   0.0000014142  -0.0000001875  -0.0000016584   0.0000021451
        0.0000010670  -0.0000018392  -0.0000011196   0.0000027027   0.0000032042
        0.0000026292   0.0000060830  -0.0000025125  -0.0000064896   0.0000060331
        0.0000079628  -0.0000097289   0.0000321986   0.0000164509   0.0000144677
        0.0000247788  -0.0000121499  -0.0000152191  -0.0000180672   0.0000142501
       -0.0000142096   0.0000021961   0.0000016209   0.0000030506   0.0000045365
       -0.0000019653  -0.0000046086   0.0000016829   0.0000034516   0.0000009791
       -0.0000011080   0.0000014903   0.0000007742   0.0000005052   0.0000005298
        0.0000004867   0.0000001661  -0.0000005790  -0.0000005679  -0.0000016874
       -0.0000012699  -0.0000000813   0.0000018428  -0.0000000049   0.0000012057
        0.0000001700  -0.0000020736  -0.0000016213  -0.0000027000   0.0000018464
       -0.0000017551   0.0000012358   0.0000060570  -0.0000055856  -0.0000006790
       -0.0000082630  -0.0001325017   0.0000257832  -0.0000151146   0.0000076869
       -0.0000028701  -0.0000204514  -0.0000054317  -0.0000207499   0.0000178790
        0.0000168129   0.0000177708   0.0000092547   0.0000145347   0.0000070865
       -0.0000004997  -0.0000097359   0.0000029560  -0.0000141260   0.0000184660
       -0.0000112776  -0.0000116122   0.0000163620  -0.0000336582  -0.0000356265
       -0.0022731362  -0.0040807859  -0.0019524337  -0.0237700313   0.0029909344
       -0.0040521727   0.0931220693   0.0465001545  -0.2203504955  -0.0084138933
        0.0427195822  -0.0500583136  -0.0685125060  -0.0976380267  -0.1771376065
        0.0018627557   0.0012543595   0.0003336164   0.0011364981  -0.0001904303
       -0.0000915904  -0.0000147386  -0.0000112929   0.0000200844   0.0000086372
       -0.0000217078   0.0000232565   0.0000059683  -0.0000059297   0.0000151960
       -0.0000008789   0.0000056812   0.0000094780  -0.0000083798   0.0000016223
        0.0000037502  -0.0000007284  -0.0000099216   0.0000050665   0.0000009911
       -0.0000019387   0.0000001386  -0.0000049655  -0.0000037172   0.0000052060
        0.0000050646   0.0000050733   0.0000027561   0.0000068962   0.0000019147
        0.0000081139   0.0000095194   0.0000015118   0.0000102284  -0.0000004166
       -0.0000035776   0.0000026815  -0.0000002237  -0.0000033067   0.0000016391
       -0.0000004519   0.0000007862  -0.0000018801   0.0000003586  -0.0000010871
        0.0000008028  -0.0000001579  -0.0000013277  -0.0000009476  -0.0000003606
       -0.0000000916  -0.0000011436  -0.0000005040  -0.0000009487  -0.0000009786
       -0.0000002494   0.0000005345  -0.0000023622   0.0000030010  -0.0000003661
       -0.0000004015   0.0000017229  -0.0000004861  -0.0000027420   0.0000016324
       -0.0000031166   0.0000014473   0.0000047927  -0.0000004861  -0.0000063974
       -0.0000011883   0.0000011736   0.0000014854  -0.0000012932  -0.0000020234
        0.0000012855  -0.0000004415   0.0000000424   0.0000008602  -0.0000014549
        0.0000006026   0.0000012870  -0.0000003633  -0.0000012636   0.0000006205
       -0.0000013854  -0.0000007474   0.0000011894   0.0000010014  -0.0000021684
       -0.0000006989  -0.0000012417  -0.0000012613  -0.0000013605  -0.0000007762
       -0.0000013353   0.0000002647  -0.0000110747   0.0000092632   0.0000132596
       -0.0000024464   0.0000042746   0.0000085108  -0.0000001737   0.0000051680
        0.0000051255  -0.0000071499  -0.0000026199   0.0000126931   0.0000049064
       -0.0000118077   0.0000028618  -0.0000225347   0.0000059654   0.0000311840
       -0.0000044811  -0.0000151134   0.0000276297  -0.0012696468   0.0001081810
       -0.0002268385  -0.0007212478   0.0015967234   0.0005502396
       -0.2120283683   0.0229360894  -0.0137063663   0.6146318132  -0.0788702676
        0.0390985338  -0.1447266309   0.0817710808   0.1087889978  -0.0331086899
        0.0175818580   0.0190731624   0.0062565638  -0.0026174433  -0.0001724174
       -0.0015833311   0.0002552232  -0.0000845596   0.0004801599   0.0001044314
        0.0001936815  -0.0000612067   0.0000200392  -0.0000309514   0.0000236856
       -0.0000031405  -0.0001134171   0.0000809678  -0.0000630262   0.0000674425
        0.0000203265  -0.0000919646   0.0000111811   0.0000004003   0.0000179300
        0.0000581282  -0.0000441533   0.0000551277  -0.0000292464  -0.0000311991
        0.0000291951  -0.0000104440  -0.0000237787   0.0000288207  -0.0000574116
       -0.0000523720   0.0000220489  -0.0000912506  -0.0000117026   0.0000767667
        0.0000042861  -0.0000042558  -0.0000491405  -0.0000328593   0.0000426455
        0.0000219333   0.0000140389   0.0000046675  -0.0000114185   0.0000260298
       -0.0000109213  -0.0000201847   0.0000048706  -0.0000030784   0.0000110320
       -0.0000132671   0.0000082385   0.0000136917   0.0000036463   0.0000125909
        0.0000123436   0.0000017374  -0.0000081699   0.0000121541  -0.0000207024
        0.0000027215   0.0000510210  -0.0000189513   0.0000230012  -0.0000437650
        0.0000667772  -0.0000539327  -0.0000328525  -0.0000732737   0.0001920154
        0.0000729805  -0.0000338956  -0.0000724761  -0.0001048061   0.0000191337
       -0.0001185192  -0.0000237671   0.0000222017   0.0000931644   0.0000562040
       -0.0000311088  -0.0000839044  -0.0000043315   0.0000012653   0.0000426182
        0.0000099329  -0.0000081002  -0.0000156574   0.0000091422  -0.0000032662
       -0.0000085485   0.0000156468  -0.0000107115  -0.0000010690  -0.0000313899
        0.0000157482   0.0000006471   0.0000686502  -0.0000411988  -0.0000815494
       -0.0001235685   0.0000839836   0.0001124955   0.0001338235  -0.0000317577
        0.0000499463  -0.0000542713   0.0000004055   0.0000063737  -0.0000378916
        0.0000343682   0.0005587652  -0.0003218960  -0.0001010101  -0.0000941704
        0.0000628180   0.0000296099  -0.0000767620   0.0000041634   0.0001158674
       -0.0000383260  -0.0000136749   0.0000755918   0.0001104933   0.0001101047
       -0.0000122753  -0.0000859009  -0.0000524907  -0.0000203069   0.0001178235
        0.0000359244  -0.0000579041   0.0000369414  -0.0000573420   0.0000213515
       -0.0365463859  -0.0052182184  -0.0238412098  -0.1462371936  -0.0514694376
       -0.1252203792  -0.0209186609   0.0045564809   0.0044098605  -0.0121045479
        0.0086327040  -0.0008306838  -0.0161228308   0.0004967344  -0.0059117684
        0.0055618951  -0.0072555690  -0.0107166193  -0.0052638541   0.0022539710
       -0.0010329893  -0.0000694158   0.0000229672   0.0000958445   0.0000307947
       -0.0000267896   0.0000056172   0.0000187854  -0.0000028730  -0.0000060212
       -0.0000103431  -0.0000216167  -0.0000102404   0.0000732778  -0.0000482749
        0.0000308520   0.0000052695   0.0000427892   0.0000063651   0.0000054953
        0.0000238049   0.0000048397   0.0000043779  -0.0000092592   0.0000070221
        0.0000048905  -0.0000070718  -0.0000034481   0.0000155992   0.0000145571
        0.0000472162   0.0000387076  -0.0000101991   0.0000885184  -0.0000246202
       -0.0000075489  -0.0000045134  -0.0000040497   0.0000055456  -0.0000081317
        0.0000024112  -0.0000053446   0.0000065675  -0.0000032993  -0.0000063990
        0.0000035721   0.0000051754   0.0000039004   0.0000023697  -0.0000033580
       -0.0000044669   0.0000002295   0.0000066673   0.0000045874   0.0000034494
       -0.0000033471  -0.0000077367  -0.0000015615  -0.0000023852  -0.0000090612
        0.0000028329   0.0000098388  -0.0000022244   0.0000142862   0.0000008614
       -0.0000216636   0.0000113187  -0.0000142731   0.0000440946  -0.0000355054
        0.0000107074   0.0000177024   0.0000159072   0.0000056906  -0.0000309665
        0.0000117397  -0.0000157882  -0.0000063225   0.0000027950   0.0000026261
       -0.0000119340   0.0000049886   0.0000112107  -0.0000025699  -0.0000002035
        0.0000044341   0.0000098653  -0.0000054514  -0.0000227017  -0.0000144777
       -0.0000189186  -0.0000071696  -0.0000218009  -0.0000030942  -0.0000141909
        0.0000173639  -0.0000109573   0.0000421658  -0.0000071244  -0.0000809905
       -0.0000004230  -0.0000179218  -0.0000447343  -0.0000037876  -0.0000125187
       -0.0000015764   0.0000181345  -0.0000095037   0.0000210659   0.0000213900
        0.0000043712  -0.0000316031   0.0000258986   0.0000144600   0.0000077827
       -0.0000650633  -0.0000160716  -0.0000603181  -0.0052437639   0.0021174271
       -0.0012560961   0.0062947556   0.0050300954   0.0113065866
        0.0278264252  -0.0652979222  -0.0002175297  -0.0788702676   0.2843921697
        0.2108737932   0.0430154425  -0.1199050729  -0.1071792831   0.0469365479
       -0.0031594313   0.0122448667  -0.0023015184  -0.0204404814  -0.0268068961
        0.0002554822  -0.0001506968  -0.0000777515  -0.0001540832  -0.0000440244
        0.0000415070  -0.0001036038  -0.0000003748  -0.0000440472  -0.0000675634
       -0.0001110352  -0.0000789739  -0.0000188006   0.0001028829   0.0000412267
       -0.0000446135  -0.0000106451  -0.0000754190   0.0000027467  -0.0000069711
       -0.0000152729   0.0000004442  -0.0000182509   0.0000040817   0.0000106836
        0.0000001639   0.0000033636   0.0000386500  -0.0000620954   0.0000409501
        0.0000126612   0.0001015024   0.0000436074  -0.0000081518  -0.0000313129
        0.0000235635  -0.0000039002   0.0000261080  -0.0000021769  -0.0000249318
        0.0000013225  -0.0000204317  -0.0000008994   0.0000002546  -0.0000041749
        0.0000013555   0.0000067525  -0.0000004109   0.0000011320  -0.0000039328
        0.0000051064  -0.0000039439  -0.0000035695  -0.0000017392  -0.0000031844
       -0.0000041792  -0.0000015011   0.0000047774  -0.0000018763   0.0000056248
       -0.0000026409  -0.0000098561   0.0000069372  -0.0000012251   0.0000080794
       -0.0000138615   0.0000010090  -0.0000026591   0.0000669246  -0.0000490445
       -0.0000280347   0.0000059265   0.0000222495   0.0000397422   0.0000025085
        0.0000325759  -0.0000008626  -0.0000077090  -0.0000244284  -0.0000177401
        0.0000076622   0.0000277595   0.0000019900   0.0000005122  -0.0000122080
       -0.0000023714   0.0000011936   0.0000053566   0.0000001165  -0.0000006072
        0.0000006761  -0.0000046529   0.0000036045  -0.0000008688   0.0000100944
       -0.0000046574   0.0000021206  -0.0000230900   0.0000144669   0.0000302769
        0.0000464883  -0.0000329762  -0.0000416082  -0.0000481331   0.0000157571
       -0.0000187158   0.0000261499  -0.0000002012  -0.0000024163   0.0000143849
       -0.0000150569  -0.0001135323  -0.0000132460   0.0000381257   0.0001011403
       -0.0000763644  -0.0000174463   0.0000849549   0.0000600144  -0.0000024259
       -0.0000246258  -0.0000122336  -0.0000151968   0.0000041007  -0.0000616534
       -0.0000418897   0.0000019680   0.0000135224   0.0000043428  -0.0000175730
        0.0000827248   0.0000603256  -0.0000104315  -0.0001159946  -0.0000670609
       -0.0352425936   0.0149533450   0.0130080889  -0.0134988672  -0.0883694778
       -0.0710602678  -0.0048682470   0.0013044087  -0.0016111089   0.0304385021
       -0.0070755911   0.0023766560  -0.0156929196   0.0026962481  -0.0019254632
        0.0040536630  -0.0056311360  -0.0099455089   0.0020031384   0.0061807908
       -0.0027214312   0.0001025601   0.0000403647   0.0000133658   0.0000124869
       -0.0000116862   0.0000298521  -0.0000016071  -0.0000112446   0.0000187228
        0.0000075843   0.0000069980   0.0000097986   0.0000023487   0.0000031036
       -0.0000213477   0.0000016926  -0.0000013146  -0.0000004508   0.0000015427
       -0.0000041245   0.0000025239  -0.0000021968   0.0000042551   0.0000010339
        0.0000020996   0.0000055535   0.0000057073   0.0000032054  -0.0000055901
        0.0000038040   0.0000164962   0.0000060676   0.0000211160   0.0000080812
       -0.0000004360   0.0000083236  -0.0000008668  -0.0000043943   0.0000069720
        0.0000005044   0.0000014923   0.0000022144   0.0000008635   0.0000024970
        0.0000028829  -0.0000024086  -0.0000015878   0.0000020386   0.0000011393
        0.0000022640   0.0000018785  -0.0000023295  -0.0000021419   0.0000019528
       -0.0000010910   0.0000035498   0.0000027716   0.0000010078   0.0000021784
        0.0000030210  -0.0000026785  -0.0000008589  -0.0000004706   0.0000045230
        0.0000017558   0.0000047410   0.0000104618  -0.0000175655  -0.0000008608
       -0.0000038842  -0.0000095596  -0.0000095130   0.0000003094   0.0000100566
       -0.0000044072   0.0000040372   0.0000007820  -0.0000014579  -0.0000002860
        0.0000031677  -0.0000020002  -0.0000032948   0.0000010010  -0.0000003127
       -0.0000020105  -0.0000019626   0.0000017568   0.0000067015   0.0000061654
        0.0000062164   0.0000015605   0.0000068857   0.0000004045   0.0000033673
       -0.0000081883   0.0000051426  -0.0000337494   0.0000161775   0.0000494559
       -0.0000116837   0.0000107230   0.0000166499  -0.0000051293   0.0000169555
        0.0000014317  -0.0000076501  -0.0000055206  -0.0000006155  -0.0000224129
       -0.0000151986  -0.0000118347  -0.0000224329   0.0000015421   0.0000175450
       -0.0000589913   0.0000435984   0.0000536992   0.0025141328   0.0062457220
       -0.0027420058  -0.0062104351  -0.0056657698  -0.0144319919
       -0.0105617119  -0.0011816752  -0.0654419775   0.0390985338   0.2108737932
        0.5316882123   0.0401051933  -0.0926231154  -0.1973304182   0.0706924127
        0.0019156810   0.0287637142   0.0004581138  -0.0265216594  -0.0532822849
       -0.0001514223  -0.0002712844  -0.0002586589  -0.0000883898  -0.0001533386
        0.0001220798  -0.0002426063  -0.0001266927  -0.0000362733  -0.0001720954
       -0.0002095343  -0.0000998006  -0.0000352582   0.0000812530   0.0001217119
       -0.0000713733  -0.0000152147  -0.0001023931   0.0000093812   0.0000073618
       -0.0000011720  -0.0000090841   0.0000098619  -0.0000092202   0.0000050466
        0.0000096653  -0.0000077607   0.0000305664  -0.0000676608   0.0000469751
       -0.0000512732   0.0001580733   0.0000724292   0.0000447685  -0.0000188063
        0.0000495918  -0.0000212783  -0.0000049038  -0.0000179846  -0.0000115813
        0.0000126424  -0.0000060060   0.0000032016   0.0000037327   0.0000047008
       -0.0000012329   0.0000040057  -0.0000031792   0.0000054983  -0.0000011691
       -0.0000025433   0.0000023113  -0.0000011805  -0.0000009821   0.0000055630
        0.0000012303  -0.0000009835   0.0000004875  -0.0000031152   0.0000046741
        0.0000042682   0.0000150991   0.0000076109   0.0000000996   0.0000223222
        0.0000122366  -0.0000680895   0.0000304264   0.0000644357  -0.0000326721
       -0.0000754266   0.0000100059   0.0000621345   0.0000665020   0.0000338603
        0.0000139595  -0.0000067565  -0.0000020315  -0.0000032695  -0.0000045859
        0.0000023791  -0.0000018183   0.0000031528   0.0000018926  -0.0000009255
       -0.0000013882   0.0000018749   0.0000001949   0.0000010875  -0.0000003511
       -0.0000009638  -0.0000001597  -0.0000008207  -0.0000013617  -0.0000017812
       -0.0000009438  -0.0000004643   0.0000037447  -0.0000022261  -0.0000080063
       -0.0000084897   0.0000032112   0.0000089411   0.0000116783   0.0000002650
        0.0000042518   0.0000000627   0.0000094865  -0.0000030326   0.0000167248
       -0.0000107429   0.0000376777  -0.0001818286   0.0000662147   0.0001560520
       -0.0002211517   0.0000389753   0.0001331816   0.0000320893   0.0000900433
       -0.0000112781  -0.0000176731   0.0000405273   0.0000665509  -0.0000116402
       -0.0000342106  -0.0000222980   0.0000006389  -0.0000053738   0.0000287907
        0.0000306792   0.0000956350   0.0001456019  -0.0002129241  -0.0000765097
       -0.0754280529   0.0242654385   0.0136445637  -0.0585474415  -0.0850243624
       -0.2214439148   0.0258309145  -0.0046384344   0.0010440132  -0.0058324177
        0.0014669750   0.0007044015  -0.0230819149   0.0024646457  -0.0041356482
        0.0088555523  -0.0142799976  -0.0205112544  -0.0016413905  -0.0026492291
        0.0029540874   0.0001229212   0.0000262543   0.0000763105   0.0000225662
        0.0000114217   0.0000180608   0.0000059711  -0.0000081564   0.0000133177
        0.0000018422  -0.0000015681   0.0000041846   0.0000148028  -0.0000172285
       -0.0000031503   0.0000082489   0.0000023395  -0.0000027170   0.0000011612
       -0.0000057987   0.0000017019  -0.0000001785  -0.0000004394   0.0000033112
        0.0000010346   0.0000030010   0.0000019199   0.0000033139  -0.0000025870
        0.0000101140   0.0000362497   0.0000014775   0.0000540634  -0.0000015997
       -0.0000063044  -0.0000023016  -0.0000003041  -0.0000007872   0.0000001594
       -0.0000011791   0.0000002384  -0.0000012447   0.0000002523  -0.0000004582
       -0.0000000369  -0.0000014233  -0.0000016851   0.0000000342  -0.0000009223
        0.0000006657  -0.0000010069  -0.0000013237  -0.0000017761  -0.0000007946
       -0.0000026657   0.0000017968   0.0000015455   0.0000012800   0.0000014953
       -0.0000019983   0.0000020391  -0.0000015531  -0.0000018118   0.0000042691
       -0.0000071362   0.0000061479  -0.0000259626   0.0000060548  -0.0000413383
        0.0000046131  -0.0000109050  -0.0000099822   0.0000035727   0.0000011175
       -0.0000013667  -0.0000011426   0.0000012461  -0.0000010486  -0.0000007812
        0.0000000662   0.0000001764   0.0000010099  -0.0000007922  -0.0000007471
        0.0000003506   0.0000006042  -0.0000004746  -0.0000025047  -0.0000026706
       -0.0000026433  -0.0000009292  -0.0000044685  -0.0000041492   0.0000010099
       -0.0000017719  -0.0000037549  -0.0000388274   0.0000214608   0.0000474929
       -0.0000113899   0.0000028177   0.0000003665  -0.0000032888  -0.0000007216
        0.0000036213  -0.0000053346  -0.0000019708   0.0000055074  -0.0000149039
       -0.0000107848  -0.0000037832  -0.0000059752   0.0000309629   0.0000029970
       -0.0001190191   0.0000520217   0.0000561312  -0.0006806636  -0.0028234760
        0.0030433496  -0.0090227342  -0.0102253908  -0.0201403068
       -0.0222075311   0.0163339888   0.0199274958  -0.1447266309   0.0430154425
        0.0401051933   0.6471976695  -0.0824629788   0.0546907526  -0.3260682990
        0.0672932844   0.0100543833  -0.0366342510  -0.0339157528  -0.0748280409
        0.0014940438  -0.0004708947  -0.0024961081  -0.0007274405  -0.0003150009
       -0.0003278524  -0.0002784081  -0.0000397302  -0.0000591726  -0.0000945129
       -0.0002089873  -0.0003743105  -0.0000276891   0.0001535039   0.0001354055
       -0.0000687653   0.0000135737  -0.0000803895  -0.0000084762   0.0000145017
        0.0000061464  -0.0000098733  -0.0000264004   0.0000097417  -0.0000021050
       -0.0000056957   0.0000024080   0.0000455163  -0.0000848659   0.0000938202
       -0.0000470583   0.0001610384   0.0001659119   0.0001105182  -0.0000629365
        0.0001575721  -0.0000261365  -0.0000103229   0.0000102329  -0.0000098019
       -0.0000017516   0.0000074148   0.0000055299   0.0000060796   0.0000024084
        0.0000048333   0.0000021579  -0.0000009426   0.0000027273   0.0000064775
        0.0000034569  -0.0000011537  -0.0000019069   0.0000010776  -0.0000050482
        0.0000010250  -0.0000003491   0.0000026017  -0.0000035571   0.0000089523
       -0.0000025348   0.0000117943  -0.0000001262  -0.0000554089   0.0000351442