$hessian                                                                        
        0.2923726831   0.0074775398  -0.2522083031  -0.1404042665  -0.0323319887
        0.1293338122  -0.0109691800   0.0461884586   0.0221877695  -0.0182612064
       -0.0191785043   0.0169449941  -0.0006493212   0.0017540240  -0.0003549770
       -0.0000126027  -0.0000138095  -0.0001019235  -0.0002968110   0.0001406300
        0.0001036057   0.0001278325  -0.0000045444  -0.0001597216   0.0000281132
        0.0000748938   0.0001251952  -0.0001210985  -0.0000218981  -0.0000117715
        0.0000840206  -0.0000262015  -0.0001479364   0.0000693219  -0.0008051960
        0.0004019704  -0.0000877966  -0.0000200551  -0.0001472571   0.0000923577
       -0.0002641155  -0.0000349399  -0.0001786143   0.0000493841  -0.0000096833
        0.0000764835  -0.0000483393   0.0000029483  -0.0000494525  -0.0000301677
       -0.0000135518   0.0000275882  -0.0000033185   0.0000056664   0.0000277335
       -0.0000009336  -0.0000041743  -0.0000306493   0.0000072012  -0.0000040700
        0.0000209326  -0.0000123469   0.0000027519   0.0000091103  -0.0000078604
        0.0000028965  -0.0000134068  -0.0000351224  -0.0000018223  -0.0000225941
        0.0000538030   0.0000024540   0.0000607670  -0.0000014619   0.0000009021
       -0.0000502205   0.0000112819  -0.0000103291   0.0000110300  -0.0000524667
        0.0000065946  -0.0000045210   0.0000628177  -0.0000036714   0.0000099160
       -0.0000202813   0.0000139226   0.0000019728   0.0000175882  -0.0000011309
        0.0000003982  -0.0000060618   0.0000027606  -0.0000004468   0.0000123731
       -0.0000017418  -0.0000043280  -0.0000198285   0.0000018900  -0.0000393294
        0.0000489446   0.0000115892   0.0000682041   0.0000511259   0.0000341694
       -0.0001076903   0.0001636131   0.0000145244   0.0001018103  -0.0000044687
        0.0000129123  -0.0000474524   0.0000994440  -0.0000318594   0.0000863661
       -0.0000184157  -0.0000152293  -0.0000135858  -0.0000313094   0.0000190489
        0.0000106276  -0.0000149178   0.0000088670  -0.0000021990  -0.0000000127
        0.0000072870   0.0000115745   0.0000049163  -0.0000202752  -0.0000171265
        0.0000409460  -0.0000082840  -0.0000540347  -0.0000661726   0.0000448626
        0.0000308515   0.0000171020  -0.0000181939  -0.0000091720  -0.0000245904
        0.0000020380   0.0000013173   0.0000116636   0.0000026502  -0.0000074433
       -0.0000004081   0.0000134474  -0.0000106573   0.0000303537  -0.0000000994
       -0.0000723802   0.0003139053  -0.0000015505   0.0194431681  -0.0141062287
       -0.0265489345  -0.0820692694  -0.0376858682   0.0459174787  -0.0591982034
        0.0625919384   0.0404905602  -0.0052504943  -0.0020633028   0.0081840176
        0.0054226681   0.0014105256   0.0040953310  -0.0000460494   0.0000376524
        0.0000911909  -0.0000101178   0.0000180483  -0.0000036844  -0.0000005714
       -0.0000133930   0.0000082064  -0.0000046213  -0.0000067291   0.0000045525
       -0.0000110536  -0.0000076256  -0.0000148826  -0.0000008901  -0.0000165301
       -0.0000140458  -0.0000107531   0.0000085408  -0.0000061081   0.0000052806
       -0.0000011008  -0.0000007610   0.0000040517   0.0000047614  -0.0000001035
       -0.0000101997   0.0000054169  -0.0000006605  -0.0000096769  -0.0000025014
        0.0000003538  -0.0000055185  -0.0000143291  -0.0000004004   0.0000005878
        0.0000013979  -0.0000039517   0.0000020159  -0.0000015540   0.0000027838
        0.0000000826  -0.0000045564   0.0000004463  -0.0000018507  -0.0000049780
       -0.0000037746  -0.0000025516   0.0000024071  -0.0000026966  -0.0000050073
       -0.0000085254  -0.0000083233   0.0000017304  -0.0000131096  -0.0000037907
        0.0000003274   0.0000037017  -0.0000207221  -0.0000002990   0.0000000459
        0.0000035499   0.0000039389   0.0000008124  -0.0000052984   0.0000028181
       -0.0000010481  -0.0000026221   0.0000024032  -0.0000039085  -0.0000015051
       -0.0000019395  -0.0000008438  -0.0000058216  -0.0000002169  -0.0000063711
       -0.0000057630  -0.0000000484   0.0000015678  -0.0000048826   0.0000007949
       -0.0000016560   0.0000025377   0.0000011108  -0.0000041642  -0.0000017734
        0.0000044096  -0.0000041622   0.0000004363  -0.0000108410  -0.0000101269
       -0.0000262682   0.0053249794   0.0017051567   0.0041359474  -0.0053636197
       -0.0153765726   0.0077503482
        0.0074775398   0.6650961554   0.0252198827   0.0127960178  -0.0956801449
       -0.0218615268   0.0122247241   0.0308172846  -0.0165605518  -0.0184016332
       -0.0125528831   0.0270103419   0.0010534414  -0.0026154282  -0.0028153043
       -0.0004919018  -0.0001332268   0.0009520853  -0.0000493830   0.0001108707
       -0.0000573822   0.0000166247   0.0000585060  -0.0000836315   0.0000724750
        0.0000387945   0.0000770605  -0.0001495481   0.0000188626   0.0000822339
        0.0001806551  -0.0000380503  -0.0001691506   0.0005065210  -0.0001694174
       -0.0001539715  -0.0002749881  -0.0002905199  -0.0003468809   0.0000600285
       -0.0005066008  -0.0000152416   0.0001354974  -0.0000530180   0.0000664751
       -0.0002142347   0.0001231679   0.0000190333   0.0002846547   0.0002400414
        0.0000547004  -0.0006263740   0.0001206461  -0.0000044398   0.0005875398
       -0.0003670789  -0.0000095847  -0.0004762323   0.0003767471   0.0000571747
        0.0004530608   0.0001004559   0.0000030456  -0.0001754404   0.0001280855
       -0.0000078299   0.0000742614   0.0001169427   0.0000139533  -0.0000531254
       -0.0000288024  -0.0000081924   0.0000863227  -0.0000680588   0.0000035221
        0.0000134233  -0.0002115739  -0.0000277061  -0.0001637349  -0.0000923430
       -0.0000088375  -0.0000015443  -0.0000111423   0.0000077543   0.0000258260
        0.0000088091   0.0000064454   0.0000035269  -0.0000043781  -0.0000011593
        0.0000068819  -0.0000038005   0.0000107121  -0.0000049215   0.0000039077
       -0.0000089259  -0.0000100256  -0.0000019280  -0.0000087377   0.0002496364
       -0.0003044150  -0.0000655102  -0.0002452389  -0.0001080280  -0.0000409256
       -0.0003445794   0.0002783273   0.0000248028   0.0000648065  -0.0002100559
       -0.0000019886  -0.0000929261   0.0001131231  -0.0000350016  -0.0000485697
        0.0000294431   0.0000750345   0.0000005570   0.0000561056  -0.0000659578
       -0.0000348632   0.0000141968  -0.0000210598   0.0000119302  -0.0000133597
        0.0000053279  -0.0000007845  -0.0000246578   0.0000387769   0.0000094513
       -0.0000732060   0.0000339756   0.0000529339   0.0000770845  -0.0000517543
       -0.0000782862   0.0000838008   0.0000445005  -0.0000119010   0.0000298067
        0.0000136948  -0.0000163350  -0.0000080052   0.0000183596   0.0000198858
       -0.0000228552  -0.0000463824   0.0000516930  -0.0000835274  -0.0000221494
       -0.0001964659   0.0007727326  -0.0000927873   0.0205995275  -0.0689418369
       -0.0312842572  -0.0828558874  -0.2788314345   0.1034223474   0.0626723166
       -0.2233843283  -0.1015967237  -0.0157285792  -0.0036507654   0.0222048293
        0.0016880776  -0.0036897882  -0.0031529306   0.0000630955   0.0000019235
        0.0000034750   0.0000417252   0.0000169576  -0.0000006539   0.0000206378
       -0.0000074009   0.0000093304   0.0000118358  -0.0000028417  -0.0000168025
        0.0000081601  -0.0000132611   0.0000287828  -0.0000137812  -0.0002546118
       -0.0000766022  -0.0000279384  -0.0000618040  -0.0000338540  -0.0000160572
       -0.0000022631  -0.0000034194  -0.0000065298  -0.0000135499  -0.0000082576
        0.0000111936  -0.0000083733  -0.0000022128   0.0000172807   0.0000081917
       -0.0000013912   0.0000027501   0.0000140623  -0.0000016818  -0.0000023859
       -0.0000026742  -0.0000005500  -0.0000046479   0.0000019122  -0.0000029387
       -0.0000027682   0.0000003234  -0.0000025314   0.0000006694   0.0000008408
       -0.0000018341  -0.0000017892   0.0000003045  -0.0000046357   0.0000050316
        0.0000222321  -0.0000040985  -0.0000045975   0.0000293112   0.0000039607
       -0.0000223555  -0.0000047793  -0.0000323306   0.0000079404  -0.0000019865
        0.0000073968  -0.0000060829  -0.0000040784   0.0000074420  -0.0000038706
        0.0000046497   0.0000057606  -0.0000086322   0.0000099312  -0.0000067697
        0.0000135162   0.0000127555  -0.0000021919   0.0000308773   0.0000037562
       -0.0000088977   0.0000093980  -0.0000059110  -0.0000109505   0.0000071277
        0.0000007990  -0.0000050876  -0.0000029413   0.0000129087   0.0000008329
       -0.0000129992  -0.0000032612  -0.0000029362  -0.0000532600   0.0000489220
       -0.0000580657   0.0014749764  -0.0035112918  -0.0027007728  -0.0022679131
       -0.0029309324   0.0020828987
       -0.2522083031   0.0252198827   0.4757323740   0.1316964097   0.0440924705
       -0.2327005838   0.0188780062  -0.0648073831  -0.0321607527   0.0157916613
        0.0266856862  -0.0283129989   0.0005848521  -0.0027868365   0.0001371255
        0.0000765317  -0.0000663732   0.0002079140   0.0005045030  -0.0002996887
       -0.0002069625  -0.0002178816  -0.0000074168   0.0002699245  -0.0000648199
       -0.0001174471  -0.0001978678   0.0002274363   0.0000403673   0.0000306868
       -0.0001452947   0.0000734278   0.0002865795  -0.0000055517   0.0013359602
       -0.0004940256   0.0000949083   0.0001559736   0.0003292392  -0.0001875352
        0.0004020527   0.0000526267   0.0002788011  -0.0000796158   0.0000283625
       -0.0001194601   0.0000886738   0.0000078426   0.0000727548   0.0000646667
        0.0000183337  -0.0000476283   0.0000028218  -0.0000131546  -0.0000348482
       -0.0000027849  -0.0000027738  -0.0000037884  -0.0000331250   0.0000093672
        0.0000232296   0.0000374208  -0.0000090976  -0.0000395543   0.0000247619
       -0.0000054381   0.0000374609   0.0000761527   0.0000029146   0.0000349560
       -0.0000989472   0.0000037609  -0.0000871630   0.0000008043  -0.0000054908
        0.0000746621  -0.0000414117   0.0000102790  -0.0000154195   0.0000821505
       -0.0000046501   0.0000080531  -0.0000946696   0.0000046329  -0.0000135273
        0.0000307620  -0.0000187454  -0.0000038618  -0.0000258100   0.0000023344
       -0.0000008435   0.0000105837  -0.0000062637   0.0000022396  -0.0000192817
        0.0000050516   0.0000056250   0.0000306587  -0.0000033287   0.0000653344
       -0.0000779667  -0.0000162984  -0.0001172488  -0.0000949455  -0.0000508996
        0.0001570067  -0.0002637431  -0.0000309483  -0.0001069786   0.0000777539
        0.0000016057   0.0000615945  -0.0001555978   0.0000418317  -0.0000848100
        0.0000155431   0.0000008559   0.0000125356   0.0000321520  -0.0000221005
       -0.0000104140   0.0000154892  -0.0000108378   0.0000071314   0.0000030446
       -0.0000042761  -0.0000087862  -0.0000037875   0.0000199117   0.0000192876
       -0.0000405482   0.0000108498   0.0000561494   0.0000618792  -0.0000396860
       -0.0000314652  -0.0000254363   0.0000185854   0.0000115024   0.0000269234
       -0.0000005920  -0.0000012037  -0.0000164698  -0.0000033761   0.0000088120
       -0.0000018270  -0.0000086947   0.0000081184  -0.0000325024  -0.0000018064
        0.0001112459  -0.0005414004   0.0000080882  -0.0246251164   0.0163633377
        0.0373442519   0.0434806405   0.0375403341  -0.1072345819   0.0404357069
       -0.1016360612  -0.0974006486   0.0080147559   0.0025936068  -0.0094018697
        0.0040455887  -0.0026702878   0.0019668944   0.0001101795  -0.0001149509
       -0.0001614157   0.0000237686  -0.0000289822  -0.0000020122   0.0000020293
        0.0000225971  -0.0000178263   0.0000083035   0.0000080923  -0.0000059852
        0.0000126502   0.0000127652   0.0000216744   0.0000042125   0.0000742673
        0.0000670677   0.0000179127   0.0000219731   0.0000137519   0.0000108341
       -0.0000065556   0.0000028761   0.0000002422  -0.0000141492  -0.0000001212
        0.0000157813  -0.0000112591  -0.0000003559   0.0000135986  -0.0000001051
       -0.0000012069   0.0000063536   0.0000137683  -0.0000000763  -0.0000021803
        0.0000011248   0.0000059829  -0.0000011696   0.0000007714  -0.0000017725
        0.0000002431   0.0000038271  -0.0000008276   0.0000032370   0.0000046380
        0.0000047393   0.0000029443  -0.0000101970   0.0000031452   0.0000094346
        0.0000067348   0.0000096073  -0.0000034026   0.0000186852   0.0000001605
       -0.0000048426  -0.0000036282   0.0000302112   0.0000025724   0.0000021435
       -0.0000019549  -0.0000047620   0.0000009548   0.0000082805  -0.0000028084
        0.0000022728   0.0000042195  -0.0000033628   0.0000049009   0.0000012108
        0.0000024473   0.0000015927   0.0000057758  -0.0000005357   0.0000102072
        0.0000046512  -0.0000012194  -0.0000014197   0.0000069334  -0.0000003289
        0.0000015202  -0.0000035343   0.0000002345   0.0000075670   0.0000047306
       -0.0000046698   0.0000041022   0.0000023788   0.0000097707   0.0000156746
        0.0000303214   0.0041851340  -0.0032097069   0.0019033778   0.0088814007
        0.0220167967  -0.0101174817
       -0.1404042665   0.0127960178   0.1316964097   0.2917942491   0.0206918742
       -0.2507013457  -0.0814551424   0.0356909472   0.0545846202   0.0155471189
        0.0218911713  -0.0234644645   0.0055429245  -0.0063355404   0.0014895025
       -0.0004926460  -0.0006829676   0.0007693034   0.0002329980  -0.0000508917
       -0.0001856983  -0.0001122378   0.0000166802   0.0000010170   0.0000452357
       -0.0000335484  -0.0000585357  -0.0000400571   0.0000693607   0.0000253478
        0.0001438046   0.0000023317  -0.0001102703   0.0002238033   0.0009171806
        0.0001778245   0.0000766672   0.0002445845   0.0002053954  -0.0001197491
       -0.0000071240   0.0000620831   0.0003682390  -0.0000671707   0.0000521157
       -0.0002039684   0.0002943214   0.0000594526   0.0002975016   0.0002713782
        0.0000602817  -0.0005080276   0.0000659920  -0.0000195537   0.0004070796
       -0.0003091660  -0.0000352511  -0.0003752741   0.0002882411   0.0000670056
        0.0003685178   0.0000941000  -0.0000070414  -0.0001735918   0.0001462203
       -0.0000046338   0.0000906552   0.0001913771   0.0000205626  -0.0000033950
       -0.0001446434  -0.0000019056  -0.0000625712  -0.0000738390  -0.0000005905
        0.0001216587  -0.0002145282  -0.0000039305  -0.0002017721   0.0000277142
       -0.0000146248   0.0000123446  -0.0001784465   0.0000113294   0.0000014047
        0.0000636419  -0.0000222787   0.0000036833  -0.0000349079   0.0000085469
        0.0000026893   0.0000216728   0.0000044252   0.0000005922  -0.0000264217
       -0.0000006388   0.0000002089   0.0000519648  -0.0000005143   0.0002344641
       -0.0003250832  -0.0000849141  -0.0002770504  -0.0002269821  -0.0000781159
       -0.0000609534  -0.0001184160  -0.0000142978  -0.0001594639  -0.0000505197
       -0.0000924488   0.0000564463  -0.0000552948  -0.0000046175  -0.0001290292
        0.0000392604   0.0000567112   0.0000226526   0.0000788274  -0.0000698499
       -0.0000368344   0.0000310454  -0.0000368209   0.0000218191  -0.0000125236
       -0.0000043328  -0.0000168468  -0.0000209273   0.0000629664   0.0000285041
       -0.0001137465   0.0000448072   0.0000702586   0.0000706909   0.0000007658
       -0.0000873391   0.0000463342   0.0000525297  -0.0000055106   0.0000533338
        0.0000183749  -0.0000157524  -0.0000243814   0.0000088073   0.0000171248
       -0.0000262527  -0.0000381355   0.0000678096  -0.0000869525  -0.0000276485
       -0.0000288032  -0.0002087616  -0.0001338386  -0.0170447584   0.0153888438
        0.0192038641  -0.0103543217  -0.0488557812   0.0142075736  -0.0055020152
        0.0006673739   0.0086360121  -0.0574218258  -0.0644302776   0.0299581926
       -0.0054478156   0.0138775621   0.0099313917  -0.0000652916   0.0001010105
       -0.0000536842   0.0000340100   0.0000053008   0.0000072248   0.0000310805
        0.0000115831  -0.0000000202   0.0000134332  -0.0000057435  -0.0000334724
       -0.0000246554  -0.0000006316   0.0000317514   0.0000604560   0.0000131994
        0.0000511180   0.0000096525  -0.0000359862  -0.0000003673   0.0000176689
        0.0000080682   0.0000053250   0.0000058513  -0.0000165717  -0.0000055878
        0.0000295919  -0.0000125871   0.0000038871   0.0000104764  -0.0000038236
        0.0000009881   0.0000179842   0.0000295996   0.0000084359  -0.0000066141
       -0.0000159656   0.0000058471  -0.0000033504   0.0000073311  -0.0000106758
       -0.0000007977   0.0000072786   0.0000009232   0.0000025721   0.0000111495
        0.0000102610   0.0000053451  -0.0000100679   0.0000078196   0.0000178128
        0.0000199665   0.0000015761  -0.0000122784   0.0000308072   0.0000015290
        0.0000244525  -0.0000264890  -0.0000024732   0.0000085870  -0.0000073999
       -0.0000153586  -0.0000158634  -0.0000021438   0.0000125722  -0.0000119425
        0.0000068718  -0.0000013128  -0.0000062974   0.0000177994  -0.0000011987
        0.0000092800   0.0000163541   0.0000022327   0.0000168266   0.0000042997
        0.0000071355   0.0000248459   0.0000027359  -0.0000104248   0.0000079093
        0.0000100238  -0.0000018158   0.0000026206   0.0000112491  -0.0000024102
       -0.0000161398   0.0000090030  -0.0000065651   0.0000204880   0.0000227025
        0.0000104783  -0.0002612821   0.0003167071  -0.0000347146   0.0049941326
       -0.0019005793   0.0037500543
       -0.0323319887  -0.0956801449   0.0440924705   0.0206918742   0.6708976622
        0.0045757584   0.0804397327  -0.2646629156  -0.1283301805  -0.0105321343
       -0.0664905479   0.0122985101  -0.0037617363   0.0003761448   0.0024154305
        0.0004944308   0.0001486782  -0.0007336383  -0.0007461997   0.0001547910
        0.0000278130   0.0003087964  -0.0000301696  -0.0002251673   0.0000141805
        0.0001134027   0.0002277621  -0.0000951011  -0.0000404103  -0.0000475627
       -0.0000928793   0.0001327064  -0.0000756377  -0.0000484474  -0.0028093310
        0.0003475523   0.0003322047  -0.0001402512  -0.0002660935   0.0001101573
       -0.0002647521  -0.0000656685  -0.0001032399   0.0000711321  -0.0000342647
        0.0000132105  -0.0000623555  -0.0000431725   0.0000015447   0.0000257320
        0.0000020765  -0.0000573247   0.0000281444   0.0000088193   0.0001003882
       -0.0000929121   0.0000193070  -0.0000964716   0.0000558071  -0.0000141429
        0.0000692283   0.0000666949   0.0000067694  -0.0000435531   0.0000472861
       -0.0000032425   0.0000073686   0.0000397046  -0.0000025544  -0.0000368140
       -0.0000159713  -0.0000090563   0.0000136155  -0.0000309092  -0.0000012860
        0.0000202675  -0.0000587817   0.0000004166   0.0000000161   0.0000521064
        0.0000055529   0.0000081659  -0.0000423167   0.0000163629   0.0000049627
        0.0000132006   0.0000076610  -0.0000013222  -0.0000173717  -0.0000008384
        0.0000006283  -0.0000100635   0.0000003224   0.0000014830  -0.0000141916
        0.0000024730  -0.0000049268   0.0000126869  -0.0000132806   0.0000121910
       -0.0000486232   0.0000020188   0.0000046536   0.0000111012   0.0000319752
       -0.0000372024   0.0001100559   0.0000597101  -0.0000660291  -0.0003079374
       -0.0000093295  -0.0000935410   0.0001190859  -0.0000098535  -0.0000195760
        0.0000161550   0.0000291347  -0.0000226700   0.0000527597  -0.0000378248
       -0.0000164600   0.0000212372  -0.0000179688   0.0000117394   0.0000001083
       -0.0000059275   0.0000140036  -0.0000224752   0.0000241054  -0.0000001438
       -0.0000384682   0.0000270792   0.0000312934   0.0000422710  -0.0000388338
       -0.0000360396   0.0000555955   0.0000257171  -0.0000079631   0.0000213584
        0.0000227983  -0.0000021631  -0.0000110526   0.0000051065   0.0000109332
       -0.0000182109  -0.0000295952   0.0000341486  -0.0000441316  -0.0000195213
       -0.0002092415   0.0003367451  -0.0000563359   0.0136354835  -0.0097206204
       -0.0199719800  -0.0165170689   0.0203675102   0.0242202844   0.0144634952
       -0.0001857009  -0.0205542541  -0.0648018654  -0.2487404759   0.0808981340
        0.0007749474   0.0004812539  -0.0008131571   0.0001935947  -0.0001522002
        0.0001427703  -0.0000297317   0.0000352774  -0.0000046320  -0.0000364238
       -0.0000077982   0.0000277643  -0.0000035845   0.0000064662   0.0000530983
        0.0000434271   0.0000081937   0.0000431280  -0.0000348092  -0.0001869154
       -0.0000529749  -0.0000348237  -0.0000214908   0.0000160815  -0.0000060739
       -0.0000290489  -0.0000104749  -0.0000100472  -0.0000306883  -0.0000052971
        0.0000124980  -0.0000183507  -0.0000046213   0.0000378933   0.0000138818
        0.0000000421  -0.0000020062   0.0000119417  -0.0000086090   0.0000046326
        0.0000092611   0.0000044425  -0.0000047488   0.0000029053   0.0000046453
       -0.0000018004   0.0000024104  -0.0000000935   0.0000034384  -0.0000022377
        0.0000004244  -0.0000015997  -0.0000008701  -0.0000064107   0.0000056079
        0.0000199776   0.0000012797  -0.0000029001   0.0000245099   0.0000062299
       -0.0000317828   0.0000340790  -0.0000313742  -0.0000066875  -0.0000072635
        0.0000275981   0.0000042189  -0.0000100667   0.0000089881  -0.0000007425
        0.0000009672   0.0000143096  -0.0000113275   0.0000059280  -0.0000063703
        0.0000141037   0.0000069797   0.0000038871   0.0000123066  -0.0000056770
        0.0000017320  -0.0000044838   0.0000000016  -0.0000019101   0.0000070005
        0.0000014151  -0.0000072105  -0.0000026602   0.0000206257   0.0000091336
       -0.0000074467  -0.0000080435   0.0000073548  -0.0000727796   0.0000318248
       -0.0000255160   0.0003702410   0.0005062939  -0.0005096428  -0.0022455447
       -0.0045323147   0.0023314747
        0.1293338122  -0.0218615268  -0.2327005838  -0.2507013457   0.0045757584
        0.4773154974   0.0589782343  -0.0645876061  -0.1325982581  -0.0259629769
       -0.0348682690   0.0352885896   0.0029097097   0.0069251881   0.0015756260
        0.0001277035  -0.0003814427  -0.0003650101  -0.0007710482   0.0005164769
        0.0000574688   0.0002340475   0.0000448386  -0.0001737990   0.0000620690
        0.0001628821   0.0003119501  -0.0003488291  -0.0001039483  -0.0000892082
        0.0001069870  -0.0001140995  -0.0003194298  -0.0005096732  -0.0008817530
        0.0013544891  -0.0001437547  -0.0001126317  -0.0002854932   0.0002309611
       -0.0000590695  -0.0001855913  -0.0006103213   0.0001410253  -0.0000832012
        0.0003450657  -0.0004522165  -0.0000808017  -0.0004742625  -0.0004132484
       -0.0000996510   0.0008095403  -0.0001126167   0.0000275451  -0.0006435944
        0.0004646358   0.0000387930   0.0005413778  -0.0004597067  -0.0000947619
       -0.0005356696  -0.0001287708   0.0000053328   0.0002449167  -0.0002117232
        0.0000087161  -0.0001273850  -0.0002663523  -0.0000278617   0.0000061833
        0.0001975640   0.0000124122   0.0000891803   0.0001087773   0.0000007613
       -0.0001845856   0.0003098844   0.0000041297   0.0003134909  -0.0000170238
        0.0000312856  -0.0000147731   0.0002437309  -0.0000142736  -0.0000036124
       -0.0000891800   0.0000346011  -0.0000060687   0.0000482960  -0.0000092418
       -0.0000032748  -0.0000273737  -0.0000071798   0.0000008826   0.0000346896
        0.0000082256  -0.0000004221  -0.0000709625   0.0000019545  -0.0003796449
        0.0005084472   0.0001357447   0.0004525130   0.0003395432   0.0001460085
        0.0000998316   0.0001751316   0.0000571811   0.0001839736   0.0000276786
       -0.0000437537  -0.0001301894   0.0001882038  -0.0000178307   0.0002363075
       -0.0000731243  -0.0001032945  -0.0000441089  -0.0001141251   0.0000908573
        0.0000444609  -0.0000489890   0.0000458206  -0.0000269230   0.0000173283
        0.0000180143   0.0000393984   0.0000263668  -0.0000986758  -0.0000524189
        0.0001802800  -0.0000580977  -0.0000959764  -0.0001056954   0.0000647834
        0.0001305061  -0.0000638153  -0.0000889768  -0.0000019985  -0.0000840601
       -0.0000215234   0.0000248898   0.0000396435  -0.0000090010  -0.0000323133
        0.0000405213   0.0000569179  -0.0000808586   0.0001302271   0.0000340291
        0.0001545126   0.0004684808   0.0000695086   0.0195828052  -0.0229487523
       -0.0340994641   0.0156416753   0.0722524015  -0.0170839959   0.0095181984
       -0.0010656694  -0.0129212272   0.0291796163   0.0808323691  -0.0733608349
        0.0088388456  -0.0205284720  -0.0139078516  -0.0000243712  -0.0000647765
        0.0002317958  -0.0000071469   0.0000168833  -0.0000163049  -0.0000321723
       -0.0000336734   0.0000142982  -0.0000012044   0.0000015063   0.0000504984
        0.0000467979   0.0000093550  -0.0000183483  -0.0000784105  -0.0000970120
       -0.0000643005  -0.0000072059   0.0000503948  -0.0000147197  -0.0000239274
       -0.0000159615  -0.0000071384  -0.0000039146   0.0000181798   0.0000086763
       -0.0000418157   0.0000146781  -0.0000053207  -0.0000125004   0.0000037561
        0.0000012299  -0.0000278844  -0.0000481324  -0.0000095202   0.0000088303
        0.0000264605  -0.0000062895   0.0000069424  -0.0000108821   0.0000198788
        0.0000014892  -0.0000121438   0.0000011434  -0.0000035077  -0.0000179484
       -0.0000122622  -0.0000092171   0.0000078928  -0.0000096929  -0.0000254585
       -0.0000285209  -0.0000045954   0.0000141753  -0.0000397211  -0.0000056031
       -0.0000330602   0.0000331845  -0.0000180933  -0.0000057873   0.0000111647
        0.0000235334   0.0000195666   0.0000036517  -0.0000153006   0.0000174404
       -0.0000092914   0.0000025545   0.0000082497  -0.0000267530   0.0000000429
       -0.0000110258  -0.0000226427  -0.0000032660  -0.0000210060  -0.0000049334
       -0.0000105304  -0.0000346833  -0.0000020849   0.0000144450  -0.0000065256
       -0.0000131922   0.0000069820  -0.0000019937  -0.0000108730   0.0000046861
        0.0000226696  -0.0000141687   0.0000138147  -0.0000244945  -0.0000495051
       -0.0000104723   0.0000045062  -0.0003901120  -0.0002290820   0.0037109788
        0.0019670752   0.0022198907
       -0.0109691800   0.0122247241   0.0188780062  -0.0814551424   0.0804397327
        0.0589782343   0.2901179519   0.0029790483  -0.2586219642  -0.0831443499
       -0.0716100486   0.0434435567   0.0066498531   0.0021877138  -0.0044149129
       -0.0010560729   0.0017258346   0.0004346375  -0.0017868457   0.0010395638
        0.0000276744   0.0003702932   0.0000249347  -0.0006906643   0.0000822632
        0.0002003121   0.0004754391  -0.0004478041  -0.0000899328   0.0002269540
        0.0006498883   0.0000053130  -0.0003596709  -0.0000244470   0.0010361701
        0.0003139894   0.0000603352  -0.0002230495  -0.0001889628  -0.0000418667
       -0.0003335701   0.0000278570   0.0007051291  -0.0001249442   0.0000837761
       -0.0005145646   0.0006328338   0.0001016123   0.0007735504   0.0006667260
        0.0001521457  -0.0014982553   0.0002174649  -0.0000292380   0.0013283685
       -0.0009042428  -0.0000603392  -0.0011060591   0.0009081215   0.0001817479
        0.0010623917   0.0002460974  -0.0000074035  -0.0004457537   0.0003739371
       -0.0000186803   0.0002031106   0.0004135626   0.0000487815  -0.0000670231
       -0.0002484453  -0.0000044955  -0.0000193428  -0.0002000033  -0.0000004341
        0.0002416692  -0.0005732558  -0.0000310047  -0.0005465406  -0.0000701318
       -0.0000454736   0.0000171218  -0.0002856229   0.0000198738   0.0000261289
        0.0001081204  -0.0000357232   0.0000090265  -0.0000608053   0.0000142334
        0.0000076448   0.0000279488   0.0000119103  -0.0000059910  -0.0000340554
       -0.0000123618  -0.0000106097   0.0000755653  -0.0000065328   0.0006445944
       -0.0008591039  -0.0002007296  -0.0006940615  -0.0004922276  -0.0001908909
       -0.0003324494  -0.0000689695  -0.0000064914  -0.0002277102  -0.0002209157
       -0.0001897821   0.0001031219  -0.0000827182   0.0000460429  -0.0003039136
        0.0001152428   0.0001716113   0.0000226334   0.0002134541  -0.0001520999
       -0.0000789457   0.0000749731  -0.0000939159   0.0000419960  -0.0000179326
       -0.0000256273  -0.0000553452  -0.0000584279   0.0001571573   0.0000674078
       -0.0002797540   0.0001013256   0.0001461172   0.0001984326  -0.0001915157
       -0.0002149200   0.0001460724   0.0001421241   0.0000084757   0.0001377089
        0.0000457332  -0.0000357389  -0.0000620892   0.0000180655   0.0000711470
       -0.0000698002  -0.0001085396   0.0001333635  -0.0002252722  -0.0000600931
       -0.0000606773   0.0005183028   0.0000661823  -0.0080981688  -0.0152240020
        0.0125910742  -0.0017877486   0.0022840668  -0.0037445583   0.0030126651
       -0.0002384979   0.0061953656   0.0024197244  -0.0061555380  -0.0031199802
       -0.1163273471  -0.0110526840   0.1236888649  -0.0006580728   0.0007834518
        0.0001571636   0.0000719736   0.0000793634  -0.0000166028   0.0000552443
        0.0000002584   0.0000533444   0.0000483190  -0.0000148934  -0.0000474486
        0.0000277531   0.0000631089   0.0000361519  -0.0000520877  -0.0001691222
        0.0001906758   0.0000073472  -0.0000495306   0.0000060807   0.0000376533
        0.0000197390   0.0000156235   0.0000101789  -0.0000302032  -0.0000119973
        0.0000562794  -0.0000203103   0.0000093626   0.0000223168  -0.0000035528
        0.0000020280   0.0000389312   0.0000643301   0.0000133389  -0.0000124830
       -0.0000262549   0.0000105982  -0.0000084717   0.0000150571  -0.0000200944
       -0.0000019500   0.0000152502  -0.0000004177   0.0000061041   0.0000223359
        0.0000157840   0.0000116563  -0.0000169115   0.0000145074   0.0000328715
        0.0000494538  -0.0000013284  -0.0000254188   0.0000816163   0.0000049325
        0.0000305434  -0.0000141000   0.0000611767   0.0000203684  -0.0000239800
       -0.0000267160  -0.0000328970  -0.0000011316   0.0000362642  -0.0000225280
        0.0000130317  -0.0000005653  -0.0000135414   0.0000361627  -0.0000013285