$hessian                                                                        
        0.5229578830   0.0021404531  -0.0004662845  -0.0664386181  -0.0050701969
        0.0035974653  -0.0008416769   0.0178910408  -0.0159227662   0.0004008453
       -0.0004370728   0.0003365101   0.0001484515   0.0000499826  -0.0001419175
       -0.0000202063  -0.0000371223   0.0000800408   0.0000811417  -0.0000687269
        0.0000956252   0.0001374056  -0.0001570025   0.0000493799  -0.0000507297
        0.0001203510   0.0000129669  -0.0000645143  -0.0001561747   0.0000202507
        0.0000327374   0.0000275679   0.0000323692  -0.0000190965  -0.0000336973
        0.0000048710  -0.0000304477  -0.0000421680   0.0000053469   0.0000045734
        0.0000720315  -0.0000062759  -0.0000296597  -0.0000227623  -0.0000221725
        0.0000034630   0.0000030975   0.0000119484  -0.0000042040  -0.0000084475
       -0.0000056075   0.0000005680   0.0000034221  -0.0000031635   0.0000011754
       -0.0000042557   0.0000030146  -0.0000023840   0.0000097941  -0.0000084765
        0.0000062770   0.0000095914   0.0000049731  -0.0000029177  -0.0000028367
       -0.0000007532   0.0000019855   0.0000040734   0.0000026489   0.0000024746
       -0.0000069058   0.0000078362  -0.0000060106   0.0000022373  -0.0000090881
        0.0000253892  -0.0000200463   0.0000247594   0.0000113761   0.0000031438
        0.0000035475  -0.0000404376   0.0000158161  -0.0000056382  -0.0000099928
        0.0000442155  -0.0000090375  -0.0000106400  -0.0000069794  -0.0000001028
        0.0000404566   0.0000039472  -0.0000032474  -0.0000626380   0.0000102759
        0.0000062972   0.0000230232   0.0000270374   0.0000140014   0.0000011479
       -0.0000094632  -0.0000062989   0.0000103219   0.0000023479   0.0000036829
       -0.0000034579   0.0000010332   0.0000002049   0.0000011169  -0.0000015796
       -0.0000005549  -0.0000091768   0.0000065479   0.0000052711  -0.0000115257
       -0.0000027194  -0.0000051906   0.0000029189  -0.0000000675  -0.0000006591
       -0.0000037964  -0.0000009136  -0.0000007709   0.0000086859  -0.0000045921
       -0.0000042570  -0.0000004975   0.0000042951   0.0000086559   0.0000159980
       -0.0000288574  -0.0000206892   0.0000288425  -0.0000114186   0.0000025863
       -0.0000269773  -0.0000313260   0.0000107743   0.0001583861   0.0000284861
       -0.0000164473  -0.1798510001  -0.1154308720  -0.0300239057  -0.0485881826
        0.0119985466   0.0252595298  -0.2223802409   0.1038688609   0.0006745802
       -0.0026586723  -0.0183568482   0.0173051785   0.0007244947  -0.0014437565
        0.0018025172   0.0006776897  -0.0003538385  -0.0008616994  -0.0032827276
        0.0040320583  -0.0008540968  -0.0000999815   0.0001287070  -0.0001764918
       -0.0006713813   0.0010271171  -0.0004904755  -0.0000985711   0.0000821454
       -0.0000164880  -0.0000331447   0.0000077955  -0.0000482230  -0.0000076295
        0.0000271920  -0.0000332052  -0.0000371510   0.0000374278  -0.0000460696
       -0.0000296394  -0.0000082811  -0.0000173414  -0.0000079028   0.0000253598
       -0.0000160968  -0.0000148246  -0.0000069112  -0.0000808604  -0.0000167983
        0.0000286701  -0.0000153796  -0.0000011365  -0.0000435416  -0.0000352580
        0.0000038142   0.0000050253  -0.0000030832  -0.0000019660   0.0000012872
       -0.0000057576  -0.0000000953   0.0000008464   0.0000010563   0.0000009850
        0.0000014725   0.0000005579   0.0000009609   0.0000004461   0.0000009059
       -0.0000004893   0.0000010195   0.0000004304   0.0000008964   0.0000008676
        0.0000007865   0.0000014318   0.0000014471   0.0000009801   0.0000038504
        0.0000034984   0.0000034600  -0.0000019839   0.0000124369  -0.0000013833
       -0.0000070575   0.0000097532  -0.0000034719  -0.0000026953   0.0000047101
        0.0000008810  -0.0000024645   0.0000001466  -0.0000018070  -0.0000040313
        0.0000003753  -0.0000017754  -0.0000044823   0.0000014409  -0.0000004766
       -0.0000035895   0.0000015310  -0.0000001207  -0.0000027296   0.0000019784
        0.0000010622  -0.0000012705   0.0000016958   0.0000012228  -0.0000020411
        0.0000005245  -0.0000019540  -0.0000128112  -0.0000003643   0.0000005393
       -0.0000044706   0.0000145736  -0.0000038961
        0.0021404531   0.4935338211   0.0329224588  -0.0064413875  -0.1307383837
        0.0661853983   0.0047005324  -0.0169585372   0.0132065710  -0.0000895255
        0.0000123070  -0.0000103228  -0.0000651990  -0.0001047088   0.0000680335
       -0.0000445165  -0.0000270466  -0.0000226220   0.0000450681  -0.0000547521
        0.0000444256  -0.0000970240   0.0000374136  -0.0000262632   0.0000647681
        0.0000173397  -0.0000381703   0.0000052483  -0.0000276773   0.0000200620
       -0.0000780645   0.0000229033  -0.0000401659   0.0000053127   0.0000074774
       -0.0000092902   0.0000139331   0.0000249979  -0.0000015121   0.0000059562
       -0.0000451740   0.0000157592   0.0000186185   0.0000172044   0.0000171831
       -0.0000091282   0.0000116244  -0.0000131496   0.0000063650   0.0000105327
        0.0000018658  -0.0000002107  -0.0000016478  -0.0000010911  -0.0000020026
       -0.0000002637  -0.0000023734   0.0000018710  -0.0000038793   0.0000050368
       -0.0000057015  -0.0000118022  -0.0000030063  -0.0000015908   0.0000036450
       -0.0000026887  -0.0000028838  -0.0000029866   0.0000000545  -0.0000018212
        0.0000090973  -0.0000058311   0.0000066600   0.0000021068   0.0000065387
       -0.0000191299   0.0000222746  -0.0000293117  -0.0000052517  -0.0000289403
        0.0000016628   0.0000004939   0.0000252158  -0.0000040922   0.0000236460
       -0.0000339561   0.0000058189  -0.0000080815   0.0000057268  -0.0000025962
       -0.0000311656   0.0000046077   0.0000005951   0.0000484243  -0.0000013521
        0.0000046944  -0.0000209484  -0.0000191360  -0.0000154832   0.0000025217
        0.0000045114   0.0000055934  -0.0000054714  -0.0000017528  -0.0000042745
        0.0000033369  -0.0000025338  -0.0000013324  -0.0000028032   0.0000002350
       -0.0000006273   0.0000084610  -0.0000050135  -0.0000038149   0.0000064023
        0.0000024522   0.0000046697  -0.0000003758  -0.0000026010  -0.0000013085
        0.0000023867  -0.0000006813   0.0000016657  -0.0000050359   0.0000040680
        0.0000032577  -0.0000022505  -0.0000064826  -0.0000059961  -0.0000094767
        0.0000214506   0.0000121419   0.0000024139  -0.0000009930  -0.0000058499
        0.0000141721  -0.0000117493  -0.0000063029  -0.0000885141   0.0000176583
        0.0000142247  -0.1154003340  -0.1411263782  -0.0275021043   0.0120179885
       -0.0892495631  -0.0937128903   0.1041538987  -0.1038922771  -0.0022835783
       -0.0042413539  -0.0174854684   0.0158597440   0.0006035386   0.0072591281
       -0.0064144296  -0.0006491074   0.0006348291   0.0008606454   0.0033014102
       -0.0020628341   0.0005756853   0.0001597572   0.0000242088   0.0000146293
       -0.0001652581   0.0000897563   0.0002500760   0.0000139082   0.0000175489
       -0.0000167255   0.0000180511   0.0000206631   0.0000026928   0.0000123008
        0.0000049190  -0.0000196880  -0.0000279899   0.0000127786  -0.0000515374
        0.0000186117   0.0000203556   0.0000053434  -0.0000179313   0.0000170581
       -0.0000004002   0.0000532779  -0.0000270590   0.0000606949   0.0000133151
        0.0000125513   0.0000021203   0.0000121964   0.0000169866   0.0000469970
        0.0000061894   0.0000096552   0.0000010590   0.0000013719  -0.0000035822
        0.0000065800  -0.0000030603  -0.0000025264  -0.0000026129  -0.0000036448
       -0.0000073129  -0.0000017125  -0.0000016685  -0.0000073214   0.0000026572
       -0.0000026521  -0.0000055418   0.0000025634   0.0000005027  -0.0000040876
        0.0000054546   0.0000019251   0.0000011818   0.0000052722  -0.0000029575
        0.0000025267   0.0000001377   0.0000144077  -0.0000073587   0.0000013650
        0.0000057370  -0.0000020035   0.0000017730   0.0000005500   0.0000006824
       -0.0000007490  -0.0000005099   0.0000016574   0.0000010484   0.0000021140
        0.0000005096   0.0000012889   0.0000018143  -0.0000002019   0.0000008284
        0.0000033202  -0.0000005324   0.0000015768   0.0000028180  -0.0000019486
        0.0000003570   0.0000006894  -0.0000014913  -0.0000000967   0.0000023406
        0.0000003952   0.0000029216   0.0000091753   0.0000045863  -0.0000011521
       -0.0000042275   0.0000088907   0.0000039297
       -0.0004662845   0.0329224588   0.4875184227   0.0047011252   0.0661363306
       -0.1376927650  -0.0032778883   0.0044478868  -0.0020168434   0.0001071553
       -0.0002487067   0.0000595355   0.0001348391   0.0000749149  -0.0000571419
        0.0000374191  -0.0000200626  -0.0000511672   0.0000443231  -0.0000090354
       -0.0000384964  -0.0000137276   0.0000525024  -0.0000596118  -0.0000317463
       -0.0000293965  -0.0000210520   0.0000248719   0.0000485625   0.0000011405
        0.0000191176  -0.0000183269  -0.0000213429   0.0000030536   0.0000049048
        0.0000024598   0.0000007753   0.0000012541  -0.0000021686   0.0000076340
        0.0000013381   0.0000102223  -0.0000053040  -0.0000154622  -0.0000068936
       -0.0000003392   0.0000024773   0.0000000318  -0.0000008847  -0.0000019568
       -0.0000020674  -0.0000035982   0.0000013037   0.0000010790   0.0000017365
       -0.0000032165  -0.0000037606   0.0000014082   0.0000057551   0.0000001822
       -0.0000025093  -0.0000049452   0.0000007948  -0.0000003006   0.0000034657
       -0.0000049778   0.0000016663  -0.0000003789   0.0000014667   0.0000015568
       -0.0000025984   0.0000027093  -0.0000025301  -0.0000071165  -0.0000028313
       -0.0000031791   0.0000046077  -0.0000014058  -0.0000004399   0.0000099091
       -0.0000011843   0.0000063670  -0.0000163623   0.0000148928  -0.0000084450
        0.0000052078  -0.0000012272   0.0000083014  -0.0000022887  -0.0000019158
        0.0000016757   0.0000003787   0.0000019946  -0.0000058005   0.0000059232
        0.0000034030  -0.0000020801  -0.0000000068  -0.0000015708   0.0000009649
       -0.0000043054  -0.0000008766   0.0000021325  -0.0000000627   0.0000017295
        0.0000000786  -0.0000008284   0.0000026115  -0.0000015598  -0.0000034421
       -0.0000036688   0.0000026713   0.0000019115   0.0000001910  -0.0000045985
       -0.0000002211  -0.0000013130   0.0000024566  -0.0000020782  -0.0000007581
       -0.0000024508  -0.0000010288   0.0000009273   0.0000011722  -0.0000009615
        0.0000010561  -0.0000012040   0.0000016170   0.0000005691   0.0000055181
       -0.0000075302  -0.0000035133  -0.0000103139   0.0000005081  -0.0000020671
       -0.0000013307   0.0000145495  -0.0000067374   0.0000022899  -0.0000086821
        0.0000164070  -0.0298731741  -0.0271994581  -0.0503561460   0.0252415118
       -0.0935175335  -0.2313124547   0.0006564792  -0.0022809466  -0.0432821596
        0.0007939106   0.0012195486   0.0011343988   0.0017737742   0.0196806606
       -0.0261551924   0.0005400901  -0.0010706703   0.0012702964  -0.0000149185
       -0.0004035127   0.0007964329   0.0000119680   0.0001106048   0.0000488914
       -0.0003069120   0.0001907340  -0.0000461924  -0.0000331042  -0.0000389722
        0.0000366844   0.0000072842  -0.0000097709   0.0000076083  -0.0000034932
        0.0000023229   0.0000537046  -0.0000072625   0.0000008344  -0.0000117502
       -0.0000057081   0.0000010854   0.0000165881  -0.0000299976  -0.0000023275
        0.0000304337   0.0000054115  -0.0000198915   0.0000590714  -0.0000199441
        0.0000059588   0.0000399580  -0.0000114226   0.0000038358   0.0000083089
       -0.0000072020  -0.0000078638   0.0000023364   0.0000018224  -0.0000055161
        0.0000043145   0.0000032843  -0.0000024847   0.0000046940   0.0000018633
        0.0000007076   0.0000034870   0.0000007915   0.0000010168   0.0000018365
        0.0000023072   0.0000033005   0.0000019462   0.0000008978   0.0000031035
       -0.0000017549  -0.0000003655  -0.0000002142   0.0000007697   0.0000028956
        0.0000021127   0.0000009165  -0.0000042839  -0.0000012859   0.0000016108
        0.0000000743  -0.0000024795   0.0000017087   0.0000013971   0.0000032852
       -0.0000000677  -0.0000019241   0.0000014897  -0.0000017607  -0.0000015194
        0.0000002705  -0.0000006025  -0.0000024122   0.0000011854   0.0000004527
        0.0000005509   0.0000017209   0.0000020547   0.0000007042   0.0000008578
        0.0000003024   0.0000013140   0.0000003275   0.0000005629   0.0000025174
       -0.0000070738   0.0000009564  -0.0000025005  -0.0000015877   0.0000001891
        0.0000015000  -0.0000021406   0.0000030973
       -0.0664386181  -0.0064413875   0.0047011252   0.4874804704   0.0271463589
        0.0048882854  -0.1448736702   0.0618875647   0.0024206235  -0.0274722835
        0.0114504306  -0.0024707191  -0.0034834461  -0.0023480996  -0.0009848435
       -0.0009474318   0.0006871251  -0.0001582769   0.0000916753   0.0000640036
        0.0000362976  -0.0000614636   0.0000343982   0.0000017054  -0.0000429748
        0.0000433148   0.0000551847  -0.0000098793  -0.0000974775   0.0000059055
        0.0000722153  -0.0000391938  -0.0000153234  -0.0000013624  -0.0000186362
        0.0000040121  -0.0000035105  -0.0000129691   0.0000044544   0.0000046617
        0.0000516505  -0.0000125538  -0.0000250678  -0.0000163385  -0.0000198459
        0.0000025094  -0.0000069574   0.0000075160  -0.0000078821  -0.0000137062
       -0.0000047924  -0.0000012027   0.0000001927  -0.0000008328  -0.0000017763
       -0.0000060348  -0.0000007344  -0.0000019418   0.0000077945  -0.0000048939
        0.0000034007   0.0000084024   0.0000019969  -0.0000008740  -0.0000049807
        0.0000016121  -0.0000001422  -0.0000003894   0.0000013059   0.0000031986
       -0.0000113057   0.0000090724  -0.0000035072  -0.0000072681  -0.0000069249
        0.0000174462  -0.0000135058   0.0000261477  -0.0000090733   0.0000187088
       -0.0000008959  -0.0000021593  -0.0000095043   0.0000046489  -0.0000188237
        0.0000107680  -0.0000027479  -0.0000046137  -0.0000018201   0.0000012000
        0.0000399338   0.0000014309  -0.0000022139  -0.0000493050   0.0000078184
        0.0000003409   0.0000224624   0.0000227396   0.0000173585   0.0000051570
       -0.0000078591  -0.0000059514   0.0000119466   0.0000022237   0.0000045987
       -0.0000027451   0.0000004010   0.0000007987   0.0000026409  -0.0000010790
        0.0000007583  -0.0000076347   0.0000048936   0.0000044960  -0.0000094399
       -0.0000020395  -0.0000034331   0.0000028821  -0.0000012372  -0.0000010299
       -0.0000020666   0.0000001017   0.0000006843   0.0000112053  -0.0000049896
       -0.0000037876   0.0000033126   0.0000040737   0.0000063700   0.0000151277
       -0.0000286715  -0.0000195106   0.0000120187  -0.0000044180   0.0000036374
       -0.0000112351  -0.0000097565   0.0000158884   0.0001019983  -0.0000029081
       -0.0000144211  -0.0018293167  -0.0176687749   0.0166695261   0.0001631478
       -0.0020880988   0.0027948644  -0.0010551243   0.0191340421  -0.0185683616
       -0.1906989777  -0.1053327154  -0.0265370354  -0.0457733318   0.0055649681
        0.0143923478  -0.0058923121   0.0059607785   0.0028798383  -0.0001722139
        0.0012453255  -0.0008901202   0.0009221227   0.0007996034   0.0006193584
        0.0003905839   0.0002593262   0.0002707663   0.0000629076  -0.0003133021
        0.0000769306  -0.0002302602  -0.0001487978  -0.0002255817  -0.0000253691
        0.0000184364   0.0000678179  -0.0000458189  -0.0000279624  -0.0000318471
        0.0000378938  -0.0000271009   0.0000294263  -0.0000199627   0.0000026467
       -0.0000181843  -0.0000800447   0.0000887894   0.0000187422  -0.0000666337
        0.0000465514  -0.0000359135  -0.0000461839   0.0000630823   0.0000155055
       -0.0000053892   0.0000088583   0.0000006901   0.0000023750   0.0000124787
       -0.0000010970   0.0000027687   0.0000039669   0.0000017144   0.0000025086
        0.0000064831   0.0000010951   0.0000012631   0.0000062909  -0.0000003217
       -0.0000001737   0.0000063383  -0.0000011693  -0.0000008433   0.0000053480
       -0.0000030850  -0.0000012666   0.0000026070  -0.0000026943  -0.0000001289
        0.0000078038  -0.0000006728   0.0000001116   0.0000074230  -0.0000012387
       -0.0000089237   0.0000052227  -0.0000023644  -0.0000012269   0.0000009596
        0.0000001036  -0.0000008238  -0.0000018892  -0.0000019678  -0.0000038389
       -0.0000016969  -0.0000018234  -0.0000050735   0.0000000511  -0.0000001621
       -0.0000042396   0.0000004530   0.0000000335  -0.0000036127   0.0000015194
        0.0000012693  -0.0000020478   0.0000019964   0.0000014115  -0.0000040686
        0.0000003707  -0.0000010732  -0.0000117630  -0.0000032770   0.0000009997
       -0.0000068453   0.0000100325  -0.0000100201
       -0.0050701969  -0.1307383837   0.0661363306   0.0271463589   0.4892318586
        0.0292094609   0.0581974756  -0.1102797510  -0.0028106223  -0.0072305177
        0.0079230878   0.0000053016  -0.0025667951  -0.0010576064  -0.0005259918
       -0.0005729462   0.0003191783  -0.0000532222   0.0000586595  -0.0000323755
        0.0000166408  -0.0000723685  -0.0000037191  -0.0002669380   0.0000874236
        0.0000448001   0.0001011459  -0.0000073268  -0.0000305707   0.0000013185
       -0.0001816320   0.0000652582  -0.0000254682   0.0000381748   0.0000112573
       -0.0000059711   0.0000216233   0.0000210810  -0.0000039978  -0.0000018040
       -0.0000765254   0.0000241976   0.0000402275   0.0000262987   0.0000296479
       -0.0000157961   0.0000204043  -0.0000134018   0.0000091669   0.0000159555
        0.0000073508  -0.0000007096  -0.0000026692   0.0000002323   0.0000007005
        0.0000036850   0.0000021303   0.0000024882  -0.0000114930   0.0000085669
       -0.0000054780  -0.0000146692  -0.0000019161  -0.0000014801   0.0000053014
       -0.0000018056  -0.0000027039  -0.0000024794   0.0000007893  -0.0000024614
        0.0000173381  -0.0000095258   0.0000090877   0.0000106352   0.0000118682
       -0.0000238709   0.0000206589  -0.0000435156   0.0000049726  -0.0000504819
        0.0000084602  -0.0000176121   0.0000503457  -0.0000121064   0.0000497055
       -0.0000291294   0.0000016775  -0.0000088161  -0.0000013833  -0.0000001516
       -0.0000447408   0.0000142331  -0.0000027537   0.0000657970  -0.0000101057
        0.0000032324  -0.0000263731  -0.0000272721  -0.0000235432  -0.0000037490
        0.0000065590   0.0000071015  -0.0000143543  -0.0000021867  -0.0000056986
        0.0000016632  -0.0000009673  -0.0000007813  -0.0000050169   0.0000001657
       -0.0000006524   0.0000092844  -0.0000063912  -0.0000048439   0.0000111680
        0.0000030516   0.0000061085  -0.0000039856  -0.0000003007   0.0000011221
        0.0000016742  -0.0000006270   0.0000021427  -0.0000105192   0.0000063153
        0.0000058174  -0.0000058896  -0.0000081585  -0.0000054687  -0.0000161645
        0.0000356504   0.0000214002   0.0000057014   0.0000080401  -0.0000044710
        0.0000068362  -0.0000039818   0.0000091969  -0.0001061998   0.0000044829
        0.0000014642  -0.0038829481  -0.0174274035   0.0152582224   0.0004811349
        0.0081636894  -0.0063716763   0.0019591957  -0.0143835705   0.0135159946
       -0.1054770275  -0.1160840750  -0.0213328467   0.0056991522  -0.0893465742
       -0.0917687799   0.0131211690  -0.0101364331  -0.0033872377   0.0193899175
       -0.0175369855   0.0021633495  -0.0010001770   0.0007604839   0.0000695086
       -0.0001501431   0.0002689449   0.0002140317   0.0000348026   0.0000794317
       -0.0001339871  -0.0001929063   0.0000059607  -0.0001208015   0.0000272445
        0.0000364894  -0.0000179932  -0.0000126143   0.0000520983  -0.0000009319
        0.0000014351   0.0000300138  -0.0000145087   0.0000095518   0.0000224230
        0.0000066682   0.0000056945   0.0000295641   0.0000787750   0.0000673245
        0.0000010753  -0.0000080908   0.0000572077   0.0000727828   0.0000370716
        0.0000259179  -0.0000046646  -0.0000012714   0.0000041700  -0.0000117433
        0.0000045214  -0.0000031165  -0.0000063885  -0.0000046336  -0.0000035356
       -0.0000116890  -0.0000020299  -0.0000015755  -0.0000106862   0.0000022340
       -0.0000011792  -0.0000092138   0.0000043901   0.0000015388  -0.0000069635
        0.0000069832   0.0000021979  -0.0000021791   0.0000060292  -0.0000028206
       -0.0000083385   0.0000008455   0.0000109063  -0.0000099737  -0.0000000392
        0.0000105886  -0.0000013204   0.0000000401   0.0000088863  -0.0000008029
       -0.0000011889   0.0000022882   0.0000021856   0.0000013034   0.0000046997
        0.0000013564   0.0000014451   0.0000044163   0.0000000861   0.0000009011
        0.0000052101  -0.0000012722   0.0000007407   0.0000043161  -0.0000027689
       -0.0000001342   0.0000023125  -0.0000022304  -0.0000005836   0.0000067891
       -0.0000002065   0.0000008811   0.0000144627   0.0000031198  -0.0000026908
        0.0000168326   0.0000013641  -0.0000043691
        0.0035974653   0.0661853983  -0.1376927650   0.0048882854   0.0292094609
        0.5076396807   0.0032839540  -0.0025989609  -0.0667217415  -0.0058482928
        0.0028994476  -0.0003339338  -0.0013826028  -0.0007418479  -0.0003540696
       -0.0003294197   0.0002104937   0.0000247736   0.0000163071   0.0000181452
       -0.0000914782   0.0002408608   0.0000129311  -0.0001220677  -0.0000876357
        0.0000566371   0.0000664084  -0.0000242667  -0.0000237732  -0.0000034433
       -0.0000033043  -0.0000141503   0.0000326048   0.0000155392  -0.0000262675
        0.0000087333   0.0000004497  -0.0000364706  -0.0000000496   0.0000086878
        0.0000294665  -0.0000071680  -0.0000158044  -0.0000146678  -0.0000117288
        0.0000011955   0.0000030426   0.0000023382  -0.0000010712  -0.0000055972
       -0.0000012259  -0.0000044059   0.0000016223  -0.0000010331   0.0000029503
       -0.0000042487  -0.0000031620  -0.0000002230   0.0000070271  -0.0000039501
        0.0000005922   0.0000033001   0.0000023051  -0.0000002252  -0.0000001407
       -0.0000035921   0.0000014778   0.0000000405   0.0000003148   0.0000019821
       -0.0000030163   0.0000030992  -0.0000017378  -0.0000019830  -0.0000064917
        0.0000071846  -0.0000084235   0.0000135775   0.0000076947  -0.0000027488
        0.0000044339  -0.0000248595   0.0000039218   0.0000084921  -0.0000021636
        0.0000367068  -0.0000114830   0.0000079606  -0.0000178959  -0.0000016661
        0.0000321232   0.0000067392  -0.0000000050  -0.0000335482   0.0000080206
       -0.0000020783   0.0000106106   0.0000112610   0.0000084070  -0.0000048946
       -0.0000032172  -0.0000035766   0.0000019444   0.0000021024   0.0000036777
       -0.0000012455   0.0000014074   0.0000035484   0.0000008183  -0.0000028832
       -0.0000023004  -0.0000033648   0.0000052516   0.0000028120  -0.0000070987
       -0.0000011602  -0.0000036010   0.0000030250  -0.0000000459   0.0000000437
       -0.0000037321  -0.0000005296  -0.0000000453   0.0000033964  -0.0000010698
       -0.0000002799  -0.0000029749   0.0000045194   0.0000024110   0.0000077820
       -0.0000185634  -0.0000072523   0.0000076570   0.0000043570  -0.0000011095
       -0.0000179616   0.0000118164   0.0000036657   0.0000939784  -0.0000005960
        0.0000151956   0.0017999476  -0.0002605685   0.0023124817   0.0015349878
        0.0189230106  -0.0266485873  -0.0009989961   0.0029331376  -0.0017302145
       -0.0264002650  -0.0214384768  -0.0500707774   0.0142542447  -0.0923552114
       -0.2228454965   0.0223718814  -0.0183939193  -0.0034160504  -0.0155780139
        0.0145809611  -0.0007425133  -0.0013169348   0.0006949835   0.0004708423
        0.0002672943   0.0001110882   0.0000757395   0.0000192014  -0.0000871807
        0.0000262124  -0.0001356302  -0.0000371539  -0.0000924005  -0.0000144265
        0.0000225722   0.0000350551  -0.0000240220   0.0000079192   0.0000563926
       -0.0000324357  -0.0000287306   0.0000035165   0.0000105860  -0.0000211097
        0.0000120409  -0.0002906106   0.0000472954   0.0000893630   0.0000865256
        0.0000171515   0.0000743156   0.0000003586   0.0000815748  -0.0000853215
       -0.0000003457  -0.0000065940   0.0000023522   0.0000013582   0.0000010248
        0.0000015342   0.0000023156  -0.0000012544   0.0000017615   0.0000013770
        0.0000005530   0.0000020232   0.0000003194   0.0000019180   0.0000002520
        0.0000011274   0.0000020823   0.0000009029   0.0000001295   0.0000017618
       -0.0000018342  -0.0000014749  -0.0000002785   0.0000007301   0.0000014321
        0.0000008933   0.0000013329  -0.0000075970   0.0000021553   0.0000025583
       -0.0000022786   0.0000016630   0.0000001156   0.0000010449   0.0000026407
        0.0000020195  -0.0000020644   0.0000021010   0.0000002690  -0.0000000880
        0.0000007473   0.0000008140  -0.0000009725   0.0000005892   0.0000008923
        0.0000013348   0.0000018752   0.0000023421   0.0000013695   0.0000004860
       -0.0000000193   0.0000006235  -0.0000002339  -0.0000006081  -0.0000004908
       -0.0000065688  -0.0000004482  -0.0000007333  -0.0000026987   0.0000018638
        0.0000068311  -0.0000050648   0.0000013232
       -0.0008416769   0.0047005324  -0.0032778883  -0.1448736702   0.0581974756
        0.0032839540   0.4496923513   0.0071598701  -0.0105587401  -0.1454736278
       -0.0555938974  -0.0258595247  -0.0260234890  -0.0059922691  -0.0076782428
       -0.0029860033   0.0021944230   0.0000905864   0.0002234157   0.0000822962
        0.0000710434  -0.0001154209  -0.0002983114   0.0002544965  -0.0000674175
        0.0000475386  -0.0000728951  -0.0000783964  -0.0001585244   0.0000199322
        0.0001288276  -0.0000324586   0.0000599264  -0.0000476079  -0.0000623722
        0.0000113696  -0.0000384359  -0.0000802834   0.0000114168   0.0000200048
        0.0001404126  -0.0000086826  -0.0000697563  -0.0000586146  -0.0000543642
        0.0000084324   0.0000075305   0.0000146765  -0.0000095372  -0.0000202418
       -0.0000093979   0.0000008950   0.0000063415  -0.0000030659  -0.0000010898
       -0.0000104404  -0.0000005560  -0.0000033177   0.0000271878  -0.0000184698
        0.0000114553   0.0000167726   0.0000105330  -0.0000042768  -0.0000032331
       -0.0000024944   0.0000033375   0.0000074066   0.0000031735   0.0000035631
       -0.0000197208   0.0000151884  -0.0000119606  -0.0000056430  -0.0000171678
        0.0000460965  -0.0000329815   0.0000525743   0.0000197891   0.0000171355
        0.0000015390  -0.0000504998   0.0000005070  -0.0000073641  -0.0000093676
        0.0000359688   0.0000016249  -0.0000185535  -0.0000150041   0.0000111922
        0.0000862980   0.0000129690  -0.0000062934  -0.0001035980   0.0000271062
        0.0000117740   0.0000349579   0.0000435453   0.0000277738   0.0000114425
       -0.0000197916  -0.0000144325   0.0000195731   0.0000044538   0.0000086274
       -0.0000060470   0.0000037650   0.0000030639   0.0000017133  -0.0000039834
       -0.0000014299  -0.0000117018   0.0000115952   0.0000103874  -0.0000258329
       -0.0000038068  -0.0000083674   0.0000077749  -0.0000020406  -0.0000015872
       -0.0000057520   0.0000000656   0.0000000221   0.0000171761  -0.0000098769
       -0.0000075422  -0.0000018199   0.0000097914   0.0000138319   0.0000377447
       -0.0000633057  -0.0000444361   0.0000451799  -0.0000140731   0.0000118493
       -0.0000277305  -0.0000474594   0.0000332795   0.0002154082   0.0000027259
       -0.0000831552   0.0003342738  -0.0003467856   0.0000059602   0.0005119581
       -0.0005584718   0.0003345049   0.0009179873  -0.0002876584   0.0001591432
       -0.0270418447   0.0146042217   0.0000823846  -0.0052503410   0.0054226477
        0.0024899651  -0.0427488070   0.0077910495   0.0203971982  -0.0459655568
       -0.0266507652   0.0241068203  -0.0001766516  -0.0010311837  -0.0025494988
       -0.0090127514  -0.0076751631  -0.0006590803   0.0008421481  -0.0015158567
        0.0004776354  -0.0008578099  -0.0003380980  -0.0007509560  -0.0000594709
        0.0000411600   0.0000795043  -0.0001173769   0.0000079653  -0.0000171759
        0.0000536786   0.0000088869   0.0000561754  -0.0000069319   0.0000009142
       -0.0001088618  -0.0006833402   0.0001431200  -0.0001994246  -0.0003494568
       -0.0000106249  -0.0000750377  -0.0000656360   0.0000267988  -0.0000906491
        0.0000204992   0.0000215075  -0.0000109903  -0.0000002627   0.0000043099
       -0.0000029167   0.0000051965   0.0000029838   0.0000058291   0.0000041620
        0.0000052612   0.0000024335   0.0000025917   0.0000054738   0.0000000990
        0.0000013382   0.0000076457  -0.0000005361   0.0000004027   0.0000058095
       -0.0000022875   0.0000003156   0.0000024699  -0.0000008731   0.0000034039
        0.0000081110   0.0000018585  -0.0000059593   0.0000208844  -0.0000028928
       -0.0000141417   0.0000157026  -0.0000049572  -0.0000058957   0.0000060955
        0.0000027650  -0.0000023195   0.0000011435  -0.0000004983  -0.0000085726
       -0.0000000144  -0.0000021306  -0.0000095269   0.0000027890   0.0000009663
       -0.0000066945   0.0000025641   0.0000009234  -0.0000049790   0.0000046090
        0.0000035524  -0.0000015775   0.0000051155   0.0000042871  -0.0000040304
       -0.0000000002  -0.0000028648  -0.0000156892   0.0000004365  -0.0000008450
       -0.0000111809   0.0000358624  -0.0000272682
        0.0178910408  -0.0169585372   0.0044478868   0.0618875647  -0.1102797510
       -0.0025989609   0.0071598701   0.4900140618  -0.0060601774  -0.0556332661
       -0.0997364071  -0.0169839379   0.0117288279   0.0070712474   0.0045065219
        0.0028309045  -0.0018852236   0.0002627432  -0.0001193390  -0.0002879470
        0.0000121909  -0.0004167244   0.0001988776   0.0002481741   0.0005546953
       -0.0001089216  -0.0001099394   0.0001435502   0.0001534332  -0.0000150806
       -0.0003764784   0.0001975943   0.0000483990   0.0000547256   0.0001097508