      -----------------------------------------------------------      
     |                   =====================                   |     
     |                           x T B                           |     
     |                   =====================                   |     
     |                         S. Grimme                         |     
     |          Mulliken Center for Theoretical Chemistry        |     
     |                    University of Bonn                     |     
      -----------------------------------------------------------      

   * xtb version 6.7.1 (edcfbbe) compiled by 'albert@albert-system' on 2024-07-22

   xtb is free software: you can redistribute it and/or modify it under
   the terms of the GNU Lesser General Public License as published by
   the Free Software Foundation, either version 3 of the License, or
   (at your option) any later version.
   
   xtb is distributed in the hope that it will be useful,
   but WITHOUT ANY WARRANTY; without even the implied warranty of
   MERCHANTABILITY or FITNESS FOR A PARTICULAR PURPOSE.  See the
   GNU Lesser General Public License for more details.
   
   Cite this work as:
   * C. Bannwarth, E. Caldeweyher, S. Ehlert, A. Hansen, P. Pracht,
     J. Seibert, S. Spicher, S. Grimme, WIREs Comput. Mol. Sci., 2020, 11,
     e01493. DOI: 10.1002/wcms.1493
   
   for GFN2-xTB:
   * C. Bannwarth, S. Ehlert and S. Grimme., J. Chem. Theory Comput., 2019,
     15, 1652-1671. DOI: 10.1021/acs.jctc.8b01176
   for GFN1-xTB:
   * S. Grimme, C. Bannwarth, P. Shushkov, J. Chem. Theory Comput., 2017,
     13, 1989-2009. DOI: 10.1021/acs.jctc.7b00118
   for GFN0-xTB:
   * P. Pracht, E. Caldeweyher, S. Ehlert, S. Grimme, ChemRxiv, 2019, preprint.
     DOI: 10.26434/chemrxiv.8326202.v1
   for GFN-FF:
   * S. Spicher and S. Grimme, Angew. Chem. Int. Ed., 2020, 59, 15665-15673.
     DOI: 10.1002/anie.202004239
   
   for ALPB and GBSA implicit solvation:
   * S. Ehlert, M. Stahn, S. Spicher, S. Grimme, J. Chem. Theory Comput.,
     2021, 17, 4250-4261. DOI: 10.1021/acs.jctc.1c00471
   
   for ddCOSMO and CPCM-X implicit solvation:
   * M. Stahn, S. Ehlert, S. Grimme, J. Phys. Chem. A,
     2023, XX, XXXX-XXXX. DOI: 10.1021/acs.jpca.3c04382
   
   for DFT-D4:
   * E. Caldeweyher, C. Bannwarth and S. Grimme, J. Chem. Phys., 2017,
     147, 034112. DOI: 10.1063/1.4993215
   * E. Caldeweyher, S. Ehlert, A. Hansen, H. Neugebauer, S. Spicher,
     C. Bannwarth and S. Grimme, J. Chem. Phys., 2019, 150, 154122.
     DOI: 10.1063/1.5090222
   * E. Caldeweyher, J.-M. Mewes, S. Ehlert and S. Grimme, Phys. Chem. Chem. Phys.
     2020, 22, 8499-8512. DOI: 10.1039/D0CP00502A
   
   for sTDA-xTB:
   * S. Grimme and C. Bannwarth, J. Chem. Phys., 2016, 145, 054103.
     DOI: 10.1063/1.4959605
   
   in the mass-spec context:
   * V. Asgeirsson, C. Bauer and S. Grimme, Chem. Sci., 2017, 8, 4879.
     DOI: 10.1039/c7sc00601b
   * J. Koopman and S. Grimme, ACS Omega 2019, 4, 12, 15120-15133.
     DOI: 10.1021/acsomega.9b02011
   
   for metadynamics refer to:
   * S. Grimme, J. Chem. Theory Comput., 2019, 155, 2847-2862
     DOI: 10.1021/acs.jctc.9b00143
   
   for SPH calculations refer to:
   * S. Spicher and S. Grimme, J. Chem. Theory Comput., 2021, 17, 1701-1714
     DOI: 10.1021/acs.jctc.0c01306
   
   for ONIOM refer to:
   * C. Plett, A. Katbashev, S. Ehlert, S. Grimme, M. Bursch,
     Phys. Chem. Chem. Phys., 2023, 25, 17860-17868. DOI: 10.1039/D3CP02178E
   
   for DIPRO refer to:
   * J. Kohn, N. Gildemeister, S. Grimme, D. Fazzi, A. Hansen,
     J. Chem. Phys., 2023, just accepted.
   
   for PTB refer to:
   * S. Grimme, M. Mueller, A. Hansen, J. Chem. Phys., 2023, 158, 124111.
     DOI: 10.1063/5.0137838
   
   with help from (in alphabetical order)
   P. Atkinson, C. Bannwarth, F. Bohle, G. Brandenburg, E. Caldeweyher
   M. Checinski, S. Dohm, S. Ehlert, S. Ehrlich, I. Gerasimov, C. Hölzer
   A. Katbashev, J. Kohn, J. Koopman, C. Lavigne, S. Lehtola, F. März, M. Müller,
   F. Musil, H. Neugebauer, J. Pisarek, C. Plett, P. Pracht, F. Pultar,
   J. Seibert, P. Shushkov, S. Spicher, M. Stahn, M. Steiner, T. Strunk,
   J. Stückrath, T. Rose, and J. Unsleber
   
 * started run on 2025/08/25 at 23:14:47.223     
   ID    Z sym.   atoms
    1    6 C      1-4, 6-20, 22-35, 37-53, 55-67
    2    7 N      5, 21, 36, 54
    3    1 H      68-109

           -------------------------------------------------
          |                Calculation Setup                |
           -------------------------------------------------

          program call               : xtb data2507/gas/TPACzPI/TPACzPI_gas_S0_finalOpt.xtbopt.xyz --gfn 2 --spinpol --tblite --uhf 2 --ohess vtight --parallel 40 --molden --ceasefiles --namespace data2507/gas/TPACzPI/TPACzPI_gas_T1_preOpt
          calculation namespace      : data2507/gas/TPACzPI/TPACzPI_gas_T1_preOpt
          coordinate file            : data2507/gas/TPACzPI/TPACzPI_gas_S0_finalOpt.xtbopt.xyz
          omp threads                :                    40

repulsion energy          3.1943007565121E+00 Eh
dispersion energy         5.5619610305258E-03 Eh
interaction energy        0.0000000000000E+00 Eh
number of electrons       3.1400000000000E+02 e
integral cutoff           1.7347787504999E+01 bohr

------------------------------------------------------------
  cycle        total energy    energy error   density error
------------------------------------------------------------
      1     -167.8363466459  -1.7103621E+02   9.2222546E-02
      2     -167.7050991116   1.3124753E-01   5.9018774E-02
      3     -165.2335210623   2.4715780E+00   5.7014753E-02
      4     -167.7162272251  -2.4827062E+00   2.6683605E-02
      5     -167.9474690133  -2.3124179E-01   1.3629530E-02
      6     -168.0116488166  -6.4179803E-02   1.1128730E-02
      7     -168.0086924357   2.9563810E-03   9.6068833E-03
      8     -168.0187710717  -1.0078636E-02   8.7160450E-03
      9     -167.9958305559   2.2940516E-02   9.3538559E-03
     10     -168.0254848750  -2.9654319E-02   2.3073545E-03
     11     -168.0144431335   1.1041741E-02   5.4357511E-03
     12     -168.0169974383  -2.5543048E-03   4.4472542E-03
     13     -168.0249233272  -7.9258890E-03   1.6211576E-03
     14     -168.0259041562  -9.8082894E-04   3.9116879E-04
     15     -168.0258960283   8.1278525E-06   3.6110076E-04
     16     -168.0259287699  -3.2741521E-05   1.7181520E-04
     17     -168.0259354769  -6.7070347E-06   5.5252678E-05
     18     -168.0259352817   1.9519476E-07   4.6136634E-05
     19     -168.0259355289  -2.4716513E-07   3.1929999E-05
     20     -168.0259359058  -3.7697913E-07   7.4406181E-06
------------------------------------------------------------

electronic energy        -1.7122579862339E+02 Eh
total energy             -1.6802593590584E+02 Eh

 total:                                   0.580 sec
 - repulsion                              0.002 sec (  0%)
 - dispersion                             0.021 sec (  3%)
 - coulomb                                0.011 sec (  1%)
 - hamiltonian                            0.022 sec (  3%)
 - scc                                    0.525 sec ( 90%)

      ----------------------------------------------------------- 
     |                   =====================                   |
     |                        A N C O P T                        |
     |                   =====================                   |
     |               Approximate Normal Coordinate               |
     |                Rational Function Optimizer                |
      ----------------------------------------------------------- 

Optimization log is written to '/dev/null'
      ----------------------------------------------------------- 
     |                   =====================                   |
     |                        A N C O P T                        |
     |                   =====================                   |
     |               Approximate Normal Coordinate               |
     |                Rational Function Optimizer                |
      ----------------------------------------------------------- 

          ...................................................
          :                      SETUP                      :
          :.................................................:
          :   optimization level         verytight          :
          :   max. optcycles                  2180          :
          :   ANC micro-cycles                  20          :
          :   degrees of freedom               321          :
          :.................................................:
          :   RF solver                   davidson          :
          :   write xtbopt.log                true          :
          :   linear?                        false          :
          :   energy convergence         0.1000000E-06 Eh   :
          :   grad. convergence          0.2000000E-03 Eh/α :
          :   maxmium RF displ.          1.0000000          :
          :   Hlow (freq-cutoff)         0.1000000E-01      :
          :   Hmax (freq-cutoff)         5.0000000          :
          :   S6 in model hess.         20.0000000          :
          ...................................................

generating ANC from exact Hessian ...
Using Lindh-Hessian (1995)
 Shifting diagonal of input Hessian by   9.915922290929618E-003
 Lowest  eigenvalues of input Hessian
    0.000000    0.000000    0.000000    0.000000    0.000000    0.000000
    0.010000    0.010047    0.010096    0.010199    0.010220    0.010410
    0.010573    0.010726    0.010975    0.011058    0.011188    0.011325
 Highest eigenvalues
    2.157773    2.170661    2.191773    2.196278    2.221020    2.244031
 

........................................................................
.............................. CYCLE    1 ..............................
........................................................................
------------------------------------------------------------
  cycle        total energy    energy error   density error
------------------------------------------------------------
      1     -168.0259353144  -1.7122580E+02   3.5722713E-05
      2     -168.0258861656   4.9148714E-05   2.9455501E-04
      3     -168.0259352561  -4.9090490E-05   3.5569786E-05
      4     -168.0259358903  -6.3411650E-07   7.0360334E-06
------------------------------------------------------------

 total:                                   0.138 sec
 * total energy  :  -168.0259359 Eh     change        0.1559303E-07 Eh
   gradient norm :     0.0978529 Eh/α   predicted     0.0000000E+00 (-100.00%)
   displ. norm   :     0.2050855 α      lambda       -0.7359486E-02
   maximum displ.:     0.0696996 α      in ANC's #23, #94, #31, ...

........................................................................
.............................. CYCLE    2 ..............................
........................................................................
------------------------------------------------------------
  cycle        total energy    energy error   density error
------------------------------------------------------------
      1     -168.0304607490  -1.7121081E+02   2.6843577E-03
      2     -167.9897960495   4.0664699E-02   8.4444467E-03
      3     -168.0248614338  -3.5065384E-02   3.6946350E-03
      4     -168.0307966637  -5.9352299E-03   1.5907987E-03
      5     -168.0314246463  -6.2798260E-04   6.8938085E-04
      6     -168.0315146791  -9.0032818E-05   4.1545497E-04
      7     -168.0315394534  -2.4774253E-05   3.0327489E-04
      8     -168.0315457815  -6.3281286E-06   1.4812765E-04
      9     -168.0315496971  -3.9156073E-06   4.4782283E-05
     10     -168.0315498470  -1.4984943E-07   2.6544616E-05
     11     -168.0315498957  -4.8727713E-08   1.2864504E-05
------------------------------------------------------------

 total:                                   0.331 sec
 * total energy  :  -168.0315499 Eh     change       -0.5614005E-02 Eh
   gradient norm :     0.0553167 Eh/α   predicted    -0.3836081E-02 ( -31.67%)
   displ. norm   :     0.3775713 α      lambda       -0.5743878E-02
   maximum displ.:     0.1952297 α      in ANC's #23, #31, #18, ...

........................................................................
.............................. CYCLE    3 ..............................
........................................................................
------------------------------------------------------------
  cycle        total energy    energy error   density error
------------------------------------------------------------
      1     -168.0341361425  -1.7120636E+02   3.2699738E-03
      2     -168.0184009872   1.5735155E-02   5.6326353E-03
      3     -168.0289277398  -1.0526753E-02   3.7036103E-03
      4     -168.0345094272  -5.5816874E-03   1.3450616E-03
      5     -168.0349222052  -4.1277795E-04   5.9478568E-04
      6     -168.0349943491  -7.2143952E-05   3.6450492E-04
      7     -168.0350034358  -9.0867054E-06   2.7483187E-04
      8     -168.0350043296  -8.9380453E-07   1.1959233E-04
      9     -168.0350084503  -4.1206286E-06   3.8584381E-05
     10     -168.0350085168  -6.6531612E-08   2.5196932E-05
     11     -168.0350085521  -3.5350325E-08   9.8032531E-06
------------------------------------------------------------

 total:                                   0.309 sec
 * total energy  :  -168.0350086 Eh     change       -0.3458656E-02 Eh
   gradient norm :     0.0186363 Eh/α   predicted    -0.3282218E-02 (  -5.10%)
   displ. norm   :     0.3012586 α      lambda       -0.1345297E-02
   maximum displ.:     0.1893772 α      in ANC's #23, #18, #13, ...

........................................................................
.............................. CYCLE    4 ..............................
........................................................................
------------------------------------------------------------
  cycle        total energy    energy error   density error
------------------------------------------------------------
      1     -168.0360476513  -1.7120980E+02   1.8780689E-03
      2     -168.0354546787   5.9297256E-04   1.5449281E-03
      3     -168.0316277711   3.8269077E-03   3.0061588E-03
      4     -168.0359946496  -4.3668785E-03   5.2273942E-04
      5     -168.0360953141  -1.0066454E-04   1.7984735E-04
      6     -168.0361025823  -7.2681229E-06   1.0335025E-04
      7     -168.0361026243  -4.2052022E-08   8.2043910E-05
      8     -168.0361025371   8.7225999E-08   3.4934120E-05
      9     -168.0361029091  -3.7203617E-07   1.1900192E-05
------------------------------------------------------------

 total:                                   0.258 sec
 * total energy  :  -168.0361029 Eh     change       -0.1094357E-02 Eh
   gradient norm :     0.0203226 Eh/α   predicted    -0.7337092E-03 ( -32.96%)
   displ. norm   :     0.5119103 α      lambda       -0.1926370E-02
   maximum displ.:     0.3399304 α      in ANC's #23, #18, #13, ...

........................................................................
.............................. CYCLE    5 ..............................
........................................................................
------------------------------------------------------------
  cycle        total energy    energy error   density error
------------------------------------------------------------
      1     -168.0374512883  -1.7121495E+02   3.0311452E-03
      2     -168.0372761354   1.7515292E-04   1.9027403E-03
      3     -168.0298216205   7.4545149E-03   3.9378459E-03
      4     -168.0373177064  -7.4960859E-03   6.4057222E-04
      5     -168.0374879335  -1.7022711E-04   2.0233661E-04
      6     -168.0374979155  -9.9819626E-06   1.0910520E-04
      7     -168.0374977209   1.9457875E-07   8.3431783E-05
      8     -168.0374979613  -2.4041461E-07   3.3849092E-05
      9     -168.0374982869  -3.2557912E-07   1.3384542E-05
------------------------------------------------------------

 total:                                   0.261 sec
 * total energy  :  -168.0374983 Eh     change       -0.1395378E-02 Eh
   gradient norm :     0.0174650 Eh/α   predicted    -0.1215595E-02 ( -12.88%)
   displ. norm   :     0.3958116 α      lambda       -0.1026389E-02
   maximum displ.:     0.2733158 α      in ANC's #23, #18, #13, ...

........................................................................
.............................. CYCLE    6 ..............................
........................................................................
------------------------------------------------------------
  cycle        total energy    energy error   density error
------------------------------------------------------------
      1     -168.0382383878  -1.7121850E+02   2.1949042E-03
      2     -168.0382414688  -3.0809710E-06   1.2986532E-03
      3     -168.0380839188   1.5754999E-04   6.3532425E-04
      4     -168.0382157790  -1.3186015E-04   2.8297826E-04
      5     -168.0382410382  -2.5259176E-05   1.4803988E-04
      6     -168.0382508268  -9.7886295E-06   5.3322017E-05
      7     -168.0382513042  -4.7739178E-07   2.9674449E-05
      8     -168.0382513518  -4.7615828E-08   1.3259933E-05
------------------------------------------------------------

 total:                                   0.257 sec
 * total energy  :  -168.0382514 Eh     change       -0.7530649E-03 Eh
   gradient norm :     0.0125756 Eh/α   predicted    -0.5935970E-03 ( -21.18%)
   displ. norm   :     0.3456956 α      lambda       -0.6673142E-03
   maximum displ.:     0.2309974 α      in ANC's #23, #18, #13, ...

........................................................................
.............................. CYCLE    7 ..............................
........................................................................
------------------------------------------------------------
  cycle        total energy    energy error   density error
------------------------------------------------------------
      1     -168.0387454069  -1.7122044E+02   1.7609438E-03
      2     -168.0387314985   1.3908393E-05   1.0437248E-03
      3     -168.0376040421   1.1274564E-03   1.5201343E-03
      4     -168.0387320758  -1.1280337E-03   2.2332970E-04
      5     -168.0387518931  -1.9817258E-05   6.0884326E-05
      6     -168.0387529972  -1.1040858E-06   2.7607716E-05
      7     -168.0387530838  -8.6607514E-08   1.8634383E-05
------------------------------------------------------------

 total:                                   0.222 sec
 * total energy  :  -168.0387531 Eh     change       -0.5017320E-03 Eh
   gradient norm :     0.0095058 Eh/α   predicted    -0.3735324E-03 ( -25.55%)
   displ. norm   :     0.3842310 α      lambda       -0.5059869E-03
   maximum displ.:     0.2372579 α      in ANC's #23, #13, #18, ...

........................................................................
.............................. CYCLE    8 ..............................
........................................................................
------------------------------------------------------------
  cycle        total energy    energy error   density error
------------------------------------------------------------
      1     -168.0391301965  -1.7121962E+02   1.8540358E-03
      2     -168.0391192699   1.0926636E-05   1.1154632E-03
      3     -168.0382929039   8.2636603E-04   1.3182366E-03
      4     -168.0390988184  -8.0591455E-04   2.8238986E-04
      5     -168.0391357806  -3.6962175E-05   4.9139228E-05
      6     -168.0391363572  -5.7662936E-07   2.5593327E-05
      7     -168.0391363938  -3.6626460E-08   1.5695192E-05
------------------------------------------------------------

 total:                                   0.228 sec
 * total energy  :  -168.0391364 Eh     change       -0.3833100E-03 Eh
   gradient norm :     0.0080660 Eh/α   predicted    -0.2903447E-03 ( -24.25%)
   displ. norm   :     0.3866994 α      lambda       -0.3986533E-03
   maximum displ.:     0.2053510 α      in ANC's #23, #8, #13, ...

........................................................................
.............................. CYCLE    9 ..............................
........................................................................
------------------------------------------------------------
  cycle        total energy    energy error   density error
------------------------------------------------------------
      1     -168.0394221309  -1.7121939E+02   1.6970229E-03
      2     -168.0394137800   8.3508491E-06   1.0164608E-03
      3     -168.0387100354   7.0374463E-04   1.2054508E-03
      4     -168.0394169649  -7.0692948E-04   1.4232079E-04
      5     -168.0394255844  -8.6195088E-06   4.0454386E-05
      6     -168.0394260096  -4.2525804E-07   2.0657852E-05
      7     -168.0394260160  -6.3222387E-09   1.3259515E-05
------------------------------------------------------------

 total:                                   0.221 sec
 * total energy  :  -168.0394260 Eh     change       -0.2896221E-03 Eh
   gradient norm :     0.0068463 Eh/α   predicted    -0.2291341E-03 ( -20.89%)
   displ. norm   :     0.3481089 α      lambda       -0.2500130E-03
   maximum displ.:     0.1513542 α      in ANC's #23, #8, #7, ...

........................................................................
.............................. CYCLE   10 ..............................
........................................................................
------------------------------------------------------------
  cycle        total energy    energy error   density error
------------------------------------------------------------
      1     -168.0395965377  -1.7121881E+02   1.4628513E-03
      2     -168.0395626769   3.3860798E-05   9.1823110E-04
      3     -168.0381193344   1.4433425E-03   1.7394740E-03
      4     -168.0395941689  -1.4748345E-03   1.5001183E-04
      5     -168.0396033493  -9.1803409E-06   4.2004974E-05
      6     -168.0396037174  -3.6811966E-07   2.2899097E-05
      7     -168.0396037045   1.2926307E-08   1.5723702E-05
------------------------------------------------------------

 total:                                   0.224 sec
 * total energy  :  -168.0396037 Eh     change       -0.1776885E-03 Eh
   gradient norm :     0.0051806 Eh/α   predicted    -0.1401590E-03 ( -21.12%)
   displ. norm   :     0.2580980 α      lambda       -0.1769795E-03
   maximum displ.:     0.1138301 α      in ANC's #8, #7, #13, ...

........................................................................
.............................. CYCLE   11 ..............................
........................................................................
------------------------------------------------------------
  cycle        total energy    energy error   density error
------------------------------------------------------------
      1     -168.0397052504  -1.7122144E+02   8.9773285E-04
      2     -168.0396973051   7.9453461E-06   5.4815246E-04
      3     -168.0392773039   4.2000122E-04   9.4383332E-04
      4     -168.0397023402  -4.2503633E-04   1.1639596E-04
      5     -168.0397079865  -5.6463088E-06   3.6687102E-05
      6     -168.0397084480  -4.6156043E-07   1.5199424E-05
------------------------------------------------------------

 total:                                   0.193 sec
 * total energy  :  -168.0397084 Eh     change       -0.1047436E-03 Eh
   gradient norm :     0.0052057 Eh/α   predicted    -0.9438859E-04 (  -9.89%)
   displ. norm   :     0.2296471 α      lambda       -0.1155528E-03
   maximum displ.:     0.1060569 α      in ANC's #7, #8, #13, ...

........................................................................
.............................. CYCLE   12 ..............................
........................................................................
------------------------------------------------------------
  cycle        total energy    energy error   density error
------------------------------------------------------------
      1     -168.0397752252  -1.7122055E+02   8.7976640E-04
      2     -168.0397689365   6.2887394E-06   5.3409955E-04
      3     -168.0394362158   3.3272069E-04   8.4068956E-04
      4     -168.0397706066  -3.3439082E-04   1.3388304E-04
      5     -168.0397780705  -7.4639396E-06   2.8896071E-05
      6     -168.0397781832  -1.1267329E-07   1.8854269E-05
------------------------------------------------------------

 total:                                   0.179 sec
 * total energy  :  -168.0397782 Eh     change       -0.6973516E-04 Eh
   gradient norm :     0.0040820 Eh/α   predicted    -0.6082442E-04 ( -12.78%)
   displ. norm   :     0.1245441 α      lambda       -0.7272522E-04
   maximum displ.:     0.0629857 α      in ANC's #7, #8, #23, ...

........................................................................
.............................. CYCLE   13 ..............................
........................................................................
------------------------------------------------------------
  cycle        total energy    energy error   density error
------------------------------------------------------------
      1     -168.0398364615  -1.7122163E+02   4.0604882E-04
      2     -168.0398352414   1.2201025E-06   2.4796365E-04
      3     -168.0397740670   6.1174384E-05   3.5366989E-04
      4     -168.0398331952  -5.9128225E-05   9.9162792E-05
      5     -168.0398372316  -4.0363369E-06   1.9166108E-05
      6     -168.0398373498  -1.1820393E-07   7.0791337E-06
------------------------------------------------------------

 total:                                   0.175 sec
 * total energy  :  -168.0398373 Eh     change       -0.5916658E-04 Eh
   gradient norm :     0.0034179 Eh/α   predicted    -0.3693185E-04 ( -37.58%)
   displ. norm   :     0.2356691 α      lambda       -0.1156700E-03
   maximum displ.:     0.1182016 α      in ANC's #7, #8, #23, ...

........................................................................
.............................. CYCLE   14 ..............................
........................................................................
------------------------------------------------------------
  cycle        total energy    energy error   density error
------------------------------------------------------------
      1     -168.0399169893  -1.7122205E+02   7.8872578E-04
      2     -168.0399142193   2.7699572E-06   4.7283477E-04
      3     -168.0397305593   1.8366008E-04   6.2340517E-04
      4     -168.0399123721  -1.8181283E-04   1.2494387E-04
      5     -168.0399186213  -6.2491864E-06   2.2659440E-05
      6     -168.0399187827  -1.6142863E-07   1.1060763E-05
------------------------------------------------------------

 total:                                   0.176 sec
 * total energy  :  -168.0399188 Eh     change       -0.8143293E-04 Eh
   gradient norm :     0.0040161 Eh/α   predicted    -0.6105078E-04 ( -25.03%)
   displ. norm   :     0.2204950 α      lambda       -0.7340390E-04
   maximum displ.:     0.1155701 α      in ANC's #7, #8, #2, ...

........................................................................
.............................. CYCLE   15 ..............................
........................................................................
------------------------------------------------------------
  cycle        total energy    energy error   density error
------------------------------------------------------------
      1     -168.0399710144  -1.7122157E+02   7.0535424E-04
      2     -168.0399701760   8.3836380E-07   4.1694306E-04
      3     -168.0398924704   7.7705623E-05   3.9637388E-04
      4     -168.0399683244  -7.5853996E-05   9.5314062E-05
      5     -168.0399718327  -3.5082956E-06   2.1212397E-05
      6     -168.0399719905  -1.5779818E-07   8.0308897E-06
------------------------------------------------------------

 total:                                   0.173 sec
 * total energy  :  -168.0399720 Eh     change       -0.5320775E-04 Eh
   gradient norm :     0.0045526 Eh/α   predicted    -0.3848890E-04 ( -27.66%)
   displ. norm   :     0.2374577 α      lambda       -0.7026843E-04
   maximum displ.:     0.1255620 α      in ANC's #7, #8, #2, ...

........................................................................
.............................. CYCLE   16 ..............................
........................................................................
------------------------------------------------------------
  cycle        total energy    energy error   density error
------------------------------------------------------------
      1     -168.0400241436  -1.7122112E+02   7.2575613E-04
      2     -168.0400235173   6.2622880E-07   4.2706409E-04
      3     -168.0399728924   5.0624959E-05   3.4161433E-04
      4     -168.0400191857  -4.6293361E-05   1.1248151E-04
      5     -168.0400249336  -5.7478946E-06   2.2754323E-05
      6     -168.0400251489  -2.1522933E-07   7.5734906E-06
------------------------------------------------------------

 total:                                   0.173 sec
 * total energy  :  -168.0400251 Eh     change       -0.5315840E-04 Eh
   gradient norm :     0.0034217 Eh/α   predicted    -0.3711787E-04 ( -30.17%)
   displ. norm   :     0.2678174 α      lambda       -0.7079582E-04
   maximum displ.:     0.1407567 α      in ANC's #7, #8, #2, ...

........................................................................
.............................. CYCLE   17 ..............................
........................................................................
------------------------------------------------------------
  cycle        total energy    energy error   density error
------------------------------------------------------------
      1     -168.0400767051  -1.7122078E+02   8.0221909E-04
      2     -168.0400768963  -1.9119949E-07   4.7332559E-04
      3     -168.0400623831   1.4513164E-05   1.9752706E-04
      4     -168.0400724400  -1.0056931E-05   1.0231739E-04
      5     -168.0400774756  -5.0355569E-06   1.7341344E-05
      6     -168.0400775556  -8.0012114E-08   9.2732258E-06
------------------------------------------------------------

 total:                                   0.174 sec
 * total energy  :  -168.0400776 Eh     change       -0.5240672E-04 Eh
   gradient norm :     0.0021430 Eh/α   predicted    -0.3794053E-04 ( -27.60%)
   displ. norm   :     0.2549579 α      lambda       -0.5412609E-04
   maximum displ.:     0.1312079 α      in ANC's #7, #8, #2, ...

........................................................................
.............................. CYCLE   18 ..............................
........................................................................
------------------------------------------------------------
  cycle        total energy    energy error   density error
------------------------------------------------------------
      1     -168.0401171975  -1.7122103E+02   7.4859194E-04
      2     -168.0401146422   2.5552413E-06   4.4937344E-04
      3     -168.0399557150   1.5892726E-04   5.7378164E-04
      4     -168.0401134950  -1.5778004E-04   1.0643709E-04
      5     -168.0401183733  -4.8782647E-06   1.8289467E-05
      6     -168.0401184681  -9.4844438E-08   8.3068954E-06
------------------------------------------------------------

 total:                                   0.175 sec
 * total energy  :  -168.0401185 Eh     change       -0.4091254E-04 Eh
   gradient norm :     0.0028587 Eh/α   predicted    -0.2882433E-04 ( -29.55%)
   displ. norm   :     0.2546767 α      lambda       -0.5062277E-04
   maximum displ.:     0.1250438 α      in ANC's #7, #2, #8, ...

........................................................................
.............................. CYCLE   19 ..............................
........................................................................
------------------------------------------------------------
  cycle        total energy    energy error   density error
------------------------------------------------------------
      1     -168.0401552904  -1.7122108E+02   7.8559345E-04
      2     -168.0401540308   1.2596093E-06   4.7169429E-04
      3     -168.0400671290   8.6901782E-05   4.4629566E-04
      4     -168.0401476363  -8.0507352E-05   1.3465063E-04
      5     -168.0401565117  -8.8753501E-06   2.1010112E-05
      6     -168.0401566331  -1.2141413E-07   9.6814504E-06
------------------------------------------------------------

 total:                                   0.173 sec
 * total energy  :  -168.0401566 Eh     change       -0.3816498E-04 Eh
   gradient norm :     0.0035628 Eh/α   predicted    -0.2695459E-04 ( -29.37%)
   displ. norm   :     0.2661790 α      lambda       -0.5812539E-04
   maximum displ.:     0.1188017 α      in ANC's #7, #2, #4, ...

........................................................................
.............................. CYCLE   20 ..............................
........................................................................
------------------------------------------------------------
  cycle        total energy    energy error   density error
------------------------------------------------------------
      1     -168.0401930962  -1.7122185E+02   8.4833085E-04
      2     -168.0401930629   3.3370043E-08   4.9928679E-04
      3     -168.0401603662   3.2696634E-05   2.6830858E-04
      4     -168.0401897230  -2.9356746E-05   9.3756801E-05
      5     -168.0401938740  -4.1510006E-06   1.6174624E-05
      6     -168.0401939142  -4.0238803E-08   9.8229989E-06
------------------------------------------------------------

 total:                                   0.176 sec
 * total energy  :  -168.0401939 Eh     change       -0.3728110E-04 Eh
   gradient norm :     0.0037596 Eh/α   predicted    -0.3112698E-04 ( -16.51%)
   displ. norm   :     0.1862239 α      lambda       -0.3935515E-04
   maximum displ.:     0.0871095 α      in ANC's #2, #7, #4, ...
 * RMSD in coord.:     0.4076763 α      energy gain  -0.1425801E-01 Eh

generating ANC from exact Hessian ...
Using Lindh-Hessian (1995)
 Shifting diagonal of input Hessian by   9.919617153009166E-003
 Lowest  eigenvalues of input Hessian
    0.000000    0.000000    0.000000    0.000000    0.000000    0.000000
    0.010000    0.010046    0.010103    0.010198    0.010223    0.010415
    0.010518    0.010713    0.010963    0.011034    0.011197    0.011313
 Highest eigenvalues
    2.157981    2.177140    2.190006    2.194718    2.220032    2.225739
 

........................................................................
.............................. CYCLE   21 ..............................
........................................................................
------------------------------------------------------------
  cycle        total energy    energy error   density error
------------------------------------------------------------
      1     -168.0402194267  -1.7122172E+02   6.1805419E-04
      2     -168.0402174262   2.0004894E-06   3.7819953E-04
      3     -168.0401368520   8.0574254E-05   4.3800875E-04
      4     -168.0402095138  -7.2661820E-05   1.5188255E-04
      5     -168.0402210537  -1.1539915E-05   1.7749785E-05
      6     -168.0402211393  -8.5588312E-08   7.5870709E-06
------------------------------------------------------------

 total:                                   0.174 sec
 * total energy  :  -168.0402211 Eh     change       -0.2722511E-04 Eh
   gradient norm :     0.0023592 Eh/α   predicted     0.0000000E+00 (-100.00%)
   displ. norm   :     0.0254366 α      lambda       -0.5590437E-05
   maximum displ.:     0.0117378 α      in ANC's #2, #1, #11, ...

........................................................................
.............................. CYCLE   22 ..............................
........................................................................
------------------------------------------------------------
  cycle        total energy    energy error   density error
------------------------------------------------------------
      1     -168.0402319155  -1.7122174E+02   1.0919164E-04
      2     -168.0402319355  -2.0031024E-08   6.5401482E-05
      3     -168.0402312380   6.9751431E-07   4.6661327E-05
      4     -168.0402316773  -4.3924445E-07   2.6646078E-05
      5     -168.0402319873  -3.0998422E-07   7.4926407E-06
------------------------------------------------------------

 total:                                   0.158 sec
 * total energy  :  -168.0402320 Eh     change       -0.1084794E-04 Eh
   gradient norm :     0.0013723 Eh/α   predicted    -0.6446853E-05 ( -40.57%)
   displ. norm   :     0.1289689 α      lambda       -0.2827440E-04
   maximum displ.:     0.0603493 α      in ANC's #2, #1, #11, ...

........................................................................
.............................. CYCLE   23 ..............................
........................................................................
------------------------------------------------------------
  cycle        total energy    energy error   density error
------------------------------------------------------------
      1     -168.0402497843  -1.7122168E+02   4.5366278E-04
      2     -168.0402374390   1.2345298E-05   3.1115129E-04
      3     -168.0401069601   1.3047883E-04   5.5962630E-04
      4     -168.0402506280  -1.4366788E-04   6.6791072E-05
      5     -168.0402520536  -1.4256295E-06   1.7594196E-05
      6     -168.0402521557  -1.0204994E-07   7.4267081E-06
------------------------------------------------------------

 total:                                   0.175 sec
 * total energy  :  -168.0402522 Eh     change       -0.2016844E-04 Eh
   gradient norm :     0.0024711 Eh/α   predicted    -0.1424196E-04 ( -29.38%)
   displ. norm   :     0.0302772 α      lambda       -0.8213022E-05
   maximum displ.:     0.0159983 α      in ANC's #2, #1, #8, ...

........................................................................
.............................. CYCLE   24 ..............................
........................................................................
------------------------------------------------------------
  cycle        total energy    energy error   density error
------------------------------------------------------------
      1     -168.0402595904  -1.7122177E+02   9.6592444E-05
      2     -168.0402591710   4.1938398E-07   6.7193975E-05
      3     -168.0402574262   1.7447895E-06   8.0254726E-05
      4     -168.0402584076  -9.8134865E-07   5.3871429E-05
      5     -168.0402598311  -1.4235459E-06   3.5414553E-06
      6     -168.0402598357  -4.5529589E-09   1.0392136E-06
------------------------------------------------------------

 total:                                   0.177 sec
 * total energy  :  -168.0402598 Eh     change       -0.7679993E-05 Eh
   gradient norm :     0.0020720 Eh/α   predicted    -0.4110443E-05 ( -46.48%)
   displ. norm   :     0.1500801 α      lambda       -0.3605752E-04
   maximum displ.:     0.0764837 α      in ANC's #2, #1, #8, ...

........................................................................
.............................. CYCLE   25 ..............................
........................................................................
------------------------------------------------------------
  cycle        total energy    energy error   density error
------------------------------------------------------------
      1     -168.0402854870  -1.7122202E+02   4.5929897E-04
      2     -168.0402856491  -1.6205615E-07   2.6987658E-04
      3     -168.0402804517   5.1973698E-06   1.0988787E-04
      4     -168.0402834889  -3.0371338E-06   6.9816483E-05
      5     -168.0402858197  -2.3308340E-06   8.5819969E-06
      6     -168.0402858400  -2.0325871E-08   4.3483772E-06
------------------------------------------------------------

 total:                                   0.175 sec
 * total energy  :  -168.0402858 Eh     change       -0.2600432E-04 Eh
   gradient norm :     0.0009096 Eh/α   predicted    -0.1843503E-04 ( -29.11%)
   displ. norm   :     0.2287585 α      lambda       -0.1891904E-04
   maximum displ.:     0.1192737 α      in ANC's #2, #1, #8, ...

........................................................................
.............................. CYCLE   26 ..............................
........................................................................
------------------------------------------------------------
  cycle        total energy    energy error   density error
------------------------------------------------------------
      1     -168.0403032991  -1.7122193E+02   6.5030972E-04
      2     -168.0403033771  -7.8000170E-08   3.8225442E-04
      3     -168.0402891200   1.4257103E-05   1.7709803E-04
      4     -168.0403019413  -1.2821289E-05   6.2803585E-05
      5     -168.0403036950  -1.7537564E-06   1.1500348E-05
      6     -168.0403037243  -2.9308836E-08   6.9432400E-06
------------------------------------------------------------

 total:                                   0.176 sec
 * total energy  :  -168.0403037 Eh     change       -0.1788433E-04 Eh
   gradient norm :     0.0019850 Eh/α   predicted    -0.9685875E-05 ( -45.84%)
   displ. norm   :     0.1021800 α      lambda       -0.9162988E-05
   maximum displ.:     0.0573654 α      in ANC's #2, #1, #5, ...

........................................................................
.............................. CYCLE   27 ..............................
........................................................................
------------------------------------------------------------
  cycle        total energy    energy error   density error
------------------------------------------------------------
      1     -168.0403152036  -1.7122202E+02   2.5925545E-04
      2     -168.0403149778   2.2579906E-07   1.5485727E-04
      3     -168.0403044324   1.0545365E-05   1.5159923E-04
      4     -168.0403139569  -9.5245160E-06   5.6334710E-05
      5     -168.0403154331  -1.4761226E-06   6.0069458E-06
      6     -168.0403154419  -8.7969454E-09   2.9399615E-06
------------------------------------------------------------

 total:                                   0.174 sec
 * total energy  :  -168.0403154 Eh     change       -0.1171753E-04 Eh
   gradient norm :     0.0012571 Eh/α   predicted    -0.4607299E-05 ( -60.68%)
   displ. norm   :     0.1314059 α      lambda       -0.1345491E-04
   maximum displ.:     0.0773972 α      in ANC's #2, #1, #5, ...

........................................................................
.............................. CYCLE   28 ..............................
........................................................................
------------------------------------------------------------
  cycle        total energy    energy error   density error
------------------------------------------------------------
      1     -168.0403310225  -1.7122196E+02   2.9037305E-04
      2     -168.0403311085  -8.6038085E-08   1.7108397E-04
      3     -168.0403286665   2.4420257E-06   7.6661987E-05
      4     -168.0403301333  -1.4668102E-06   4.6979468E-05
      5     -168.0403311778  -1.0444648E-06   1.1978764E-05
      6     -168.0403312317  -5.3971547E-08   3.6886297E-06
------------------------------------------------------------

 total:                                   0.188 sec
 * total energy  :  -168.0403312 Eh     change       -0.1578987E-04 Eh
   gradient norm :     0.0005087 Eh/α   predicted    -0.6783079E-05 ( -57.04%)
   displ. norm   :     0.1411847 α      lambda       -0.1023248E-04
   maximum displ.:     0.0847816 α      in ANC's #2, #1, #5, ...

........................................................................
.............................. CYCLE   29 ..............................
........................................................................
------------------------------------------------------------
  cycle        total energy    energy error   density error
------------------------------------------------------------
      1     -168.0403435295  -1.7122183E+02   2.7731091E-04
      2     -168.0403434601   6.9344821E-08   1.6367554E-04
      3     -168.0403342083   9.2517874E-06   1.4317047E-04
      4     -168.0403428469  -8.6386185E-06   4.3123925E-05
      5     -168.0403436733  -8.2636626E-07   9.0882041E-06
------------------------------------------------------------

 total:                                   0.148 sec
 * total energy  :  -168.0403437 Eh     change       -0.1244157E-04 Eh
   gradient norm :     0.0010766 Eh/α   predicted    -0.5164642E-05 ( -58.49%)
   displ. norm   :     0.1376221 α      lambda       -0.9507820E-05
   maximum displ.:     0.0834946 α      in ANC's #2, #1, #5, ...

........................................................................
.............................. CYCLE   30 ..............................
........................................................................
------------------------------------------------------------
  cycle        total energy    energy error   density error
------------------------------------------------------------
      1     -168.0403548143  -1.7122182E+02   2.6170876E-04
      2     -168.0403496245   5.1898566E-06   1.8958508E-04
      3     -168.0403167573   3.2867152E-05   2.9273009E-04
      4     -168.0403522184  -3.5461093E-05   9.4686204E-05
      5     -168.0403560069  -3.7885229E-06   6.0432607E-06
      6     -168.0403560142  -7.2996045E-09   3.2036378E-06
------------------------------------------------------------

 total:                                   0.172 sec
 * total energy  :  -168.0403560 Eh     change       -0.1234094E-04 Eh
   gradient norm :     0.0011853 Eh/α   predicted    -0.4794075E-05 ( -61.15%)
   displ. norm   :     0.1663768 α      lambda       -0.1173556E-04
   maximum displ.:     0.1013793 α      in ANC's #2, #1, #5, ...

........................................................................
.............................. CYCLE   31 ..............................
........................................................................
------------------------------------------------------------
  cycle        total energy    energy error   density error
------------------------------------------------------------
      1     -168.0403716445  -1.7122181E+02   3.1502268E-04
      2     -168.0403713386   3.0593640E-07   1.8722893E-04
      3     -168.0403477835   2.3555104E-05   2.2048868E-04
      4     -168.0403711353  -2.3351843E-05   4.3639854E-05
      5     -168.0403718830  -7.4770600E-07   5.6505007E-06
------------------------------------------------------------

 total:                                   0.147 sec
 * total energy  :  -168.0403719 Eh     change       -0.1586879E-04 Eh
   gradient norm :     0.0008316 Eh/α   predicted    -0.5940989E-05 ( -62.56%)
   displ. norm   :     0.1969971 α      lambda       -0.1232559E-04
   maximum displ.:     0.1212884 α      in ANC's #2, #1, #5, ...

........................................................................
.............................. CYCLE   32 ..............................
........................................................................
------------------------------------------------------------
  cycle        total energy    energy error   density error
------------------------------------------------------------
      1     -168.0403869440  -1.7122180E+02   3.6498000E-04
      2     -168.0403869954  -5.1430646E-08   2.1465821E-04
      3     -168.0403844689   2.5265417E-06   8.9076205E-05
      4     -168.0403870557  -2.5868204E-06   2.0108413E-05
      5     -168.0403871883  -1.3256712E-07   9.1016334E-06
------------------------------------------------------------

 total:                                   0.147 sec
 * total energy  :  -168.0403872 Eh     change       -0.1530526E-04 Eh
   gradient norm :     0.0004271 Eh/α   predicted    -0.6273167E-05 ( -59.01%)
   displ. norm   :     0.1938305 α      lambda       -0.1033289E-04
   maximum displ.:     0.1203104 α      in ANC's #2, #1, #5, ...

........................................................................
.............................. CYCLE   33 ..............................
........................................................................
------------------------------------------------------------
  cycle        total energy    energy error   density error
------------------------------------------------------------
      1     -168.0403980473  -1.7122185E+02   3.4977972E-04
      2     -168.0403843022   1.3745075E-05   2.7015261E-04
      3     -168.0403244745   5.9827716E-05   4.0954565E-04
      4     -168.0403996952  -7.5220743E-05   3.1904777E-05
      5     -168.0404000326  -3.3741145E-07   6.2989313E-06
------------------------------------------------------------

 total:                                   0.147 sec
 * total energy  :  -168.0404000 Eh     change       -0.1284434E-04 Eh
   gradient norm :     0.0005471 Eh/α   predicted    -0.5253325E-05 ( -59.10%)
   displ. norm   :     0.1961771 α      lambda       -0.9830715E-05
   maximum displ.:     0.1221164 α      in ANC's #2, #1, #5, ...

........................................................................
.............................. CYCLE   34 ..............................
........................................................................
------------------------------------------------------------
  cycle        total energy    energy error   density error
------------------------------------------------------------
      1     -168.0404121958  -1.7122187E+02   3.4842589E-04
      2     -168.0404118440   3.5180912E-07   2.0517254E-04
      3     -168.0403920180   1.9826019E-05   2.1193710E-04
      4     -168.0404108490  -1.8830994E-05   5.7719289E-05
      5     -168.0404124428  -1.5938120E-06   5.5644018E-06
      6     -168.0404124456  -2.7521025E-09   3.8533968E-06
------------------------------------------------------------

 total:                                   0.172 sec
 * total energy  :  -168.0404124 Eh     change       -0.1241294E-04 Eh
   gradient norm :     0.0007295 Eh/α   predicted    -0.5000196E-05 ( -59.72%)
   displ. norm   :     0.2307273 α      lambda       -0.1118348E-04
   maximum displ.:     0.1433327 α      in ANC's #2, #1, #5, ...

........................................................................
.............................. CYCLE   35 ..............................
........................................................................
------------------------------------------------------------
  cycle        total energy    energy error   density error
------------------------------------------------------------
      1     -168.0404263561  -1.7122186E+02   4.2619345E-04
      2     -168.0404260409   3.1516490E-07   2.5180652E-04
      3     -168.0404012538   2.4787141E-05   2.2556714E-04
      4     -168.0404251810  -2.3927247E-05   5.8039220E-05
      5     -168.0404266509  -1.4698442E-06   8.1302199E-06
      6     -168.0404266636  -1.2740202E-08   4.5630752E-06
------------------------------------------------------------

 total:                                   0.177 sec
 * total energy  :  -168.0404267 Eh     change       -0.1421803E-04 Eh
   gradient norm :     0.0007413 Eh/α   predicted    -0.5724821E-05 ( -59.74%)
   displ. norm   :     0.2621793 α      lambda       -0.1122860E-04
   maximum displ.:     0.1626493 α      in ANC's #2, #1, #5, ...

........................................................................
.............................. CYCLE   36 ..............................
........................................................................
------------------------------------------------------------
  cycle        total energy    energy error   density error
------------------------------------------------------------
      1     -168.0404391731  -1.7122178E+02   5.1835163E-04
      2     -168.0404392943  -1.2110723E-07   3.0452817E-04
      3     -168.0404365441   2.7501703E-06   8.6373993E-05
      4     -168.0404387161  -2.1720300E-06   4.0278937E-05
      5     -168.0404394644  -7.4826681E-07   1.0227879E-05
------------------------------------------------------------

 total:                                   0.153 sec
 * total energy  :  -168.0404395 Eh     change       -0.1280078E-04 Eh
   gradient norm :     0.0005876 Eh/α   predicted    -0.5787261E-05 ( -54.79%)
   displ. norm   :     0.2347709 α      lambda       -0.8200164E-05
   maximum displ.:     0.1456562 α      in ANC's #2, #1, #5, ...

........................................................................
.............................. CYCLE   37 ..............................
........................................................................
------------------------------------------------------------
  cycle        total energy    energy error   density error
------------------------------------------------------------
      1     -168.0404470081  -1.7122184E+02   5.0665429E-04
      2     -168.0404384090   8.5990834E-06   3.2205100E-04
      3     -168.0402495490   1.8885998E-04   6.4653200E-04
      4     -168.0404474148  -1.9786577E-04   5.7176790E-05
      5     -168.0404486353  -1.2204760E-06   9.4417140E-06
      6     -168.0404486398  -4.5131685E-09   6.2417012E-06
------------------------------------------------------------

 total:                                   0.174 sec
 * total energy  :  -168.0404486 Eh     change       -0.9175417E-05 Eh
   gradient norm :     0.0003890 Eh/α   predicted    -0.4204436E-05 ( -54.18%)
   displ. norm   :     0.1746302 α      lambda       -0.5507182E-05
   maximum displ.:     0.1080297 α      in ANC's #2, #1, #5, ...

........................................................................
.............................. CYCLE   38 ..............................
........................................................................
------------------------------------------------------------
  cycle        total energy    energy error   density error
------------------------------------------------------------
      1     -168.0404551077  -1.7122202E+02   4.1843022E-04
      2     -168.0404547957   3.1195501E-07   2.4872662E-04
      3     -168.0404260835   2.8712247E-05   2.4374556E-04
      4     -168.0404545679  -2.8484468E-05   4.3837350E-05
      5     -168.0404553911  -8.2313755E-07   8.7740503E-06
------------------------------------------------------------

 total:                                   0.149 sec
 * total energy  :  -168.0404554 Eh     change       -0.6751286E-05 Eh
   gradient norm :     0.0002912 Eh/α   predicted    -0.2791909E-05 ( -58.65%)
   displ. norm   :     0.1277808 α      lambda       -0.4254553E-05
   maximum displ.:     0.0774790 α      in ANC's #2, #1, #7, ...

........................................................................
.............................. CYCLE   39 ..............................
........................................................................
------------------------------------------------------------
  cycle        total energy    energy error   density error
------------------------------------------------------------
      1     -168.0404598277  -1.7122222E+02   3.5622669E-04
      2     -168.0404593229   5.0486372E-07   2.1340927E-04
      3     -168.0404310800   2.8242913E-05   2.4490881E-04
      4     -168.0404579451  -2.6865110E-05   7.0530722E-05
      5     -168.0404601901  -2.2450367E-06   7.6637628E-06
      6     -168.0404601969  -6.8044699E-09   5.4067443E-06
------------------------------------------------------------

 total:                                   0.174 sec
 * total energy  :  -168.0404602 Eh     change       -0.4805826E-05 Eh
   gradient norm :     0.0002960 Eh/α   predicted    -0.2143920E-05 ( -55.39%)
   displ. norm   :     0.0975638 α      lambda       -0.3338887E-05
   maximum displ.:     0.0562199 α      in ANC's #2, #1, #7, ...

........................................................................
.............................. CYCLE   40 ..............................
........................................................................
------------------------------------------------------------
  cycle        total energy    energy error   density error
------------------------------------------------------------
      1     -168.0404639537  -1.7122235E+02   3.0900354E-04
      2     -168.0404632235   7.3021582E-07   1.8990519E-04
      3     -168.0404307231   3.2500393E-05   2.6751537E-04
      4     -168.0404624115  -3.1688441E-05   6.2592132E-05
      5     -168.0404642846  -1.8731104E-06   7.0137973E-06
      6     -168.0404642948  -1.0152462E-08   3.9763450E-06
------------------------------------------------------------

 total:                                   0.173 sec
 * total energy  :  -168.0404643 Eh     change       -0.4097858E-05 Eh
   gradient norm :     0.0002919 Eh/α   predicted    -0.1680168E-05 ( -59.00%)
   displ. norm   :     0.0746493 α      lambda       -0.2555844E-05
   maximum displ.:     0.0397939 α      in ANC's #1, #2, #7, ...

........................................................................
.............................. CYCLE   41 ..............................
........................................................................
------------------------------------------------------------
  cycle        total energy    energy error   density error
------------------------------------------------------------
      1     -168.0404670828  -1.7122240E+02   2.5474903E-04
      2     -168.0404666083   4.7442975E-07   1.5401357E-04
      3     -168.0404410006   2.5607722E-05   2.3025390E-04
      4     -168.0404669473  -2.5946654E-05   2.6755235E-05
      5     -168.0404672342  -2.8687515E-07   4.2592163E-06
------------------------------------------------------------

 total:                                   0.153 sec
 * total energy  :  -168.0404672 Eh     change       -0.2939380E-05 Eh
   gradient norm :     0.0002671 Eh/α   predicted    -0.1282990E-05 ( -56.35%)
   displ. norm   :     0.0730862 α      lambda       -0.2662779E-05
   maximum displ.:     0.0359863 α      in ANC's #1, #2, #7, ...

........................................................................
.............................. CYCLE   42 ..............................
........................................................................
------------------------------------------------------------
  cycle        total energy    energy error   density error
------------------------------------------------------------
      1     -168.0404702132  -1.7122240E+02   2.5419221E-04
      2     -168.0404700710   1.4212341E-07   1.5055168E-04
      3     -168.0404624231   7.6479435E-06   1.2972601E-04
      4     -168.0404694442  -7.0211384E-06   4.4011705E-05
      5     -168.0404703568  -9.1257326E-07   4.3315235E-06
------------------------------------------------------------

 total:                                   0.150 sec
 * total energy  :  -168.0404704 Eh     change       -0.3122655E-05 Eh
   gradient norm :     0.0002427 Eh/α   predicted    -0.1335695E-05 ( -57.23%)
   displ. norm   :     0.0853823 α      lambda       -0.2859513E-05
   maximum displ.:     0.0420726 α      in ANC's #1, #2, #7, ...
 * RMSD in coord.:     0.2686187 α      energy gain  -0.2764426E-03 Eh

generating ANC from exact Hessian ...
Using Lindh-Hessian (1995)
 Shifting diagonal of input Hessian by   9.919186020024024E-003
 Lowest  eigenvalues of input Hessian
    0.000000    0.000000    0.000000    0.000000    0.000000    0.000000
    0.010000    0.010044    0.010101    0.010196    0.010230    0.010419
    0.010513    0.010708    0.010961    0.011034    0.011212    0.011324
 Highest eigenvalues
    2.157992    2.176081    2.189520    2.195081    2.220188    2.225823
 

........................................................................
.............................. CYCLE   43 ..............................
........................................................................
------------------------------------------------------------
  cycle        total energy    energy error   density error
------------------------------------------------------------
      1     -168.0404733784  -1.7122233E+02   2.8729054E-04
      2     -168.0404729227   4.5578130E-07   1.7099015E-04
      3     -168.0404494979   2.3424783E-05   2.2614033E-04
      4     -168.0404727708  -2.3272965E-05   4.0882889E-05
      5     -168.0404735629  -7.9202729E-07   3.9254143E-06
------------------------------------------------------------

 total:                                   0.148 sec
 * total energy  :  -168.0404736 Eh     change       -0.3206063E-05 Eh
   gradient norm :     0.0002618 Eh/α   predicted     0.0000000E+00 (-100.00%)
   displ. norm   :     0.0115146 α      lambda       -0.7971065E-06
   maximum displ.:     0.0037590 α      in ANC's #25, #5, #24, ...

........................................................................
.............................. CYCLE   44 ..............................
........................................................................
------------------------------------------------------------
  cycle        total energy    energy error   density error
------------------------------------------------------------
      1     -168.0404745418  -1.7122235E+02   4.9945007E-05
      2     -168.0404742778   2.6404223E-07   3.8717968E-05
      3     -168.0404735932   6.8463240E-07   4.8870420E-05
      4     -168.0404743955  -8.0234986E-07   2.3587405E-05
      5     -168.0404746200  -2.2445363E-07   2.3099372E-06
------------------------------------------------------------

 total:                                   0.152 sec
 * total energy  :  -168.0404746 Eh     change       -0.1057093E-05 Eh
   gradient norm :     0.0001353 Eh/α   predicted    -0.4137417E-06 ( -60.86%)
   displ. norm   :     0.0455975 α      lambda       -0.2412525E-05
   maximum displ.:     0.0160707 α      in ANC's #5, #24, #25, ...

........................................................................
.............................. CYCLE   45 ..............................
........................................................................
------------------------------------------------------------
  cycle        total energy    energy error   density error
------------------------------------------------------------
      1     -168.0404765186  -1.7122226E+02   1.7794253E-04
      2     -168.0404761839   3.3472702E-07   1.0787083E-04
      3     -168.0404619403   1.4243578E-05   1.7581662E-04
      4     -168.0404763225  -1.4382194E-05   2.5102670E-05
      5     -168.0404766145  -2.9200947E-07   3.6531759E-06
------------------------------------------------------------

 total:                                   0.153 sec
 * total energy  :  -168.0404766 Eh     change       -0.1994555E-05 Eh
   gradient norm :     0.0002626 Eh/α   predicted    -0.1207667E-05 ( -39.45%)
   displ. norm   :     0.0152029 α      lambda       -0.4228035E-06
   maximum displ.:     0.0072584 α      in ANC's #5, #4, #3, ...

........................................................................
.............................. CYCLE   46 ..............................
........................................................................
------------------------------------------------------------
  cycle        total energy    energy error   density error
------------------------------------------------------------
      1     -168.0404771836  -1.7122225E+02   5.2648775E-05
      2     -168.0404764598   7.2371435E-07   5.1364929E-05
      3     -168.0404765574  -9.7578180E-08   4.5236410E-05
      4     -168.0404771130  -5.5558240E-07   2.3457788E-05
      5     -168.0404773299  -2.1694080E-07   2.3243311E-06
------------------------------------------------------------

 total:                                   0.151 sec
 * total energy  :  -168.0404773 Eh     change       -0.7154326E-06 Eh
   gradient norm :     0.0001843 Eh/α   predicted    -0.2119787E-06 ( -70.37%)
   displ. norm   :     0.0265588 α      lambda       -0.7303278E-06
   maximum displ.:     0.0132322 α      in ANC's #5, #4, #3, ...

........................................................................
.............................. CYCLE   47 ..............................
........................................................................
------------------------------------------------------------
  cycle        total energy    energy error   density error
------------------------------------------------------------
      1     -168.0404782044  -1.7122228E+02   7.6031774E-05
      2     -168.0404781573   4.7097274E-08   4.6913989E-05
      3     -168.0404774656   6.9170201E-07   4.5801415E-05
      4     -168.0404782601  -7.9453892E-07   3.7676450E-06
------------------------------------------------------------

 total:                                   0.126 sec
 * total energy  :  -168.0404783 Eh     change       -0.9301789E-06 Eh
   gradient norm :     0.0001491 Eh/α   predicted    -0.3674384E-06 ( -60.50%)
   displ. norm   :     0.0519581 α      lambda       -0.1260606E-05
   maximum displ.:     0.0262253 α      in ANC's #5, #4, #3, ...

........................................................................
.............................. CYCLE   48 ..............................
........................................................................
------------------------------------------------------------
  cycle        total energy    energy error   density error
------------------------------------------------------------
      1     -168.0404796814  -1.7122232E+02   1.4010974E-04
      2     -168.0404796404   4.0973958E-08   8.3603428E-05
      3     -168.0404781255   1.5149087E-06   6.5660290E-05
      4     -168.0404797031  -1.5775387E-06   1.1800540E-05
      5     -168.0404797436  -4.0526714E-08   7.3825067E-06
------------------------------------------------------------

 total:                                   0.150 sec
 * total energy  :  -168.0404797 Eh     change       -0.1483454E-05 Eh
   gradient norm :     0.0003234 Eh/α   predicted    -0.6326547E-06 ( -57.35%)
   displ. norm   :     0.0638395 α      lambda       -0.1225364E-05
   maximum displ.:     0.0326909 α      in ANC's #5, #4, #3, ...

........................................................................
.............................. CYCLE   49 ..............................
........................................................................
------------------------------------------------------------
  cycle        total energy    energy error   density error
------------------------------------------------------------
      1     -168.0404796871  -1.7122236E+02   1.7692414E-04
      2     -168.0404690265   1.0660608E-05   1.8217523E-04
      3     -168.0404723635  -3.3370276E-06   1.5622067E-04
      4     -168.0404809782  -8.6147054E-06   2.4605963E-05
      5     -168.0404812319  -2.5362655E-07   2.8507111E-06
------------------------------------------------------------

 total:                                   0.150 sec
 * total energy  :  -168.0404812 Eh     change       -0.1488271E-05 Eh
   gradient norm :     0.0004054 Eh/α   predicted    -0.6163801E-06 ( -58.58%)
   displ. norm   :     0.0702180 α      lambda       -0.1204874E-05
   maximum displ.:     0.0364295 α      in ANC's #5, #4, #3, ...

........................................................................
.............................. CYCLE   50 ..............................
........................................................................
------------------------------------------------------------
  cycle        total energy    energy error   density error
------------------------------------------------------------
      1     -168.0404826936  -1.7122239E+02   1.8094274E-04
      2     -168.0404826805   1.3055057E-08   1.0612147E-04
      3     -168.0404816280   1.0525317E-06   5.1726345E-05
      4     -168.0404826737  -1.0456772E-06   1.1193673E-05
      5     -168.0404827278  -5.4106323E-08   3.6186835E-06
------------------------------------------------------------

 total:                                   0.152 sec
 * total energy  :  -168.0404827 Eh     change       -0.1495939E-05 Eh
   gradient norm :     0.0003289 Eh/α   predicted    -0.6050315E-06 ( -59.56%)
   displ. norm   :     0.0817677 α      lambda       -0.1326521E-05
   maximum displ.:     0.0427567 α      in ANC's #5, #4, #3, ...

........................................................................
.............................. CYCLE   51 ..............................
........................................................................
------------------------------------------------------------
  cycle        total energy    energy error   density error
------------------------------------------------------------
      1     -168.0404839342  -1.7122238E+02   2.1194311E-04
      2     -168.0404816011   2.3330959E-06   1.4614851E-04
      3     -168.0404492550   3.2346074E-05   2.6868335E-04
      4     -168.0404842374  -3.4982391E-05   1.3006757E-05
      5     -168.0404842978  -6.0397895E-08   3.7434338E-06
------------------------------------------------------------

 total:                                   0.150 sec
 * total energy  :  -168.0404843 Eh     change       -0.1570009E-05 Eh
   gradient norm :     0.0001582 Eh/α   predicted    -0.6683292E-06 ( -57.43%)
   displ. norm   :     0.0854689 α      lambda       -0.1200837E-05
   maximum displ.:     0.0449033 α      in ANC's #5, #4, #3, ...

........................................................................
.............................. CYCLE   52 ..............................
........................................................................
------------------------------------------------------------
  cycle        total energy    energy error   density error
------------------------------------------------------------
      1     -168.0404855292  -1.7122235E+02   2.2276756E-04
      2     -168.0404854721   5.7065876E-08   1.3110491E-04
      3     -168.0404823331   3.1390002E-06   8.5080654E-05
      4     -168.0404853827  -3.0495667E-06   2.2907910E-05
      5     -168.0404856213  -2.3860682E-07   4.6395069E-06
------------------------------------------------------------

 total:                                   0.154 sec
 * total energy  :  -168.0404856 Eh     change       -0.1323517E-05 Eh
   gradient norm :     0.0001764 Eh/α   predicted    -0.6046689E-06 ( -54.31%)
   displ. norm   :     0.0684914 α      lambda       -0.7981358E-06
   maximum displ.:     0.0358839 α      in ANC's #5, #3, #4, ...

........................................................................
.............................. CYCLE   53 ..............................
........................................................................
------------------------------------------------------------
  cycle        total energy    energy error   density error
------------------------------------------------------------
      1     -168.0404861443  -1.7122232E+02   1.8023982E-04
      2     -168.0404837352   2.4091201E-06   1.2523554E-04
      3     -168.0404631062   2.0628998E-05   2.2706348E-04
      4     -168.0404864675  -2.3361276E-05   1.0098491E-05
      5     -168.0404865081  -4.0663338E-08   2.7491350E-06
------------------------------------------------------------

 total:                                   0.148 sec
 * total energy  :  -168.0404865 Eh     change       -0.8868126E-06 Eh
   gradient norm :     0.0002353 Eh/α   predicted    -0.4039387E-06 ( -54.45%)
   displ. norm   :     0.0506009 α      lambda       -0.5972793E-06
   maximum displ.:     0.0260468 α      in ANC's #5, #3, #2, ...

........................................................................
.............................. CYCLE   54 ..............................
........................................................................
------------------------------------------------------------
  cycle        total energy    energy error   density error
------------------------------------------------------------
      1     -168.0404871505  -1.7122231E+02   1.2836122E-04
      2     -168.0404871045   4.5961826E-08   7.6150903E-05
      3     -168.0404840188   3.0856742E-06   7.8890577E-05
      4     -168.0404870796  -3.0607675E-06   1.5358653E-05
      5     -168.0404871785  -9.8881742E-08   2.5231392E-06
------------------------------------------------------------

 total:                                   0.148 sec
 * total energy  :  -168.0404872 Eh     change       -0.6703648E-06 Eh
   gradient norm :     0.0001984 Eh/α   predicted    -0.3020135E-06 ( -54.95%)
   displ. norm   :     0.0395831 α      lambda       -0.4795678E-06
   maximum displ.:     0.0192196 α      in ANC's #5, #2, #3, ...

........................................................................
.............................. CYCLE   55 ..............................
........................................................................
------------------------------------------------------------
  cycle        total energy    energy error   density error
------------------------------------------------------------
      1     -168.0404876669  -1.7122231E+02   9.7626825E-05
      2     -168.0404875843   8.2600110E-08   5.8400859E-05
      3     -168.0404839497   3.6345978E-06   8.9357972E-05
      4     -168.0404875952  -3.6455142E-06   1.4449670E-05
      5     -168.0404876956  -1.0034387E-07   1.6906372E-06
------------------------------------------------------------

 total:                                   0.150 sec
 * total energy  :  -168.0404877 Eh     change       -0.5170743E-06 Eh
   gradient norm :     0.0001041 Eh/α   predicted    -0.2442770E-06 ( -52.76%)
   displ. norm   :     0.0263579 α      lambda       -0.2711968E-06
   maximum displ.:     0.0120049 α      in ANC's #5, #2, #3, ...

........................................................................
.............................. CYCLE   56 ..............................
........................................................................
------------------------------------------------------------
  cycle        total energy    energy error   density error
------------------------------------------------------------
      1     -168.0404878359  -1.7122232E+02   6.1619879E-05
      2     -168.0404877872   4.8687355E-08   3.7846838E-05
      3     -168.0404857761   2.0111177E-06   6.4287248E-05
      4     -168.0404878214  -2.0452733E-06   8.2094162E-06
      5     -168.0404878491  -2.7739389E-08   1.2347876E-06
------------------------------------------------------------

 total:                                   0.150 sec
 * total energy  :  -168.0404878 Eh     change       -0.1535263E-06 Eh
   gradient norm :     0.0000766 Eh/α   predicted    -0.1400118E-06 (  -8.80%)
   displ. norm   :     0.0170673 α      lambda       -0.1945328E-06
   maximum displ.:     0.0072019 α      in ANC's #2, #1, #5, ...

........................................................................
.............................. CYCLE   57 ..............................
........................................................................
------------------------------------------------------------
  cycle        total energy    energy error   density error
------------------------------------------------------------
      1     -168.0404880475  -1.7122236E+02   4.6425332E-05
      2     -168.0404880397   7.8062499E-09   2.7806302E-05
      3     -168.0404876871   3.5263997E-07   2.8993486E-05
      4     -168.0404880105  -3.2341180E-07   9.3986795E-06
------------------------------------------------------------

 total:                                   0.124 sec
 * total energy  :  -168.0404880 Eh     change       -0.1614063E-06 Eh
   gradient norm :     0.0001111 Eh/α   predicted    -0.1017642E-06 ( -36.95%)
   displ. norm   :     0.0170673 α      lambda        0.0000000E+00
   maximum displ.:     0.0072019 α      in ANC's #2, #1, #5, ...

........................................................................
.............................. CYCLE   58 ..............................
........................................................................
------------------------------------------------------------
  cycle        total energy    energy error   density error
------------------------------------------------------------
      1     -168.0404851560  -1.7122240E+02   8.9397911E-05
      2     -168.0404654986   1.9657363E-05   2.1269440E-04
      3     -168.0404879650  -2.2466422E-05   2.8106300E-05
      4     -168.0404878185   1.4649672E-07   2.5803369E-05
      5     -168.0404880589  -2.4040230E-07   1.8078370E-06
------------------------------------------------------------

 total:                                   0.150 sec
 * total energy  :  -168.0404881 Eh     change       -0.4844111E-07 Eh
   gradient norm :     0.0002073 Eh/α   predicted    -0.9548377E-09 ( -98.03%)
   displ. norm   :     0.0047538 α      lambda       -0.1304487E-06
   maximum displ.:     0.0019969 α      in ANC's #20, #5, #12, ...

........................................................................
.............................. CYCLE   59 ..............................
........................................................................
------------------------------------------------------------
  cycle        total energy    energy error   density error
------------------------------------------------------------
      1     -168.0404881810  -1.7122240E+02   2.0619522E-05
      2     -168.0404881760   4.9934386E-09   1.3195450E-05
------------------------------------------------------------

 total:                                   0.076 sec
 * total energy  :  -168.0404882 Eh     change       -0.1170702E-06 Eh
   gradient norm :     0.0001186 Eh/α   predicted    -0.6774757E-07 ( -42.13%)
   displ. norm   :     0.0073765 α      lambda       -0.1143672E-06
   maximum displ.:     0.0040511 α      in ANC's #20, #17, #4, ...

........................................................................
.............................. CYCLE   60 ..............................
........................................................................
------------------------------------------------------------
  cycle        total energy    energy error   density error
------------------------------------------------------------
      1     -168.0404877670  -1.7122239E+02   4.5152458E-05
      2     -168.0404861398   1.6272574E-06   6.7693569E-05
      3     -168.0404880266  -1.8867987E-06   2.8135285E-05
      4     -168.0404882346  -2.0806266E-07   1.6692202E-05
------------------------------------------------------------

 total:                                   0.125 sec
 * total energy  :  -168.0404882 Eh     change       -0.5861608E-07 Eh
   gradient norm :     0.0000622 Eh/α   predicted    -0.5948259E-07 (   1.48%)
   displ. norm   :     0.0073765 α      lambda        0.0000000E+00
   maximum displ.:     0.0040511 α      in ANC's #20, #17, #4, ...

   *** GEOMETRY OPTIMIZATION CONVERGED AFTER 60 ITERATIONS ***

------------------------------------------------------------------------
 total energy gain   :        -0.0145523 Eh       -9.1317 kcal/mol
 total RMSD          :         0.5759739 a0        0.3048 Å
[...]
eigval :     1138.84  1154.56  1156.61  1160.43  1170.32  1177.78
eigval :     1179.53  1180.40  1181.39  1181.46  1182.91  1183.87
eigval :     1185.94  1192.04  1194.01  1195.99  1200.40  1203.42
eigval :     1220.02  1223.33  1242.35  1243.21  1246.44  1253.61
eigval :     1255.99  1261.90  1266.73  1272.03  1275.69  1278.13
eigval :     1280.89  1281.30  1285.73  1291.53  1298.43  1309.99
eigval :     1312.07  1318.03  1318.85  1320.14  1321.99  1328.60
eigval :     1333.57  1335.92  1338.02  1340.51  1350.50  1358.10
eigval :     1363.01  1373.95  1379.88  1392.07  1405.73  1410.35
eigval :     1413.01  1421.32  1429.17  1432.52  1433.18  1436.33
eigval :     1437.41  1442.01  1446.48  1455.05  1464.34  1465.73
eigval :     1467.67  1470.29  1476.53  1482.32  1485.01  1490.22
eigval :     1492.40  1503.76  1520.15  1543.88  1546.06  1556.77
eigval :     1565.45  1567.57  1567.90  1571.54  1573.04  1576.75
eigval :     1583.24  1584.61  1584.91  1585.53  1588.78  1595.09
eigval :     1596.34  1598.44  1614.79  3071.54  3073.17  3075.19
eigval :     3075.38  3076.95  3077.04  3077.25  3078.95  3079.53
eigval :     3080.57  3080.69  3081.16  3081.98  3084.35  3084.40
eigval :     3085.53  3085.94  3086.05  3088.13  3088.40  3088.77
eigval :     3089.00  3090.49  3091.34  3091.54  3092.39  3092.74
eigval :     3093.44  3094.78  3095.30  3097.84  3098.28  3098.97
eigval :     3099.95  3100.49  3101.54  3105.44  3106.69  3108.11
eigval :     3116.15  3116.41  3116.99
 reduced masses (amu)
   1: 11.27   2: 11.50   3: 11.54   4: 11.46   5: 11.50   6: 11.51   7: 11.07   8: 11.04
   9: 11.13  10: 11.10  11: 10.95  12: 11.02  13: 11.05  14: 10.88  15: 10.84  16: 11.04
  17: 10.76  18: 10.58  19: 10.52  20: 10.66  21: 10.96  22: 10.28  23: 10.33  24: 10.12
  25: 10.45  26: 10.45  27: 10.63  28: 10.48  29: 10.56  30: 10.22  31: 10.82  32: 10.70
  33: 10.74  34: 11.26  35: 10.66  36: 10.80  37: 11.03  38: 11.03  39: 10.59  40: 10.61
  41: 10.65  42: 10.54  43: 10.74  44: 11.02  45: 10.69  46: 10.50  47: 10.63  48: 10.80
  49: 10.98  50: 10.80  51: 10.85  52: 10.62  53: 10.67  54: 11.26  55: 10.82  56: 11.04
  57: 10.11  58:  9.60  59:  9.35  60:  9.10  61: 10.09  62: 10.28  63:  9.84  64:  9.85
  65: 10.33  66: 10.92  67: 10.47  68: 10.50  69: 10.37  70: 10.22  71: 10.35  72: 10.27
  73: 10.70  74: 10.46  75: 10.92  76: 10.07  77: 10.69  78: 10.11  79: 10.53  80: 10.55
  81: 10.28  82: 10.19  83: 10.75  84: 10.93  85: 10.85  86: 11.07  87: 11.25  88: 11.23
  89: 11.30  90: 11.18  91: 11.34  92: 11.31  93: 11.30  94: 11.49  95: 11.49  96: 11.41
  97: 11.10  98: 11.72  99: 11.21 100: 11.50 101: 11.37 102: 11.06 103: 10.66 104: 10.33
 105: 11.13 106: 11.09 107: 10.69 108: 11.03 109: 10.87 110: 10.92 111: 10.79 112: 11.49
 113: 11.28 114: 11.46 115: 11.12 116: 11.37 117: 11.02 118: 10.61 119:  3.92 120:  3.92
 121:  4.77 122:  4.38 123:  3.63 124:  4.65 125:  9.74 126:  4.64 127:  5.48 128:  4.94
 129:  4.06 130:  4.58 131:  3.58 132: 11.19 133:  3.78 134:  3.43 135:  3.65 136:  3.31
 137:  3.29 138:  3.39 139:  3.34 140:  3.82 141:  5.18 142:  3.90 143:  3.95 144:  5.18
 145:  4.26 146:  6.35 147:  5.22 148:  5.51 149:  9.86 150:  8.29 151:  4.75 152:  3.99
 153:  4.12 154:  3.40 155:  3.45 156:  3.17 157:  3.97 158:  3.29 159: 11.42 160: 10.86
 161:  3.41 162:  3.15 163:  3.30 164:  3.80 165:  3.37 166:  3.20 167:  3.43 168: 10.41
 169: 11.21 170: 10.64 171: 11.17 172: 10.64 173: 10.64 174: 10.57 175: 10.61 176:  9.61
 177:  7.63 178:  9.98 179:  6.06 180:  6.94 181:  7.00 182:  6.92 183:  6.60 184:  6.31
 185:  9.39 186:  6.71 187:  3.90 188:  4.29 189:  5.81 190:  3.99 191:  5.64 192:  3.77
 193:  6.49 194:  4.81 195:  3.94 196:  6.03 197:  6.55 198:  1.99 199:  1.32 200:  1.52
 201:  1.72 202:  1.55 203:  3.38 204:  2.67 205:  2.37 206:  2.95 207:  2.00 208:  3.52
 209:  4.73 210:  3.87 211:  7.45 212:  5.41 213:  5.07 214:  7.37 215:  6.08 216:  5.44
 217:  6.60 218:  6.74 219:  3.63 220:  4.79 221:  4.29 222:  4.61 223:  7.59 224:  3.90
 225:  7.28 226:  7.73 227:  9.01 228:  9.75 229:  9.56 230:  9.10 231: 11.84 232: 11.28
 233: 11.59 234: 11.87 235: 11.12 236: 10.61 237: 10.83 238:  9.94 239: 11.00 240: 10.77
 241: 10.78 242: 10.34 243:  9.28 244:  8.94 245:  9.63 246:  8.83 247:  9.95 248:  9.71
 249:  9.90 250:  9.65 251:  9.53 252: 10.89 253:  8.98 254:  9.24 255: 10.41 256: 10.12
 257:  9.25 258:  9.17 259: 10.39 260: 10.47 261: 11.10 262: 10.33 263: 10.26 264: 10.79
 265: 11.20 266: 11.56 267: 10.97 268: 11.88 269: 11.44 270: 11.44 271: 11.42 272: 11.48
 273: 11.43 274: 11.49 275: 11.50 276: 11.56 277: 11.55 278: 11.46 279: 11.58 280: 11.50
 281: 11.48 282: 11.51 283: 11.49 284: 11.70 285: 11.71 286:  1.77 287:  1.80 288:  1.76
 289:  1.77 290:  1.76 291:  1.76 292:  1.77 293:  1.75 294:  1.76 295:  1.78 296:  1.79
 297:  1.77 298:  1.78 299:  1.83 300:  1.80 301:  1.83 302:  1.84 303:  1.83 304:  1.81
 305:  1.79 306:  1.83 307:  1.83 308:  1.87 309:  1.86 310:  1.85 311:  1.86 312:  1.87
 313:  1.87 314:  1.89 315:  1.87 316:  1.83 317:  1.90 318:  1.92 319:  1.92 320:  1.91
 321:  1.83 322:  1.86 323:  1.86 324:  1.83 325:  1.83 326:  1.83 327:  1.84
 IR intensities (km·mol⁻¹)
   1:  0.27   2:  0.23   3:  0.03   4:  2.09   5:  0.74   6:  0.99   7:  0.15   8:  0.03
   9:  0.83  10:  0.13  11:  0.18  12:  0.11  13:  0.18  14:  0.77  15:  0.51  16:  0.04
  17:  0.43  18:  0.19  19:  0.31  20:  0.80  21:  1.58  22:  0.29  23:  0.50  24:  0.22
  25:  0.81  26:  0.58  27:  0.03  28:  0.20  29:  0.56  30:  0.88  31:  0.72  32:  0.38
  33:  0.05  34:  2.87  35:  0.32  36:  1.38  37:  2.80  38:  0.18  39:  0.57  40:  0.23
  41:  7.47  42:  3.42  43:  1.05  44:  6.23  45:  2.61  46:  0.89  47:  0.71  48:  0.59
  49:  8.10  50:  0.38  51:  2.73  52:  0.18  53:  2.91  54:  0.28  55:  4.52  56:  1.25
  57:  3.99  58:  0.91  59:  2.42  60:  1.59  61:  8.55  62:  1.70  63:  2.89  64:  0.92
  65:  4.17  66:  1.90  67:  1.10  68:  0.14  69:  0.75  70:  1.37  71:  3.47  72:  3.46
  73: 11.27  74:  3.20  75:  1.49  76:  0.29  77:  5.62  78:  3.73  79:  0.48  80:  8.66
  81:  0.94  82:  0.89  83:  0.55  84:  0.74  85:  1.48  86:  0.10  87:  1.65  88:  0.12
  89:  0.95  90:  0.02  91:  0.95  92:  0.87  93:  0.30  94:  7.14  95:  8.22  96:  1.69
  97:  0.21  98:  8.65  99:  2.76 100:  1.14 101:  1.99 102:  2.54 103:  3.80 104:  5.04
 105: 16.94 106:  1.69 107:  3.71 108:  4.26 109:  8.92 110:  2.35 111: 10.78 112:  6.64
 113:  1.54 114:  3.81 115:  6.07 116:  7.60 117: 28.19 118:  3.32 119: 50.83 120: 29.84
 121: 11.13 122: 36.46 123: 21.19 124:  2.56 125:  2.39 126: 19.35 127: 11.05 128:  9.54
 129: 24.71 130:  7.82 131: 18.74 132: 19.83 133:  2.03 134:  1.48 135:  0.59 136:  1.83
 137: 15.28 138:  1.39 139:  0.79 140:  4.43 141:  0.37 142:  0.91 143:  0.77 144:  0.55
 145:  0.60 146:  7.73 147:  4.75 148:  0.63 149:  2.45 150:  2.74 151:  3.87 152:  0.28
 153:  0.37 154:  1.21 155:  2.22 156:  0.90 157:  3.57 158:  0.02 159:  7.67 160: 39.02
 161:  0.47 162:  1.01 163:  0.69 164: 11.04 165:  0.26 166:  0.07 167:  0.81 168: 14.73
 169: 60.47 170:  8.98 171: 24.96 172:  1.75 173:  3.92 174:  1.14 175:  0.14 176:  2.30
 177:  4.59 178: 32.72 179:  0.63 180:  1.24 181:  6.40 182:  3.43 183:  0.51 184:  2.44
 185: 19.80 186:  1.19 187:  2.38 188:  0.60 189:  0.08 190:  1.79 191:  1.21 192:  2.96
 193: 31.51 194:  3.90 195:  0.79 196:  8.08 197:257.18 198:  0.89 199:  0.04 200:  0.21
 201:  1.51 202:  0.68 203:  9.53 204:  1.70 205: 12.02 206: 45.98 207: 13.85 208:  5.02
 209:  1.33 210:  3.46 211: 26.53 212: 27.38 213: 27.91 214: 14.62 215:  3.24 216: 14.20
 217:  4.58 218:  6.81 219:  0.51 220: 14.57 221: 11.08 222: 10.41 223:188.55 224: 40.04
 225: 47.78 226: 17.54 227: 35.08 228:134.00 229: 10.87 230:431.15 231:  0.12 232: 25.08
 233:  2.40 234:  0.49 235:  4.46 236: 12.91 237:  4.06 238: 25.94 239:  5.27 240:  3.72
 241:  6.80 242: 80.45 243:  5.36 244: 12.87 245: 10.25 246: 68.71 247: 23.25 248:  5.19
 249: 72.51 250: 37.57 251: 44.10 252:  4.06 253: 15.37 254:  3.90 255:156.54 256:284.51
 257: 62.67 258: 70.53 259: 61.24 260:143.84 261: 12.05 262: 26.00 263:164.50 264:  2.64
 265: 89.45 266:  0.56 267: 21.36 268:115.59 269: 22.78 270: 38.61 271: 25.49 272:  1.23
 273:  4.30 274: 36.13 275: 16.89 276: 31.94 277:  0.63 278: 64.35 279: 29.20 280: 40.49
 281:105.38 282:150.42 283: 39.60 284: 11.92 285: 18.31 286: 16.52 287: 18.85 288: 10.40
 289:  3.66 290: 11.62 291:  8.24 292:  2.40 293: 19.04 294:  2.62 295:  2.13 296: 11.52
 297:  1.32 298:  7.29 299: 69.02 300:  6.17 301: 17.98 302: 53.19 303: 16.08 304: 13.63
 305:  5.36 306: 21.95 307: 10.34 308:  2.75 309: 63.64 310: 23.74 311: 57.76 312: 54.96
 313: 15.65 314: 33.29 315: 13.07 316: 11.00 317: 45.41 318: 50.43 319: 59.52 320:  9.26
 321: 27.01 322:  6.76 323: 39.15 324: 68.34 325: 34.10 326: 13.69 327:  6.84
 Raman intensities (Ä⁴*amu⁻¹)
   1:  0.00   2:  0.00   3:  0.00   4:  0.00   5:  0.00   6:  0.00   7:  0.00   8:  0.00
   9:  0.00  10:  0.00  11:  0.00  12:  0.00  13:  0.00  14:  0.00  15:  0.00  16:  0.00
  17:  0.00  18:  0.00  19:  0.00  20:  0.00  21:  0.00  22:  0.00  23:  0.00  24:  0.00
  25:  0.00  26:  0.00  27:  0.00  28:  0.00  29:  0.00  30:  0.00  31:  0.00  32:  0.00
  33:  0.00  34:  0.00  35:  0.00  36:  0.00  37:  0.00  38:  0.00  39:  0.00  40:  0.00
  41:  0.00  42:  0.00  43:  0.00  44:  0.00  45:  0.00  46:  0.00  47:  0.00  48:  0.00
  49:  0.00  50:  0.00  51:  0.00  52:  0.00  53:  0.00  54:  0.00  55:  0.00  56:  0.00
  57:  0.00  58:  0.00  59:  0.00  60:  0.00  61:  0.00  62:  0.00  63:  0.00  64:  0.00
  65:  0.00  66:  0.00  67:  0.00  68:  0.00  69:  0.00  70:  0.00  71:  0.00  72:  0.00
  73:  0.00  74:  0.00  75:  0.00  76:  0.00  77:  0.00  78:  0.00  79:  0.00  80:  0.00
  81:  0.00  82:  0.00  83:  0.00  84:  0.00  85:  0.00  86:  0.00  87:  0.00  88:  0.00
  89:  0.00  90:  0.00  91:  0.00  92:  0.00  93:  0.00  94:  0.00  95:  0.00  96:  0.00
  97:  0.00  98:  0.00  99:  0.00 100:  0.00 101:  0.00 102:  0.00 103:  0.00 104:  0.00
 105:  0.00 106:  0.00 107:  0.00 108:  0.00 109:  0.00 110:  0.00 111:  0.00 112:  0.00
 113:  0.00 114:  0.00 115:  0.00 116:  0.00 117:  0.00 118:  0.00 119:  0.00 120:  0.00
 121:  0.00 122:  0.00 123:  0.00 124:  0.00 125:  0.00 126:  0.00 127:  0.00 128:  0.00
 129:  0.00 130:  0.00 131:  0.00 132:  0.00 133:  0.00 134:  0.00 135:  0.00 136:  0.00
 137:  0.00 138:  0.00 139:  0.00 140:  0.00 141:  0.00 142:  0.00 143:  0.00 144:  0.00
 145:  0.00 146:  0.00 147:  0.00 148:  0.00 149:  0.00 150:  0.00 151:  0.00 152:  0.00
 153:  0.00 154:  0.00 155:  0.00 156:  0.00 157:  0.00 158:  0.00 159:  0.00 160:  0.00
 161:  0.00 162:  0.00 163:  0.00 164:  0.00 165:  0.00 166:  0.00 167:  0.00 168:  0.00
 169:  0.00 170:  0.00 171:  0.00 172:  0.00 173:  0.00 174:  0.00 175:  0.00 176:  0.00
 177:  0.00 178:  0.00 179:  0.00 180:  0.00 181:  0.00 182:  0.00 183:  0.00 184:  0.00
 185:  0.00 186:  0.00 187:  0.00 188:  0.00 189:  0.00 190:  0.00 191:  0.00 192:  0.00
 193:  0.00 194:  0.00 195:  0.00 196:  0.00 197:  0.00 198:  0.00 199:  0.00 200:  0.00
 201:  0.00 202:  0.00 203:  0.00 204:  0.00 205:  0.00 206:  0.00 207:  0.00 208:  0.00
 209:  0.00 210:  0.00 211:  0.00 212:  0.00 213:  0.00 214:  0.00 215:  0.00 216:  0.00
 217:  0.00 218:  0.00 219:  0.00 220:  0.00 221:  0.00 222:  0.00 223:  0.00 224:  0.00
 225:  0.00 226:  0.00 227:  0.00 228:  0.00 229:  0.00 230:  0.00 231:  0.00 232:  0.00
 233:  0.00 234:  0.00 235:  0.00 236:  0.00 237:  0.00 238:  0.00 239:  0.00 240:  0.00
 241:  0.00 242:  0.00 243:  0.00 244:  0.00 245:  0.00 246:  0.00 247:  0.00 248:  0.00
 249:  0.00 250:  0.00 251:  0.00 252:  0.00 253:  0.00 254:  0.00 255:  0.00 256:  0.00
 257:  0.00 258:  0.00 259:  0.00 260:  0.00 261:  0.00 262:  0.00 263:  0.00 264:  0.00
 265:  0.00 266:  0.00 267:  0.00 268:  0.00 269:  0.00 270:  0.00 271:  0.00 272:  0.00
 273:  0.00 274:  0.00 275:  0.00 276:  0.00 277:  0.00 278:  0.00 279:  0.00 280:  0.00
 281:  0.00 282:  0.00 283:  0.00 284:  0.00 285:  0.00 286:  0.00 287:  0.00 288:  0.00
 289:  0.00 290:  0.00 291:  0.00 292:  0.00 293:  0.00 294:  0.00 295:  0.00 296:  0.00
 297:  0.00 298:  0.00 299:  0.00 300:  0.00 301:  0.00 302:  0.00 303:  0.00 304:  0.00
 305:  0.00 306:  0.00 307:  0.00 308:  0.00 309:  0.00 310:  0.00 311:  0.00 312:  0.00
 313:  0.00 314:  0.00 315:  0.00 316:  0.00 317:  0.00 318:  0.00 319:  0.00 320:  0.00
 321:  0.00 322:  0.00 323:  0.00 324:  0.00 325:  0.00 326:  0.00 327:  0.00
 output can be read by thermo (or use thermo option).
 writing <g98.out> molden fake output.
 recommended (thermochemical) frequency scaling factor: 1.0
           -------------------------------------------------
          |             Thermodynamic Functions             |
           -------------------------------------------------

Refinement of some symmetry elements was terminated before convergence was reached.
Some symmetry elements may remain unidentified.
Molecule has no symmetry elements
It seems to be the C1 point group
c1  symmetry found (for desy threshold:  0.10E+00) used in thermo

          ...................................................
          :                      SETUP                      :
          :.................................................:
          :  # frequencies                         321      :
          :  # imaginary freq.                       0      :
          :  linear?                             false      :
          :  only rotor calc.                    false      :
          :  symmetry                               c1      :
          :  rotational number                       1      :
          :  scaling factor                  1.0000000      :
          :  rotor cutoff                   50.0000000 cm⁻¹ :
          :  imag. cutoff                  -20.0000000 cm⁻¹ :
          :.................................................:

    mode    ω/cm⁻¹     T·S(HO)/kcal·mol⁻¹    T·S(FR)/kcal·mol⁻¹   T·S(vib)
   ------------------------------------------------------------------------
       1     13.19    -2.22463 (  0.48%)    -1.45136 ( 99.52%)    -1.45509
       2     13.82    -2.19672 (  0.58%)    -1.43740 ( 99.42%)    -1.44181
       3     17.32    -2.06318 (  1.42%)    -1.37061 ( 98.58%)    -1.38044
       4     20.85    -1.95323 (  2.94%)    -1.31560 ( 97.06%)    -1.33433
       5     25.08    -1.84390 (  5.96%)    -1.26088 ( 94.04%)    -1.29561
       6     31.28    -1.71330 ( 13.29%)    -1.19548 ( 86.71%)    -1.26427
       7     36.14    -1.62791 ( 21.45%)    -1.15269 ( 78.55%)    -1.25461
       8     42.59    -1.53093 ( 34.49%)    -1.10406 ( 65.51%)    -1.25129
       9     45.86    -1.48727 ( 41.44%)    -1.08214 ( 58.56%)    -1.25004
      10     51.88    -1.41458 ( 53.68%)    -1.04563 ( 46.32%)    -1.24368
      11     56.46    -1.36466 ( 61.92%)    -1.02053 ( 38.08%)    -1.23363
      12     57.16    -1.35743 ( 63.07%)    -1.01689 ( 36.93%)    -1.23169
      13     62.96    -1.30063 ( 71.54%)    -0.98829 ( 28.46%)    -1.21173
      14     66.93    -1.26469 ( 76.25%)    -0.97017 ( 23.75%)    -1.19473
      15     71.41    -1.22660 ( 80.62%)    -0.95095 ( 19.38%)    -1.17319
      16     76.79    -1.18405 ( 84.76%)    -0.92945 ( 15.24%)    -1.14525
      17     79.88    -1.16096 ( 86.69%)    -0.91777 ( 13.31%)    -1.12860
      18     84.61    -1.12728 ( 89.13%)    -0.90071 ( 10.87%)    -1.10266
      19     85.93    -1.11826 ( 89.72%)    -0.89613 ( 10.28%)    -1.09542
      20     90.68    -1.08688 ( 91.54%)    -0.88020 (  8.46%)    -1.06939
      21    104.61    -1.00374 ( 95.04%)    -0.83786 (  4.96%)    -0.99551
      22    108.58    -0.98217 ( 95.70%)    -0.82683 (  4.30%)    -0.97548
      23    113.00    -0.95906 ( 96.31%)    -0.81500 (  3.69%)    -0.95374
      24    117.43    -0.93688 ( 96.82%)    -0.80362 (  3.18%)    -0.93263
      25    123.12    -0.90960 ( 97.35%)    -0.78960 (  2.65%)    -0.90642
      26    130.06    -0.87809 ( 97.86%)    -0.77335 (  2.14%)    -0.87585
      27    148.11    -0.80393 ( 98.72%)    -0.73486 (  1.28%)    -0.80305
      28    170.36    -0.72495 ( 99.26%)    -0.69339 (  0.74%)    -0.72471
      29    176.50    -0.70516 ( 99.36%)    -0.68290 (  0.64%)    -0.70501
      30    183.92    -0.68225 ( 99.46%)    -0.67071 (  0.54%)    -0.68219
      31    192.73    -0.65635 ( 99.55%)    -0.65684 (  0.45%)    -0.65636
      32    198.30    -0.64066 ( 99.60%)    -0.64840 (  0.40%)    -0.64069
      33    217.91    -0.58925 ( 99.72%)    -0.62046 (  0.28%)    -0.58934
      34    221.74    -0.57986 ( 99.74%)    -0.61530 (  0.26%)    -0.57995
      35    230.82    -0.55831 ( 99.78%)    -0.60342 (  0.22%)    -0.55841
      36    238.12    -0.54170 ( 99.81%)    -0.59419 (  0.19%)    -0.54180
      37    243.96    -0.52885 ( 99.82%)    -0.58701 (  0.18%)    -0.52895
      38    244.90    -0.52683 ( 99.83%)    -0.58587 (  0.17%)    -0.52693
      39    254.24    -0.50715 ( 99.85%)    -0.57478 (  0.15%)    -0.50725
      40    267.38    -0.48094 ( 99.88%)    -0.55986 (  0.12%)    -0.48104
      41    270.32    -0.47530 ( 99.88%)    -0.55662 (  0.12%)    -0.47540
      42    278.79    -0.45947 ( 99.90%)    -0.54747 (  0.10%)    -0.45956
      43    288.09    -0.44280 ( 99.91%)    -0.53776 (  0.09%)    -0.44289
   ------------------------------------------------------------------------

   temp. (K)  partition function   enthalpy   heat capacity  entropy
                                   cal/mol     cal/K/mol   cal/K/mol   J/K/mol
 298.15  VIB  0.220E+24            31133.877    200.031    192.722
         ROT  0.187E+09              888.752      2.981     40.836
         INT  0.412E+32            32022.629    203.011    233.558
         TR   0.242E+29             1481.254      4.968     46.094
         TOT                       33503.8829   207.9796   279.6522  1170.0648

       T/K    H(0)-H(T)+PV         H(T)/Eh          T*S/Eh         G(T)/Eh
   ------------------------------------------------------------------------
    298.15    0.533918E-01    0.892815E+00    0.132872E+00    0.759943E+00
   ------------------------------------------------------------------------

         :::::::::::::::::::::::::::::::::::::::::::::::::::::
         ::                  THERMODYNAMIC                  ::
         :::::::::::::::::::::::::::::::::::::::::::::::::::::
         :: total free energy        -167.280545103849 Eh   ::
         ::.................................................::
         :: total energy             -168.040488307431 Eh   ::
         :: zero point energy           0.839423150460 Eh   ::
         :: G(RRHO) w/o ZPVE           -0.079479946878 Eh   ::
         :: G(RRHO) contrib.            0.759943203582 Eh   ::
         :::::::::::::::::::::::::::::::::::::::::::::::::::::

optimized geometry written to: xtbopt.xyz


           -------------------------------------------------
          | TOTAL ENERGY             -168.040488307431 Eh   |
          | TOTAL ENTHALPY           -167.147673321075 Eh   |
          | TOTAL FREE ENERGY        -167.280545103849 Eh   |
          | GRADIENT NORM               0.000055886240 Eh/α |
           -------------------------------------------------

------------------------------------------------------------------------
 * finished run on 2025/08/25 at 23:15:11.357     
------------------------------------------------------------------------
 total:
 * wall-time:     0 d,  0 h,  0 min, 24.132 sec
 *  cpu-time:     0 d,  0 h, 14 min, 52.079 sec
 * ratio c/w:    36.966 speedup
 SCF:
 * wall-time:     0 d,  0 h,  0 min,  0.584 sec
 *  cpu-time:     0 d,  0 h,  0 min, 23.179 sec
 * ratio c/w:    39.686 speedup
 ANC optimizer:
 * wall-time:     0 d,  0 h,  0 min, 10.906 sec
 *  cpu-time:     0 d,  0 h,  7 min, 16.139 sec
 * ratio c/w:    39.991 speedup
 analytical hessian:
 * wall-time:     0 d,  0 h,  0 min, 12.559 sec
 *  cpu-time:     0 d,  0 h,  7 min, 10.947 sec
 * ratio c/w:    34.315 speedup

