43
 energy: -69.893976201755 gnorm: 0.000182314595 xtb: 6.7.1 (edcfbbe)
N           -6.74755503304804       -4.30450381202808        0.34783684489573
C           -5.80435361233665       -3.65255479808069        0.28779856216571
C           -4.64637741809112       -2.84823239443966        0.21475201668133
C           -3.43378592415968       -3.31809041552013        0.72595484204701
C           -2.30976428978218       -2.52368579376049        0.65359619267824
C           -2.36900143095714       -1.25112390058385        0.08249846295970
C           -1.14838373041037       -0.43090547302932        0.03387215107074
C           -1.19207319111653        0.96233272501390        0.04563516370987
C            0.00118771571591        1.67883012710575        0.00016777205004
C            0.00226072623322        3.14947989945705       -0.00027645085791
C           -0.90491181702096        3.85686172438940       -0.78553958199508
C           -0.89877989100816        5.23972538883883       -0.78895929372374
C            0.00391948810917        5.93387905727141        0.00006083139548
C            0.90579303529683        5.23848642080698        0.78891262123140
C            0.91024651312745        3.85562697855249        0.78517156217328
C            1.19344155811810        0.96066609341795       -0.04549816113758
C            1.14781844852862       -0.43250360837779       -0.03382193779919
C            2.36731466797470       -1.25439531351825       -0.08246605104386
C            3.58012325370079       -0.80051823976617        0.43626963710350
C            4.71013041211743       -1.58958470174359        0.37328726825852
C            4.64254241343322       -2.85457024592344       -0.21474600849462
C            5.79942385685869       -3.66047463050383       -0.28761237992704
N            6.74161870787412       -4.31380239220337       -0.34805973336689
C            3.42933822828221       -3.32274682913508       -0.72604473131746
C            2.30638664842744       -2.52682737524000       -0.65367982579181
N           -0.00074554364829       -1.10042940353887        0.00004504851902
C           -3.58122200984277       -0.79555692778299       -0.43613650406361
C           -4.71228990660666       -1.58309948753657       -0.37315786086559
H           -3.38738299017587       -4.29978907044030        1.17401806578688
H           -1.36546149910478       -2.87253715591528        1.04154925923669
H           -2.13240454485963        1.48400836790402        0.12462757424395
H           -1.60082414562209        3.31935026377250       -1.41353214388677
H           -1.60060968973504        5.77811870452903       -1.40927817777241
H            0.00460414033131        7.01393421826571        0.00013560449357
H            1.60826575482539        5.77589284613278        1.40937391670216
H            1.60533087284033        3.31714869933984        1.41326984501278
H            2.13448949953656        1.48101873003847       -0.12467564760992
H            3.64007690532594        0.16680131970862        0.91103136834104
H            5.64829559368623       -1.23856596048230        0.77766263319769
H            3.38159508858119       -4.30437888827408       -1.17410973540100
H            1.36161743847325       -2.87438403543989       -1.04167298711676
H           -3.63988045741667        0.17186975441555       -0.91085067718327
H           -5.65001184245169       -1.23076846571007       -0.77741135461093
