 Entering Gaussian System
 *********************************************
 Gaussian 98:
 frequency output generated by the xtb code
 *********************************************
                         Standard orientation:
 --------------------------------------------------------------------
  Center     Atomic     Atomic              Coordinates (Angstroms)
  Number     Number      Type              X           Y           Z
 --------------------------------------------------------------------
    1          6             0        5.386986   -4.706637   -1.478684
    2          6             0        5.868004   -4.320107   -0.238078
    3          6             0        5.521478   -3.094044    0.296273
    4          6             0        4.688572   -2.227522   -0.411833
    5          7             0        4.335876   -0.985124    0.128957
    6          6             0        5.285445   -0.243243    0.842241
    7          6             0        4.915614    0.480842    1.975906
    8          6             0        5.854449    1.221599    2.667044
    9          6             0        7.175650    1.245872    2.250126
   10          6             0        7.550989    0.521363    1.130358
   11          6             0        6.616853   -0.214758    0.427060
   12          6             0        3.042523   -0.481959   -0.047497
   13          6             0        2.849037    0.886349   -0.198245
   14          6             0        1.563688    1.395333   -0.364483
   15          6             0        0.448579    0.532069   -0.381692
   16          6             0        0.671332   -0.852142   -0.244333
   17          6             0        1.956756   -1.353442   -0.073111
   18          7             0       -0.410669   -1.714285   -0.285050
   19          6             0       -0.123344   -3.113000   -0.346952
   20          6             0       -0.017840   -3.863393    0.817851
   21          6             0        0.281774   -5.212199    0.741456
   22          6             0        0.477414   -5.812811   -0.491779
   23          6             0        0.370972   -5.063990   -1.651916
   24          6             0        0.072128   -3.714037   -1.582745
   25          6             0       -1.723915   -1.309952   -0.200904
   26          6             0       -2.715250   -2.296399   -0.096007
   27          6             0       -4.033671   -1.940095    0.093300
   28          6             0       -4.417253   -0.594566    0.236577
   29          6             0       -3.411456    0.369746    0.090178
   30          6             0       -2.070663    0.063460   -0.210007
   31          5             0       -0.955839    1.081973   -0.532548
   32          6             0       -1.007729    2.546307   -1.022681
   33          6             0       -2.121820    3.161242   -1.606050
   34          6             0       -2.123676    4.483718   -1.990272
   35          6             0       -0.984604    5.253015   -1.785290
   36          6             0        0.152796    4.675635   -1.269251
   37          6             0        0.174276    3.316404   -0.925357
   38          7             0        1.369803    2.752553   -0.513653
   39          6             0        2.495966    3.605193   -0.301916
   40          6             0        3.366180    3.900731   -1.344630
   41          6             0        4.465446    4.709126   -1.115046
   42          6             0        4.698300    5.224262    0.150055
   43          6             0        3.828745    4.932336    1.187534
   44          6             0        2.728199    4.122526    0.965166
   45          8             0       -3.701415    1.676214    0.285314
   46          6             0       -4.966470    2.131747    0.478336
   47          6             0       -5.058340    3.524890    0.570208
   48          6             0       -6.285687    4.127405    0.717463
   49          6             0       -7.435574    3.345419    0.763733
   50          6             0       -7.337455    1.973831    0.690850
   51          6             0       -6.107431    1.310987    0.568438
   52          5             0       -5.861147   -0.217830    0.528265
   53          6             0       -6.795609   -1.442219    0.729967
   54          6             0       -8.139758   -1.415500    1.125983
   55          6             0       -8.902870   -2.556906    1.243329
   56          6             0       -8.341156   -3.797375    0.965167
   57          6             0       -7.016261   -3.877098    0.600562
   58          6             0       -6.245258   -2.716563    0.495822
   59          8             0       -4.941263   -2.946940    0.166066
   60          6             0        4.214302   -2.618689   -1.664034
   61          6             0        4.559009   -3.850172   -2.186299
   62          1             0        5.656621   -5.667254   -1.891268
   63          1             0        6.511989   -4.981867    0.323034
   64          1             0        5.890975   -2.798310    1.267594
   65          1             0        3.888048    0.456323    2.307860
   66          1             0        5.553222    1.777850    3.542917
   67          1             0        7.907340    1.823992    2.794276
   68          1             0        8.578133    0.536279    0.795348
   69          1             0        6.910369   -0.770889   -0.451591
   70          1             0        3.706985    1.539274   -0.195475
   71          1             0        2.129499   -2.409737    0.055869
   72          1             0       -0.171800   -3.383889    1.773489
   73          1             0        0.363891   -5.794502    1.647186
   74          1             0        0.712565   -6.865076   -0.547467
   75          1             0        0.522398   -5.530429   -2.613906
   76          1             0       -0.011426   -3.118483   -2.479803
   77          1             0       -2.469096   -3.344458   -0.144618
   78          1             0       -3.007952    2.568409   -1.770546
   79          1             0       -3.004271    4.923469   -2.436662
   80          1             0       -0.979466    6.301000   -2.050473
   81          1             0        1.042250    5.276121   -1.149207
   82          1             0        3.174867    3.492852   -2.326582
   83          1             0        5.141851    4.936232   -1.925771
   84          1             0        5.557805    5.853536    0.326349
   85          1             0        4.007765    5.333766    2.173885
   86          1             0        2.044556    3.885369    1.767186
   87          1             0       -4.146807    4.099809    0.507157
   88          1             0       -6.355002    5.203220    0.784581
   89          1             0       -8.403403    3.816128    0.857996
   90          1             0       -8.242035    1.387631    0.714635
   91          1             0       -8.590678   -0.465003    1.361150
   92          1             0       -9.936460   -2.489431    1.550132
   93          1             0       -8.934362   -4.696422    1.045288
   94          1             0       -6.543182   -4.826416    0.397479
   95          1             0        3.576426   -1.948794   -2.221714
   96          1             0        4.184670   -4.139455   -3.157566
 --------------------------------------------------------------------
     1 basis functions        1 primitive gaussians
     1 alpha electrons        1 beta electrons
 
 Harmonic frequencies (cm**-1), IR intensities (km*mol⁻¹),
 Raman scattering activities (A**4/amu), Raman depolarization ratios,
 reduced masses (AMU), force constants (mDyne/A) and normal coordinates:
                      1                      2                      3
                        a                      a                      a 
 Frequencies --    11.6835                14.0105                17.6674
 Red. masses --    11.0513                11.1600                10.8249
 Frc consts  --     0.0000                 0.0000                 0.0000
 IR Inten    --     0.0829                 0.0637                 0.3273
 Raman Activ --     0.0000                 0.0000                 0.0000
 Depolar     --     0.0000                 0.0000                 0.0000
 Atom AN      X      Y      Z        X      Y      Z        X      Y      Z
   1   6    -0.06   0.01  -0.12     0.02  -0.03   0.13    -0.06  -0.12   0.25
   2   6    -0.01  -0.00  -0.14    -0.00  -0.01   0.13    -0.07  -0.06   0.23
   3   6     0.01  -0.00  -0.12    -0.01   0.01   0.10    -0.05  -0.02   0.15
   4   6    -0.01   0.00  -0.08     0.00  -0.01   0.07    -0.02  -0.04   0.09
   5   7     0.02   0.00  -0.07    -0.00   0.00   0.03     0.00  -0.00   0.01
   6   6     0.05  -0.00  -0.10    -0.01   0.02   0.02     0.05   0.03  -0.09
   7   6     0.10  -0.00  -0.08    -0.01   0.06  -0.00     0.13   0.12  -0.12
   8   6     0.13  -0.01  -0.12    -0.02   0.08  -0.02     0.18   0.15  -0.22
   9   6     0.12  -0.02  -0.17    -0.01   0.06  -0.01     0.15   0.11  -0.30
  10   6     0.06  -0.02  -0.19    -0.01   0.03   0.01     0.08   0.02  -0.27
  11   6     0.03  -0.01  -0.16    -0.00   0.01   0.03     0.03  -0.02  -0.16
  12   6     0.01   0.01  -0.01    -0.00   0.00   0.01     0.00   0.00   0.02
  13   6     0.01   0.01   0.00     0.00  -0.00  -0.02     0.00   0.00   0.02
  14   6     0.00   0.01   0.03     0.00  -0.00  -0.02     0.00   0.00   0.02
  15   6     0.00   0.01   0.04    -0.00   0.00   0.00    -0.00   0.00   0.02
  16   6     0.01   0.01   0.04    -0.00   0.00   0.01     0.00   0.00   0.02
  17   6     0.01   0.01   0.02    -0.00   0.00   0.02    -0.00   0.00   0.02
  18   7     0.01   0.01   0.07    -0.00   0.00   0.00     0.00   0.00   0.01
  19   6     0.01   0.00   0.15    -0.00   0.00   0.01    -0.00   0.00  -0.05
  20   6    -0.00   0.08   0.21    -0.04   0.00   0.01     0.05  -0.04  -0.08
  21   6    -0.01   0.08   0.30    -0.04   0.00   0.02     0.04  -0.04  -0.14
  22   6    -0.00  -0.01   0.35    -0.01   0.00   0.02    -0.03   0.00  -0.17
  23   6     0.01  -0.09   0.29     0.02   0.00   0.02    -0.08   0.04  -0.14
  24   6     0.01  -0.09   0.20     0.03   0.00   0.01    -0.07   0.04  -0.08
  25   6     0.00   0.00   0.04    -0.00   0.00  -0.00     0.00   0.00   0.01
  26   6     0.00   0.00   0.02    -0.01   0.00  -0.05     0.00  -0.00   0.01
  27   6    -0.00  -0.00  -0.01    -0.01   0.00  -0.05     0.00  -0.00   0.01
  28   6    -0.01  -0.00  -0.02    -0.00  -0.00   0.01    -0.00  -0.00   0.00
  29   6    -0.01  -0.00   0.01     0.00  -0.00   0.06    -0.00  -0.00   0.01
  30   6     0.00   0.00   0.03     0.00   0.00   0.04    -0.00   0.00   0.02
  31   5     0.00   0.01   0.04    -0.00   0.01   0.03    -0.00   0.00   0.02
  32   6     0.00   0.01   0.04    -0.01   0.01   0.04     0.00   0.00   0.02
  33   6     0.00   0.01   0.04    -0.03   0.02   0.09     0.00  -0.00   0.01
  34   6     0.00   0.01   0.05    -0.04   0.01   0.08     0.01  -0.00   0.01
  35   6    -0.01   0.01   0.07    -0.02   0.01   0.03     0.01  -0.00   0.01
  36   6    -0.01   0.01   0.07    -0.00  -0.00  -0.02     0.00  -0.00   0.01
  37   6    -0.00   0.01   0.05    -0.00   0.00  -0.00    -0.00   0.00   0.02
  38   7    -0.00   0.01   0.05     0.01  -0.00  -0.04    -0.00   0.00   0.03
  39   6    -0.00   0.01   0.06     0.02  -0.01  -0.11    -0.01   0.01   0.07
  40   6    -0.01   0.04   0.06     0.00  -0.07  -0.14     0.05  -0.03   0.11
  41   6    -0.01   0.04   0.08     0.01  -0.07  -0.21     0.04  -0.02   0.15
  42   6    -0.01   0.01   0.09     0.05  -0.01  -0.25    -0.05   0.04   0.15
  43   6    -0.00  -0.02   0.09     0.07   0.06  -0.21    -0.12   0.08   0.10
  44   6     0.00  -0.02   0.07     0.06   0.06  -0.14    -0.10   0.06   0.06
  45   8    -0.01  -0.00   0.01     0.02  -0.01   0.13    -0.01  -0.00   0.01
  46   6    -0.02  -0.01  -0.01     0.02  -0.01   0.15    -0.01  -0.00  -0.00
  47   6    -0.02  -0.01  -0.00     0.03  -0.01   0.22    -0.01  -0.00  -0.01
  48   6    -0.02  -0.01  -0.02     0.04  -0.01   0.27    -0.01  -0.01  -0.02
  49   6    -0.02  -0.01  -0.05     0.04  -0.01   0.26    -0.01  -0.01  -0.03
  50   6    -0.02  -0.01  -0.06     0.02  -0.00   0.18    -0.01  -0.01  -0.03
  51   6    -0.02  -0.01  -0.04     0.01  -0.01   0.13    -0.01  -0.00  -0.01
  52   5    -0.02  -0.01  -0.05     0.00  -0.01   0.03    -0.00  -0.00  -0.01
  53   6    -0.02  -0.01  -0.09    -0.02  -0.01  -0.07    -0.00  -0.01  -0.01
  54   6    -0.04  -0.02  -0.14    -0.03  -0.03  -0.11    -0.01  -0.01  -0.02
  55   6    -0.04  -0.02  -0.19    -0.05  -0.03  -0.23    -0.01  -0.01  -0.03
  56   6    -0.03  -0.01  -0.18    -0.05  -0.02  -0.29    -0.00  -0.01  -0.02
  57   6    -0.02  -0.01  -0.13    -0.04  -0.00  -0.25     0.00  -0.01  -0.01
  58   6    -0.01  -0.01  -0.09    -0.02  -0.00  -0.14    -0.00  -0.01  -0.01
  59   8    -0.00  -0.00  -0.05    -0.02   0.00  -0.14     0.00  -0.00   0.00
  60   6    -0.06   0.01  -0.07     0.02  -0.04   0.07    -0.02  -0.11   0.11
  61   6    -0.08   0.01  -0.09     0.03  -0.05   0.10    -0.03  -0.15   0.19
  62   1    -0.02   0.00  -0.04     0.01  -0.01   0.05    -0.02  -0.04   0.09
  63   1     0.00  -0.00  -0.05    -0.00   0.00   0.05    -0.03  -0.01   0.08
  64   1     0.01  -0.00  -0.04    -0.01   0.01   0.03    -0.02   0.01   0.04
  65   1     0.03  -0.00  -0.01    -0.00   0.02  -0.00     0.04   0.05  -0.02
  66   1     0.05  -0.00  -0.03    -0.01   0.03  -0.01     0.07   0.06  -0.07
  67   1     0.04  -0.01  -0.06    -0.01   0.02  -0.01     0.06   0.04  -0.11
  68   1     0.01  -0.01  -0.07    -0.00   0.01   0.00     0.02  -0.01  -0.10
  69   1    -0.00  -0.00  -0.05     0.00  -0.01   0.01    -0.01  -0.03  -0.04
  70   1     0.00   0.00  -0.00     0.00  -0.00  -0.01    -0.00   0.00   0.00
  71   1     0.00   0.00   0.00    -0.00   0.00   0.01    -0.00   0.00   0.01
  72   1    -0.00   0.04   0.05    -0.02   0.00   0.00     0.03  -0.02  -0.02
  73   1    -0.00   0.04   0.10    -0.02   0.00   0.01     0.02  -0.02  -0.05
  74   1    -0.00  -0.00   0.12    -0.00  -0.00   0.01    -0.01   0.00  -0.06
  75   1     0.00  -0.05   0.09     0.01  -0.00   0.01    -0.04   0.02  -0.05
  76   1     0.01  -0.04   0.04     0.02   0.00   0.00    -0.03   0.02  -0.02
  77   1     0.00   0.00   0.01    -0.00   0.00  -0.03     0.00  -0.00   0.00
  78   1     0.00   0.00   0.01    -0.01   0.01   0.04     0.00  -0.00   0.00
  79   1     0.00   0.00   0.01    -0.02   0.01   0.03     0.00  -0.00   0.00
  80   1    -0.00   0.00   0.02    -0.01   0.00   0.01     0.00  -0.00  -0.00
  81   1    -0.00   0.00   0.02     0.00  -0.00  -0.02     0.00  -0.00   0.00
  82   1    -0.00   0.02   0.01    -0.01  -0.04  -0.03     0.03  -0.02   0.03
  83   1    -0.01   0.02   0.02    -0.00  -0.04  -0.07     0.03  -0.02   0.05
  84   1    -0.00   0.00   0.03     0.02  -0.00  -0.09    -0.02   0.01   0.05
  85   1     0.00  -0.01   0.03     0.03   0.03  -0.07    -0.05   0.04   0.03
  86   1     0.00  -0.01   0.02     0.02   0.03  -0.03    -0.04   0.03   0.01
  87   1    -0.01  -0.00   0.01     0.01  -0.01   0.07    -0.00  -0.00   0.00
  88   1    -0.01  -0.00  -0.00     0.01  -0.00   0.09    -0.00  -0.00  -0.01
  89   1    -0.01  -0.00  -0.02     0.01  -0.00   0.09    -0.00  -0.00  -0.01
  90   1    -0.01  -0.00  -0.02     0.01   0.00   0.05    -0.00  -0.00  -0.01
  91   1    -0.01  -0.01  -0.04    -0.01  -0.01  -0.02    -0.00  -0.00  -0.01
  92   1    -0.02  -0.01  -0.07    -0.02  -0.01  -0.07    -0.00  -0.00  -0.01
  93   1    -0.01  -0.00  -0.06    -0.02  -0.00  -0.11    -0.00  -0.00  -0.01
  94   1    -0.00  -0.00  -0.04    -0.01   0.00  -0.09     0.00  -0.00  -0.00
  95   1    -0.02   0.01  -0.01     0.01  -0.01   0.01     0.00  -0.04   0.02
  96   1    -0.03   0.01  -0.02     0.01  -0.02   0.03    -0.01  -0.06   0.06
                      4                      5                      6
                        a                      a                      a 
 Frequencies --    23.1629                27.4896                30.5261
 Red. masses --    10.9019                11.0426                10.7610
 Frc consts  --     0.0000                 0.0000                 0.0000
 IR Inten    --     0.2912                 0.2553                 0.5874
 Raman Activ --     0.0000                 0.0000                 0.0000
 Depolar     --     0.0000                 0.0000                 0.0000
 Atom AN      X      Y      Z        X      Y      Z        X      Y      Z
   1   6     0.07  -0.01   0.01    -0.14  -0.10   0.15    -0.21   0.00  -0.07
   2   6     0.05   0.01   0.01    -0.21  -0.10   0.17    -0.25  -0.09  -0.03
   3   6     0.02   0.01  -0.00    -0.16  -0.05   0.11    -0.17  -0.08   0.00
   4   6     0.02  -0.01  -0.02    -0.05  -0.02   0.02    -0.05   0.02  -0.01
   5   7    -0.01  -0.01  -0.04    -0.01   0.02  -0.05     0.02   0.03   0.02
   6   6    -0.03   0.01  -0.02    -0.00  -0.02  -0.01     0.04  -0.03   0.04
   7   6    -0.07   0.01  -0.03    -0.00   0.03  -0.04     0.06   0.06  -0.02
   8   6    -0.10   0.03  -0.01     0.02  -0.03  -0.01     0.10  -0.01   0.00
   9   6    -0.09   0.06   0.01     0.04  -0.13   0.05     0.13  -0.19   0.09
  10   6    -0.05   0.06   0.02     0.04  -0.18   0.07     0.12  -0.29   0.15
  11   6    -0.02   0.03   0.01     0.02  -0.12   0.04     0.07  -0.20   0.12
  12   6    -0.01  -0.02  -0.07    -0.00   0.04  -0.06     0.02   0.05   0.04
  13   6    -0.00  -0.02  -0.08     0.00   0.04  -0.05     0.01   0.05   0.01
  14   6    -0.00  -0.02  -0.10     0.00   0.04  -0.05     0.00   0.03   0.00
  15   6     0.00  -0.03  -0.12     0.00   0.05  -0.09     0.01   0.02   0.03
  16   6    -0.00  -0.02  -0.10     0.00   0.04  -0.11     0.02   0.03   0.05
  17   6    -0.00  -0.02  -0.08    -0.00   0.04  -0.10     0.02   0.04   0.06
  18   7    -0.00  -0.03  -0.11     0.01   0.04  -0.15     0.03   0.02   0.08
  19   6    -0.01  -0.03  -0.02     0.01   0.04  -0.05     0.04   0.02   0.03
  20   6    -0.07   0.03   0.02     0.00   0.12   0.00     0.12  -0.01   0.01
  21   6    -0.07   0.02   0.10     0.00   0.12   0.10     0.14   0.00  -0.04
  22   6    -0.00  -0.04   0.14     0.02   0.03   0.15     0.09   0.04  -0.06
  23   6     0.06  -0.09   0.09     0.03  -0.05   0.09     0.01   0.06  -0.04
  24   6     0.06  -0.09   0.01     0.03  -0.05  -0.01    -0.01   0.05   0.01
  25   6    -0.00  -0.02  -0.09     0.00   0.03  -0.15     0.03   0.00   0.07
  26   6    -0.01  -0.01  -0.08     0.01   0.02  -0.18     0.03  -0.00   0.11
  27   6    -0.00   0.01  -0.05     0.02   0.00  -0.14     0.03  -0.01   0.09
  28   6     0.01   0.01  -0.02     0.01  -0.00  -0.10     0.02  -0.00   0.05
  29   6     0.02  -0.00  -0.05    -0.00   0.01  -0.10     0.01  -0.00   0.03
  30   6     0.01  -0.02  -0.09    -0.00   0.03  -0.12     0.01   0.00   0.04
  31   5     0.00  -0.02  -0.10    -0.00   0.05  -0.07     0.00   0.00   0.01
  32   6    -0.00  -0.03  -0.12    -0.00   0.07  -0.01    -0.01  -0.02  -0.05
  33   6    -0.00  -0.03  -0.12    -0.01   0.10   0.03    -0.01  -0.06  -0.09
  34   6     0.00  -0.04  -0.14    -0.01   0.12   0.10    -0.02  -0.08  -0.16
  35   6     0.01  -0.04  -0.16    -0.01   0.11   0.13    -0.03  -0.06  -0.19
  36   6     0.00  -0.03  -0.15    -0.00   0.08   0.09    -0.03  -0.02  -0.15
  37   6    -0.00  -0.03  -0.12     0.00   0.07   0.02    -0.02  -0.01  -0.08
  38   7    -0.01  -0.02  -0.10     0.01   0.05  -0.02    -0.01   0.03  -0.04
  39   6    -0.04  -0.01   0.02     0.01   0.04  -0.01    -0.04   0.05  -0.02
  40   6     0.09  -0.02   0.12    -0.03   0.10  -0.03    -0.02   0.07  -0.01
  41   6     0.05  -0.00   0.24    -0.03   0.09  -0.03    -0.06   0.11   0.01
  42   6    -0.11   0.03   0.26     0.02   0.03  -0.01    -0.10   0.13   0.01
  43   6    -0.24   0.04   0.16     0.06  -0.03   0.00    -0.11   0.10  -0.01
  44   6    -0.20   0.02   0.04     0.05  -0.02   0.00    -0.08   0.07  -0.02
  45   8     0.05   0.00  -0.05    -0.02   0.00  -0.07     0.01   0.00  -0.00
  46   6     0.06   0.01   0.04    -0.03  -0.02  -0.03     0.01  -0.00   0.02
  47   6     0.09   0.01   0.07    -0.05  -0.02  -0.00     0.01  -0.00   0.01
  48   6     0.11   0.03   0.18    -0.06  -0.05   0.03     0.02  -0.00   0.05
  49   6     0.10   0.05   0.25    -0.04  -0.07   0.04     0.02  -0.00   0.09
  50   6     0.08   0.05   0.21    -0.02  -0.06   0.02     0.02  -0.00   0.08
  51   6     0.06   0.03   0.10    -0.01  -0.04  -0.01     0.01  -0.00   0.04
  52   5     0.03   0.02   0.04     0.02  -0.03  -0.03     0.01  -0.01   0.03
  53   6     0.02   0.03   0.03     0.05  -0.05   0.03     0.00  -0.01  -0.01
  54   6     0.02   0.03   0.05     0.09  -0.07   0.15    -0.02  -0.02  -0.11
  55   6     0.01   0.04   0.04     0.12  -0.09   0.21    -0.03  -0.02  -0.15
  56   6    -0.01   0.04  -0.01     0.11  -0.07   0.13    -0.00  -0.02  -0.09
  57   6    -0.02   0.03  -0.03     0.07  -0.05   0.00     0.02  -0.01  -0.00
  58   6    -0.00   0.03  -0.01     0.05  -0.04  -0.04     0.02  -0.01   0.03
  59   8    -0.02   0.02  -0.05     0.03  -0.01  -0.17     0.05  -0.01   0.12
  60   6     0.04  -0.03  -0.02     0.01  -0.02  -0.00    -0.02   0.11  -0.05
  61   6     0.06  -0.03  -0.00    -0.03  -0.06   0.06    -0.10   0.11  -0.08
  62   1     0.03  -0.00   0.01    -0.05  -0.04   0.06    -0.08  -0.00  -0.03
  63   1     0.02   0.01   0.01    -0.09  -0.04   0.07    -0.10  -0.05  -0.01
  64   1     0.00   0.01   0.00    -0.06  -0.01   0.04    -0.06  -0.04   0.01
  65   1    -0.02  -0.00  -0.01    -0.01   0.03  -0.02     0.01   0.06  -0.02
  66   1    -0.04   0.01  -0.01     0.01   0.00  -0.01     0.03   0.02  -0.01
  67   1    -0.03   0.02   0.01     0.02  -0.05   0.02     0.05  -0.07   0.03
  68   1    -0.01   0.02   0.01     0.02  -0.07   0.04     0.04  -0.12   0.06
  69   1     0.00   0.01   0.00     0.00  -0.04   0.02     0.02  -0.08   0.05
  70   1    -0.00  -0.01  -0.02     0.00   0.01  -0.01     0.00   0.01  -0.00
  71   1    -0.00  -0.01  -0.02    -0.00   0.01  -0.03     0.01   0.01   0.02
  72   1    -0.03   0.02  -0.00    -0.00   0.06  -0.01     0.05  -0.01   0.01
  73   1    -0.03   0.02   0.04    -0.00   0.05   0.04     0.06  -0.01  -0.02
  74   1    -0.00  -0.01   0.06     0.01   0.01   0.07     0.03   0.01  -0.03
  75   1     0.03  -0.04   0.04     0.01  -0.04   0.04    -0.01   0.02  -0.02
  76   1     0.03  -0.04  -0.01     0.01  -0.03  -0.02    -0.02   0.02   0.01
  77   1    -0.01  -0.00  -0.03     0.01   0.01  -0.06     0.01  -0.00   0.04
  78   1    -0.00  -0.01  -0.03    -0.00   0.03   0.00    -0.00  -0.02  -0.02
  79   1     0.00  -0.01  -0.04    -0.00   0.04   0.04    -0.01  -0.03  -0.05
  80   1     0.00  -0.01  -0.05    -0.00   0.04   0.06    -0.01  -0.02  -0.07
  81   1     0.00  -0.01  -0.05    -0.00   0.02   0.03    -0.01  -0.00  -0.05
  82   1     0.06  -0.01   0.03    -0.02   0.04  -0.01     0.00   0.02  -0.00
  83   1     0.04  -0.00   0.09    -0.02   0.04  -0.01    -0.01   0.04   0.01
  84   1    -0.04   0.01   0.10     0.01   0.01  -0.00    -0.04   0.05   0.01
  85   1    -0.11   0.02   0.05     0.03  -0.02   0.01    -0.04   0.03  -0.00
  86   1    -0.09   0.01  -0.01     0.02  -0.02   0.00    -0.03   0.02  -0.01
  87   1     0.03  -0.00   0.01    -0.02  -0.00  -0.00     0.00  -0.00  -0.00
  88   1     0.04   0.01   0.06    -0.02  -0.01   0.01     0.01  -0.00   0.01
  89   1     0.03   0.02   0.10    -0.01  -0.02   0.02     0.01  -0.00   0.03
  90   1     0.02   0.02   0.08    -0.00  -0.02   0.01     0.01   0.00   0.03
  91   1     0.01   0.01   0.02     0.03  -0.02   0.06    -0.01  -0.00  -0.04
  92   1     0.00   0.01   0.02     0.04  -0.03   0.09    -0.01  -0.01  -0.06
  93   1    -0.01   0.01  -0.01     0.04  -0.02   0.05    -0.00  -0.01  -0.04
  94   1    -0.01   0.01  -0.02     0.02  -0.01  -0.02     0.01  -0.00   0.01
  95   1     0.01  -0.01  -0.01     0.03   0.00  -0.02     0.02   0.05  -0.02
  96   1     0.02  -0.01  -0.00     0.00  -0.02   0.01    -0.02   0.05  -0.03
                      7                      8                      9
                        a                      a                      a 
 Frequencies --    33.4456                40.6646                42.7014
 Red. masses --    10.0631                10.0655                11.1680
 Frc consts  --     0.0000                 0.0000                 0.0000
 IR Inten    --     0.1262                 0.1150                 0.1602
 Raman Activ --     0.0000                 0.0000                 0.0000
 Depolar     --     0.0000                 0.0000                 0.0000
 Atom AN      X      Y      Z        X      Y      Z        X      Y      Z
   1   6     0.02  -0.05   0.13     0.06   0.06  -0.03    -0.05   0.09  -0.07
   2   6     0.05   0.02   0.10    -0.03  -0.01   0.02     0.02   0.05  -0.08
   3   6     0.04   0.04   0.04    -0.06  -0.03   0.06     0.02   0.03  -0.01
   4   6     0.02  -0.00   0.01    -0.01   0.00   0.04    -0.04   0.04   0.07
   5   7     0.01   0.02  -0.05    -0.01  -0.01   0.08    -0.03   0.01   0.16
   6   6     0.00   0.02  -0.03     0.02  -0.00   0.02     0.02   0.02   0.08
   7   6    -0.00  -0.04   0.01     0.07   0.07  -0.01     0.09   0.00   0.11
   8   6    -0.01  -0.06   0.03     0.11   0.06  -0.07     0.14   0.01   0.04
   9   6    -0.01  -0.00   0.01     0.11  -0.01  -0.09     0.10   0.04  -0.07
  10   6    -0.01   0.07  -0.03     0.06  -0.08  -0.06     0.02   0.06  -0.11
  11   6    -0.01   0.08  -0.05     0.02  -0.07  -0.01    -0.02   0.05  -0.03
  12   6     0.01   0.01  -0.04    -0.01  -0.01   0.06    -0.03   0.02   0.17
  13   6    -0.00   0.01  -0.04    -0.01  -0.01   0.04    -0.02   0.02   0.17
  14   6    -0.01  -0.01  -0.03    -0.01  -0.02   0.03    -0.01   0.02   0.11
  15   6     0.00  -0.01  -0.03    -0.01  -0.02   0.02    -0.02   0.02   0.07
  16   6     0.01  -0.01  -0.01    -0.01  -0.02   0.03    -0.02   0.02   0.09
  17   6     0.01  -0.00  -0.02    -0.01  -0.01   0.07    -0.03   0.02   0.14
  18   7     0.01  -0.02   0.00    -0.01  -0.03   0.02    -0.02   0.03   0.03
  19   6     0.01  -0.02  -0.01     0.00  -0.02   0.01    -0.03   0.02   0.01
  20   6     0.10  -0.01  -0.01    -0.33  -0.11  -0.02    -0.01   0.02   0.01
  21   6     0.10  -0.01  -0.02    -0.32  -0.11  -0.04    -0.05   0.01  -0.01
  22   6     0.01  -0.02  -0.03     0.04  -0.01  -0.03    -0.10   0.01  -0.02
  23   6    -0.08  -0.03  -0.03     0.36   0.07  -0.00    -0.11   0.02  -0.01
  24   6    -0.08  -0.03  -0.02     0.35   0.07   0.02    -0.07   0.03   0.00
  25   6     0.01  -0.02   0.01    -0.01  -0.03   0.01    -0.02   0.03  -0.05
  26   6     0.01  -0.01   0.06    -0.03  -0.02  -0.05    -0.02   0.02  -0.09
  27   6     0.01  -0.00   0.05    -0.03  -0.00  -0.04    -0.02   0.01  -0.11
  28   6     0.01   0.00   0.01    -0.01  -0.00   0.00    -0.03   0.00  -0.10
  29   6     0.01  -0.01  -0.03     0.00  -0.01   0.03    -0.04   0.01  -0.11
  30   6     0.01  -0.02  -0.03    -0.00  -0.02   0.03    -0.03   0.02  -0.07
  31   5     0.00  -0.02  -0.05    -0.01  -0.03   0.02    -0.01   0.02  -0.01
  32   6    -0.01  -0.03  -0.07    -0.02  -0.04  -0.00     0.03   0.01  -0.06
  33   6    -0.01  -0.05  -0.09    -0.02  -0.06  -0.02     0.07  -0.01  -0.14
  34   6    -0.03  -0.04  -0.05    -0.03  -0.06  -0.03     0.11  -0.03  -0.23
  35   6    -0.05  -0.01   0.02    -0.04  -0.05  -0.02     0.11  -0.03  -0.22
  36   6    -0.05   0.00   0.04    -0.04  -0.03  -0.00     0.07  -0.01  -0.11
  37   6    -0.02  -0.01  -0.03    -0.02  -0.03  -0.00     0.03   0.00  -0.04
  38   7    -0.02  -0.01  -0.03    -0.02  -0.02   0.01     0.01   0.02   0.07
  39   6    -0.03  -0.00  -0.00    -0.03  -0.01   0.01     0.03  -0.01   0.04
  40   6    -0.22   0.31  -0.07    -0.11   0.10  -0.03    -0.01  -0.00   0.01
  41   6    -0.24   0.33  -0.05    -0.13   0.13  -0.04     0.04  -0.06  -0.01
  42   6    -0.06   0.03   0.03    -0.07   0.05  -0.02     0.12  -0.12  -0.00
  43   6     0.13  -0.28   0.11     0.01  -0.07   0.02     0.15  -0.12   0.03
  44   6     0.14  -0.29   0.09     0.03  -0.09   0.03     0.11  -0.06   0.04
  45   8     0.03  -0.00  -0.07     0.02  -0.01   0.06    -0.07   0.02  -0.18
  46   6     0.04   0.01  -0.02     0.02   0.01   0.02    -0.06  -0.01  -0.06
  47   6     0.06   0.01  -0.01     0.03   0.01   0.01    -0.07  -0.01  -0.04
  48   6     0.08   0.03   0.05     0.03   0.02  -0.03    -0.06  -0.03   0.11
  49   6     0.07   0.05   0.10     0.02   0.03  -0.06    -0.05  -0.05   0.23
  50   6     0.05   0.04   0.08     0.01   0.03  -0.04    -0.03  -0.04   0.18
  51   6     0.03   0.02   0.02     0.01   0.02  -0.00    -0.04  -0.03   0.04
  52   5     0.01   0.02   0.00     0.00   0.02   0.01    -0.02  -0.02  -0.02
  53   6    -0.01   0.03  -0.02    -0.01   0.03   0.03    -0.00  -0.04  -0.00
  54   6    -0.03   0.04  -0.10     0.01   0.04   0.10     0.02  -0.07   0.07
  55   6    -0.04   0.05  -0.12     0.00   0.05   0.10     0.04  -0.09   0.10
  56   6    -0.03   0.04  -0.05    -0.04   0.05   0.02     0.05  -0.07   0.04
  57   6    -0.01   0.02   0.02    -0.05   0.04  -0.04     0.03  -0.04  -0.04
  58   6    -0.00   0.02   0.03    -0.04   0.03  -0.04     0.00  -0.03  -0.05
  59   8     0.01   0.00   0.10    -0.06   0.02  -0.10    -0.01  -0.00  -0.13
  60   6    -0.00  -0.07   0.04     0.06   0.06  -0.00    -0.09   0.08   0.08
  61   6     0.00  -0.10   0.10     0.10   0.09  -0.04    -0.10   0.11   0.01
  62   1     0.01  -0.02   0.05     0.03   0.02  -0.02    -0.01   0.03  -0.03
  63   1     0.02   0.02   0.03    -0.02  -0.01   0.01     0.02   0.01  -0.04
  64   1     0.02   0.03   0.00    -0.03  -0.02   0.03     0.02  -0.00  -0.01
  65   1     0.00  -0.02   0.01     0.02   0.03   0.00     0.03  -0.01   0.06
  66   1    -0.00  -0.03   0.02     0.04   0.03  -0.02     0.06  -0.00   0.02
  67   1    -0.01  -0.00   0.01     0.04  -0.00  -0.04     0.04   0.01  -0.03
  68   1    -0.01   0.03  -0.01     0.02  -0.04  -0.02    -0.00   0.03  -0.06
  69   1    -0.00   0.04  -0.02    -0.01  -0.04   0.00    -0.02   0.02  -0.02
  70   1    -0.00   0.00  -0.02    -0.00  -0.00   0.01    -0.01   0.00   0.05
  71   1     0.01   0.00  -0.00    -0.00  -0.00   0.03    -0.01   0.01   0.04
  72   1     0.05  -0.00  -0.00    -0.17  -0.05  -0.01     0.01   0.00   0.00
  73   1     0.05   0.00  -0.01    -0.17  -0.05  -0.02    -0.01   0.00  -0.00
  74   1     0.00  -0.00  -0.01     0.01  -0.00  -0.01    -0.04   0.00  -0.01
  75   1    -0.04  -0.01  -0.01     0.19   0.04   0.00    -0.04   0.01  -0.01
  76   1    -0.04  -0.01  -0.00     0.17   0.04   0.01    -0.03   0.01   0.00
  77   1     0.00  -0.00   0.03    -0.01  -0.00  -0.03    -0.00   0.01  -0.03
  78   1     0.00  -0.02  -0.04    -0.00  -0.02  -0.01     0.02   0.00  -0.04
  79   1    -0.01  -0.01  -0.02    -0.01  -0.02  -0.01     0.04  -0.01  -0.09
  80   1    -0.02  -0.00   0.02    -0.01  -0.01  -0.01     0.04  -0.01  -0.08
  81   1    -0.02   0.01   0.03    -0.01  -0.00   0.00     0.02  -0.01  -0.03
  82   1    -0.10   0.15  -0.04    -0.04   0.05  -0.01    -0.02   0.01   0.00
  83   1    -0.11   0.17  -0.03    -0.05   0.06  -0.02     0.00  -0.02  -0.01
  84   1    -0.02   0.01   0.01    -0.02   0.02  -0.01     0.05  -0.05  -0.00
  85   1     0.08  -0.15   0.05     0.02  -0.04   0.01     0.06  -0.05   0.01
  86   1     0.08  -0.15   0.04     0.03  -0.05   0.02     0.04  -0.02   0.02
  87   1     0.02  -0.00  -0.01     0.01   0.00   0.01    -0.03   0.00  -0.04
  88   1     0.03   0.01   0.02     0.01   0.01  -0.01    -0.02  -0.01   0.04
  89   1     0.02   0.02   0.04     0.01   0.01  -0.03    -0.01  -0.02   0.10
  90   1     0.01   0.02   0.04     0.00   0.01  -0.02    -0.01  -0.02   0.08
  91   1    -0.01   0.01  -0.04     0.01   0.01   0.04     0.00  -0.02   0.03
  92   1    -0.02   0.02  -0.05     0.01   0.02   0.05     0.02  -0.03   0.04
  93   1    -0.01   0.01  -0.02    -0.01   0.02   0.01     0.02  -0.02   0.02
  94   1    -0.00   0.00   0.02    -0.02   0.01  -0.03     0.01  -0.01  -0.02
  95   1    -0.01  -0.03   0.00     0.03   0.03  -0.00    -0.04   0.03   0.04
  96   1    -0.00  -0.05   0.04     0.05   0.04  -0.02    -0.04   0.04   0.01
                     10                     11                     12
                        a                      a                      a 
 Frequencies --    50.1684                52.1716                55.3389
 Red. masses --    11.1805                11.0638                10.8850
 Frc consts  --     0.0000                 0.0000                 0.0000
 IR Inten    --     0.2805                 0.0833                 0.2643
 Raman Activ --     0.0000                 0.0000                 0.0000
 Depolar     --     0.0000                 0.0000                 0.0000
 Atom AN      X      Y      Z        X      Y      Z        X      Y      Z
   1   6     0.03   0.01   0.03     0.00  -0.07   0.08    -0.02   0.01   0.00
   2   6    -0.06  -0.01   0.07     0.02   0.00   0.05    -0.05  -0.00   0.02
   3   6    -0.08  -0.01   0.05     0.03   0.03  -0.02    -0.05  -0.01   0.02
   4   6    -0.02   0.00  -0.00     0.02  -0.00  -0.06    -0.03   0.00   0.01
   5   7    -0.04   0.01  -0.02     0.03   0.03  -0.14    -0.04  -0.00   0.02
   6   6    -0.03   0.01  -0.03     0.00   0.01  -0.07    -0.03   0.01   0.00
   7   6    -0.02   0.03  -0.03    -0.03  -0.05  -0.05    -0.02   0.00   0.00
   8   6    -0.01   0.03  -0.04    -0.06  -0.09   0.03    -0.01   0.01  -0.01
   9   6    -0.01   0.01  -0.04    -0.04  -0.07   0.07    -0.02   0.03  -0.03
  10   6    -0.02  -0.01  -0.04    -0.01  -0.00   0.03    -0.03   0.03  -0.04
  11   6    -0.03  -0.01  -0.03     0.01   0.04  -0.03    -0.04   0.01  -0.02
  12   6    -0.03   0.01  -0.04     0.03   0.02  -0.11    -0.03  -0.00   0.01
  13   6    -0.03   0.01  -0.02     0.03   0.02  -0.14    -0.03  -0.00   0.00
  14   6    -0.03   0.01  -0.03     0.03   0.04  -0.08    -0.03  -0.01  -0.00
  15   6    -0.03   0.02  -0.05     0.02   0.06  -0.00    -0.03  -0.01   0.01
  16   6    -0.03   0.02  -0.05     0.01   0.06   0.00    -0.03  -0.01   0.02
  17   6    -0.03   0.01  -0.05     0.01   0.04  -0.05    -0.03  -0.00   0.01
  18   7    -0.03   0.02  -0.03     0.01   0.08   0.07    -0.04  -0.01   0.01
  19   6     0.00   0.02  -0.02    -0.01   0.07   0.04     0.02   0.00   0.00
  20   6    -0.07   0.01  -0.02    -0.12   0.02   0.02     0.21   0.04   0.01
  21   6     0.03   0.03  -0.00    -0.18   0.01  -0.02     0.42   0.09   0.01
  22   6     0.21   0.07   0.01    -0.11   0.05  -0.03     0.43   0.09   0.01
  23   6     0.27   0.07   0.01     0.01   0.10  -0.01     0.20   0.05  -0.00
  24   6     0.17   0.05  -0.00     0.06   0.11   0.03    -0.00   0.01  -0.00
  25   6    -0.02   0.02  -0.00     0.01   0.08   0.10    -0.04  -0.01   0.00
  26   6    -0.01   0.01   0.10     0.03   0.06   0.07    -0.05  -0.01  -0.04
  27   6    -0.01  -0.00   0.12     0.03   0.03   0.07    -0.05   0.01  -0.06
  28   6    -0.03   0.00   0.01     0.01   0.02   0.11    -0.02   0.01   0.01
  29   6    -0.05   0.01  -0.08    -0.01   0.05   0.14    -0.02   0.00   0.06
  30   6    -0.04   0.01  -0.07     0.00   0.08   0.13    -0.02  -0.00   0.04
  31   5    -0.03   0.02  -0.06     0.01   0.07   0.08    -0.03  -0.00   0.03
  32   6    -0.02   0.03  -0.03     0.01   0.06   0.03    -0.04  -0.01   0.01
  33   6     0.00   0.07  -0.03    -0.01   0.05   0.06    -0.05  -0.02   0.02
  34   6     0.01   0.09   0.03     0.02   0.01  -0.07    -0.04  -0.04  -0.03
  35   6     0.01   0.08   0.08     0.07  -0.01  -0.23    -0.03  -0.04  -0.10
  36   6    -0.00   0.05   0.07     0.08  -0.00  -0.24    -0.02  -0.03  -0.10
  37   6    -0.01   0.03   0.01     0.04   0.03  -0.11    -0.03  -0.02  -0.04
  38   7    -0.02   0.02  -0.00     0.05   0.04  -0.13    -0.04  -0.01  -0.03
  39   6     0.01  -0.02   0.00     0.05   0.02  -0.06    -0.02  -0.03  -0.01
  40   6     0.05  -0.09   0.01     0.08   0.09  -0.01    -0.01  -0.03  -0.00
  41   6     0.12  -0.20   0.03     0.10   0.04   0.09     0.04  -0.11   0.04
  42   6     0.15  -0.22   0.04     0.09  -0.09   0.14     0.08  -0.19   0.07
  43   6     0.10  -0.14   0.02     0.06  -0.15   0.09     0.06  -0.18   0.05
  44   6     0.03  -0.04   0.01     0.03  -0.09  -0.01     0.00  -0.10   0.01
  45   8    -0.08   0.02  -0.21    -0.06   0.04   0.18     0.01  -0.00   0.16
  46   6    -0.06   0.00  -0.09    -0.08   0.00   0.09     0.00   0.01   0.08
  47   6    -0.05   0.01  -0.09    -0.14  -0.00   0.06     0.00   0.01   0.08
  48   6    -0.03   0.01   0.04    -0.17  -0.04  -0.03    -0.01   0.01  -0.01
  49   6    -0.03   0.00   0.16    -0.15  -0.08  -0.09    -0.02   0.02  -0.10
  50   6    -0.03   0.00   0.14    -0.09  -0.08  -0.05    -0.02   0.02  -0.09
  51   6    -0.05  -0.00   0.01    -0.06  -0.03   0.05    -0.01   0.02   0.01
  52   5    -0.04  -0.00  -0.02    -0.01  -0.02   0.08    -0.01   0.02   0.03
  53   6    -0.05  -0.01  -0.04     0.01  -0.05   0.04    -0.02   0.03   0.04
  54   6    -0.10  -0.02  -0.22     0.01  -0.09   0.03     0.02   0.05   0.17
  55   6    -0.08  -0.03  -0.20     0.02  -0.11  -0.04    -0.01   0.07   0.13
  56   6    -0.01  -0.05   0.03     0.05  -0.08  -0.09    -0.08   0.07  -0.04
  57   6     0.04  -0.04   0.20     0.06  -0.05  -0.07    -0.10   0.06  -0.14
  58   6     0.01  -0.02   0.14     0.04  -0.03   0.00    -0.07   0.04  -0.08
  59   8     0.04  -0.03   0.29     0.05   0.01   0.02    -0.10   0.03  -0.17
  60   6     0.06   0.02  -0.03     0.00  -0.08  -0.03    -0.01   0.02  -0.00
  61   6     0.09   0.02  -0.02    -0.01  -0.11   0.04     0.00   0.02  -0.01
  62   1     0.02   0.00   0.01    -0.00  -0.03   0.04    -0.00   0.00  -0.00
  63   1    -0.03  -0.01   0.03     0.01   0.01   0.02    -0.02  -0.00   0.01
  64   1    -0.04  -0.01   0.02     0.01   0.03  -0.01    -0.02  -0.00   0.01
  65   1    -0.01   0.01  -0.01    -0.01  -0.02  -0.02    -0.00  -0.00   0.01
  66   1    -0.00   0.01  -0.01    -0.02  -0.04   0.01    -0.00   0.00  -0.00
  67   1    -0.00   0.00  -0.02    -0.02  -0.03   0.04    -0.01   0.01  -0.01
  68   1    -0.01  -0.01  -0.01     0.00   0.01   0.02    -0.01   0.01  -0.02
  69   1    -0.01  -0.01  -0.00     0.01   0.02  -0.02    -0.01   0.00  -0.01
  70   1    -0.01   0.00  -0.00     0.01   0.00  -0.05    -0.01  -0.00  -0.00
  71   1    -0.01   0.00  -0.02     0.00   0.01  -0.01    -0.01   0.00   0.00
  72   1    -0.06  -0.00  -0.01    -0.05  -0.00   0.01     0.06   0.01   0.00
  73   1    -0.01   0.01  -0.00    -0.08  -0.01  -0.01     0.17   0.03   0.00
  74   1     0.09   0.02   0.01    -0.05   0.01  -0.02     0.18   0.04   0.00
  75   1     0.12   0.03   0.01     0.02   0.04  -0.00     0.06   0.02  -0.00
  76   1     0.07   0.02  -0.00     0.04   0.04   0.01    -0.04  -0.01  -0.00
  77   1     0.00   0.00   0.05     0.01   0.02   0.01    -0.01  -0.00  -0.02
  78   1     0.00   0.02  -0.02    -0.01   0.02   0.05    -0.02  -0.01   0.02
  79   1     0.01   0.03   0.01     0.00   0.00  -0.01    -0.01  -0.01  -0.01
  80   1     0.00   0.03   0.04     0.03  -0.01  -0.10    -0.01  -0.02  -0.04
  81   1     0.00   0.01   0.03     0.03  -0.01  -0.10    -0.00  -0.01  -0.04
  82   1     0.01  -0.02   0.00     0.03   0.05  -0.02    -0.01   0.01  -0.01
  83   1     0.04  -0.08   0.01     0.04   0.03   0.04     0.02  -0.03   0.01
  84   1     0.06  -0.09   0.02     0.03  -0.04   0.06     0.04  -0.08   0.03
  85   1     0.04  -0.04   0.01     0.01  -0.07   0.04     0.02  -0.07   0.02
  86   1     0.00   0.01  -0.00     0.00  -0.04  -0.01    -0.00  -0.03  -0.00
  87   1    -0.02   0.00  -0.05    -0.05   0.01   0.03     0.00   0.00   0.04
  88   1    -0.01   0.00   0.01    -0.06  -0.01  -0.02    -0.00   0.00  -0.00
  89   1    -0.01  -0.00   0.08    -0.05  -0.03  -0.05    -0.01   0.01  -0.05
  90   1    -0.01   0.00   0.07    -0.02  -0.03  -0.03    -0.01   0.00  -0.05
  91   1    -0.05  -0.00  -0.11    -0.00  -0.03   0.02     0.02   0.01   0.08
  92   1    -0.04  -0.01  -0.10     0.01  -0.04  -0.01     0.01   0.02   0.07
  93   1     0.00  -0.02   0.02     0.02  -0.03  -0.04    -0.03   0.03  -0.02
  94   1     0.03  -0.01   0.10     0.02  -0.01  -0.03    -0.04   0.02  -0.07
  95   1     0.03   0.01  -0.02    -0.00  -0.03  -0.02     0.00   0.01  -0.00
  96   1     0.05   0.01  -0.02    -0.01  -0.05   0.02     0.01   0.01  -0.01
                     13                     14                     15
                        a                      a                      a 
 Frequencies --    61.2432                66.0798                69.8517
 Red. masses --    10.5141                10.5671                10.2813
 Frc consts  --     0.0000                 0.0000                 0.0000
 IR Inten    --     0.9624                 0.3836                 0.1473
 Raman Activ --     0.0000                 0.0000                 0.0000
 Depolar     --     0.0000                 0.0000                 0.0000
 Atom AN      X      Y      Z        X      Y      Z        X      Y      Z
   1   6     0.13  -0.06   0.09     0.39   0.16  -0.00    -0.02   0.01   0.01
   2   6     0.14   0.04   0.05     0.18   0.12   0.09     0.02   0.02  -0.01
   3   6     0.08   0.05  -0.00     0.00   0.06   0.11     0.03   0.02  -0.01
   4   6    -0.00  -0.04  -0.03     0.04   0.04   0.04    -0.01   0.01   0.02
   5   7    -0.02  -0.02  -0.09    -0.02   0.04   0.03    -0.01   0.01   0.02
   6   6     0.00  -0.06  -0.06     0.02   0.02  -0.01     0.01   0.00   0.01
   7   6     0.06  -0.25   0.08     0.08   0.09  -0.03     0.03  -0.03   0.04
   8   6     0.11  -0.36   0.15     0.17  -0.02  -0.02     0.05  -0.05   0.04
   9   6     0.08  -0.27   0.06     0.18  -0.20   0.02     0.04  -0.04   0.01
  10   6     0.00  -0.05  -0.11     0.11  -0.25   0.02     0.01   0.00  -0.02
  11   6    -0.04   0.06  -0.17     0.03  -0.13   0.01    -0.01   0.02  -0.02
  12   6    -0.02  -0.01  -0.03    -0.02   0.02  -0.01    -0.00   0.01   0.03
  13   6    -0.01   0.00   0.06    -0.03   0.02   0.00    -0.00   0.01   0.01
  14   6    -0.01   0.01   0.07    -0.03   0.01  -0.03    -0.00   0.00  -0.01
  15   6    -0.02   0.02   0.05    -0.03   0.00  -0.03    -0.00   0.01   0.00
  16   6    -0.02   0.01  -0.00    -0.02   0.00  -0.04    -0.00   0.01   0.02
  17   6    -0.02  -0.00  -0.05    -0.01   0.01  -0.05    -0.01   0.01   0.04
  18   7    -0.03   0.02  -0.01    -0.03   0.01  -0.04    -0.00   0.01   0.01
  19   6    -0.01   0.02  -0.01    -0.04   0.00  -0.02     0.00   0.01   0.00
  20   6    -0.01   0.03  -0.01     0.05   0.05  -0.00    -0.01   0.00   0.00
  21   6     0.08   0.05  -0.00     0.00   0.04   0.03    -0.00   0.00   0.00
  22   6     0.18   0.07   0.00    -0.14  -0.02   0.03     0.02   0.01   0.00
  23   6     0.17   0.06   0.00    -0.21  -0.06   0.01     0.03   0.01   0.00
  24   6     0.07   0.04  -0.00    -0.17  -0.05  -0.01     0.02   0.01   0.00
  25   6    -0.03   0.02  -0.00    -0.03   0.01  -0.02    -0.00   0.00  -0.02
  26   6    -0.03   0.02  -0.01    -0.03   0.01  -0.00    -0.01   0.00  -0.04
  27   6    -0.03   0.02  -0.01    -0.03   0.01   0.01    -0.01  -0.00  -0.09
  28   6    -0.03   0.02  -0.02    -0.03   0.01   0.02    -0.03  -0.00  -0.13
  29   6    -0.04   0.02  -0.02    -0.03   0.01   0.02    -0.01  -0.00  -0.02
  30   6    -0.03   0.02  -0.00    -0.03   0.01  -0.00    -0.00   0.00   0.00
  31   5    -0.02   0.02   0.03    -0.03   0.00  -0.01    -0.00   0.01   0.02
  32   6    -0.00   0.02   0.03    -0.05   0.00  -0.01    -0.01   0.00   0.01
  33   6     0.02   0.00  -0.03    -0.06   0.00   0.01    -0.04   0.01   0.05
  34   6     0.04  -0.01  -0.09    -0.06   0.00   0.01    -0.04  -0.00   0.02
  35   6     0.04  -0.01  -0.07    -0.06   0.00  -0.01    -0.01  -0.02  -0.07
  36   6     0.01   0.00   0.00    -0.05   0.00  -0.03     0.01  -0.02  -0.11
  37   6    -0.00   0.01   0.05    -0.04   0.00  -0.03    -0.00  -0.01  -0.05
  38   7    -0.02   0.02   0.11    -0.04   0.01  -0.04     0.00  -0.00  -0.07
  39   6    -0.02   0.03   0.05    -0.04  -0.00  -0.03    -0.00   0.00  -0.04
  40   6    -0.03  -0.03   0.03    -0.02  -0.02  -0.01     0.01   0.02  -0.02
  41   6    -0.07   0.05  -0.05     0.01  -0.07   0.01     0.01   0.01   0.01
  42   6    -0.10   0.19  -0.10     0.03  -0.11   0.02    -0.01  -0.01   0.02
  43   6    -0.08   0.23  -0.07    -0.00  -0.08   0.01    -0.02  -0.03   0.00
  44   6    -0.04   0.15   0.01    -0.03  -0.03  -0.02    -0.02  -0.02  -0.03
  45   8    -0.06   0.03  -0.06    -0.03   0.01   0.04     0.01  -0.02   0.12
  46   6    -0.05   0.02  -0.03    -0.03   0.01   0.02     0.01  -0.01   0.08
  47   6    -0.05   0.02  -0.04    -0.03   0.00   0.03     0.05  -0.03   0.35
  48   6    -0.05   0.01   0.01    -0.04   0.00   0.01     0.05  -0.01   0.33
  49   6    -0.04   0.00   0.07    -0.04   0.00  -0.02     0.02   0.02  -0.01
  50   6    -0.04   0.00   0.07    -0.03   0.00  -0.02    -0.02   0.03  -0.26
  51   6    -0.04   0.01   0.02    -0.03   0.01   0.00    -0.03   0.01  -0.20
  52   5    -0.03   0.01   0.00    -0.03   0.01   0.01    -0.05   0.01  -0.26
  53   6    -0.03   0.01   0.01    -0.03   0.01   0.01    -0.05   0.01  -0.24
  54   6    -0.03  -0.00   0.01    -0.03   0.01   0.01    -0.05   0.03  -0.26
  55   6    -0.02  -0.00   0.01    -0.03   0.02   0.00     0.01   0.02   0.01
  56   6    -0.02  -0.00   0.00    -0.04   0.02  -0.00     0.08  -0.02   0.30
  57   6    -0.02   0.01  -0.01    -0.04   0.01  -0.00     0.07  -0.03   0.27
  58   6    -0.03   0.01  -0.00    -0.03   0.01   0.01     0.00  -0.01  -0.01
  59   8    -0.03   0.02  -0.01    -0.04   0.01   0.01    -0.00  -0.01  -0.04
  60   6    -0.02  -0.14   0.01     0.20   0.06  -0.03    -0.05  -0.00   0.04
  61   6     0.05  -0.15   0.07     0.37   0.11  -0.05    -0.05  -0.00   0.03
  62   1     0.05  -0.02   0.04     0.16   0.06  -0.01    -0.01   0.00   0.00
  63   1     0.06   0.03   0.02     0.05   0.04   0.04     0.01   0.01  -0.01
  64   1     0.03   0.04  -0.01    -0.04   0.01   0.05     0.02   0.01  -0.01
  65   1     0.02  -0.09   0.04     0.02   0.06  -0.01     0.01  -0.01   0.02
  66   1     0.05  -0.15   0.08     0.06   0.01  -0.01     0.02  -0.02   0.02
  67   1     0.03  -0.11   0.03     0.07  -0.09   0.01     0.01  -0.02   0.00
  68   1    -0.01   0.01  -0.06     0.03  -0.11   0.01     0.00   0.00  -0.01
  69   1    -0.03   0.06  -0.08    -0.01  -0.05   0.00    -0.01   0.01  -0.01
  70   1    -0.00   0.00   0.03    -0.01   0.01   0.01    -0.00   0.00  -0.00
  71   1    -0.01  -0.00  -0.03    -0.00   0.00  -0.02    -0.00   0.00   0.01
  72   1    -0.02   0.00  -0.00     0.04   0.03  -0.00    -0.01  -0.00   0.00
  73   1     0.03   0.01  -0.00     0.02   0.02   0.01    -0.00   0.00   0.00
  74   1     0.08   0.03   0.00    -0.05  -0.01   0.01     0.01   0.00   0.00
  75   1     0.07   0.02   0.00    -0.09  -0.03   0.00     0.01   0.00   0.00
  76   1     0.02   0.01  -0.00    -0.07  -0.02  -0.01     0.01   0.00   0.00
  77   1    -0.01   0.01  -0.00    -0.01   0.00  -0.00     0.00   0.00  -0.00
  78   1     0.01  -0.00  -0.01    -0.02   0.00   0.01    -0.02   0.01   0.03
  79   1     0.02  -0.01  -0.04    -0.02   0.00   0.01    -0.02  -0.00   0.02
  80   1     0.02  -0.01  -0.03    -0.02   0.00  -0.00    -0.00  -0.01  -0.03
  81   1     0.00   0.00   0.01    -0.01   0.00  -0.02     0.01  -0.01  -0.05
  82   1    -0.00  -0.04   0.02    -0.01   0.00  -0.01     0.01   0.01  -0.01
  83   1    -0.02   0.00  -0.02     0.01  -0.02   0.01     0.01   0.01   0.01
  84   1    -0.04   0.08  -0.05     0.02  -0.04   0.01    -0.00  -0.00   0.01
  85   1    -0.03   0.10  -0.03     0.00  -0.03   0.01    -0.01  -0.01   0.00
  86   1    -0.01   0.06   0.01    -0.01  -0.00  -0.01    -0.01  -0.01  -0.01
  87   1    -0.02   0.01  -0.02    -0.01   0.00   0.01     0.02  -0.01   0.17
  88   1    -0.02   0.00   0.00    -0.01   0.00   0.00     0.02  -0.01   0.16
  89   1    -0.01  -0.00   0.03    -0.01   0.00  -0.01     0.01   0.01  -0.02
  90   1    -0.01  -0.00   0.03    -0.01   0.00  -0.01    -0.01   0.02  -0.15
  91   1    -0.01  -0.00   0.01    -0.01   0.00   0.01    -0.03   0.02  -0.14
  92   1    -0.01  -0.00   0.00    -0.01   0.01   0.00     0.00   0.01   0.00
  93   1    -0.01  -0.00  -0.00    -0.01   0.01  -0.00     0.04  -0.01   0.16
  94   1    -0.01   0.00  -0.00    -0.01   0.00  -0.00     0.03  -0.01   0.13
  95   1    -0.02  -0.06  -0.00     0.06   0.01  -0.02    -0.02  -0.00   0.01
  96   1     0.01  -0.07   0.03     0.15   0.04  -0.03    -0.02  -0.00   0.01
                     16                     17                     18
                        a                      a                      a 
 Frequencies --    71.3443                78.1779                84.5227
 Red. masses --    10.8178                10.5669                11.1763
 Frc consts  --     0.0000                 0.0000                 0.0000
 IR Inten    --     0.3378                 1.3614                 0.6343
 Raman Activ --     0.0000                 0.0000                 0.0000
 Depolar     --     0.0000                 0.0000                 0.0000
 Atom AN      X      Y      Z        X      Y      Z        X      Y      Z
   1   6     0.19  -0.02  -0.10     0.01   0.02  -0.01    -0.03   0.07  -0.07
   2   6     0.11  -0.07  -0.06     0.22   0.11  -0.12    -0.04  -0.03  -0.03
   3   6     0.01  -0.13   0.01     0.21   0.09  -0.09    -0.06  -0.08   0.07
   4   6     0.00  -0.12   0.02    -0.00  -0.00   0.05    -0.06  -0.03   0.13
   5   7    -0.03  -0.16   0.07     0.01  -0.00   0.06    -0.08  -0.08   0.24
   6   6    -0.03  -0.11   0.03     0.03   0.00   0.02    -0.02  -0.05   0.14
   7   6    -0.08   0.05  -0.08     0.04   0.07  -0.02     0.08  -0.12   0.21
   8   6    -0.13   0.17  -0.16     0.08   0.02  -0.00     0.13  -0.09   0.12
   9   6    -0.11   0.13  -0.11     0.10  -0.11   0.06     0.07   0.02  -0.08
  10   6    -0.05  -0.06   0.03     0.08  -0.15   0.08    -0.04   0.09  -0.16
  11   6    -0.01  -0.17   0.10     0.04  -0.08   0.06    -0.08   0.05  -0.05
  12   6    -0.01  -0.10   0.01     0.00   0.00   0.05    -0.04  -0.03   0.13
  13   6     0.03  -0.10  -0.04     0.01  -0.02  -0.10    -0.01  -0.03   0.09
  14   6     0.04  -0.06  -0.00     0.01  -0.02  -0.13     0.01  -0.03  -0.07
  15   6     0.01  -0.02   0.04     0.00  -0.01  -0.06    -0.00  -0.01  -0.13
  16   6    -0.02  -0.02   0.04    -0.00   0.00   0.08    -0.02  -0.01  -0.10
  17   6    -0.03  -0.06   0.03    -0.01   0.01   0.17    -0.04  -0.02   0.02
  18   7    -0.05   0.01   0.06    -0.00   0.00   0.14    -0.02  -0.00  -0.19
  19   6    -0.05   0.01   0.04     0.01   0.00   0.08    -0.02  -0.01  -0.12
  20   6     0.03   0.01   0.03     0.00  -0.06   0.04    -0.01   0.06  -0.07
  21   6     0.12   0.03   0.01     0.03  -0.05  -0.03     0.01   0.06   0.01
  22   6     0.12   0.05  -0.00     0.07   0.03  -0.06     0.03  -0.01   0.05
  23   6     0.02   0.05   0.00     0.06   0.08  -0.02     0.01  -0.08   0.00
  24   6    -0.07   0.03   0.03     0.03   0.07   0.05    -0.01  -0.08  -0.08
  25   6    -0.04   0.04   0.03    -0.00   0.00   0.04    -0.01   0.01  -0.10
  26   6    -0.04   0.04   0.01    -0.01   0.00   0.03     0.00   0.00  -0.04
  27   6    -0.04   0.03  -0.02    -0.01   0.01  -0.02     0.02  -0.01   0.07
  28   6    -0.05   0.03  -0.04    -0.01   0.01  -0.05     0.03  -0.01   0.11
  29   6    -0.05   0.04  -0.03    -0.01   0.01  -0.07     0.02  -0.00   0.05
  30   6    -0.03   0.05   0.02    -0.01   0.00  -0.04     0.00   0.01  -0.05
  31   5     0.01   0.02   0.05    -0.00  -0.01  -0.09     0.00   0.01  -0.09
  32   6     0.08   0.03   0.04    -0.01  -0.01  -0.09     0.01   0.04  -0.04
  33   6     0.09   0.07   0.06    -0.05   0.04   0.03    -0.02   0.11   0.11
  34   6     0.14   0.06   0.03    -0.09   0.09   0.19    -0.01   0.13   0.16
  35   6     0.19   0.01  -0.02    -0.09   0.08   0.20     0.06   0.06   0.02
  36   6     0.17  -0.03  -0.03    -0.04   0.02   0.03     0.09  -0.01  -0.13
  37   6     0.11  -0.02   0.00    -0.01  -0.01  -0.10     0.05  -0.01  -0.12
  38   7     0.11  -0.06  -0.02     0.02  -0.03  -0.24     0.06  -0.04  -0.18
  39   6     0.09  -0.05   0.00     0.00  -0.02  -0.14     0.04  -0.03  -0.10
  40   6     0.04   0.07  -0.01     0.07   0.01  -0.07     0.07   0.04  -0.06
  41   6    -0.06   0.22  -0.02     0.06   0.00   0.04     0.00   0.11   0.00
  42   6    -0.11   0.23  -0.02    -0.04  -0.03   0.07    -0.08   0.09   0.02
  43   6    -0.03   0.07   0.00    -0.12  -0.06  -0.00    -0.09  -0.01  -0.01
  44   6     0.07  -0.07   0.01    -0.09  -0.06  -0.11    -0.03  -0.07  -0.08
  45   8    -0.09   0.04  -0.06    -0.03   0.01  -0.13     0.02  -0.01   0.11
  46   6    -0.09   0.02  -0.03    -0.02   0.01  -0.07     0.01  -0.01   0.07
  47   6    -0.11   0.01   0.01    -0.02   0.01  -0.09    -0.01  -0.01   0.01
  48   6    -0.11  -0.01   0.07    -0.02   0.01  -0.02    -0.02  -0.01  -0.09
  49   6    -0.10  -0.03   0.08    -0.01   0.00   0.06    -0.02  -0.02  -0.11
  50   6    -0.08  -0.02   0.03    -0.01   0.00   0.07     0.00  -0.03  -0.02
  51   6    -0.08   0.00  -0.02    -0.01   0.00  -0.00     0.02  -0.02   0.07
  52   5    -0.05   0.01  -0.05    -0.01   0.01  -0.02     0.03  -0.02   0.12
  53   6    -0.05  -0.00  -0.03    -0.00   0.01   0.01     0.02  -0.02   0.08
  54   6    -0.04  -0.02  -0.02     0.01   0.00   0.05    -0.01  -0.02  -0.02
  55   6    -0.02  -0.03   0.02     0.01   0.00   0.05    -0.03  -0.01  -0.11
  56   6     0.00  -0.03   0.05    -0.01   0.01  -0.01    -0.02  -0.01  -0.08
  57   6    -0.00  -0.01   0.03    -0.02   0.01  -0.05     0.02  -0.01   0.03
  58   6    -0.03   0.00  -0.01    -0.01   0.01  -0.03     0.03  -0.02   0.10
  59   8    -0.03   0.02  -0.02    -0.02   0.01  -0.05     0.04  -0.02   0.16
  60   6     0.06  -0.08  -0.01    -0.21  -0.09   0.15    -0.04   0.07   0.09
  61   6     0.15  -0.03  -0.07    -0.21  -0.08   0.13    -0.03   0.12  -0.01
  62   1     0.08   0.01  -0.05     0.01   0.01  -0.01    -0.00   0.03  -0.04
  63   1     0.04  -0.02  -0.02     0.12   0.06  -0.07    -0.01  -0.02  -0.02
  64   1    -0.01  -0.05   0.01     0.11   0.04  -0.05    -0.02  -0.04   0.03
  65   1    -0.03   0.02  -0.03     0.01   0.05  -0.01     0.03  -0.06   0.10
  66   1    -0.05   0.09  -0.08     0.03   0.02  -0.01     0.06  -0.04   0.05
  67   1    -0.04   0.07  -0.05     0.04  -0.05   0.02     0.03   0.02  -0.05
  68   1    -0.01  -0.03   0.02     0.03  -0.07   0.03    -0.03   0.05  -0.09
  69   1     0.01  -0.09   0.06     0.01  -0.03   0.02    -0.05   0.03  -0.03
  70   1     0.01  -0.03  -0.02     0.01  -0.01  -0.05    -0.00  -0.01   0.05
  71   1    -0.02  -0.02   0.01    -0.01   0.01   0.09    -0.02  -0.01   0.01
  72   1     0.01  -0.00   0.01    -0.01  -0.03   0.02    -0.01   0.03  -0.03
  73   1     0.06   0.01  -0.00     0.01  -0.03  -0.02     0.01   0.04   0.01
  74   1     0.06   0.02  -0.01     0.03   0.01  -0.03     0.01  -0.00   0.03
  75   1     0.00   0.02  -0.00     0.02   0.04  -0.01     0.01  -0.04   0.01
  76   1    -0.04   0.01   0.01     0.01   0.04   0.03    -0.00  -0.04  -0.03
  77   1    -0.01   0.01   0.01     0.00   0.00   0.02     0.00   0.00  -0.02
  78   1     0.02   0.03   0.03    -0.01   0.01   0.00    -0.02   0.05   0.06
  79   1     0.04   0.03   0.01    -0.04   0.04   0.09    -0.01   0.05   0.08
  80   1     0.07   0.00  -0.02    -0.04   0.03   0.10     0.03   0.02   0.01
  81   1     0.06  -0.02  -0.02    -0.01   0.00   0.00     0.04  -0.02  -0.07
  82   1     0.02   0.02  -0.01     0.04   0.01  -0.03     0.04   0.02  -0.02
  83   1    -0.04   0.10  -0.01     0.03   0.01   0.03     0.00   0.05   0.01
  84   1    -0.06   0.10  -0.01    -0.01  -0.01   0.04    -0.04   0.04   0.02
  85   1    -0.02   0.02   0.00    -0.05  -0.03   0.01    -0.04  -0.01   0.00
  86   1     0.03  -0.05   0.01    -0.04  -0.02  -0.05    -0.01  -0.04  -0.03
  87   1    -0.04   0.01   0.00    -0.01   0.00  -0.04    -0.00  -0.00   0.01
  88   1    -0.04  -0.00   0.03    -0.01   0.00  -0.01    -0.01  -0.00  -0.04
  89   1    -0.03  -0.01   0.04    -0.00  -0.00   0.04    -0.01  -0.01  -0.06
  90   1    -0.02  -0.01   0.01    -0.00  -0.00   0.04     0.00  -0.01  -0.01
  91   1    -0.02  -0.01  -0.01     0.01  -0.00   0.03    -0.01  -0.01  -0.01
  92   1    -0.00  -0.01   0.01     0.01  -0.00   0.02    -0.02  -0.00  -0.06
  93   1     0.01  -0.01   0.03    -0.00   0.00  -0.01    -0.01  -0.00  -0.04
  94   1     0.00  -0.00   0.01    -0.01   0.00  -0.03     0.01  -0.00   0.02
  95   1     0.01  -0.02   0.00    -0.10  -0.05   0.07    -0.01   0.03   0.04
  96   1     0.06   0.00  -0.03    -0.11  -0.04   0.06    -0.00   0.06  -0.01
                     19                     20                     21
                        a                      a                      a 
 Frequencies --    94.0752               116.1201               125.6005
 Red. masses --    10.6719                10.6722                10.9415
 Frc consts  --     0.0000                 0.0000                 0.0000
 IR Inten    --     0.4598                 0.0767                 0.0904
 Raman Activ --     0.0000                 0.0000                 0.0000
 Depolar     --     0.0000                 0.0000                 0.0000
 Atom AN      X      Y      Z        X      Y      Z        X      Y      Z
   1   6     0.01   0.01  -0.00     0.03   0.00  -0.01    -0.13   0.01   0.09
   2   6     0.20   0.11  -0.11     0.01   0.00   0.00    -0.06   0.06   0.04
   3   6     0.17   0.09  -0.09    -0.02  -0.01   0.01     0.06   0.13  -0.03
   4   6    -0.03  -0.00   0.02    -0.02  -0.01   0.00     0.09   0.13  -0.07
   5   7    -0.03  -0.00   0.03    -0.02  -0.01  -0.00     0.07   0.14  -0.10
   6   6    -0.02   0.00   0.01    -0.02  -0.02  -0.00     0.04   0.15  -0.07
   7   6    -0.03   0.15  -0.09    -0.02  -0.01  -0.01     0.03   0.14  -0.06
   8   6    -0.02   0.15  -0.11    -0.02  -0.01  -0.01     0.05   0.03   0.03
   9   6     0.02  -0.02   0.00    -0.02  -0.01  -0.02     0.08  -0.05   0.11
  10   6     0.03  -0.18   0.11    -0.02  -0.01  -0.01     0.08   0.01   0.07
  11   6     0.01  -0.15   0.10    -0.02  -0.02  -0.01     0.06   0.13  -0.02
  12   6    -0.03   0.01   0.01    -0.02  -0.00   0.01     0.01   0.01  -0.04
  13   6    -0.03   0.01   0.06    -0.01  -0.00  -0.00    -0.02  -0.00   0.00
  14   6    -0.03   0.02   0.07    -0.01   0.01   0.02    -0.03  -0.03   0.03
  15   6    -0.02   0.02  -0.01    -0.01   0.01   0.07    -0.03  -0.03   0.03
  16   6    -0.02   0.01  -0.11    -0.01   0.01   0.05    -0.01  -0.04  -0.01
  17   6    -0.03   0.01  -0.07    -0.02   0.00   0.03     0.02  -0.01  -0.05
  18   7    -0.02   0.01  -0.25    -0.01   0.01   0.02    -0.01  -0.07  -0.01
  19   6    -0.01   0.00  -0.17    -0.02   0.01   0.01     0.01  -0.06  -0.01
  20   6    -0.05   0.09  -0.11     0.00   0.01   0.01     0.01  -0.07  -0.01
  21   6    -0.01   0.09   0.01     0.02   0.01   0.00     0.01  -0.07  -0.01
  22   6     0.06   0.01   0.06     0.02   0.02   0.00     0.01  -0.08  -0.00
  23   6     0.08  -0.09   0.00    -0.01   0.02   0.00     0.02  -0.07  -0.00
  24   6     0.05  -0.08  -0.11    -0.03   0.01   0.01     0.01  -0.07  -0.00
  25   6    -0.02  -0.00  -0.12    -0.01   0.01  -0.01    -0.02  -0.07  -0.02
  26   6    -0.01  -0.00  -0.11    -0.03   0.02  -0.16    -0.04  -0.07  -0.02
  27   6     0.00  -0.01   0.03    -0.03   0.03  -0.14    -0.06  -0.09  -0.02
  28   6     0.01  -0.01   0.09    -0.03   0.02   0.00    -0.05  -0.08  -0.06
  29   6     0.01  -0.01   0.07     0.00  -0.00   0.10    -0.04  -0.09  -0.06
  30   6    -0.01  -0.00  -0.02    -0.00   0.00   0.11    -0.02  -0.07  -0.02
  31   5    -0.02   0.02   0.02    -0.01   0.02   0.13    -0.03  -0.00   0.07
  32   6    -0.02   0.03   0.05    -0.04   0.01   0.13    -0.00   0.05   0.16
  33   6     0.01   0.01  -0.01    -0.07  -0.01   0.17    -0.00   0.16   0.26
  34   6     0.05  -0.02  -0.12    -0.09  -0.03   0.10     0.08   0.13   0.16
  35   6     0.05  -0.02  -0.13    -0.05  -0.05  -0.06     0.20   0.02  -0.13
  36   6     0.02   0.00  -0.01    -0.02  -0.03  -0.11     0.19  -0.05  -0.19
  37   6    -0.01   0.02   0.07    -0.02  -0.00   0.01     0.05  -0.01   0.00
  38   7    -0.04   0.03   0.17    -0.01   0.00  -0.02     0.03  -0.04   0.02
  39   6    -0.02   0.02   0.11    -0.02   0.00  -0.02     0.05  -0.05   0.01
  40   6    -0.07  -0.00   0.05    -0.01   0.01  -0.01     0.04  -0.02   0.01
  41   6    -0.05  -0.02  -0.02    -0.01   0.00   0.00    -0.01   0.04  -0.00
  42   6     0.03  -0.01  -0.04    -0.00  -0.02   0.01    -0.03   0.07  -0.01
  43   6     0.09   0.01   0.01    -0.01  -0.03   0.01     0.00   0.00   0.00
  44   6     0.06   0.03   0.09    -0.02  -0.01  -0.01     0.04  -0.06   0.01
  45   8     0.03  -0.01   0.14     0.04  -0.01   0.15    -0.04  -0.11  -0.10
  46   6     0.02  -0.01   0.09     0.04   0.03   0.03    -0.02  -0.07  -0.07
  47   6     0.02  -0.01   0.05     0.09   0.05  -0.26     0.02  -0.06  -0.09
  48   6     0.01  -0.00  -0.04     0.11   0.12  -0.31     0.04  -0.04  -0.03
  49   6     0.00  -0.00  -0.09     0.12   0.13   0.03     0.03  -0.02   0.06
  50   6     0.01  -0.00  -0.03     0.08   0.12   0.26    -0.00  -0.02   0.05
  51   6     0.02  -0.01   0.06     0.04   0.05   0.17    -0.02  -0.05  -0.02
  52   5     0.01  -0.01   0.09    -0.03   0.02   0.02    -0.03  -0.04  -0.03
  53   6     0.00  -0.01   0.05    -0.04  -0.02  -0.15    -0.06  -0.01   0.01
  54   6    -0.02  -0.00  -0.04    -0.06  -0.08  -0.21    -0.05   0.06   0.02
  55   6    -0.04  -0.00  -0.09     0.03  -0.13  -0.04    -0.11   0.11   0.04
  56   6    -0.01  -0.01  -0.02     0.14  -0.13   0.19    -0.16   0.09   0.03
  57   6     0.01  -0.01   0.07     0.12  -0.06   0.12    -0.17   0.02   0.03
  58   6     0.01  -0.01   0.08     0.01  -0.01  -0.08    -0.10  -0.03   0.02
  59   8     0.02  -0.01   0.11    -0.01   0.02  -0.22    -0.11  -0.08   0.02
  60   6    -0.20  -0.10   0.12    -0.01  -0.02  -0.00     0.07   0.11  -0.05
  61   6    -0.20  -0.10   0.12     0.02  -0.01  -0.01    -0.04   0.05   0.02
  62   1     0.01   0.00  -0.00     0.02   0.00  -0.00    -0.07  -0.01   0.05
  63   1     0.11   0.06  -0.06     0.00   0.00   0.00    -0.03   0.01   0.02
  64   1     0.09   0.04  -0.05    -0.01  -0.00   0.00     0.03   0.05  -0.02
  65   1    -0.02   0.08  -0.04    -0.00  -0.00  -0.00     0.01   0.05  -0.03
  66   1    -0.01   0.08  -0.06    -0.01  -0.00  -0.00     0.01   0.00   0.01
  67   1     0.01  -0.01   0.00    -0.01  -0.00  -0.01     0.03  -0.05   0.06
  68   1     0.02  -0.09   0.05    -0.01  -0.00  -0.00     0.03  -0.01   0.03
  69   1     0.01  -0.07   0.05    -0.01  -0.01  -0.00     0.02   0.05  -0.01
  70   1    -0.01   0.01   0.03    -0.00  -0.00  -0.01    -0.01   0.01  -0.00
  71   1    -0.01   0.00  -0.03    -0.00   0.00   0.01     0.01  -0.00  -0.03
  72   1    -0.03   0.05  -0.04     0.00   0.00   0.00     0.00  -0.02  -0.00
  73   1    -0.01   0.05   0.02     0.01   0.00   0.00     0.00  -0.02  -0.00
  74   1     0.03   0.00   0.04     0.01   0.01  -0.00     0.00  -0.02  -0.00
  75   1     0.04  -0.05   0.01    -0.01   0.01  -0.00     0.01  -0.02  -0.00
  76   1     0.02  -0.05  -0.05    -0.01   0.00   0.00     0.00  -0.02  -0.00
  77   1    -0.01  -0.00  -0.05    -0.02   0.01  -0.08    -0.01  -0.02  -0.00
  78   1    -0.00   0.00   0.00    -0.02  -0.00   0.07    -0.03   0.07   0.11
  79   1     0.02  -0.01  -0.06    -0.03  -0.01   0.04     0.02   0.05   0.07
  80   1     0.03  -0.01  -0.06    -0.01  -0.02  -0.04     0.09  -0.01  -0.08
  81   1     0.00   0.00   0.00     0.00  -0.01  -0.07     0.08  -0.04  -0.11
  82   1    -0.04  -0.00   0.02    -0.00   0.01  -0.01     0.01  -0.01   0.00
  83   1    -0.03  -0.01  -0.02    -0.00   0.00   0.00    -0.01   0.02  -0.00
  84   1     0.02  -0.01  -0.03     0.00  -0.01   0.01    -0.02   0.04  -0.01
  85   1     0.04   0.00   0.00    -0.00  -0.01   0.00    -0.00   0.00   0.00
  86   1     0.03   0.01   0.04    -0.01  -0.01  -0.01     0.02  -0.03   0.01
  87   1     0.01  -0.00   0.02     0.03   0.00  -0.13     0.01  -0.02  -0.04
  88   1     0.00  -0.00  -0.02     0.04   0.04  -0.17     0.02  -0.01  -0.01
  89   1    -0.00   0.00  -0.05     0.04   0.05   0.02     0.01   0.00   0.03
  90   1     0.00  -0.00  -0.02     0.02   0.04   0.15    -0.01   0.00   0.03
  91   1    -0.01  -0.00  -0.02    -0.05  -0.03  -0.11    -0.00   0.03   0.01
  92   1    -0.02   0.00  -0.05     0.01  -0.05  -0.02    -0.03   0.05   0.01
  93   1    -0.01  -0.00  -0.01     0.07  -0.05   0.12    -0.06   0.03   0.01
  94   1     0.01  -0.00   0.03     0.06  -0.01   0.07    -0.06  -0.00   0.01
  95   1    -0.10  -0.05   0.05    -0.00  -0.01  -0.00     0.03   0.04  -0.02
  96   1    -0.10  -0.05   0.06     0.01  -0.00  -0.00    -0.02   0.00   0.01
                     22                     23                     24
                        a                      a                      a 
 Frequencies --   138.1821               151.3396               161.6028
 Red. masses --    11.1873                10.8761                11.0745
 Frc consts  --     0.0000                 0.0000                 0.0000
 IR Inten    --     0.6983                 0.3234                 0.9063
 Raman Activ --     0.0000                 0.0000                 0.0000
 Depolar     --     0.0000                 0.0000                 0.0000
 Atom AN      X      Y      Z        X      Y      Z        X      Y      Z
   1   6     0.15   0.06  -0.03    -0.07   0.05   0.05     0.04   0.04  -0.01
   2   6     0.03   0.06   0.02    -0.04   0.06   0.03    -0.02   0.02   0.02
   3   6    -0.14   0.00   0.04     0.01   0.09   0.00    -0.06   0.01   0.03
   4   6    -0.17  -0.05   0.01     0.03   0.08  -0.02    -0.05   0.00   0.00
   5   7    -0.13  -0.03  -0.02    -0.02   0.07  -0.02    -0.02   0.02  -0.03
   6   6    -0.11  -0.06  -0.02    -0.04   0.12  -0.05    -0.02   0.02  -0.04
   7   6    -0.10  -0.05  -0.03    -0.02   0.12  -0.05    -0.03   0.00  -0.03
   8   6    -0.09  -0.04  -0.06     0.03   0.01   0.02    -0.03  -0.03  -0.00
   9   6    -0.10  -0.05  -0.08     0.04  -0.09   0.07    -0.02  -0.04   0.01
  10   6    -0.11  -0.09  -0.06     0.01  -0.01   0.01    -0.02  -0.00  -0.02
  11   6    -0.11  -0.09  -0.04    -0.04   0.10  -0.06    -0.03   0.02  -0.04
  12   6    -0.08   0.05   0.01    -0.05  -0.04  -0.02    -0.02   0.03   0.01
  13   6    -0.06   0.06   0.03    -0.06  -0.06  -0.08     0.03   0.01  -0.13
  14   6    -0.06   0.07   0.04    -0.06  -0.08  -0.07     0.03   0.04  -0.05
  15   6    -0.07   0.07   0.02    -0.06  -0.07  -0.09     0.01   0.05   0.04
  16   6    -0.06   0.07   0.06    -0.04  -0.06  -0.00    -0.02   0.04   0.11
  17   6    -0.08   0.07   0.06    -0.04  -0.05   0.04    -0.03   0.04   0.16
  18   7     0.01   0.01   0.13    -0.06  -0.05   0.07    -0.01   0.02   0.07
  19   6     0.05   0.02   0.11    -0.08  -0.06   0.06     0.03   0.03   0.06
  20   6     0.04  -0.03   0.07    -0.05  -0.09   0.04     0.03   0.01   0.04
  21   6    -0.01  -0.04  -0.00     0.03  -0.07  -0.01     0.01   0.01   0.00
  22   6    -0.05   0.01  -0.03     0.07  -0.03  -0.02    -0.03   0.04  -0.02
  23   6    -0.02   0.08   0.00     0.00  -0.00   0.00    -0.03   0.06   0.00
  24   6     0.03   0.08   0.08    -0.08  -0.02   0.05     0.01   0.07   0.04
  25   6     0.01  -0.03   0.03    -0.03   0.01   0.03    -0.03  -0.03  -0.11
  26   6     0.04  -0.06   0.10    -0.04   0.03   0.03    -0.05  -0.06  -0.25
  27   6     0.03  -0.09   0.04    -0.03   0.05   0.02    -0.05  -0.10  -0.13
  28   6     0.01  -0.08  -0.04    -0.03   0.04   0.09     0.01  -0.10   0.01
  29   6     0.01  -0.09  -0.08    -0.01   0.03   0.07    -0.00  -0.08   0.01
  30   6     0.00  -0.04  -0.08    -0.03   0.02  -0.01    -0.01  -0.03  -0.06
  31   5    -0.06   0.06  -0.03    -0.04  -0.01  -0.12     0.01   0.00  -0.01
  32   6    -0.06   0.11   0.02     0.02   0.01  -0.14     0.07  -0.00  -0.06
  33   6    -0.04   0.19   0.06     0.11   0.11  -0.20     0.10  -0.04  -0.16
  34   6     0.03   0.18   0.01     0.22   0.13  -0.15     0.09  -0.04  -0.15
  35   6     0.09   0.11  -0.11     0.21   0.10   0.07    -0.00   0.03   0.07
  36   6     0.06   0.06  -0.10     0.11   0.03   0.18    -0.02   0.07   0.17
  37   6    -0.03   0.08  -0.01     0.03  -0.02   0.01     0.05   0.04   0.02
  38   7    -0.05   0.08   0.04    -0.02  -0.09   0.00     0.09   0.05  -0.08
  39   6    -0.03   0.06   0.03     0.00  -0.13   0.02     0.10   0.06  -0.06
  40   6    -0.04   0.04   0.02    -0.01  -0.14   0.01     0.14   0.09  -0.02
  41   6    -0.01   0.00  -0.00    -0.07  -0.05  -0.02     0.14   0.09   0.04
  42   6     0.03  -0.02  -0.00    -0.12   0.02  -0.04     0.10   0.08   0.05
  43   6     0.03   0.02   0.01    -0.08  -0.03  -0.02     0.06   0.06   0.00
  44   6    -0.00   0.06   0.02    -0.02  -0.12   0.02     0.07   0.05  -0.05
  45   8     0.08  -0.11  -0.08     0.03   0.04   0.13     0.03  -0.11   0.14
  46   6     0.10  -0.07  -0.03     0.03   0.03   0.12     0.03  -0.10   0.13
  47   6     0.20  -0.07   0.03     0.05   0.03   0.12     0.01  -0.10   0.05
  48   6     0.24  -0.00   0.01     0.05   0.07  -0.03    -0.01  -0.11  -0.09
  49   6     0.20   0.05  -0.07     0.03   0.09  -0.12    -0.00  -0.12  -0.08
  50   6     0.11   0.04  -0.09     0.01   0.08  -0.03     0.03  -0.12   0.07
  51   6     0.08  -0.03  -0.06     0.01   0.04   0.09     0.04  -0.10   0.16
  52   5     0.03  -0.05  -0.01    -0.04   0.02   0.07     0.03  -0.08   0.10
  53   6     0.05  -0.07   0.05    -0.03  -0.03  -0.01    -0.03  -0.03   0.03
  54   6     0.07  -0.06   0.09    -0.04  -0.13  -0.02    -0.06   0.08  -0.07
  55   6     0.05  -0.06   0.03     0.04  -0.19  -0.00    -0.15   0.14  -0.09
  56   6     0.00  -0.05  -0.08     0.10  -0.16   0.01    -0.16   0.10   0.09
  57   6     0.00  -0.06  -0.08     0.09  -0.06  -0.03    -0.14  -0.01   0.17
  58   6     0.03  -0.07   0.01     0.01  -0.01  -0.03    -0.08  -0.06   0.06
  59   8     0.05  -0.11   0.06    -0.00   0.04  -0.07    -0.10  -0.10  -0.06
  60   6    -0.13  -0.08   0.01     0.03   0.09  -0.02    -0.03  -0.00  -0.00
  61   6     0.03  -0.03  -0.01    -0.02   0.07   0.01     0.02   0.02  -0.01
  62   1     0.09   0.04  -0.02    -0.03   0.01   0.02     0.03   0.02  -0.01
  63   1     0.02   0.03   0.01    -0.02   0.01   0.01    -0.01   0.01   0.01
  64   1    -0.06   0.00   0.02     0.00   0.03  -0.00    -0.03   0.00   0.01
  65   1    -0.03  -0.01  -0.01    -0.01   0.05  -0.02    -0.01   0.00  -0.01
  66   1    -0.02  -0.00  -0.02     0.01  -0.01   0.01    -0.01  -0.01   0.00
  67   1    -0.03  -0.01  -0.03     0.02  -0.06   0.04    -0.01  -0.02   0.01
  68   1    -0.03  -0.03  -0.02     0.00  -0.02   0.01    -0.01   0.00  -0.00
  69   1    -0.04  -0.03  -0.01    -0.02   0.04  -0.03    -0.01   0.01  -0.02
  70   1    -0.02   0.01   0.01    -0.02  -0.02  -0.03     0.02  -0.01  -0.07
  71   1    -0.02   0.02   0.03    -0.01  -0.01   0.03    -0.01   0.02   0.07
  72   1     0.02  -0.02   0.03    -0.02  -0.04   0.02     0.01  -0.00   0.02
  73   1    -0.01  -0.03  -0.01     0.02  -0.03  -0.01     0.00  -0.00  -0.00
  74   1    -0.03   0.00  -0.03     0.05  -0.00  -0.02    -0.02   0.01  -0.01
  75   1    -0.01   0.03  -0.01     0.01   0.01  -0.00    -0.02   0.02  -0.00
  76   1     0.01   0.04   0.03    -0.03  -0.00   0.02     0.00   0.03   0.02
  77   1     0.02  -0.02   0.05    -0.02   0.01   0.01    -0.00  -0.01  -0.10
  78   1    -0.03   0.07   0.03     0.02   0.05  -0.08     0.04  -0.02  -0.06
  79   1     0.01   0.06   0.01     0.09   0.05  -0.07     0.04  -0.02  -0.08
  80   1     0.05   0.03  -0.06     0.07   0.04   0.05    -0.01   0.02   0.05
  81   1     0.03  -0.00  -0.05     0.03  -0.00   0.11    -0.02   0.04   0.09
  82   1    -0.02   0.01   0.00    -0.00  -0.05   0.01     0.06   0.03  -0.01
  83   1    -0.01  -0.00  -0.00    -0.03  -0.01  -0.01     0.05   0.03   0.02
  84   1     0.02  -0.02  -0.00    -0.05   0.04  -0.02     0.03   0.02   0.03
  85   1     0.02   0.00   0.00    -0.03   0.01  -0.01     0.00   0.01   0.01
  86   1     0.00   0.02   0.01     0.00  -0.04   0.01     0.01   0.01  -0.02
  87   1     0.07  -0.04   0.02     0.02   0.00   0.05     0.00  -0.02   0.01
  88   1     0.08   0.00   0.02     0.02   0.02  -0.02    -0.01  -0.03  -0.06
  89   1     0.06   0.03  -0.03     0.01   0.03  -0.07    -0.00  -0.04  -0.05
  90   1     0.02   0.03  -0.04     0.00   0.03  -0.01     0.01  -0.04   0.02
  91   1     0.03  -0.02   0.04    -0.03  -0.04  -0.01    -0.00   0.03  -0.04
  92   1     0.02  -0.02   0.02     0.01  -0.07   0.00    -0.05   0.06  -0.06
  93   1    -0.01  -0.01  -0.04     0.05  -0.06   0.01    -0.06   0.04   0.04
  94   1    -0.01  -0.02  -0.04     0.05  -0.01  -0.01    -0.06  -0.02   0.08
  95   1    -0.06  -0.04   0.00     0.02   0.03  -0.01    -0.01  -0.00  -0.00
  96   1     0.03  -0.01  -0.01    -0.01   0.02   0.00     0.02   0.00  -0.01
                     25                     26                     27
                        a                      a                      a 
 Frequencies --   175.1188               177.2854               187.6253
 Red. masses --    11.1578                11.1773                11.0463
 Frc consts  --     0.0000                 0.0000                 0.0000
 IR Inten    --     2.2570                 0.3913                 1.5449
 Raman Activ --     0.0000                 0.0000                 0.0000
 Depolar     --     0.0000                 0.0000                 0.0000
 Atom AN      X      Y      Z        X      Y      Z        X      Y      Z
   1   6     0.02  -0.08   0.01    -0.04  -0.05   0.02    -0.04  -0.14  -0.00
   2   6    -0.01  -0.04   0.01    -0.00  -0.03   0.00     0.05  -0.10  -0.05
   3   6     0.02  -0.01  -0.05     0.06   0.01  -0.04     0.14  -0.06  -0.07
   4   6     0.04  -0.01  -0.09     0.08   0.01  -0.04     0.12  -0.03  -0.03
   5   7     0.08   0.02  -0.11     0.05   0.01  -0.03     0.11  -0.04   0.01
   6   6     0.08  -0.03  -0.06     0.04   0.02  -0.03     0.13  -0.11   0.09
   7   6     0.02  -0.05  -0.06     0.02   0.02  -0.03     0.13  -0.14   0.11
   8   6    -0.04  -0.01  -0.03     0.01   0.01   0.00     0.07   0.02   0.03
   9   6    -0.03   0.05   0.02     0.02   0.01   0.04     0.05   0.18  -0.04
  10   6     0.04   0.03   0.05     0.04   0.02   0.03     0.10   0.06   0.06
  11   6     0.10  -0.01   0.01     0.05   0.04   0.00     0.15  -0.10   0.15
  12   6     0.02  -0.01   0.10     0.01  -0.03   0.04     0.09   0.01  -0.01
  13   6    -0.02  -0.00   0.15     0.02  -0.03   0.03     0.01   0.04   0.14
  14   6    -0.03  -0.03   0.13     0.03  -0.00   0.07     0.00   0.02   0.01
  15   6    -0.02  -0.02   0.08     0.01   0.01   0.14    -0.01   0.04  -0.10
  16   6     0.01  -0.01   0.16    -0.01   0.01   0.09     0.03   0.05  -0.09
  17   6     0.01  -0.00   0.20    -0.01  -0.02   0.06     0.05   0.04  -0.18
  18   7     0.01   0.01   0.09    -0.06   0.06  -0.05     0.00   0.07   0.03
  19   6    -0.01   0.01   0.09    -0.08   0.06  -0.05     0.02   0.09   0.03
  20   6     0.00  -0.02   0.06    -0.09   0.11  -0.03     0.02   0.10   0.04
  21   6     0.01  -0.02   0.00    -0.03   0.13   0.01    -0.03   0.10   0.01
  22   6     0.00   0.03  -0.03     0.03   0.12   0.02    -0.06   0.12  -0.00
  23   6    -0.02   0.07   0.00    -0.01   0.07  -0.00    -0.02   0.13  -0.00
  24   6    -0.02   0.06   0.06    -0.08   0.06  -0.04     0.02   0.13   0.02
  25   6    -0.00   0.03  -0.17    -0.07   0.02  -0.10    -0.02   0.00   0.05
  26   6    -0.00   0.03  -0.30    -0.08   0.02  -0.11    -0.01  -0.02   0.13
  27   6     0.03   0.05  -0.14    -0.08   0.00  -0.02    -0.05  -0.07   0.03
  28   6     0.04   0.04  -0.05    -0.12  -0.00  -0.06    -0.05  -0.06   0.02
  29   6     0.01   0.06  -0.12    -0.10  -0.03  -0.13    -0.04  -0.06   0.03
  30   6    -0.01   0.03  -0.17    -0.08   0.00  -0.08    -0.04  -0.01  -0.04
  31   5     0.01   0.00  -0.09     0.00  -0.02   0.07    -0.04   0.01  -0.13
  32   6    -0.03  -0.00  -0.09     0.05  -0.06   0.03    -0.04   0.03  -0.14
  33   6    -0.06   0.06   0.02     0.02  -0.13   0.02    -0.02   0.11  -0.11
  34   6    -0.05   0.10   0.12    -0.06  -0.13   0.04     0.03   0.14  -0.04
  35   6     0.02   0.02  -0.02    -0.09  -0.09   0.05     0.05   0.10   0.01
  36   6     0.04  -0.05  -0.13    -0.04  -0.04  -0.01     0.01   0.03   0.00
  37   6    -0.03  -0.04  -0.08     0.04  -0.03  -0.01    -0.03   0.01  -0.07
  38   7    -0.09  -0.05   0.07     0.08  -0.00  -0.06    -0.05   0.01   0.01
  39   6    -0.11  -0.05   0.06     0.09   0.01  -0.06    -0.08   0.03   0.01
  40   6    -0.15  -0.09   0.02     0.12   0.04  -0.02    -0.09   0.02  -0.01
  41   6    -0.14  -0.10  -0.03     0.10   0.07   0.03    -0.06  -0.04  -0.02
  42   6    -0.11  -0.09  -0.04     0.06   0.07   0.04    -0.02  -0.07  -0.01
  43   6    -0.08  -0.06  -0.01     0.03   0.02   0.00    -0.03  -0.02  -0.00
  44   6    -0.09  -0.05   0.05     0.06  -0.00  -0.05    -0.07   0.04   0.01
  45   8     0.02   0.06  -0.02    -0.07  -0.04  -0.11    -0.02  -0.09   0.09
  46   6     0.02   0.04   0.06    -0.02  -0.01  -0.02    -0.00  -0.07   0.09
  47   6    -0.05   0.03   0.09     0.13  -0.01   0.09     0.06  -0.07   0.04
  48   6    -0.08  -0.02   0.00     0.19   0.11   0.05     0.07  -0.01  -0.08
  49   6    -0.06  -0.05  -0.08     0.12   0.20  -0.10     0.05   0.03  -0.06
  50   6     0.01  -0.05  -0.01    -0.01   0.18  -0.10     0.00   0.01   0.06
  51   6     0.04   0.01   0.08    -0.07   0.04  -0.04    -0.02  -0.04   0.09
  52   5     0.08   0.02   0.11    -0.11  -0.00   0.04    -0.06  -0.05   0.01
  53   6     0.10   0.03   0.15    -0.07  -0.06   0.17    -0.11  -0.05  -0.07
  54   6     0.06   0.05   0.01    -0.08  -0.17   0.16    -0.10  -0.03  -0.04
  55   6     0.01   0.07  -0.17    -0.05  -0.21  -0.00    -0.09  -0.02   0.08
  56   6     0.04   0.06  -0.07    -0.03  -0.17  -0.12    -0.11  -0.03   0.09
  57   6     0.10   0.03   0.14     0.00  -0.09  -0.02    -0.13  -0.04  -0.02
  58   6     0.09   0.03   0.14    -0.03  -0.05   0.13    -0.11  -0.05  -0.07
  59   8     0.07   0.04   0.05    -0.03  -0.03   0.17    -0.11  -0.06  -0.07
  60   6     0.07  -0.05  -0.09     0.09   0.02  -0.04     0.13  -0.04  -0.04
  61   6     0.06  -0.07  -0.04     0.03  -0.02  -0.01     0.03  -0.08  -0.01
  62   1    -0.00  -0.03   0.02    -0.03  -0.03   0.02    -0.04  -0.05   0.01
  63   1    -0.01  -0.01   0.02    -0.01  -0.01   0.01     0.01  -0.03  -0.01
  64   1     0.00   0.00  -0.01     0.02   0.00  -0.01     0.06  -0.02  -0.03
  65   1     0.00  -0.03  -0.03     0.01   0.01  -0.01     0.04  -0.06   0.04
  66   1    -0.03  -0.00  -0.01    -0.00   0.00  -0.00     0.01   0.01  -0.00
  67   1    -0.02   0.03   0.01     0.00  -0.00   0.02    -0.00   0.10  -0.04
  68   1     0.02   0.01   0.03     0.01   0.01   0.02     0.03   0.03   0.01
  69   1     0.05  -0.00   0.01     0.02   0.01   0.00     0.06  -0.04   0.06
  70   1    -0.01   0.00   0.03     0.01  -0.01  -0.01    -0.01   0.03   0.09
  71   1     0.01  -0.00   0.05    -0.00  -0.01   0.00     0.01   0.01  -0.08
  72   1     0.00  -0.02   0.02    -0.04   0.04  -0.01     0.01   0.03   0.01
  73   1     0.01  -0.02  -0.01    -0.00   0.04   0.01    -0.01   0.02  -0.00
  74   1     0.00   0.01  -0.02     0.03   0.04   0.02    -0.03   0.03  -0.01
  75   1    -0.01   0.03  -0.01     0.00   0.01   0.00    -0.01   0.04  -0.00
  76   1    -0.01   0.03   0.03    -0.03   0.01  -0.01     0.01   0.05   0.01
  77   1    -0.01   0.01  -0.10    -0.02   0.01  -0.03     0.01  -0.00   0.05
  78   1    -0.03   0.03   0.01     0.02  -0.06   0.00    -0.02   0.05  -0.03
  79   1    -0.03   0.05   0.08    -0.03  -0.05   0.02     0.01   0.06  -0.00
  80   1     0.02   0.01  -0.01    -0.05  -0.02   0.02     0.03   0.03   0.02
  81   1     0.02  -0.03  -0.06    -0.02   0.00  -0.01     0.01   0.00   0.02
  82   1    -0.06  -0.03   0.01     0.05   0.02  -0.01    -0.04   0.01  -0.00
  83   1    -0.05  -0.03  -0.01     0.03   0.03   0.01    -0.02  -0.02  -0.01
[...]
  50   6     0.00   0.00  -0.00    -0.00  -0.00   0.00     0.00   0.00  -0.00
  51   6    -0.00   0.00   0.00     0.00  -0.00  -0.00    -0.00   0.00   0.00
  52   5     0.00  -0.00  -0.00    -0.00   0.00   0.00     0.00  -0.00  -0.00
  53   6    -0.00   0.00  -0.00     0.00   0.00  -0.00    -0.00   0.00   0.00
  54   6     0.00  -0.00  -0.00    -0.00   0.00   0.00    -0.00   0.00   0.00
  55   6    -0.00   0.00   0.00     0.00  -0.00  -0.00    -0.00  -0.00   0.00
  56   6    -0.00  -0.00   0.00     0.00   0.00  -0.00     0.00   0.00  -0.00
  57   6     0.00  -0.00  -0.00    -0.00   0.00   0.00    -0.00   0.00   0.00
  58   6     0.00   0.00  -0.00    -0.00  -0.00   0.00     0.00   0.00  -0.00
  59   8    -0.00  -0.00   0.00     0.00   0.00  -0.00    -0.00  -0.00   0.00
  60   6     0.07  -0.07   0.06    -0.00   0.00  -0.00     0.00  -0.00   0.00
  61   6     0.04   0.03   0.10    -0.00  -0.00  -0.00     0.00   0.00   0.01
  62   1     0.13  -0.46  -0.20    -0.00   0.00   0.00     0.01  -0.03  -0.01
  63   1     0.18  -0.18   0.15    -0.00   0.00  -0.00     0.01  -0.01   0.01
  64   1     0.08   0.07   0.22    -0.00  -0.00  -0.00     0.01   0.00   0.01
  65   1    -0.19  -0.00   0.06     0.02   0.00  -0.01    -0.00  -0.00   0.00
  66   1    -0.05   0.10   0.16     0.01  -0.01  -0.02    -0.00   0.00   0.00
  67   1     0.18   0.14   0.13    -0.02  -0.02  -0.02     0.00   0.00   0.00
  68   1     0.16   0.00  -0.05    -0.02  -0.00   0.01     0.00   0.00  -0.00
  69   1     0.04  -0.07  -0.11    -0.00   0.01   0.01     0.00  -0.00  -0.00
  70   1    -0.01  -0.01  -0.00     0.00   0.00  -0.00    -0.01  -0.01  -0.00
  71   1    -0.00   0.02  -0.00     0.00  -0.01   0.00    -0.00   0.00  -0.00
  72   1     0.00  -0.01  -0.02     0.00  -0.00  -0.01    -0.04   0.12   0.24
  73   1    -0.00   0.02  -0.03    -0.00   0.01  -0.01     0.03  -0.23   0.36
  74   1    -0.01   0.04   0.00    -0.00   0.01   0.00     0.13  -0.59  -0.03
  75   1    -0.00   0.01   0.01    -0.00   0.00   0.01     0.06  -0.19  -0.39
  76   1     0.00  -0.00   0.00     0.00  -0.01   0.01    -0.02   0.18  -0.27
  77   1    -0.00   0.00   0.00     0.00  -0.00  -0.00    -0.00   0.01   0.00
  78   1     0.00   0.00   0.00    -0.09  -0.06  -0.01     0.03   0.02   0.01
  79   1    -0.00   0.00  -0.00    -0.01   0.01  -0.01     0.01  -0.00   0.00
  80   1     0.00   0.00  -0.00     0.00   0.00  -0.00    -0.00  -0.00   0.00
  81   1     0.01   0.00   0.00    -0.00  -0.00  -0.00    -0.00  -0.00  -0.00
  82   1     0.00   0.00   0.01     0.05   0.10   0.24     0.00   0.00   0.01
  83   1    -0.01  -0.00   0.01    -0.25  -0.08   0.30    -0.01  -0.00   0.01
  84   1    -0.02  -0.01  -0.00    -0.46  -0.34  -0.09    -0.01  -0.01  -0.00
  85   1    -0.00  -0.01  -0.01    -0.08  -0.18  -0.44    -0.00  -0.01  -0.01
  86   1     0.00   0.00  -0.01     0.20   0.07  -0.23     0.01   0.00  -0.01
  87   1    -0.04  -0.02   0.00     0.01   0.01  -0.00    -0.00  -0.00   0.00
  88   1     0.00  -0.02  -0.00    -0.00   0.01   0.00     0.00  -0.00  -0.00
  89   1     0.01  -0.00  -0.00    -0.00   0.00   0.00     0.00  -0.00  -0.00
  90   1    -0.01  -0.01   0.00     0.00   0.00  -0.00    -0.00  -0.00   0.00
  91   1    -0.00   0.00   0.00     0.00  -0.00  -0.00     0.00  -0.00  -0.00
  92   1     0.00  -0.00  -0.00    -0.00   0.00   0.00    -0.00  -0.00   0.00
  93   1     0.00   0.00  -0.00    -0.00  -0.00   0.00    -0.00  -0.00   0.00
  94   1    -0.00   0.00   0.00     0.00  -0.00  -0.00     0.00  -0.00  -0.00
  95   1    -0.24   0.25  -0.21     0.00  -0.00   0.00    -0.02   0.02  -0.01
  96   1    -0.13  -0.10  -0.33     0.00   0.00   0.00    -0.01  -0.01  -0.02
                    277                    278                    279
                        a                      a                      a 
 Frequencies --  3099.7318              3103.5110              3108.0125
 Red. masses --     1.8463                 1.8624                 1.8083
 Frc consts  --     0.0000                 0.0000                 0.0000
 IR Inten    --    71.8826                 3.4332                62.7184
 Raman Activ --     0.0000                 0.0000                 0.0000
 Depolar     --     0.0000                 0.0000                 0.0000
 Atom AN      X      Y      Z        X      Y      Z        X      Y      Z
   1   6     0.00  -0.00  -0.00     0.00  -0.00  -0.00    -0.00   0.00   0.00
   2   6     0.00  -0.00   0.00     0.00  -0.00   0.00    -0.00   0.00  -0.00
   3   6     0.00   0.00   0.00     0.00   0.00   0.00    -0.00  -0.00  -0.00
   4   6     0.00  -0.00  -0.00    -0.00   0.00   0.00    -0.00   0.00   0.00
   5   7    -0.00   0.00  -0.00     0.00  -0.00   0.00     0.00  -0.00  -0.00
   6   6     0.00   0.00   0.00    -0.00  -0.00  -0.00     0.00   0.00   0.00
   7   6    -0.00  -0.00   0.00    -0.00   0.00   0.00     0.01   0.00  -0.00
   8   6    -0.00   0.00   0.00    -0.00  -0.00  -0.00     0.00  -0.00  -0.00
   9   6     0.00   0.00   0.00     0.00   0.00   0.00     0.00   0.00   0.00
  10   6     0.00   0.00  -0.00     0.00  -0.00  -0.00     0.00  -0.00  -0.00
  11   6     0.00  -0.00  -0.00     0.00  -0.00  -0.00     0.00  -0.00  -0.00
  12   6    -0.00  -0.00   0.00    -0.00  -0.00   0.00    -0.01  -0.00  -0.00
  13   6    -0.01  -0.00  -0.00     0.00   0.00  -0.00    -0.20  -0.15  -0.00
  14   6     0.00  -0.00   0.00    -0.00   0.00   0.00    -0.00  -0.01   0.00
  15   6    -0.00   0.00  -0.00     0.00  -0.00   0.00     0.00   0.00  -0.00
  16   6    -0.00  -0.00  -0.00    -0.00   0.00  -0.00    -0.00  -0.00  -0.00
  17   6    -0.00   0.01  -0.00     0.00  -0.00   0.00     0.02  -0.10   0.01
  18   7     0.00   0.00   0.00     0.00  -0.00  -0.00     0.00  -0.00  -0.00
  19   6    -0.00   0.00   0.00     0.00   0.00  -0.00    -0.00   0.00  -0.00
  20   6    -0.00   0.00   0.00    -0.00   0.00   0.00    -0.00  -0.00   0.00
  21   6     0.00  -0.00   0.00     0.00  -0.00   0.00    -0.00   0.00  -0.00
  22   6     0.00  -0.01  -0.00     0.00  -0.00  -0.00    -0.00   0.00   0.00
  23   6     0.00  -0.00  -0.01     0.00  -0.00  -0.00    -0.00   0.00   0.00
  24   6    -0.00   0.00  -0.00    -0.00   0.00  -0.00    -0.00   0.00  -0.00
  25   6    -0.00   0.00  -0.00     0.00   0.00  -0.00     0.00  -0.00  -0.00
  26   6    -0.00   0.00   0.00     0.00  -0.00  -0.00     0.00  -0.00  -0.00
  27   6    -0.00  -0.00  -0.00     0.00   0.00  -0.00     0.00  -0.00  -0.00
  28   6     0.00  -0.00  -0.00    -0.00  -0.00  -0.00    -0.00   0.00   0.00
  29   6    -0.00   0.00   0.00    -0.00   0.00   0.00     0.00  -0.00  -0.00
  30   6     0.00   0.00  -0.00     0.00  -0.00  -0.00    -0.00   0.00   0.00
  31   5     0.00  -0.00   0.00    -0.00  -0.00   0.00    -0.00  -0.00   0.00
  32   6    -0.00  -0.01   0.00     0.00   0.00  -0.00     0.00   0.00   0.00
  33   6    -0.21  -0.15  -0.04     0.00   0.00   0.00     0.00   0.00   0.00
  34   6    -0.06   0.03  -0.03     0.00  -0.00   0.00     0.00  -0.00   0.00
  35   6     0.00   0.03  -0.01    -0.00  -0.00   0.00    -0.00  -0.00   0.00
  36   6     0.02   0.01   0.00    -0.00  -0.00  -0.00    -0.00  -0.00  -0.00
  37   6     0.00   0.00   0.00    -0.00   0.00  -0.00    -0.00   0.00  -0.00
  38   7    -0.00   0.00  -0.00     0.00  -0.00   0.00    -0.00  -0.00  -0.00
  39   6    -0.00  -0.00  -0.00    -0.00  -0.00  -0.00     0.00  -0.00  -0.00
  40   6    -0.00  -0.00  -0.01     0.00   0.00   0.00     0.00   0.00   0.00
  41   6     0.01   0.00  -0.01    -0.00  -0.00   0.00     0.00   0.00  -0.00
  42   6     0.01   0.01   0.00    -0.00  -0.00  -0.00     0.00   0.00   0.00
  43   6     0.00   0.01   0.01    -0.00  -0.00  -0.00    -0.00  -0.00   0.00
  44   6    -0.01  -0.00   0.01     0.00   0.00  -0.00     0.00   0.00  -0.00
  45   8    -0.00  -0.00   0.00     0.00  -0.00  -0.00    -0.00   0.00   0.00
  46   6     0.00  -0.00   0.00    -0.00  -0.00   0.00     0.00   0.00  -0.00
  47   6     0.02   0.01  -0.00    -0.02  -0.01   0.00    -0.00  -0.00   0.00
  48   6    -0.00   0.01   0.00     0.00  -0.03  -0.00     0.00  -0.00  -0.00
  49   6    -0.00   0.00   0.00     0.05  -0.03  -0.01    -0.00   0.00   0.00
  50   6     0.01   0.00  -0.00     0.17   0.11  -0.00    -0.00  -0.00   0.00
  51   6    -0.00   0.00  -0.00     0.00   0.01   0.00    -0.00  -0.00   0.00
  52   5    -0.00   0.00   0.00     0.00   0.00  -0.00     0.00  -0.00  -0.00
  53   6     0.00   0.00  -0.00     0.00   0.00  -0.00    -0.00   0.00   0.00
  54   6    -0.00   0.00   0.00    -0.07   0.15   0.04    -0.00   0.00   0.00
  55   6    -0.00   0.00   0.00    -0.05   0.00   0.02    -0.00   0.00   0.00
  56   6    -0.00  -0.00   0.00    -0.01  -0.02   0.00    -0.00  -0.00   0.00
  57   6     0.00  -0.00  -0.00     0.01  -0.01  -0.00     0.00  -0.00  -0.00
  58   6     0.00  -0.00  -0.00     0.00  -0.00  -0.00     0.00  -0.00  -0.00
  59   8     0.00   0.00  -0.00    -0.00   0.00   0.00    -0.00  -0.00   0.00
  60   6    -0.00   0.00  -0.00    -0.00   0.00  -0.00    -0.00   0.00  -0.00
  61   6    -0.00  -0.00  -0.00    -0.00  -0.00  -0.00     0.00   0.00   0.00
  62   1    -0.00   0.00   0.00    -0.00   0.00   0.00     0.00  -0.01  -0.00
  63   1    -0.00   0.00  -0.00    -0.00   0.00  -0.00     0.00  -0.00   0.00
  64   1    -0.00  -0.00  -0.00    -0.00  -0.00  -0.00     0.00   0.00   0.01
  65   1     0.00   0.00  -0.00     0.00   0.00  -0.00    -0.04  -0.00   0.01
  66   1     0.00  -0.00  -0.00    -0.00   0.00   0.00    -0.00   0.00   0.00
  67   1    -0.00  -0.00  -0.00    -0.00  -0.00  -0.00    -0.00  -0.00  -0.00
  68   1    -0.00  -0.00   0.00    -0.00  -0.00   0.00    -0.00  -0.00   0.00
  69   1    -0.00   0.00   0.00    -0.00   0.00   0.00    -0.00   0.00   0.00
  70   1     0.02   0.02   0.00    -0.00  -0.00  -0.00     0.70   0.54   0.00
  71   1     0.00  -0.02   0.00    -0.00   0.00  -0.00    -0.06   0.37  -0.04
  72   1     0.00  -0.01  -0.01     0.00  -0.00  -0.00     0.00  -0.00  -0.00
  73   1    -0.00   0.01  -0.02    -0.00   0.00  -0.00     0.00  -0.01   0.01
  74   1    -0.01   0.02   0.00    -0.00   0.00   0.00     0.00  -0.01  -0.00
  75   1    -0.00   0.01   0.02    -0.00   0.00   0.00     0.00  -0.00  -0.01
  76   1     0.00  -0.01   0.01     0.00  -0.00   0.00     0.00  -0.00   0.00
  77   1     0.00  -0.01  -0.00    -0.00   0.01   0.00    -0.00   0.01   0.00
  78   1     0.75   0.51   0.13    -0.01  -0.01  -0.00    -0.01  -0.01  -0.00
  79   1     0.17  -0.08   0.08    -0.00   0.00  -0.00    -0.00   0.00  -0.00
  80   1    -0.00  -0.11   0.03     0.00   0.00  -0.00     0.00   0.00  -0.00
  81   1    -0.08  -0.05  -0.01     0.00   0.00   0.00     0.00   0.00   0.00
  82   1     0.01   0.01   0.03    -0.00  -0.00  -0.00    -0.00  -0.00  -0.01
  83   1    -0.03  -0.01   0.03     0.00   0.00  -0.00    -0.01  -0.00   0.01
  84   1    -0.05  -0.03  -0.01     0.00   0.00   0.00    -0.01  -0.00  -0.00
  85   1    -0.01  -0.02  -0.05     0.00   0.00   0.00    -0.00  -0.00  -0.00
  86   1     0.02   0.01  -0.03    -0.00  -0.00   0.00    -0.01  -0.00   0.01
  87   1    -0.07  -0.05   0.00     0.06   0.04  -0.00     0.00   0.00  -0.00
  88   1     0.00  -0.03  -0.00    -0.01   0.11   0.01    -0.00   0.00   0.00
  89   1     0.00  -0.00  -0.00    -0.16   0.08   0.02     0.00  -0.00  -0.00
  90   1    -0.02  -0.02   0.00    -0.58  -0.38   0.02     0.01   0.00  -0.00
  91   1     0.00  -0.01  -0.00     0.24  -0.53  -0.13     0.00  -0.01  -0.00
  92   1     0.00  -0.00  -0.00     0.16  -0.01  -0.05     0.00  -0.00  -0.00
  93   1     0.00   0.00  -0.00     0.05   0.07  -0.01     0.00   0.00  -0.00
  94   1    -0.00   0.00   0.00    -0.02   0.04   0.01    -0.00   0.00   0.00
  95   1     0.00  -0.00   0.00     0.00  -0.00   0.00     0.01  -0.01   0.01
  96   1     0.00   0.00   0.00     0.00   0.00   0.00    -0.00  -0.00  -0.00
                    280                    281                    282
                        a                      a                      a 
 Frequencies --  3109.6669              3109.8576              3113.4313
 Red. masses --     1.8246                 1.8139                 1.8131
 Frc consts  --     0.0000                 0.0000                 0.0000
 IR Inten    --   161.9592                 9.9063                53.1085
 Raman Activ --     0.0000                 0.0000                 0.0000
 Depolar     --     0.0000                 0.0000                 0.0000
 Atom AN      X      Y      Z        X      Y      Z        X      Y      Z
   1   6     0.00  -0.00  -0.00     0.00  -0.00   0.00     0.00  -0.00  -0.00
   2   6     0.00  -0.00   0.00     0.00  -0.00   0.00     0.00  -0.00   0.00
   3   6     0.00   0.00   0.00     0.00   0.00   0.00     0.00   0.00   0.00
   4   6    -0.00   0.00   0.00    -0.00   0.00   0.00    -0.00  -0.00   0.00
   5   7    -0.00   0.00  -0.00    -0.00   0.00  -0.00    -0.00   0.00  -0.00
   6   6    -0.00  -0.00  -0.00    -0.00  -0.00  -0.00     0.00   0.00   0.00
   7   6    -0.00  -0.00   0.00    -0.00  -0.00   0.00    -0.00  -0.00   0.00
   8   6    -0.00   0.00   0.00    -0.00   0.00   0.00    -0.00   0.00   0.00
   9   6     0.00   0.00   0.00     0.00   0.00   0.00     0.00   0.00   0.00
  10   6     0.00   0.00  -0.00     0.00   0.00  -0.00     0.00   0.00  -0.00
  11   6     0.00  -0.00  -0.00     0.00  -0.00  -0.00     0.00  -0.00  -0.00
  12   6     0.00  -0.00   0.00     0.01  -0.01   0.00     0.00  -0.00   0.00
  13   6     0.02   0.02  -0.00     0.08   0.06  -0.00     0.01   0.01   0.00
  14   6     0.00   0.00  -0.00     0.00   0.00  -0.00     0.00   0.00  -0.00
  15   6     0.00   0.00  -0.00     0.00   0.00  -0.00    -0.00   0.00  -0.00
  16   6    -0.00  -0.00   0.00    -0.01  -0.01   0.00    -0.00  -0.00   0.00
  17   6     0.01  -0.08   0.01     0.04  -0.23   0.03     0.00  -0.01   0.00
  18   7     0.00  -0.00  -0.00     0.00  -0.00  -0.00    -0.00  -0.00  -0.00
  19   6    -0.00   0.00  -0.00    -0.00   0.00  -0.00     0.00   0.00  -0.00
  20   6    -0.00   0.00   0.00    -0.00   0.00   0.00     0.00   0.00   0.01
  21   6    -0.00   0.00  -0.00    -0.00   0.00  -0.00     0.00   0.00   0.00
  22   6    -0.00   0.00  -0.00    -0.00   0.00  -0.00     0.00  -0.00  -0.00
  23   6    -0.00  -0.00  -0.00    -0.00  -0.00  -0.00     0.00  -0.00  -0.00
  24   6    -0.00   0.00  -0.00    -0.00   0.00  -0.00     0.00   0.00  -0.00
  25   6    -0.00  -0.00   0.00    -0.00   0.00   0.00     0.01  -0.00  -0.00
  26   6     0.00  -0.01  -0.00    -0.01   0.02   0.00     0.06  -0.26  -0.01
  27   6    -0.00  -0.00   0.00     0.00   0.00  -0.00    -0.01  -0.01   0.00
  28   6     0.00   0.00  -0.00    -0.00  -0.00  -0.00     0.00   0.00   0.00
  29   6    -0.00   0.00   0.00    -0.00   0.00   0.00    -0.00   0.00   0.00
  30   6     0.00   0.00  -0.00     0.00  -0.00  -0.00    -0.00   0.00   0.00
  31   5    -0.00  -0.00   0.00    -0.00  -0.00   0.00     0.00  -0.00  -0.00
  32   6     0.00   0.00  -0.00     0.00  -0.00   0.00    -0.00  -0.00   0.00
  33   6    -0.00  -0.00  -0.00    -0.01  -0.00  -0.00    -0.00  -0.00  -0.00
  34   6    -0.00   0.00  -0.00    -0.00   0.00  -0.00    -0.00   0.00  -0.00
  35   6    -0.00   0.00  -0.00     0.00   0.00  -0.00     0.00   0.00  -0.00
  36   6     0.00   0.00   0.00     0.00   0.00   0.00     0.00   0.00   0.00
  37   6    -0.00   0.00  -0.00     0.00   0.00  -0.00     0.00  -0.00   0.00
  38   7     0.00   0.00   0.00     0.00   0.00   0.00    -0.00  -0.00  -0.00
  39   6    -0.00  -0.00   0.00    -0.00   0.00   0.00     0.00   0.00   0.00
  40   6    -0.00  -0.00  -0.00    -0.00  -0.00  -0.00    -0.00  -0.00  -0.00
  41   6     0.00   0.00  -0.00     0.00   0.00  -0.00     0.00   0.00  -0.00
  42   6     0.00   0.00   0.00     0.00   0.00   0.00     0.00   0.00   0.00
  43   6     0.00   0.00   0.00     0.00   0.00   0.00     0.00   0.00   0.00
  44   6    -0.00  -0.00   0.00    -0.00  -0.00   0.00    -0.00  -0.00   0.00
  45   8     0.00   0.00  -0.00    -0.00  -0.00   0.00    -0.00   0.00   0.00
  46   6    -0.00  -0.00   0.00     0.00   0.00  -0.00     0.00   0.00  -0.00
  47   6    -0.01  -0.01   0.00     0.00   0.00  -0.00     0.00   0.00  -0.00
  48   6    -0.00  -0.02  -0.00     0.00   0.01   0.00    -0.00   0.00   0.00
  49   6     0.03  -0.02  -0.00    -0.01   0.01   0.00    -0.00   0.00   0.00
  50   6     0.14   0.09  -0.00    -0.05  -0.03   0.00    -0.01  -0.01   0.00
  51   6     0.00   0.01   0.00    -0.00  -0.00  -0.00     0.00  -0.00  -0.00
  52   5    -0.00   0.00   0.00    -0.00   0.00   0.00    -0.00  -0.00   0.00
  53   6    -0.00  -0.01   0.00     0.00   0.00  -0.00    -0.00   0.00   0.00
  54   6     0.08  -0.17  -0.04    -0.03   0.06   0.01    -0.00   0.01   0.00
  55   6     0.04  -0.00  -0.01    -0.01   0.00   0.00    -0.00   0.00   0.00
  56   6     0.01   0.02  -0.00    -0.00  -0.01   0.00    -0.00  -0.00   0.00
  57   6    -0.00   0.01   0.00     0.00  -0.00  -0.00     0.00  -0.00  -0.00
  58   6    -0.00   0.00   0.00     0.00  -0.00  -0.00     0.00  -0.00  -0.00
  59   8     0.00  -0.00  -0.00    -0.00   0.00   0.00     0.00   0.00  -0.00
  60   6    -0.00   0.00  -0.00    -0.01   0.01  -0.01    -0.00   0.00  -0.00
  61   6    -0.00  -0.00  -0.00    -0.00  -0.00  -0.00    -0.00  -0.00  -0.00
  62   1    -0.00   0.00   0.00    -0.00   0.00   0.00    -0.00   0.00   0.00
  63   1    -0.00   0.00  -0.00    -0.00   0.00  -0.00    -0.00   0.00  -0.00
  64   1    -0.00  -0.00  -0.00    -0.00  -0.00  -0.00    -0.00  -0.00  -0.00
  65   1     0.01   0.00  -0.00     0.02   0.00  -0.01     0.00   0.00  -0.00
  66   1     0.00  -0.00  -0.00     0.00  -0.00  -0.00     0.00  -0.00  -0.00
  67   1    -0.00  -0.00  -0.00    -0.00  -0.00  -0.00    -0.00  -0.00  -0.00
  68   1    -0.00  -0.00   0.00    -0.00  -0.00   0.00    -0.00  -0.00   0.00
  69   1    -0.00   0.00   0.00    -0.00   0.00   0.00    -0.00   0.00   0.00
  70   1    -0.09  -0.07  -0.00    -0.28  -0.22  -0.00    -0.03  -0.02  -0.00
  71   1    -0.04   0.28  -0.03    -0.13   0.82  -0.10    -0.01   0.05  -0.01
  72   1     0.00  -0.00  -0.00     0.00  -0.00  -0.01     0.00  -0.01  -0.02
  73   1     0.00  -0.00   0.00     0.00  -0.00   0.00    -0.00  -0.00  -0.00
  74   1     0.00  -0.00  -0.00     0.00  -0.00  -0.00    -0.00   0.00   0.00
  75   1     0.00  -0.00   0.00    -0.00   0.00   0.00    -0.00   0.00   0.00
  76   1     0.00  -0.00   0.01     0.00  -0.01   0.01     0.00  -0.01   0.02
  77   1    -0.01   0.03   0.00     0.02  -0.08  -0.00    -0.23   0.93   0.04
  78   1     0.00   0.00   0.00     0.02   0.01   0.00     0.01   0.01   0.00
  79   1     0.00  -0.00   0.00     0.01  -0.00   0.00     0.00  -0.00   0.00
  80   1    -0.00  -0.00   0.00    -0.00  -0.01   0.00    -0.00  -0.00   0.00
  81   1    -0.00  -0.00  -0.00    -0.01  -0.01  -0.00    -0.01  -0.00  -0.00
  82   1     0.00   0.00   0.00     0.00   0.00   0.01     0.00   0.00   0.00
  83   1    -0.00  -0.00   0.00    -0.00  -0.00   0.00    -0.00  -0.00   0.00
  84   1    -0.00  -0.00  -0.00    -0.00  -0.00  -0.00    -0.00  -0.00  -0.00
  85   1    -0.00  -0.00  -0.00    -0.00  -0.00  -0.01    -0.00  -0.00  -0.00
  86   1     0.00   0.00  -0.00     0.01   0.00  -0.01     0.00   0.00  -0.00
  87   1     0.03   0.02  -0.00    -0.01  -0.01   0.00    -0.01  -0.00   0.00
  88   1    -0.00   0.06   0.00     0.00  -0.02  -0.00     0.00  -0.01  -0.00
  89   1    -0.10   0.05   0.01     0.03  -0.02  -0.00     0.01  -0.00  -0.00
  90   1    -0.48  -0.32   0.02     0.16   0.11  -0.01     0.03   0.02  -0.00
  91   1    -0.28   0.60   0.14     0.09  -0.20  -0.05     0.02  -0.03  -0.01
  92   1    -0.13   0.01   0.04     0.04  -0.00  -0.01     0.01  -0.00  -0.00
  93   1    -0.04  -0.06   0.00     0.01   0.02  -0.00     0.00   0.01  -0.00
  94   1     0.01  -0.03  -0.01    -0.00   0.01   0.00    -0.01   0.01   0.00
  95   1     0.01  -0.01   0.01     0.02  -0.02   0.02     0.00  -0.00   0.00
  96   1     0.00   0.00   0.00     0.00   0.00   0.01     0.00   0.00   0.00
