$hessian                                                                        
        0.6438881161   0.0753961098  -0.0334908860  -0.1126959831   0.0071104840
        0.0257132780   0.0468716184   0.0067281764  -0.0023184655  -0.0273881478
        0.0169699695   0.0302617217  -0.0006211908  -0.0010684935  -0.0030665246
       -0.0005035319   0.0006998299   0.0007066331   0.0002983025   0.0001854386
        0.0001209815   0.0000895769  -0.0000550717  -0.0002224615   0.0002342356
       -0.0001973143   0.0003070743  -0.0001908525   0.0004703824  -0.0000098341
        0.0000600158  -0.0003760096  -0.0003266867  -0.0011410218  -0.0006398358
       -0.0000485337  -0.0000550920  -0.0001312559  -0.0003039870  -0.0006927814
        0.0000643759  -0.0001798689   0.0005543909   0.0000841691   0.0000647526
       -0.0006056267   0.0002233726  -0.0001959470   0.0014584812   0.0004587066
        0.0001742833  -0.0000562824   0.0001636294   0.0000123044   0.0000188300
        0.0000121331   0.0000419178  -0.0000162083   0.0000078408   0.0000164631
       -0.0000082126   0.0000142697  -0.0000063352  -0.0000065760  -0.0000015011
        0.0000017905  -0.0000050976   0.0000040236   0.0000131803  -0.0000155169
        0.0000197766  -0.0000055838   0.0004495669   0.0001341569  -0.0000244347
       -0.0001099065  -0.0002218513   0.0000007065  -0.0002266150   0.0001199908
        0.0000395581  -0.0002457125  -0.0002751010  -0.0000217351   0.0003491286
       -0.0000095643  -0.0000070845  -0.0002176951  -0.0000680737   0.0000218466
       -0.0000991038   0.0004363444  -0.0000828888  -0.0000162223  -0.0005694010
        0.0001368225  -0.0002093376   0.0003048364  -0.0002047349  -0.0002028560
       -0.0003628565   0.0000460010   0.0003032175   0.0001114149   0.0000719187
       -0.0000675842   0.0000821478   0.0000194317   0.0003815307   0.0000370233
        0.0001015748  -0.0000497097  -0.0001173365  -0.0000874759  -0.0000474031
       -0.0000206703  -0.0000117374  -0.0000337262  -0.0000404184  -0.0000161026
        0.0000160180  -0.0000055742  -0.0000137434   0.0000683449   0.0000372952
        0.0000019143   0.0000060967  -0.0000066963   0.0000504525  -0.0000471639
       -0.0000518911   0.0000262212   0.0000387899   0.0001182292   0.0000046536
       -0.0000598489   0.0001259494   0.0000000738   0.0001426433  -0.0001180031
       -0.0000290807  -0.0001830280   0.0000836347   0.0000221424   0.0000630913
        0.0001468020   0.0000104401  -0.0000023901  -0.0001223505  -0.0000097169
       -0.0000542162  -0.0000543876   0.0000083522  -0.0001005332  -0.0001253728
        0.0000167092   0.0002047091   0.0002873531  -0.0000088097  -0.0001405971
       -0.0000101986   0.0000190867   0.0000291037   0.0000729875   0.0000002432
       -0.0000856497  -0.0000781508   0.0000073221   0.0001297261   0.0000244756
       -0.0000106584  -0.0000992313  -0.0001883466  -0.0000067540   0.0001502503
        0.0000535954  -0.0000057028  -0.0575731913  -0.0462039931  -0.0453773354
       -0.3065567574   0.0211755514   0.0958029304  -0.1605764540  -0.0910354804
       -0.0912956887  -0.0110557424   0.0150877132   0.0236193013  -0.0018228328
       -0.0034367806  -0.0022815474   0.0000266094  -0.0000389710   0.0000691882
        0.0000426099  -0.0000385352   0.0000024263  -0.0000254101  -0.0000327110
        0.0000220486   0.0000054952  -0.0000082260  -0.0000198415  -0.0000229616
       -0.0000254090   0.0000147018  -0.0002461500  -0.0000242252  -0.0000537225
        0.0000372992   0.0000896450  -0.0000759680   0.0000129009  -0.0000076431
       -0.0000090997   0.0000033221   0.0000027399  -0.0000084070   0.0000037508
       -0.0000037810   0.0000041540   0.0000026625   0.0000008458  -0.0000025989
        0.0000021610  -0.0000108694  -0.0000009706   0.0000055734  -0.0000152915
       -0.0000159796   0.0000004093   0.0000063463  -0.0000082888  -0.0000024995
       -0.0000125642   0.0000151456   0.0000063802   0.0000005068  -0.0000116140
       -0.0000177216   0.0000005358  -0.0000170188  -0.0000024186   0.0000021859
       -0.0000039986   0.0000016311   0.0000093414  -0.0000057496   0.0000100018
        0.0000042207   0.0000121240   0.0000357734   0.0000116900   0.0000023912
       -0.0000020001  -0.0000063985  -0.0000135249  -0.0000041209   0.0000043878
        0.0000018779  -0.0000022944   0.0000096946   0.0000008770  -0.0000030967
        0.0000015439  -0.0000032150  -0.0000009982   0.0000028728  -0.0000008325
        0.0000104967   0.0000024748  -0.0000014384  -0.0000126803  -0.0000003236
        0.0000014439   0.0000032437   0.0000096678   0.0000001565  -0.0000093423
       -0.0000057058   0.0000024891  -0.0015435706  -0.0031440037  -0.0018009917
       -0.0102352104   0.0017557506   0.0041124981
        0.0753961098   0.3131170224   0.2550850760   0.0531821727  -0.1283704132
       -0.1251740475  -0.0277076450  -0.0234538306  -0.0285477380   0.0178374636
       -0.0068963031  -0.0065511199  -0.0015322258  -0.0017443920  -0.0003858499
       -0.0000520023   0.0002617798   0.0004138713   0.0000298967  -0.0004729325
       -0.0001218012  -0.0000305150   0.0002599508   0.0002795519  -0.0000583855
       -0.0001015630  -0.0002047861   0.0000099655   0.0000259404   0.0000744915
       -0.0000144815  -0.0000589325  -0.0000606017   0.0001728067   0.0008732556
       -0.0002432978   0.0001380495  -0.0006803974  -0.0000780647  -0.0001196185
        0.0000220189   0.0000414815   0.0002257885  -0.0004078647   0.0000371705
       -0.0002770813   0.0004944849  -0.0000467296   0.0002632589  -0.0000589628
        0.0000361254   0.0001452038  -0.0000563740   0.0000308755   0.0000225313
       -0.0000785660  -0.0000072659   0.0000049972   0.0000083556   0.0000021254
       -0.0000059318   0.0000011279   0.0000062151  -0.0000077341  -0.0000030040
        0.0000007277  -0.0000024988  -0.0000048632  -0.0000004022  -0.0000058910
        0.0000024413  -0.0000017109  -0.0002066062  -0.0002941439   0.0000991690
        0.0004123719   0.0000493236  -0.0000726661  -0.0004412726  -0.0000428733
       -0.0000066265   0.0000784060   0.0000689157  -0.0000869103  -0.0004899273
        0.0002095320   0.0002399771   0.0004907998   0.0001293013  -0.0001351291
       -0.0003073361   0.0000977124  -0.0002003638   0.0000419146  -0.0001817503
        0.0001156301  -0.0001100332   0.0000283999  -0.0000600187   0.0000285280
        0.0000380219  -0.0000021565  -0.0001721526   0.0001198993  -0.0000796968
        0.0001696540  -0.0001737130   0.0000769342  -0.0001480886   0.0002451029
       -0.0000998608   0.0000474436  -0.0000927739   0.0001014272  -0.0000251277
       -0.0000107600  -0.0000456195  -0.0000118162  -0.0000191534  -0.0000359234
        0.0000127142  -0.0000045416  -0.0000264774   0.0000379233   0.0000223519
       -0.0000074806  -0.0000038606  -0.0000080799   0.0000001751  -0.0000324199
       -0.0000237226   0.0000292073  -0.0001044434  -0.0001151732   0.0000001123
        0.0002531327   0.0000339094  -0.0000463568   0.0000728757   0.0000013874
        0.0000044885  -0.0000229443   0.0000929210   0.0000065028   0.0000011170
        0.0000255280  -0.0000022514  -0.0000401982  -0.0000439663  -0.0000021845
       -0.0001051450  -0.0002153684  -0.0000078848  -0.0001260502   0.0000235190
        0.0000356807   0.0000802627   0.0002358133   0.0000187999  -0.0000359499
        0.0000355874  -0.0000111096   0.0000052929   0.0000116742  -0.0000052984
       -0.0000638990  -0.0000577585   0.0000067614   0.0000696162  -0.0000138887
        0.0000022019   0.0000905534  -0.0001675690  -0.0000366179   0.0000966298
        0.0002147085   0.0000548925  -0.0106246259   0.0095882364   0.0147515283
       -0.0250545676  -0.0644082246  -0.0162769160  -0.0909540124  -0.1051189379
       -0.0756580554   0.0010651269  -0.0001778486  -0.0013672748  -0.0032336513
        0.0038491272  -0.0050331513   0.0000061091  -0.0001034052  -0.0000719598
        0.0000020418  -0.0000371086   0.0000079150   0.0000110514  -0.0000091048
       -0.0000072500  -0.0000001925  -0.0000144235  -0.0000130191  -0.0000063897
       -0.0000192245   0.0000106235  -0.0000770694   0.0000074062  -0.0000199573
        0.0000231874   0.0000269857  -0.0000042574  -0.0000033262  -0.0000038911
        0.0000115546   0.0000005549   0.0000017745  -0.0000014810  -0.0000006551
        0.0000042532   0.0000096485   0.0000012518   0.0000030395   0.0000082935
        0.0000011100  -0.0000105471   0.0000012479   0.0000062824  -0.0000095097
       -0.0000108343   0.0000057278   0.0000063138  -0.0000001073   0.0000053701
       -0.0000083928   0.0000027123   0.0000042701  -0.0000042764  -0.0000010157
       -0.0000119668   0.0000085393  -0.0000065796   0.0000019570   0.0000014800
        0.0000115458  -0.0000081559   0.0000041152   0.0000013911   0.0000046452
        0.0000195107  -0.0000018586   0.0000056299   0.0000356567   0.0000004984
       -0.0000106540   0.0000006256  -0.0000126400   0.0000040489   0.0000108907
       -0.0000062429   0.0000017016   0.0000112126  -0.0000056863  -0.0000032727
        0.0000056664  -0.0000038420   0.0000012633   0.0000031192  -0.0000018273
        0.0000071009   0.0000067522  -0.0000001626  -0.0000114906   0.0000029751
        0.0000077939  -0.0000002813   0.0000080833   0.0000002963  -0.0000068678
       -0.0000056280   0.0000004757  -0.0034598032   0.0037850458  -0.0050418802
        0.0151523537  -0.0003566381  -0.0056851493
       -0.0334908860   0.2550850760   0.4695837389   0.0896347762  -0.1128154240
       -0.2232224299  -0.0497961442  -0.0361449642  -0.0376212590   0.0295522472
       -0.0051373390  -0.0227432589  -0.0021228934  -0.0017330212   0.0001377405
        0.0000516549   0.0000458009   0.0003574945  -0.0001244802  -0.0007924206
       -0.0002795234  -0.0000965268   0.0003974179   0.0004749134  -0.0001583565
       -0.0000595616  -0.0003985345   0.0000914099  -0.0001462979   0.0001160857
       -0.0000143375   0.0000708617   0.0000854382   0.0005910984   0.0013923472
       -0.0002623612   0.0003558014  -0.0009338130   0.0001046567  -0.0000686757
        0.0001237029   0.0001101349   0.0001803317  -0.0006007730   0.0000261410
       -0.0002653753   0.0005984934  -0.0000164978  -0.0000698329  -0.0002175677
        0.0000065608   0.0001987859  -0.0001023465   0.0000491367   0.0000220318
       -0.0000820416  -0.0000253909   0.0000087433   0.0000013460  -0.0000072221
       -0.0000007506   0.0000006267   0.0000006886  -0.0000053479  -0.0000025281
       -0.0000094287   0.0000020089  -0.0000024751  -0.0000084352  -0.0000054285
        0.0000016598  -0.0000040972  -0.0003035688  -0.0004652527   0.0001159368
        0.0005250883   0.0001043165  -0.0000915988  -0.0004443067  -0.0000777987
       -0.0000351192   0.0001896091   0.0001893108  -0.0000994490  -0.0007527812
        0.0001950586   0.0003125479   0.0007243250   0.0002436475  -0.0001870618
       -0.0004166507   0.0000014698  -0.0002307381   0.0000080837  -0.0000823545
        0.0001120709  -0.0000773024  -0.0000682881  -0.0000165976   0.0000866655
        0.0001484112  -0.0000118657  -0.0002673415   0.0001211783  -0.0001025680
        0.0002204170  -0.0001824231   0.0000883027  -0.0001902410   0.0002427106
       -0.0001055848   0.0000046742  -0.0001244591   0.0001323983   0.0000181764
        0.0000060761  -0.0000570224  -0.0000038830  -0.0000100807  -0.0000228042
        0.0000057374  -0.0000048891   0.0000192538   0.0000387158   0.0000256826
        0.0000092290   0.0000164196  -0.0000140959  -0.0000076536   0.0000061266
       -0.0000147587   0.0000158660  -0.0001057739  -0.0001361123   0.0000077006
        0.0002947371   0.0000508823  -0.0000521953   0.0000796494   0.0000008171
        0.0000202365  -0.0000076441   0.0001087849   0.0000140380  -0.0000153116
       -0.0000114928   0.0000057323  -0.0000694087  -0.0000136380  -0.0000002643
       -0.0001048169  -0.0002985658  -0.0000101360  -0.0001584253   0.0000721343
        0.0000414700   0.0000772606   0.0002379584   0.0000194858  -0.0000250437
        0.0000423265  -0.0000169693   0.0000029720  -0.0000157044  -0.0000077953
       -0.0000934130  -0.0000545302   0.0000119128   0.0000966200  -0.0000127041
       -0.0000086531   0.0000762815  -0.0001764794  -0.0000351067   0.0001002785
        0.0002113448   0.0000585449   0.0013332813   0.0234578582   0.0333883078
        0.0317380939  -0.0290269994  -0.0950385511  -0.0913998089  -0.0755257596
       -0.1128306900   0.0045738996  -0.0055337201  -0.0071221631  -0.0017656136
       -0.0049841904   0.0017829192  -0.0000347830  -0.0001872762  -0.0001509496
       -0.0000054665  -0.0000471448  -0.0000059525   0.0000299005   0.0000024830
       -0.0000301080  -0.0000017327  -0.0000105926  -0.0000194411   0.0000023894
       -0.0000166551   0.0000087089   0.0000181732   0.0000357003   0.0000449553
        0.0000233686   0.0000175591  -0.0000006529  -0.0000056839  -0.0000047360
        0.0000122089   0.0000024711  -0.0000021963  -0.0000073648   0.0000011145
        0.0000063292   0.0000021292   0.0000035131   0.0000066348   0.0000013791
        0.0000024622  -0.0000041038  -0.0000005424   0.0000095662  -0.0000086146
       -0.0000129069   0.0000007400   0.0000051330   0.0000057498   0.0000065756
       -0.0000063223   0.0000085880  -0.0000007537  -0.0000055635   0.0000110494
       -0.0000130560   0.0000032889   0.0000059397  -0.0000044830  -0.0000032751
        0.0000158159  -0.0000139998  -0.0000024018   0.0000115880  -0.0000107711
       -0.0000147907   0.0000194050   0.0000138860   0.0000175523  -0.0000143849
       -0.0000264144   0.0000001957   0.0000031242   0.0000002202   0.0000087480
       -0.0000000414  -0.0000005075   0.0000079931   0.0000013163  -0.0000043518
        0.0000011709   0.0000024029   0.0000008840  -0.0000017442   0.0000012715
        0.0000059998   0.0000027193   0.0000004514  -0.0000104068  -0.0000030994
        0.0000073573   0.0000010069   0.0000026762  -0.0000051669  -0.0000053860
       -0.0000089087  -0.0000067326  -0.0022112454  -0.0052018037   0.0015579833
        0.0237411390  -0.0021613852  -0.0079868371
       -0.1126959831   0.0531821727   0.0896347762   0.6604608986   0.0666910380
       -0.0508338117  -0.2043249982  -0.1142741090  -0.1141106616  -0.0537854497
       -0.0123906573  -0.0020684177  -0.0029684640   0.0016928783   0.0023677574
        0.0001505820  -0.0004752798  -0.0004541372  -0.0001314525   0.0007126050
       -0.0000993238   0.0000771663  -0.0003176634  -0.0002437169   0.0000394731
        0.0000959307   0.0001893798   0.0000366521  -0.0000559055  -0.0000355208
        0.0001277347   0.0001897954   0.0000379471  -0.0016917227  -0.0008498699
        0.0000332177  -0.0001020029  -0.0000171433  -0.0002129614   0.0000439340
       -0.0001070151  -0.0000933234  -0.0002709452   0.0001783512   0.0000058357
        0.0000084703  -0.0001123748   0.0000680626  -0.0002810401   0.0002400901
       -0.0000614399  -0.0001768612   0.0000720226  -0.0000078542   0.0000334945
       -0.0000643868   0.0000197580  -0.0000092774   0.0000225323   0.0000182009
       -0.0000061595  -0.0000081685  -0.0000125883  -0.0000051898  -0.0000169770
       -0.0000011490   0.0000092862   0.0000001112  -0.0000074641  -0.0000119796
        0.0000360753  -0.0000223828   0.0001546571  -0.0000042145  -0.0000170660
       -0.0000090721  -0.0000803492  -0.0000088902  -0.0001395153  -0.0001261105
        0.0000052711  -0.0000225970  -0.0000403128   0.0000042118   0.0000393961
        0.0001824029   0.0000521440  -0.0000643799  -0.0000540832  -0.0000461137
        0.0002191755  -0.0000519677   0.0000643702  -0.0001474768  -0.0000422473
       -0.0000284354   0.0000192155  -0.0000992130  -0.0000409224  -0.0000515143
       -0.0000118755  -0.0000154233   0.0001310350   0.0000293631   0.0000328425
       -0.0000416356   0.0001831021  -0.0000261718   0.0002927606  -0.0001469980
        0.0001455448  -0.0001615634   0.0002071225  -0.0001185940  -0.0000206435
       -0.0000164821   0.0000013536  -0.0000210026  -0.0000294011  -0.0000000489
       -0.0000061550  -0.0000141229  -0.0000259122   0.0000435797   0.0000194508
        0.0000039228  -0.0000145824  -0.0000093363   0.0000079775  -0.0000648664
       -0.0000236084   0.0000083480  -0.0000677285  -0.0000801395  -0.0000462347
        0.0000963020  -0.0001341891  -0.0000291514  -0.0000912951   0.0001657614
        0.0000267236   0.0001656496  -0.0000428786  -0.0000178852  -0.0000862321
       -0.0000309396   0.0000131813   0.0000219495  -0.0000659583  -0.0000010058
       -0.0000572302   0.0001508633  -0.0000030339   0.0000340997  -0.0000019368
        0.0000032162  -0.0001181181  -0.0001187243   0.0000324657   0.0000684473
        0.0000393968  -0.0000144280  -0.0000239124   0.0000215490   0.0000040240
        0.0001699128  -0.0000129051  -0.0000341959  -0.0002021547  -0.0001122168
        0.0000244589   0.0001815072   0.0000932573  -0.0000438276  -0.0000250954
        0.0001354559   0.0000332083   0.0000086895  -0.0067763835  -0.0106646874
       -0.0091565324   0.0185714633   0.0279179412   0.0046648669  -0.0109112139
       -0.0159764057  -0.2806401693   0.0020964611   0.0683209097   0.0051399483
        0.0032772685   0.0037976441  -0.0000755072  -0.0001472204   0.0001081801
        0.0000220275   0.0000409245  -0.0000222388  -0.0000010726   0.0000313414
        0.0000419438   0.0000062867   0.0000096561   0.0000494666   0.0000246319
       -0.0000224743   0.0000635806  -0.0002113182  -0.0000269626  -0.0000153970
        0.0000263129   0.0001027244  -0.0000401824   0.0000080120  -0.0000154573
        0.0000054047   0.0000036826   0.0000033453   0.0000035986   0.0000037944
        0.0000039202  -0.0000019360   0.0000012992   0.0000044726   0.0000051533
       -0.0000053008  -0.0000170319   0.0000076485   0.0000016086   0.0000022635
        0.0000096017   0.0000082997   0.0000146999   0.0000038044   0.0000081970
       -0.0000137324   0.0000304369   0.0000078323   0.0000007731   0.0000092728
       -0.0000311632  -0.0000148580   0.0000003816   0.0000090065   0.0000090496
       -0.0000045524   0.0000038023   0.0000021415   0.0000086269   0.0000042135
        0.0000137966  -0.0000083759  -0.0000003659  -0.0000119390  -0.0000006458
        0.0000318334  -0.0000050916   0.0000111790  -0.0000082971  -0.0000092221
        0.0000081300   0.0000023057  -0.0000015994   0.0000024197   0.0000269492
       -0.0000234758  -0.0000077406   0.0000033104   0.0000151521   0.0000014830
        0.0000159280  -0.0000082133  -0.0000046869   0.0000126163  -0.0000012724
       -0.0000143563   0.0000165557   0.0000352959   0.0000017336  -0.0000167568
        0.0000178016   0.0000095613   0.0007232473  -0.0000615408  -0.0004370921
       -0.0053658572  -0.0004864294   0.0027240878
        0.0071104840  -0.1283704132  -0.1128154240   0.0666910380   0.3080424609
        0.2468800060  -0.0684031346  -0.1280018573  -0.0948940335  -0.0449822265
        0.0047278621   0.0219905911   0.0035552187   0.0082862013  -0.0006919666
        0.0009048097  -0.0006092362  -0.0008874889  -0.0001183557   0.0007104571
        0.0001698813   0.0000530915  -0.0003703635  -0.0002491350   0.0000392524
        0.0001955509   0.0002424279  -0.0000207560  -0.0001657474  -0.0000978390
        0.0000104046   0.0002972913   0.0003000859  -0.0006839876  -0.0015351072
       -0.0003488665  -0.0006521407   0.0011347140  -0.0001417486   0.0005050726
       -0.0002044254  -0.0000281226  -0.0004377932   0.0007263377  -0.0000483571
        0.0006527933  -0.0009147661   0.0001873736  -0.0004291718   0.0001185102
       -0.0000290830  -0.0001692272   0.0000173606  -0.0000648734   0.0000194941
        0.0000295026   0.0000149528   0.0000122223   0.0000044382  -0.0000085148
       -0.0000050845  -0.0000097124  -0.0000255156  -0.0000023529  -0.0000111831
       -0.0000007622   0.0000160494   0.0000081702  -0.0000110748   0.0000034680
        0.0000099292   0.0000028726   0.0000145553   0.0005170265  -0.0000692730
       -0.0004002283   0.0000047468   0.0000819999   0.0003891936   0.0000618535
        0.0000271954  -0.0001654669  -0.0001470345   0.0001050104   0.0006970084
       -0.0001012563  -0.0003251309  -0.0007405932  -0.0003349899   0.0001902254
        0.0005305998  -0.0001192065   0.0002438661   0.0000820620   0.0002468268
       -0.0001730366   0.0001492263   0.0000292953   0.0000785873  -0.0000009367
       -0.0000323813   0.0000151911   0.0001100055  -0.0001576432   0.0000712095
       -0.0001863129   0.0000506243  -0.0000656888  -0.0001492769  -0.0001303303
       -0.0000149141   0.0001309487   0.0002040730  -0.0000618177  -0.0000642993
       -0.0000290613   0.0000421415  -0.0000107823  -0.0000135397   0.0000631410
       -0.0000296495  -0.0000146424   0.0000175341   0.0000110922   0.0000127337
       -0.0000132040  -0.0000283253   0.0000058979   0.0000017520   0.0000300209
        0.0000048376  -0.0000603358   0.0000185997   0.0000391070  -0.0000284265
       -0.0001859584  -0.0001507331   0.0000227132  -0.0001522883   0.0000640731
        0.0000113849   0.0000877590  -0.0001505819  -0.0000217393  -0.0000257802
       -0.0000292236   0.0000111579   0.0000856633   0.0000178599  -0.0000001563
        0.0000979164   0.0003648330   0.0000113089   0.0002223642  -0.0000609694
       -0.0000302888  -0.0001441094  -0.0003221837  -0.0000061641   0.0000731012
       -0.0000541774   0.0000006394   0.0000155446  -0.0000018720  -0.0000032383
        0.0001737983   0.0000897881  -0.0000237925  -0.0002018011  -0.0000252485
        0.0000171757   0.0000499362   0.0002453110  -0.0000126551  -0.0001568805
       -0.0001487220  -0.0000272331  -0.0092977154  -0.0233451269  -0.0239072458
        0.0515838424   0.0098065595  -0.0025882817   0.0031971654  -0.0092348646
       -0.0138436206   0.0018296363  -0.0376347332  -0.0054469748  -0.0101738826
       -0.0089418836  -0.0108258325  -0.0001226777  -0.0000681284   0.0000641563
       -0.0000209225   0.0000635574  -0.0000453288  -0.0000098301   0.0000442557
        0.0000288216   0.0000127669   0.0000292733   0.0000596766   0.0000410863
       -0.0000111796   0.0000056797  -0.0000753875   0.0000153719  -0.0000753600
       -0.0000188885   0.0000688586   0.0000066297  -0.0000022550  -0.0000120301
       -0.0000011596  -0.0000022757  -0.0000078074   0.0000120212   0.0000001783
       -0.0000053830  -0.0000121794  -0.0000028671  -0.0000056423  -0.0000078010
       -0.0000157636  -0.0000063463   0.0000037998  -0.0000131819  -0.0000267864
        0.0000079980  -0.0000110648   0.0000066583  -0.0000044506  -0.0000095268
        0.0000039823   0.0000020124   0.0000021283   0.0000406279   0.0000157702
       -0.0000046783   0.0000039241   0.0000167583  -0.0000078486   0.0000098170
       -0.0000048487   0.0000026516   0.0000171090   0.0000012044  -0.0000103153
        0.0000173641   0.0000210538   0.0000241536   0.0000026553   0.0000077409
        0.0000009450  -0.0000029963   0.0000151145   0.0000157597  -0.0000039018
        0.0000110688   0.0000038415   0.0000199725   0.0000127269   0.0000094566
       -0.0000093955  -0.0000016456  -0.0000203749   0.0000097211   0.0000033880
        0.0000029447   0.0000085688  -0.0000026177  -0.0000098941   0.0000030921
       -0.0000235942  -0.0000011929   0.0000233260  -0.0000001738  -0.0000057538
        0.0000066987   0.0000064098  -0.0000369750  -0.0003615382  -0.0001214554
       -0.0008491591   0.0054252849  -0.0029099852
        0.0257132780  -0.1251740475  -0.2232224299  -0.0508338117   0.2468800060
        0.4673308583  -0.0510636406  -0.0846811515  -0.1461797778  -0.0478253988
        0.0127485328   0.0313834359   0.0058183782  -0.0004380099   0.0017200824
       -0.0004677745  -0.0003437653  -0.0003815428   0.0002611595   0.0012848976
        0.0000877310   0.0001616982  -0.0004883173  -0.0004555944   0.0001910719
        0.0001425491   0.0005715353  -0.0001457508   0.0001876930  -0.0002056152
       -0.0000435148  -0.0000035189  -0.0000524047   0.0004592284  -0.0016589240
        0.0009921349  -0.0008498116   0.0019953876  -0.0001209329   0.0009030232
       -0.0003357235  -0.0000613728  -0.0007635520   0.0010697143  -0.0000917885
        0.0011448178  -0.0013711016   0.0001746583  -0.0006660751  -0.0000228854
       -0.0000823993  -0.0002218085  -0.0000535568  -0.0000941250   0.0000147903
        0.0000710947   0.0000094949   0.0000205569  -0.0000072986  -0.0000076516
       -0.0000013414  -0.0000080000  -0.0000209984   0.0000000396  -0.0000112114
        0.0000145259   0.0000218019   0.0000125742  -0.0000027682   0.0000074626
       -0.0000044546   0.0000195509  -0.0000423311   0.0007991516  -0.0000896832
       -0.0005862906   0.0000486977   0.0001361462   0.0006264505   0.0001259601
        0.0000222829  -0.0002353199  -0.0002112763   0.0001636006   0.0010477855
       -0.0001632750  -0.0004913260  -0.0011010486  -0.0005229658   0.0003129539
        0.0007913033  -0.0002341376   0.0003437458   0.0001365492   0.0004695256
       -0.0002764057   0.0002599376  -0.0000014674   0.0001514206   0.0000382456
        0.0000047661   0.0000051592   0.0001100964  -0.0002704204   0.0000832914
       -0.0002772120   0.0000497812  -0.0001133697  -0.0003062921  -0.0001967315
       -0.0000573949   0.0002096104   0.0002863158  -0.0000553088  -0.0000558673
       -0.0000456217   0.0000363510  -0.0000004727  -0.0000105129   0.0000947567
       -0.0000378134  -0.0000240912   0.0000290051   0.0000093104   0.0000042082
       -0.0000381281  -0.0000281475  -0.0000083503  -0.0000369661   0.0000634926
        0.0000112659  -0.0001085389   0.0000304869   0.0000506765  -0.0000312322
       -0.0002987534  -0.0002331136   0.0000290612  -0.0002416613   0.0000888063
        0.0000132408   0.0001290569  -0.0002446694  -0.0000413301  -0.0000243432
       -0.0000519597   0.0000079837   0.0001412355   0.0000488681  -0.0000047108
        0.0001633786   0.0005649526   0.0000176440   0.0003639510  -0.0000869761
       -0.0000508021  -0.0002286896  -0.0005170914  -0.0000115230   0.0001160632
       -0.0000942439  -0.0000006715   0.0000276512  -0.0000065817   0.0000052601
        0.0002543004   0.0001462405  -0.0000214573  -0.0002941996  -0.0000180159
        0.0000338686   0.0000577932   0.0003856686   0.0000065429  -0.0002492054
       -0.0002618038  -0.0000395734  -0.0141788997  -0.0246772387  -0.0353076624
        0.0742754052   0.0070301504  -0.0090232656   0.0032260195  -0.0103768058
       -0.0142757509   0.0681209570  -0.0048066144  -0.0602778245  -0.0154453280
       -0.0139909692  -0.0153083387  -0.0001349320   0.0000687465   0.0002254562
       -0.0000031147   0.0000452422  -0.0000462158  -0.0000295357   0.0000305449
        0.0000598789   0.0000189630   0.0000185794   0.0000796362   0.0000630307
       -0.0000180090   0.0000276864  -0.0001304550  -0.0000025714  -0.0000917792
       -0.0000531192   0.0000538732   0.0000523650  -0.0000062454  -0.0000073551
        0.0000062055  -0.0000036138  -0.0000109326   0.0000336837   0.0000000751
       -0.0000108089  -0.0000018082  -0.0000040080  -0.0000153578   0.0000006702
       -0.0000187381  -0.0000092796   0.0000152783  -0.0000203533  -0.0000412991
        0.0000204319  -0.0000214439  -0.0000007639  -0.0000130661  -0.0000140281
        0.0000051653  -0.0000176837  -0.0000045684   0.0000538205   0.0000060843
        0.0000009717   0.0000015938   0.0000121433  -0.0000091268   0.0000027449
       -0.0000068994   0.0000045081   0.0000102141  -0.0000014556  -0.0000100879
        0.0000103758   0.0000211899   0.0000402533   0.0000238165   0.0000102639
       -0.0000128412  -0.0000007567   0.0000155447   0.0000205800  -0.0000067718
        0.0000047550   0.0000020481   0.0000296359   0.0000063883   0.0000080565
       -0.0000089326  -0.0000102354  -0.0000322332   0.0000100095   0.0000035289
       -0.0000025141   0.0000145189  -0.0000006996  -0.0000118656   0.0000043657
       -0.0000222991  -0.0000049685   0.0000234675   0.0000115744  -0.0000027441
        0.0000067125   0.0000192907  -0.0003132531  -0.0001310715  -0.0002940040
        0.0022832721  -0.0030001015   0.0027184333
        0.0468716184  -0.0277076450  -0.0497961442  -0.2043249982  -0.0684031346
       -0.0510636406   0.6233188879   0.0730119404  -0.0353621944  -0.2698018883
       -0.0063392713   0.0418582942  -0.0457205065  -0.0173361803  -0.0108043694
       -0.0022518763   0.0027675198   0.0031248318  -0.0001875292  -0.0017002280
       -0.0003956856  -0.0002513702   0.0008527622   0.0005145432  -0.0000098751
       -0.0003648257  -0.0003241647  -0.0000286916   0.0004477976   0.0004581895
        0.0001997269  -0.0001255949   0.0000760414  -0.0002368259  -0.0010550572
       -0.0014516267   0.0020471788  -0.0033991912   0.0006194471  -0.0018593800
        0.0009568905   0.0001578780   0.0015434743  -0.0015808722   0.0000884075
       -0.0021432708   0.0020942975  -0.0004395481   0.0003873148   0.0005423917
       -0.0001423616  -0.0001103720   0.0002409042   0.0001842869  -0.0000066810
       -0.0001355034  -0.0000140341  -0.0000514473   0.0000134566   0.0000241964
       -0.0000007038   0.0000199393   0.0000259177  -0.0000069039   0.0000369580
       -0.0000208774  -0.0000507304  -0.0000193896   0.0000245487  -0.0000277816
        0.0000167196  -0.0000488153   0.0006791777  -0.0011980127   0.0000714320
        0.0005268335  -0.0002416247  -0.0001797792  -0.0008357246  -0.0003240293
       -0.0000455080   0.0001913098   0.0002819726  -0.0002410266  -0.0012585489
        0.0002973111   0.0007398521   0.0013362499   0.0008146760  -0.0003652248
       -0.0011988850   0.0006211742  -0.0006296843  -0.0002273135  -0.0009511796
        0.0004768407  -0.0004971328   0.0002364933  -0.0003085456  -0.0002353301
       -0.0003102613   0.0000117731   0.0001416846   0.0004372821  -0.0000368832
        0.0002815684   0.0000450665   0.0000993450   0.0006229616   0.0002903795
        0.0001319642  -0.0003497141  -0.0008637530   0.0000761552   0.0001248571