      -----------------------------------------------------------      
     |                   =====================                   |     
     |                           x T B                           |     
     |                   =====================                   |     
     |                         S. Grimme                         |     
     |          Mulliken Center for Theoretical Chemistry        |     
     |                    University of Bonn                     |     
      -----------------------------------------------------------      

   * xtb version 6.7.1 (edcfbbe) compiled by 'albert@albert-system' on 2024-07-22

   xtb is free software: you can redistribute it and/or modify it under
   the terms of the GNU Lesser General Public License as published by
   the Free Software Foundation, either version 3 of the License, or
   (at your option) any later version.
   
   xtb is distributed in the hope that it will be useful,
   but WITHOUT ANY WARRANTY; without even the implied warranty of
   MERCHANTABILITY or FITNESS FOR A PARTICULAR PURPOSE.  See the
   GNU Lesser General Public License for more details.
   
   Cite this work as:
   * C. Bannwarth, E. Caldeweyher, S. Ehlert, A. Hansen, P. Pracht,
     J. Seibert, S. Spicher, S. Grimme, WIREs Comput. Mol. Sci., 2020, 11,
     e01493. DOI: 10.1002/wcms.1493
   
   for GFN2-xTB:
   * C. Bannwarth, S. Ehlert and S. Grimme., J. Chem. Theory Comput., 2019,
     15, 1652-1671. DOI: 10.1021/acs.jctc.8b01176
   for GFN1-xTB:
   * S. Grimme, C. Bannwarth, P. Shushkov, J. Chem. Theory Comput., 2017,
     13, 1989-2009. DOI: 10.1021/acs.jctc.7b00118
   for GFN0-xTB:
   * P. Pracht, E. Caldeweyher, S. Ehlert, S. Grimme, ChemRxiv, 2019, preprint.
     DOI: 10.26434/chemrxiv.8326202.v1
   for GFN-FF:
   * S. Spicher and S. Grimme, Angew. Chem. Int. Ed., 2020, 59, 15665-15673.
     DOI: 10.1002/anie.202004239
   
   for ALPB and GBSA implicit solvation:
   * S. Ehlert, M. Stahn, S. Spicher, S. Grimme, J. Chem. Theory Comput.,
     2021, 17, 4250-4261. DOI: 10.1021/acs.jctc.1c00471
   
   for ddCOSMO and CPCM-X implicit solvation:
   * M. Stahn, S. Ehlert, S. Grimme, J. Phys. Chem. A,
     2023, XX, XXXX-XXXX. DOI: 10.1021/acs.jpca.3c04382
   
   for DFT-D4:
   * E. Caldeweyher, C. Bannwarth and S. Grimme, J. Chem. Phys., 2017,
     147, 034112. DOI: 10.1063/1.4993215
   * E. Caldeweyher, S. Ehlert, A. Hansen, H. Neugebauer, S. Spicher,
     C. Bannwarth and S. Grimme, J. Chem. Phys., 2019, 150, 154122.
     DOI: 10.1063/1.5090222
   * E. Caldeweyher, J.-M. Mewes, S. Ehlert and S. Grimme, Phys. Chem. Chem. Phys.
     2020, 22, 8499-8512. DOI: 10.1039/D0CP00502A
   
   for sTDA-xTB:
   * S. Grimme and C. Bannwarth, J. Chem. Phys., 2016, 145, 054103.
     DOI: 10.1063/1.4959605
   
   in the mass-spec context:
   * V. Asgeirsson, C. Bauer and S. Grimme, Chem. Sci., 2017, 8, 4879.
     DOI: 10.1039/c7sc00601b
   * J. Koopman and S. Grimme, ACS Omega 2019, 4, 12, 15120-15133.
     DOI: 10.1021/acsomega.9b02011
   
   for metadynamics refer to:
   * S. Grimme, J. Chem. Theory Comput., 2019, 155, 2847-2862
     DOI: 10.1021/acs.jctc.9b00143
   
   for SPH calculations refer to:
   * S. Spicher and S. Grimme, J. Chem. Theory Comput., 2021, 17, 1701-1714
     DOI: 10.1021/acs.jctc.0c01306
   
   for ONIOM refer to:
   * C. Plett, A. Katbashev, S. Ehlert, S. Grimme, M. Bursch,
     Phys. Chem. Chem. Phys., 2023, 25, 17860-17868. DOI: 10.1039/D3CP02178E
   
   for DIPRO refer to:
   * J. Kohn, N. Gildemeister, S. Grimme, D. Fazzi, A. Hansen,
     J. Chem. Phys., 2023, just accepted.
   
   for PTB refer to:
   * S. Grimme, M. Mueller, A. Hansen, J. Chem. Phys., 2023, 158, 124111.
     DOI: 10.1063/5.0137838
   
   with help from (in alphabetical order)
   P. Atkinson, C. Bannwarth, F. Bohle, G. Brandenburg, E. Caldeweyher
   M. Checinski, S. Dohm, S. Ehlert, S. Ehrlich, I. Gerasimov, C. Hölzer
   A. Katbashev, J. Kohn, J. Koopman, C. Lavigne, S. Lehtola, F. März, M. Müller,
   F. Musil, H. Neugebauer, J. Pisarek, C. Plett, P. Pracht, F. Pultar,
   J. Seibert, P. Shushkov, S. Spicher, M. Stahn, M. Steiner, T. Strunk,
   J. Stückrath, T. Rose, and J. Unsleber
   
 * started run on 2025/09/07 at 18:49:32.676     
   ID    Z sym.   atoms
    1    6 C      1-20, 22-24, 26-46, 48-61, 63, 65-76
    2    7 N      21, 25, 47, 62, 64
    3    1 H      77-141

           -------------------------------------------------
          |                Calculation Setup                |
           -------------------------------------------------

          program call               : xtb data2507/gas/2tCz2CzBn/2tCz2CzBn_gas_S0_finalOpt.xtbopt.xyz --gfn 2 --spinpol --tblite --uhf 2 --ohess vtight --parallel 40 --molden --ceasefiles --namespace data2507/gas/2tCz2CzBn/2tCz2CzBn_gas_T1_preOpt
          calculation namespace      : data2507/gas/2tCz2CzBn/2tCz2CzBn_gas_T1_preOpt
          coordinate file            : data2507/gas/2tCz2CzBn/2tCz2CzBn_gas_S0_finalOpt.xtbopt.xyz
          omp threads                :                    40

repulsion energy          3.6093132961303E+00 Eh
dispersion energy         8.3307114695748E-03 Eh
interaction energy        0.0000000000000E+00 Eh
number of electrons       3.7400000000000E+02 e
integral cutoff           1.7347787504999E+01 bohr

------------------------------------------------------------
  cycle        total energy    energy error   density error
------------------------------------------------------------
      1     -199.6766409534  -2.0329428E+02   8.5302377E-02
      2     -199.6964944504  -1.9853497E-02   5.4431099E-02
      3     -199.3399702796   3.5652417E-01   3.9408997E-02
      4     -199.6234743230  -2.8350404E-01   2.5867359E-02
      5     -199.8990763186  -2.7560200E-01   1.3067265E-02
      6     -199.8833098244   1.5766494E-02   1.1562211E-02
      7     -199.9114478910  -2.8138067E-02   9.2103679E-03
      8     -199.9136256447  -2.1777537E-03   6.5165372E-03
      9     -199.9147807097  -1.1550650E-03   4.6035988E-03
     10     -199.9125824457   2.1982641E-03   4.7191089E-03
     11     -199.9197852869  -7.2028412E-03   3.4308163E-03
     12     -199.9215467090  -1.7614221E-03   2.3264964E-03
     13     -199.9219173265  -3.7061752E-04   1.7757219E-03
     14     -199.9224017292  -4.8440264E-04   8.6481793E-04
     15     -199.9224555501  -5.3820964E-05   6.4839633E-04
     16     -199.9225219400  -6.6389896E-05   3.3849063E-04
     17     -199.9225428154  -2.0875400E-05   1.3821082E-04
     18     -199.9225462130  -3.3975558E-06   6.6175232E-05
     19     -199.9225471430  -9.3002191E-07   2.7329347E-05
     20     -199.9225471485  -5.5076441E-09   1.9891677E-05
------------------------------------------------------------

electronic energy        -2.0354019115612E+02 Eh
total energy             -1.9992254714852E+02 Eh

 total:                                   0.759 sec
 - repulsion                              0.000 sec (  0%)
 - dispersion                             0.025 sec (  3%)
 - coulomb                                0.015 sec (  2%)
 - hamiltonian                            0.030 sec (  3%)
 - scc                                    0.687 sec ( 90%)

      ----------------------------------------------------------- 
     |                   =====================                   |
     |                        A N C O P T                        |
     |                   =====================                   |
     |               Approximate Normal Coordinate               |
     |                Rational Function Optimizer                |
      ----------------------------------------------------------- 

Optimization log is written to '/dev/null'
      ----------------------------------------------------------- 
     |                   =====================                   |
     |                        A N C O P T                        |
     |                   =====================                   |
     |               Approximate Normal Coordinate               |
     |                Rational Function Optimizer                |
      ----------------------------------------------------------- 

          ...................................................
          :                      SETUP                      :
          :.................................................:
          :   optimization level         verytight          :
          :   max. optcycles                  2820          :
          :   ANC micro-cycles                  20          :
          :   degrees of freedom               417          :
          :.................................................:
          :   RF solver                   davidson          :
          :   write xtbopt.log                true          :
          :   linear?                        false          :
          :   energy convergence         0.1000000E-06 Eh   :
          :   grad. convergence          0.2000000E-03 Eh/α :
          :   maxmium RF displ.          1.0000000          :
          :   Hlow (freq-cutoff)         0.1000000E-01      :
          :   Hmax (freq-cutoff)         5.0000000          :
          :   S6 in model hess.         20.0000000          :
          ...................................................

generating ANC from exact Hessian ...
Using Lindh-Hessian (1995)
 Shifting diagonal of input Hessian by   1.005410661864534E-002
 Lowest  eigenvalues of input Hessian
    0.010000    0.000000    0.000000    0.000000    0.000000    0.000000
    0.000000    0.010104    0.010163    0.010191    0.010291    0.010431
    0.010453    0.010487    0.010501    0.010527    0.010587    0.010678
 Highest eigenvalues
    2.173521    2.186723    2.188404    2.211145    2.263733    2.628439
 

........................................................................
.............................. CYCLE    1 ..............................
........................................................................
------------------------------------------------------------
  cycle        total energy    energy error   density error
------------------------------------------------------------
      1     -199.9225387495  -2.0354018E+02   1.6277196E-04
      2     -199.9224274320   1.1131749E-04   6.2724358E-04
      3     -199.9225469120  -1.1948003E-04   2.5971944E-05
      4     -199.9225470564  -1.4443086E-07   1.5296564E-05
------------------------------------------------------------

 total:                                   0.212 sec
 * total energy  :  -199.9225471 Eh     change        0.9209052E-07 Eh
   gradient norm :     0.0780423 Eh/α   predicted     0.0000000E+00 (-100.00%)
   displ. norm   :     0.1135795 α      lambda       -0.3920524E-02
   maximum displ.:     0.0404791 α      in ANC's #168, #136, #78, ...

........................................................................
.............................. CYCLE    2 ..............................
........................................................................
------------------------------------------------------------
  cycle        total energy    energy error   density error
------------------------------------------------------------
      1     -199.9227430263  -2.0352016E+02   4.1057400E-03
      2     -199.8713374793   5.1405547E-02   1.2070985E-02
      3     -199.9207999257  -4.9462446E-02   3.8353562E-03
      4     -199.9232465650  -2.4466393E-03   3.2181750E-03
      5     -199.9238409560  -5.9439108E-04   2.6057246E-03
      6     -199.9245467311  -7.0577509E-04   1.9989593E-03
      7     -199.9250113810  -4.6464983E-04   1.5411369E-03
      8     -199.9251884036  -1.7702258E-04   1.2545039E-03
      9     -199.9253984058  -2.1000228E-04   7.5449793E-04
     10     -199.9255004095  -1.0200365E-04   2.9442306E-04
     11     -199.9255188445  -1.8435013E-05   8.5596212E-05
     12     -199.9255184621   3.8241427E-07   7.2743471E-05
     13     -199.9255202496  -1.7875009E-06   2.8455491E-05
     14     -199.9255204186  -1.6898753E-07   7.9398367E-06
------------------------------------------------------------

 total:                                   0.535 sec
 * total energy  :  -199.9255204 Eh     change       -0.2973362E-02 Eh
   gradient norm :     0.0459957 Eh/α   predicted    -0.1985716E-02 ( -33.22%)
   displ. norm   :     0.1546116 α      lambda       -0.3482331E-02
   maximum displ.:     0.0512403 α      in ANC's #136, #168, #146, ...

........................................................................
.............................. CYCLE    3 ..............................
........................................................................
------------------------------------------------------------
  cycle        total energy    energy error   density error
------------------------------------------------------------
      1     -199.9264317251  -2.0351622E+02   2.7624357E-03
      2     -199.9255200991   9.1162600E-04   2.6813883E-03
      3     -199.9269413707  -1.4212716E-03   1.5420364E-03
      4     -199.9266066668   3.3470391E-04   1.3120057E-03
      5     -199.9271433226  -5.3665579E-04   5.8134164E-04
      6     -199.9272434770  -1.0015441E-04   4.1351806E-04
      7     -199.9272877288  -4.4251776E-05   2.8205509E-04
      8     -199.9272895016  -1.7728493E-06   2.2881410E-04
      9     -199.9273013701  -1.1868498E-05   8.7310896E-05
     10     -199.9273031821  -1.8119298E-06   4.6129823E-05
     11     -199.9273036698  -4.8772435E-07   2.2305239E-05
     12     -199.9273037039  -3.4105938E-08   1.1909741E-05
------------------------------------------------------------

 total:                                   0.469 sec
 * total energy  :  -199.9273037 Eh     change       -0.1783285E-02 Eh
   gradient norm :     0.0161277 Eh/α   predicted    -0.1782891E-02 (  -0.02%)
   displ. norm   :     0.0405609 α      lambda       -0.1943813E-03
   maximum displ.:     0.0136903 α      in ANC's #33, #71, #18, ...

........................................................................
.............................. CYCLE    4 ..............................
........................................................................
------------------------------------------------------------
  cycle        total energy    energy error   density error
------------------------------------------------------------
      1     -199.9274521361  -2.0352119E+02   3.5112552E-04
      2     -199.9274483763   3.7597473E-06   2.4371774E-04
      3     -199.9274256992   2.2677159E-05   3.6844134E-04
      4     -199.9274522277  -2.6528583E-05   1.6230846E-04
      5     -199.9274576102  -5.3824716E-06   4.2150322E-05
      6     -199.9274579333  -3.2304587E-07   2.7575804E-05
      7     -199.9274582198  -2.8655080E-07   1.2349124E-05
------------------------------------------------------------

 total:                                   0.276 sec
 * total energy  :  -199.9274582 Eh     change       -0.1545159E-03 Eh
   gradient norm :     0.0083928 Eh/α   predicted    -0.9899175E-04 ( -35.93%)
   displ. norm   :     0.0802370 α      lambda       -0.1939457E-03
   maximum displ.:     0.0301014 α      in ANC's #33, #18, #71, ...

........................................................................
.............................. CYCLE    5 ..............................
........................................................................
------------------------------------------------------------
  cycle        total energy    energy error   density error
------------------------------------------------------------
      1     -199.9275467691  -2.0352515E+02   6.9711387E-04
      2     -199.9275292624   1.7506725E-05   4.1110449E-04
      3     -199.9274575195   7.1742893E-05   5.4452093E-04
      4     -199.9275281618  -7.0642272E-05   3.5742005E-04
      5     -199.9275647372  -3.6575474E-05   1.4947100E-04
      6     -199.9275690471  -4.3098713E-06   7.2575615E-05
      7     -199.9275703621  -1.3149682E-06   3.7610467E-05
      8     -199.9275707358  -3.7374596E-07   1.9940653E-05
------------------------------------------------------------

 total:                                   0.323 sec
 * total energy  :  -199.9275707 Eh     change       -0.1125160E-03 Eh
   gradient norm :     0.0038154 Eh/α   predicted    -0.9761953E-04 ( -13.24%)
   displ. norm   :     0.0407339 α      lambda       -0.3444529E-04
   maximum displ.:     0.0146552 α      in ANC's #18, #20, #7, ...

........................................................................
.............................. CYCLE    6 ..............................
........................................................................
------------------------------------------------------------
  cycle        total energy    energy error   density error
------------------------------------------------------------
      1     -199.9275925674  -2.0352500E+02   3.2428242E-04
      2     -199.9275799179   1.2649461E-05   2.3295362E-04
      3     -199.9275710444   8.8735207E-06   2.6422353E-04
      4     -199.9275907559  -1.9711452E-05   1.3529521E-04
      5     -199.9275978288  -7.0729384E-06   3.7379403E-05
      6     -199.9275983071  -4.7830866E-07   1.3136072E-05
------------------------------------------------------------

 total:                                   0.286 sec
 * total energy  :  -199.9275983 Eh     change       -0.2757130E-04 Eh
   gradient norm :     0.0039135 Eh/α   predicted    -0.1725647E-04 ( -37.41%)
   displ. norm   :     0.0841102 α      lambda       -0.5667505E-04
   maximum displ.:     0.0326204 α      in ANC's #18, #7, #20, ...

........................................................................
.............................. CYCLE    7 ..............................
........................................................................
------------------------------------------------------------
  cycle        total energy    energy error   density error
------------------------------------------------------------
      1     -199.9276201658  -2.0352371E+02   6.2225954E-04
      2     -199.9276129603   7.2055456E-06   3.5802756E-04
      3     -199.9275623949   5.0565349E-05   5.3187279E-04
      4     -199.9276030675  -4.0672570E-05   3.4383548E-04
      5     -199.9276308963  -2.7828797E-05   6.2743247E-05
      6     -199.9276321381  -1.2418117E-06   2.6857493E-05
      7     -199.9276322102  -7.2031384E-08   2.0160044E-05
      8     -199.9276322288  -1.8596523E-08   1.6773455E-05
------------------------------------------------------------

 total:                                   0.318 sec
 * total energy  :  -199.9276322 Eh     change       -0.3392162E-04 Eh
   gradient norm :     0.0025136 Eh/α   predicted    -0.2854196E-04 ( -15.86%)
   displ. norm   :     0.0341274 α      lambda       -0.1208611E-04
   maximum displ.:     0.0138275 α      in ANC's #7, #18, #15, ...

........................................................................
.............................. CYCLE    8 ..............................
........................................................................
------------------------------------------------------------
  cycle        total energy    energy error   density error
------------------------------------------------------------
      1     -199.9276325944  -2.0352329E+02   2.3100143E-04
      2     -199.9275919355   4.0658879E-05   3.0192394E-04
      3     -199.9276326978  -4.0762295E-05   1.4432653E-04
      4     -199.9276357637  -3.0658407E-06   1.1096136E-04
      5     -199.9276404381  -4.6744207E-06   3.4255462E-05
      6     -199.9276406574  -2.1931291E-07   1.5967084E-05
------------------------------------------------------------

 total:                                   0.241 sec
 * total energy  :  -199.9276407 Eh     change       -0.8428640E-05 Eh
   gradient norm :     0.0012702 Eh/α   predicted    -0.6056741E-05 ( -28.14%)
   displ. norm   :     0.0537527 α      lambda       -0.7934075E-05
   maximum displ.:     0.0227157 α      in ANC's #7, #15, #18, ...

........................................................................
.............................. CYCLE    9 ..............................
........................................................................
------------------------------------------------------------
  cycle        total energy    energy error   density error
------------------------------------------------------------
      1     -199.9276421545  -2.0352338E+02   2.6013957E-04
      2     -199.9276160944   2.6060111E-05   3.4996526E-04
      3     -199.9276401443  -2.4049888E-05   1.9156472E-04
      4     -199.9276375197   2.6246086E-06   1.4540039E-04
      5     -199.9276462012  -8.6814952E-06   2.8209037E-05
      6     -199.9276465035  -3.0228352E-07   1.7377462E-05
------------------------------------------------------------

 total:                                   0.249 sec
 * total energy  :  -199.9276465 Eh     change       -0.5846063E-05 Eh
   gradient norm :     0.0013085 Eh/α   predicted    -0.3980632E-05 ( -31.91%)
   displ. norm   :     0.0227180 α      lambda       -0.2998698E-05
   maximum displ.:     0.0097058 α      in ANC's #7, #15, #33, ...

........................................................................
.............................. CYCLE   10 ..............................
........................................................................
------------------------------------------------------------
  cycle        total energy    energy error   density error
------------------------------------------------------------
      1     -199.9276411933  -2.0352376E+02   1.4871605E-04
      2     -199.9275889595   5.2233776E-05   3.3394597E-04
      3     -199.9276495287  -6.0569208E-05   5.8579270E-05
      4     -199.9276482162   1.3124697E-06   8.1120788E-05
      5     -199.9276497498  -1.5335397E-06   2.9082720E-05
      6     -199.9276500454  -2.9558328E-07   6.9318921E-06
------------------------------------------------------------

 total:                                   0.259 sec
 * total energy  :  -199.9276500 Eh     change       -0.3541904E-05 Eh
   gradient norm :     0.0009413 Eh/α   predicted    -0.1506414E-05 ( -57.47%)
   displ. norm   :     0.0623294 α      lambda       -0.5296203E-05
   maximum displ.:     0.0280544 α      in ANC's #7, #15, #9, ...

........................................................................
.............................. CYCLE   11 ..............................
........................................................................
------------------------------------------------------------
  cycle        total energy    energy error   density error
------------------------------------------------------------
      1     -199.9276545940  -2.0352421E+02   1.8142907E-04
      2     -199.9276530090   1.5849475E-06   1.1893742E-04
      3     -199.9276365224   1.6486574E-05   1.8607576E-04
      4     -199.9276540159  -1.7493450E-05   5.1325729E-05
      5     -199.9276550372  -1.0213393E-06   1.9966823E-05
      6     -199.9276551253  -8.8112529E-08   7.9694442E-06
------------------------------------------------------------

 total:                                   0.250 sec
 * total energy  :  -199.9276551 Eh     change       -0.5079991E-05 Eh
   gradient norm :     0.0008649 Eh/α   predicted    -0.2656810E-05 ( -47.70%)
   displ. norm   :     0.0671941 α      lambda       -0.3313677E-05
   maximum displ.:     0.0317447 α      in ANC's #7, #15, #5, ...

........................................................................
.............................. CYCLE   12 ..............................
........................................................................
------------------------------------------------------------
  cycle        total energy    energy error   density error
------------------------------------------------------------
      1     -199.9276587770  -2.0352411E+02   1.8537718E-04
      2     -199.9276568483   1.9287175E-06   1.3912461E-04
      3     -199.9276458112   1.1037034E-05   2.3306054E-04
      4     -199.9276582056  -1.2394365E-05   4.4037346E-05
      5     -199.9276590766  -8.7101250E-07   1.3077014E-05
------------------------------------------------------------

 total:                                   0.210 sec
 * total energy  :  -199.9276591 Eh     change       -0.3951276E-05 Eh
   gradient norm :     0.0007416 Eh/α   predicted    -0.1664552E-05 ( -57.87%)
   displ. norm   :     0.0805331 α      lambda       -0.3652323E-05
   maximum displ.:     0.0393678 α      in ANC's #7, #15, #5, ...

........................................................................
.............................. CYCLE   13 ..............................
........................................................................
------------------------------------------------------------
  cycle        total energy    energy error   density error
------------------------------------------------------------
      1     -199.9276598513  -2.0352405E+02   2.0224169E-04
      2     -199.9276361292   2.3722066E-05   2.4272957E-04
      3     -199.9276564266  -2.0297407E-05   1.5037510E-04
      4     -199.9276574828  -1.0561707E-06   1.4719952E-04
      5     -199.9276637399  -6.2570803E-06   8.5894008E-06
      6     -199.9276637568  -1.6882552E-08   5.1271090E-06
------------------------------------------------------------

 total:                                   0.246 sec
 * total energy  :  -199.9276638 Eh     change       -0.4680149E-05 Eh
   gradient norm :     0.0005468 Eh/α   predicted    -0.1832931E-05 ( -60.84%)
   displ. norm   :     0.0820746 α      lambda       -0.3141029E-05
   maximum displ.:     0.0417889 α      in ANC's #7, #5, #15, ...

........................................................................
.............................. CYCLE   14 ..............................
........................................................................
------------------------------------------------------------
  cycle        total energy    energy error   density error
------------------------------------------------------------
      1     -199.9276669440  -2.0352397E+02   1.7086529E-04
      2     -199.9276668298   1.1423390E-07   1.0072679E-04
      3     -199.9276623550   4.4748503E-06   9.5200595E-05
      4     -199.9276666900  -4.3350713E-06   2.8340225E-05
      5     -199.9276671083  -4.1821980E-07   9.4229001E-06
------------------------------------------------------------

 total:                                   0.211 sec
 * total energy  :  -199.9276671 Eh     change       -0.3351482E-05 Eh
   gradient norm :     0.0003954 Eh/α   predicted    -0.1576694E-05 ( -52.96%)
   displ. norm   :     0.0615917 α      lambda       -0.1964470E-05
   maximum displ.:     0.0327792 α      in ANC's #7, #5, #9, ...

........................................................................
.............................. CYCLE   15 ..............................
........................................................................
------------------------------------------------------------
  cycle        total energy    energy error   density error
------------------------------------------------------------
      1     -199.9276674150  -2.0352401E+02   1.3171056E-04
      2     -199.9276546865   1.2728527E-05   1.9950468E-04
      3     -199.9276679419  -1.3255383E-05   8.6907135E-05
      4     -199.9276656940   2.2478967E-06   9.2410309E-05
      5     -199.9276691490  -3.4550544E-06   1.6451274E-05
      6     -199.9276692886  -1.3957921E-07   3.3574964E-06
------------------------------------------------------------

 total:                                   0.264 sec
 * total energy  :  -199.9276693 Eh     change       -0.2180342E-05 Eh
   gradient norm :     0.0004118 Eh/α   predicted    -0.9865139E-06 ( -54.75%)
   displ. norm   :     0.0539392 α      lambda       -0.1686625E-05
   maximum displ.:     0.0289960 α      in ANC's #7, #5, #9, ...

........................................................................
.............................. CYCLE   16 ..............................
........................................................................
------------------------------------------------------------
  cycle        total energy    energy error   density error
------------------------------------------------------------
      1     -199.9276709007  -2.0352403E+02   1.0407470E-04
      2     -199.9276701890   7.1173196E-07   7.7036383E-05
      3     -199.9276672745   2.9144645E-06   1.1637807E-04
      4     -199.9276703395  -3.0649699E-06   4.6473582E-05
      5     -199.9276710484  -7.0893324E-07   8.2202309E-06
------------------------------------------------------------

 total:                                   0.223 sec
 * total energy  :  -199.9276710 Eh     change       -0.1759821E-05 Eh
   gradient norm :     0.0003906 Eh/α   predicted    -0.8448207E-06 ( -51.99%)
   displ. norm   :     0.0592988 α      lambda       -0.1681606E-05
   maximum displ.:     0.0314113 α      in ANC's #7, #5, #9, ...

........................................................................
.............................. CYCLE   17 ..............................
........................................................................
------------------------------------------------------------
  cycle        total energy    energy error   density error
------------------------------------------------------------
      1     -199.9276713017  -2.0352403E+02   1.2060338E-04
      2     -199.9276598187   1.1483050E-05   1.7374927E-04
      3     -199.9276715773  -1.1758594E-05   8.1799220E-05
      4     -199.9276697885   1.7887031E-06   9.3553261E-05
      5     -199.9276730006  -3.2120616E-06   9.5787627E-06
      6     -199.9276730261  -2.5516556E-08   2.2146188E-06
------------------------------------------------------------

 total:                                   0.250 sec
 * total energy  :  -199.9276730 Eh     change       -0.1977708E-05 Eh
   gradient norm :     0.0003313 Eh/α   predicted    -0.8464021E-06 ( -57.20%)
   displ. norm   :     0.0670641 α      lambda       -0.1675092E-05
   maximum displ.:     0.0349585 α      in ANC's #7, #5, #11, ...

........................................................................
.............................. CYCLE   18 ..............................
........................................................................
------------------------------------------------------------
  cycle        total energy    energy error   density error
------------------------------------------------------------
      1     -199.9276749097  -2.0352405E+02   1.1164127E-04
      2     -199.9276747347   1.7500878E-07   6.8663873E-05
      3     -199.9276703874   4.3472500E-06   1.0927842E-04
      4     -199.9276745519  -4.1644882E-06   3.6700292E-05
      5     -199.9276749670  -4.1503554E-07   6.1048735E-06
------------------------------------------------------------

 total:                                   0.212 sec
 * total energy  :  -199.9276750 Eh     change       -0.1940838E-05 Eh
   gradient norm :     0.0002892 Eh/α   predicted    -0.8417899E-06 ( -56.63%)
   displ. norm   :     0.0755998 α      lambda       -0.1670425E-05
   maximum displ.:     0.0387512 α      in ANC's #7, #5, #9, ...

........................................................................
.............................. CYCLE   19 ..............................
........................................................................
------------------------------------------------------------
  cycle        total energy    energy error   density error
------------------------------------------------------------
      1     -199.9276765256  -2.0352405E+02   1.3498970E-04
      2     -199.9276733622   3.1634237E-06   1.2211541E-04
      3     -199.9276726210   7.4116397E-07   1.2549957E-04
      4     -199.9276756492  -3.0281532E-06   6.3269166E-05
      5     -199.9276771044  -1.4552309E-06   1.2506088E-05
      6     -199.9276771716  -6.7208077E-08   4.2878724E-06
------------------------------------------------------------

 total:                                   0.243 sec
 * total energy  :  -199.9276772 Eh     change       -0.2204674E-05 Eh
   gradient norm :     0.0002984 Eh/α   predicted    -0.8413524E-06 ( -61.84%)
   displ. norm   :     0.0702397 α      lambda       -0.1303823E-05
   maximum displ.:     0.0351112 α      in ANC's #7, #5, #9, ...

........................................................................
.............................. CYCLE   20 ..............................
........................................................................
------------------------------------------------------------
  cycle        total energy    energy error   density error
------------------------------------------------------------
      1     -199.9276779902  -2.0352406E+02   1.4420787E-04
      2     -199.9276762977   1.6925500E-06   1.0683007E-04
      3     -199.9276670708   9.2269135E-06   1.8055519E-04
      4     -199.9276773489  -1.0278113E-05   5.3995517E-05
      5     -199.9276782620  -9.1313092E-07   1.2828952E-05
------------------------------------------------------------

 total:                                   0.214 sec
 * total energy  :  -199.9276783 Eh     change       -0.1090364E-05 Eh
   gradient norm :     0.0002222 Eh/α   predicted    -0.6548876E-06 ( -39.94%)
   displ. norm   :     0.0457321 α      lambda       -0.7700213E-06
   maximum displ.:     0.0216503 α      in ANC's #7, #5, #9, ...
 * RMSD in coord.:     0.0786210 α      energy gain  -0.5131113E-02 Eh

generating ANC from exact Hessian ...
Using Lindh-Hessian (1995)
 Shifting diagonal of input Hessian by   1.005216542681882E-002
 Lowest  eigenvalues of input Hessian
    0.010000    0.000000    0.000000    0.000000    0.000000    0.000000
    0.000000    0.010096    0.010158    0.010182    0.010281    0.010417
    0.010432    0.010484    0.010497    0.010524    0.010580    0.010673
 Highest eigenvalues
    2.178250    2.192000    2.200368    2.221321    2.230593    2.620566
 

........................................................................
.............................. CYCLE   21 ..............................
........................................................................
------------------------------------------------------------
  cycle        total energy    energy error   density error
------------------------------------------------------------
      1     -199.9276761345  -2.0352404E+02   1.4097413E-04
      2     -199.9276593704   1.6764084E-05   2.1172594E-04
      3     -199.9276779600  -1.8589521E-05   7.7222416E-05
      4     -199.9276780352  -7.5261681E-08   5.7620784E-05
      5     -199.9276789346  -8.9934701E-07   2.2663719E-05
      6     -199.9276791242  -1.8961404E-07   4.5364616E-06
------------------------------------------------------------

 total:                                   0.262 sec
 * total energy  :  -199.9276791 Eh     change       -0.8621805E-06 Eh
   gradient norm :     0.0001665 Eh/α   predicted     0.0000000E+00 (-100.00%)
   displ. norm   :     0.0057488 α      lambda       -0.2554519E-07
   maximum displ.:     0.0028017 α      in ANC's #14, #5, #30, ...

........................................................................
.............................. CYCLE   22 ..............................
........................................................................
------------------------------------------------------------
  cycle        total energy    energy error   density error
------------------------------------------------------------
      1     -199.9276793840  -2.0352405E+02   2.5833949E-05
      2     -199.9276793395   4.4525478E-08   2.1314016E-05
      3     -199.9276793244   1.5069588E-08   2.1997722E-05
      4     -199.9276793594  -3.4954581E-08   1.6409385E-05
------------------------------------------------------------

 total:                                   0.175 sec
 * total energy  :  -199.9276794 Eh     change       -0.2351781E-06 Eh
   gradient norm :     0.0001084 Eh/α   predicted    -0.1187178E-06 ( -49.52%)
   displ. norm   :     0.0275744 α      lambda       -0.6185475E-06
   maximum displ.:     0.0136530 α      in ANC's #14, #5, #30, ...

........................................................................
.............................. CYCLE   23 ..............................
........................................................................
------------------------------------------------------------
  cycle        total energy    energy error   density error
------------------------------------------------------------
      1     -199.9276770223  -2.0352399E+02   1.4571843E-04
      2     -199.9276519026   2.5119755E-05   3.3329868E-04
      3     -199.9276797536  -2.7851030E-05   6.2230936E-05
      4     -199.9276790815   6.7209564E-07   4.7909692E-05
      5     -199.9276798398  -7.5827427E-07   1.9739359E-05
------------------------------------------------------------

 total:                                   0.211 sec
 * total energy  :  -199.9276798 Eh     change       -0.4803989E-06 Eh
   gradient norm :     0.0002755 Eh/α   predicted    -0.4263909E-06 ( -11.24%)
   displ. norm   :     0.0091700 α      lambda       -0.1374687E-06
   maximum displ.:     0.0050954 α      in ANC's #14, #5, #11, ...

........................................................................
.............................. CYCLE   24 ..............................
........................................................................
------------------------------------------------------------
  cycle        total energy    energy error   density error
------------------------------------------------------------
      1     -199.9276669119  -2.0352402E+02   1.5155629E-04
      2     -199.9275875361   7.9375830E-05   3.8887767E-04
      3     -199.9276800047  -9.2468642E-05   3.6957018E-05
      4     -199.9276802117  -2.0694483E-07   2.3103219E-05
      5     -199.9276802481  -3.6481509E-08   1.2609353E-05
------------------------------------------------------------

 total:                                   0.210 sec
 * total energy  :  -199.9276802 Eh     change       -0.4083784E-06 Eh
   gradient norm :     0.0001712 Eh/α   predicted    -0.1122148E-06 ( -72.52%)
   displ. norm   :     0.0173304 α      lambda       -0.3898112E-06
   maximum displ.:     0.0094472 α      in ANC's #14, #5, #11, ...

........................................................................
.............................. CYCLE   25 ..............................
........................................................................
------------------------------------------------------------
  cycle        total energy    energy error   density error
------------------------------------------------------------
      1     -199.9276782193  -2.0352406E+02   1.0154449E-04
      2     -199.9276654311   1.2788295E-05   2.3039146E-04
      3     -199.9276801343  -1.4703208E-05   4.8983575E-05
      4     -199.9276802800  -1.4573320E-07   3.5717671E-05
      5     -199.9276805508  -2.7076663E-07   1.8762863E-05
------------------------------------------------------------

 total:                                   0.214 sec
 * total energy  :  -199.9276806 Eh     change       -0.3026249E-06 Eh
   gradient norm :     0.0001961 Eh/α   predicted    -0.1978291E-06 ( -34.63%)
   displ. norm   :     0.0194394 α      lambda        0.5902108E-07
   maximum displ.:     0.0106174 α      in ANC's #14, #5, #11, ...

........................................................................
.............................. CYCLE   26 ..............................
........................................................................
------------------------------------------------------------
  cycle        total energy    energy error   density error
------------------------------------------------------------
      1     -199.9276766318  -2.0352409E+02   1.0872924E-04
      2     -199.9276589136   1.7718177E-05   2.0175339E-04
      3     -199.9276797134  -2.0799742E-05   5.2728354E-05
      4     -199.9276802341  -5.2074856E-07   4.0047162E-05
      5     -199.9276801252   1.0894846E-07   4.1260351E-05
      6     -199.9276805803  -4.5509157E-07   8.2882498E-06
------------------------------------------------------------

 total:                                   0.250 sec
 * total energy  :  -199.9276806 Eh     change       -0.2950443E-07 Eh
   gradient norm :     0.0004763 Eh/α   predicted     0.2820033E-07 (-195.58%)
   displ. norm   :     0.0048579 α      lambda       -0.3747998E-06
   maximum displ.:     0.0022440 α      in ANC's #14, #5, #2, ...

........................................................................
.............................. CYCLE   27 ..............................
........................................................................
------------------------------------------------------------
  cycle        total energy    energy error   density error
------------------------------------------------------------
      1     -199.9276795628  -2.0352404E+02   6.9373741E-05
      2     -199.9276740488   5.5139914E-06   1.3536707E-04
      3     -199.9276807260  -6.6771982E-06   3.3526320E-05
      4     -199.9276806537   7.2342175E-08   3.2191632E-05
      5     -199.9276808393  -1.8563625E-07   1.4756941E-05
------------------------------------------------------------

 total:                                   0.219 sec
 * total energy  :  -199.9276808 Eh     change       -0.2590471E-06 Eh
   gradient norm :     0.0002642 Eh/α   predicted    -0.1895323E-06 ( -26.83%)
   displ. norm   :     0.0069687 α      lambda       -0.2089396E-06
   maximum displ.:     0.0035204 α      in ANC's #5, #14, #2, ...

........................................................................
.............................. CYCLE   28 ..............................
........................................................................
------------------------------------------------------------
  cycle        total energy    energy error   density error
------------------------------------------------------------
      1     -199.9276747243  -2.0352407E+02   1.1113812E-04
      2     -199.9276326773   4.2046924E-05   3.0544813E-04
      3     -199.9276808338  -4.8156436E-05   3.5903552E-05
      4     -199.9276810718  -2.3803420E-07   1.7258645E-05
------------------------------------------------------------

 total:                                   0.179 sec
 * total energy  :  -199.9276811 Eh     change       -0.2324997E-06 Eh
   gradient norm :     0.0000978 Eh/α   predicted    -0.1047431E-06 ( -54.95%)
   displ. norm   :     0.0069687 α      lambda        0.0000000E+00
   maximum displ.:     0.0035204 α      in ANC's #5, #14, #2, ...

........................................................................
.............................. CYCLE   29 ..............................
........................................................................
------------------------------------------------------------
  cycle        total energy    energy error   density error
------------------------------------------------------------
      1     -199.9276756053  -2.0352410E+02   1.1573002E-04
      2     -199.9276418991   3.3706170E-05   3.0778425E-04
      3     -199.9276810380  -3.9138881E-05   2.2741338E-05
      4     -199.9276810184   1.9552289E-08   1.9375639E-05
------------------------------------------------------------

 total:                                   0.177 sec
 * total energy  :  -199.9276810 Eh     change        0.5336898E-07 Eh
   gradient norm :     0.0002862 Eh/α   predicted     0.4768175E-08 ( -91.07%)
   displ. norm   :     0.0073274 α      lambda       -0.1601282E-06
   maximum displ.:     0.0037411 α      in ANC's #5, #14, #2, ...

........................................................................
.............................. CYCLE   30 ..............................
........................................................................
------------------------------------------------------------
  cycle        total energy    energy error   density error
------------------------------------------------------------
      1     -199.9276701844  -2.0352405E+02   1.6307076E-04
      2     -199.9275833444   8.6839990E-05   5.0078462E-04
      3     -199.9276808672  -9.7522768E-05   3.5078389E-05
      4     -199.9276813187  -4.5154823E-07   1.3485979E-05
------------------------------------------------------------

 total:                                   0.173 sec
 * total energy  :  -199.9276813 Eh     change       -0.3002599E-06 Eh
   gradient norm :     0.0002097 Eh/α   predicted    -0.8232284E-07 ( -72.58%)
   displ. norm   :     0.0238516 α      lambda       -0.3750830E-06
   maximum displ.:     0.0122298 α      in ANC's #5, #14, #2, ...

........................................................................
.............................. CYCLE   31 ..............................
........................................................................
------------------------------------------------------------
  cycle        total energy    energy error   density error
------------------------------------------------------------
      1     -199.9276788846  -2.0352400E+02   1.0931560E-04
      2     -199.9276612908   1.7593777E-05   2.4753065E-04
      3     -199.9276814513  -2.0160524E-05   4.2243936E-05
      4     -199.9276792176   2.2336978E-06   7.1167148E-05
      5     -199.9276815711  -2.3535329E-06   1.1625577E-05
      6     -199.9276816271  -5.5920424E-08   4.4076038E-06
------------------------------------------------------------

 total:                                   0.243 sec
 * total energy  :  -199.9276816 Eh     change       -0.3083506E-06 Eh
   gradient norm :     0.0001969 Eh/α   predicted    -0.1904949E-06 ( -38.22%)
   displ. norm   :     0.0192688 α      lambda       -0.2000710E-06
   maximum displ.:     0.0101597 α      in ANC's #5, #14, #2, ...

........................................................................
.............................. CYCLE   32 ..............................
........................................................................
------------------------------------------------------------
  cycle        total energy    energy error   density error
------------------------------------------------------------
      1     -199.9276816070  -2.0352401E+02   5.1989393E-05
      2     -199.9276807387   8.6833890E-07   5.6776225E-05
      3     -199.9276815281  -7.8942463E-07   3.6473891E-05
      4     -199.9276811669   3.6119968E-07   4.5114808E-05
      5     -199.9276818465  -6.7960147E-07   7.2816770E-06
------------------------------------------------------------

 total:                                   0.217 sec
 * total energy  :  -199.9276818 Eh     change       -0.2194431E-06 Eh
   gradient norm :     0.0001310 Eh/α   predicted    -0.1011649E-06 ( -53.90%)
   displ. norm   :     0.0239802 α      lambda       -0.2010072E-06
   maximum displ.:     0.0128205 α      in ANC's #5, #14, #2, ...

........................................................................
.............................. CYCLE   33 ..............................
........................................................................
------------------------------------------------------------
  cycle        total energy    energy error   density error
------------------------------------------------------------
      1     -199.9276811045  -2.0352401E+02   7.4486350E-05
      2     -199.9276751183   5.9861933E-06   1.3739999E-04
      3     -199.9276819651  -6.8468393E-06   3.5596095E-05
      4     -199.9276808863   1.0788724E-06   5.1581725E-05
      5     -199.9276820759  -1.1896828E-06   5.5399704E-06
      6     -199.9276820844  -8.5027523E-09   1.1450278E-06
------------------------------------------------------------

 total:                                   0.248 sec
 * total energy  :  -199.9276821 Eh     change       -0.2379437E-06 Eh
   gradient norm :     0.0001429 Eh/α   predicted    -0.1034679E-06 ( -56.52%)
   displ. norm   :     0.0200549 α      lambda       -0.1229998E-06
   maximum displ.:     0.0110379 α      in ANC's #5, #2, #14, ...

........................................................................
.............................. CYCLE   34 ..............................
........................................................................
------------------------------------------------------------
  cycle        total energy    energy error   density error
------------------------------------------------------------
      1     -199.9276822206  -2.0352402E+02   4.5129071E-05
      2     -199.9276821872   3.3427426E-08   2.8278241E-05
      3     -199.9276814041   7.8300494E-07   4.0424500E-05
      4     -199.9276821842  -7.8001511E-07   9.8290607E-06
------------------------------------------------------------

 total:                                   0.177 sec
 * total energy  :  -199.9276822 Eh     change       -0.9971902E-07 Eh
   gradient norm :     0.0001339 Eh/α   predicted    -0.6411524E-07 ( -35.70%)
   displ. norm   :     0.0162595 α      lambda       -0.1047401E-06
   maximum displ.:     0.0092018 α      in ANC's #5, #2, #14, ...

   *** GEOMETRY OPTIMIZATION CONVERGED AFTER 34 ITERATIONS ***

------------------------------------------------------------------------
 total energy gain   :        -0.0051350 Eh       -3.2223 kcal/mol
 total RMSD          :         0.0815185 a0        0.0431 Å
 total power (kW/mol):        -0.3965304 (step)   -1.5148 (real)
------------------------------------------------------------------------

 ANCopt (total)                0 d,  0 h,  0 min,  8.902 sec
 optimizer setup                ...        0 min,  0.001 sec (  0.008%)
 model hessian                  ...        0 min,  0.343 sec (  3.851%)
 ANC generation                 ...        0 min,  0.041 sec (  0.456%)
 coordinate transformation      ...        0 min,  0.006 sec (  0.068%)
 single point calculation       ...        0 min,  8.473 sec ( 95.180%)
 optimization log               ...        0 min,  0.012 sec (  0.139%)
 hessian update                 ...        0 min,  0.007 sec (  0.083%)
 rational function              ...        0 min,  0.011 sec (  0.125%)

================
 final structure:
================
141
 xtb: 6.7.1 (edcfbbe)
C           -6.45383713547867        5.53601694843968        0.18482891218000
C           -4.97820500507876        5.56099106987568       -0.22252264676869
C           -4.90337065660959        5.87391664797312       -1.72410909317333
C           -4.28325468793562        6.67254518324697        0.57677816414288
C           -4.27599072788792        4.23794802177524        0.04098587603117
C           -2.91413208786400        4.12315801541702       -0.26735696320272
C           -2.20161289579924        2.95695814346398       -0.07905489126482
C           -2.86971106268679        1.86156811021824        0.44490641609918
C           -4.24273231514143        1.94907333419297        0.76111028006536
C           -4.93595598519329        3.13166390330798        0.55807331708789
C           -4.63634419134272        0.64551214878077        1.22683470435569
C           -5.84345514803983        0.10505723352836        1.63988463711803
C           -5.90334501288061       -1.22694686524469        2.02726165369437
C           -7.20494317097860       -1.90704347730736        2.41990200036475
C           -7.09173074359690       -2.45319260652176        3.85002899593667
C           -8.40553263557598       -0.95822592110102        2.36768826172678
C           -7.46279225472917       -3.05887245988889        1.43789134882187
C           -4.71930618470856       -1.97504657795659        2.05003409013399
C           -3.50466238967340       -1.46038490388590        1.64842554802175
C           -3.47693141428647       -0.15600334393504        1.17987235757439
N           -2.41977766411312        0.57909940489090        0.68506044712499
C           -1.21786497244220        0.04005821518172        0.20427839564866
C            0.00092860903194        0.61974297638294        0.61991907691611
C            1.22090348795413        0.04757726398654        0.19700229147230
N            2.42225053660960        0.57792605076138        0.68665567622207
C            2.86394957652227        1.87362286404856        0.50917050137652
C            2.18940177031374        2.99211843813414        0.04548976571225
C            2.89293135555418        4.17301092193549       -0.07268741292514
C            4.25269062771104        4.28134626704247        0.24674056710049
C            4.94185999947310        5.62614112814093        0.07533717187117
C            4.86303945779467        6.04424565253063       -1.40006459403317
C            6.41786799452068        5.58737103018536        0.48031699299083
C            4.23587831805611        6.67074777381292        0.95175337698298
C            4.92112767284350        3.15115685824644        0.69674721413015
C            4.23668145940595        1.95373051048420        0.82970542597368
C            4.63922624556524        0.63152817591555        1.23037073733916
C            5.85023822635977        0.07905905801421        1.61556323506093
C            5.91775708953288       -1.26872893472258        1.94243577152472
C            7.22430751949165       -1.96103416672285        2.29523681270672
C            7.12084441997148       -2.58082428352218        3.69573893539712
C            8.41992367124164       -1.00458681602967        2.28663363306554
C            7.48280982226338       -3.05958105444466        1.25404446310403
C            4.73663798289424       -2.02165371417833        1.93848266570165
C            3.51848721265765       -1.49502875401427        1.56385395639773
C            3.48392109428616       -0.17267974739865        1.14919364432500
C            1.24064928584930       -1.03932082111662       -0.66056761018798
N            2.44776508015962       -1.53663155460684       -1.16186288744003
C            2.92945211866054       -2.82085669555143       -1.00668593807801
C            2.30078200321233       -3.94306561900659       -0.48694869898321
C            3.03119764591584       -5.11263335203830       -0.40308931672457
C            4.36005548883269       -5.16883621045454       -0.81533535601295
C            4.99765983166704       -4.04989228723219       -1.31896088150698
C            4.28402115574011       -2.86566827642717       -1.41377936897845
C            4.62532666243945       -1.53847778476555       -1.84658400498239
C            5.78377094288138       -0.95378756734157       -2.33293860648533
C            5.75487935971015        0.38457399685033       -2.68211557344065
C            4.57977060355726        1.12556067229971       -2.59217708820255
C            3.41260672115553        0.56319771081502       -2.11206899813650
C            3.45509391195261       -0.75942376457824       -1.69562785419914
C            0.00256696164203       -1.63299205937412       -1.10916238423837
C           -0.00461525375222       -2.57430701487768       -2.11506786496713
N           -0.01394661845444       -3.41021723898446       -2.92250952511959
C           -1.23601375606015       -1.05793663617026       -0.63732120744581
N           -2.44335865053649       -1.59340875490748       -1.09821058427384
C           -3.48099375741411       -0.86042608700219       -1.63483330597969
C           -3.47902712029305        0.44525922936899       -2.10344160064004
C           -4.67046491454522        0.96208372943114       -2.57500092033644
C           -5.82996144466772        0.19233666043606       -2.60581855775785
C           -5.81945889866982       -1.13159547619337       -2.20417923526929
C           -4.63630753031859       -1.67088661328394       -1.72532971952012
C           -4.25375944656383       -2.97215203746391       -1.24986362165998
C           -4.93624172550928       -4.16745137552814       -1.08807771341356
C           -4.25896745895361       -5.25030710492007       -0.55779231159556
C           -2.92129546448655       -5.14784149320830       -0.18483865423090
C           -2.22156042323783       -3.96619450978703       -0.33491497924252
C           -2.89079075372265       -2.88078917434589       -0.88114437408985
H           -6.56285124465034        5.33040256247609        1.24722445047378
H           -7.00442808755391        4.78927371447886       -0.38254287193221
H           -6.90151612019180        6.50707831346223       -0.01702379778289
H           -5.41431605695727        6.81035487952150       -1.93772466012912
H           -3.87438188388705        5.96344228141999       -2.06100528832500
H           -5.38188271785926        5.08169165938095       -2.29631565360002
H           -4.79039511411306        7.62154046582383        0.41605864318805
H           -3.24502885391832        6.78885748400313        0.27921704907916
H           -4.30948540236657        6.44272415896203        1.63996603334300
H           -2.39058982067070        4.97297675085597       -0.67781126931370
H           -1.15790718098683        2.89858147044260       -0.34734204049948
H           -5.98503554316853        3.16284038006711        0.79935403111325
H           -6.71795476790405        0.73360968541103        1.64458040694650
H           -6.86926561727557       -1.64540966110181        4.54427721663433
H           -8.02999822885478       -2.91613202719869        4.14837755562320
H           -6.30585989707646       -3.19852333404977        3.93088339177579
H           -8.54868880033896       -0.56397266613243        1.36432505918516
H           -9.30717431208525       -1.49945113391366        2.64744342225785
H           -8.28168275771070       -0.13119188480302        3.06315199756200
H           -6.65790049879984       -3.78826053453443        1.46186983611240
H           -7.53698855202884       -2.67105758109299        0.42420727628759
H           -8.39375785000449       -3.56405875118230        1.68688551258174
H           -4.74315117011851       -2.99999788739049        2.38575579646030
H           -2.60757925780652       -2.05863022706533        1.69749321366381
H           -0.00037562299865        1.38933617923406        1.37179175591857
H            1.14623476986400        2.94368525461608       -0.22610051391473
H            2.36270922910586        5.04134829198430       -0.43269724421579
H            5.34728820992959        5.29851933927598       -2.02726350928042
H            3.83308820205216        6.14951032139349       -1.72929610688486
H            5.36625865448983        6.99760711709555       -1.54662438696121
H            6.52931069540419        5.31125238030518        1.52635117397240
H            6.97511776968726        4.88597011377339       -0.13629240172332
H            6.85634536172982        6.57406039640468        0.34508307041502
H            3.19581325542375        6.79562806692792        0.66419463857917
H            4.26651607218247        6.36670184258993        1.99603690184415
H            4.73202278824861        7.63442151102896        0.85807464449780
H            5.96935068873640        3.17628557353372        0.94241305042191
H            6.72171940416173        0.71108207130450        1.64615287151685
H            6.34122906129027       -3.33563705934960        3.74106069413848
H            6.89515354184814       -1.81164657121134        4.43152872215500
H            8.06380051392033       -3.05123542729445        3.96630232170508
H            9.32520040768279       -1.55440436949227        2.53624188749675
H            8.55790282881858       -0.56013455789488        1.30374740761768
H            8.29410342553943       -0.21386999017064        3.02280184387068
H            7.55228592567096       -2.61970178332456        0.26148660591370
H            8.41624825091782       -3.57376583985191        1.47356555830470
H            6.68020171625787       -3.79183171124552        1.24263817243370
H            4.76557106869488       -3.05985852707059        2.23010760100713
H            2.62372777593524       -2.09791853350924        1.59360111499251
H            1.27287563586484       -3.91026917435692       -0.16272700094159
H            2.56133561571783       -6.00157955164994       -0.00960700178593
H            4.89850865366471       -6.10171901987764       -0.73658191183303
H            6.03010169361716       -4.09413392329115       -1.63083334386712
H            6.68741842188103       -1.53451741929329       -2.44143147888557
H            6.65092028091543        0.85996428007954       -3.05257697819467
H            4.57662372302941        2.15905138606117       -2.90471338471391
H            2.49641757713682        1.13257928418488       -2.07454819734751
H           -2.57541734785867        1.03545539612322       -2.11128804498714
H           -4.69881170321918        1.98212227626081       -2.92781548101692
H           -6.74566217004392        0.63265744035403       -2.97156157150050
H           -6.71187204636631       -1.73597075331754       -2.26718609910126
H           -5.97534863577454       -4.24789004939203       -1.36903944848119
H           -4.77294030488952       -6.19109352233687       -0.42675044491352
H           -2.42055036766607       -6.00939888154063        0.23096983572280
H           -1.18685206939920       -3.89487267917596       -0.03915238350057
 
 Bond Distances (Angstroems)
 ---------------------------
C1-C2=1.5310         C1-H77=1.0876        C1-H78=1.0875        C1-H79=1.0882        C2-C1=1.5310         C2-C3=1.5357         
C2-C4=1.5354         C2-C5=1.5209         C3-C2=1.5357         C3-H80=1.0879        C3-H81=1.0864        C3-H82=1.0881        
C4-C2=1.5354         C4-H83=1.0879        C4-H84=1.0863        C4-H85=1.0881        C5-C2=1.5209         C5-C6=1.4010         
C5-C10=1.3881        C6-C5=1.4010         C6-C7=1.3796         C6-H86=1.0792        C7-C6=1.3796         C7-C8=1.3859         
C7-H87=1.0792        C8-C7=1.3859         C8-C9=1.4117         C8-N21=1.3802        C9-C8=1.4117         C9-C10=1.3858        
C9-C11=1.4391        C10-C5=1.3881        C10-C9=1.3858        C10-H88=1.0769       C11-C9=1.4391        C11-C12=1.3856       
C11-C20=1.4103       C12-C11=1.3856       C12-C13=1.3885       C12-H89=1.0770       C13-C12=1.3885       C13-C14=1.5202       
C13-C18=1.4008       C14-C13=1.5202       C14-C15=1.5350       C14-C16=1.5311       C14-C17=1.5354       C15-C14=1.5350       
C15-H90=1.0881       C15-H91=1.0880       C15-H92=1.0861       C16-C14=1.5311       C16-H93=1.0875       C16-H94=1.0882       
C16-H95=1.0877       C17-C14=1.5354       C17-H96=1.0865       C17-H97=1.0879       C17-H98=1.0881       C18-C13=1.4008       
C18-C19=1.3790       C18-H99=1.0788       C19-C18=1.3790       C19-C20=1.3863       C19-H100=1.0794      C20-C11=1.4103       
C20-C19=1.3863       C20-N21=1.3794       N21-C8=1.3802        N21-C20=1.3794       N21-C22=1.4023       C22-N21=1.4023       
C22-C23=1.4122       C22-C63=1.3836       C23-C22=1.4122       C23-C24=1.4123       C23-H101=1.0759      C24-C23=1.4123       
C24-N25=1.4015       C24-C46=1.3846       N25-C24=1.4015       N25-C26=1.3804       N25-C45=1.3800       C26-N25=1.3804       
C26-C27=1.3860       C26-C35=1.4119       C27-C26=1.3860       C27-C28=1.3796       C27-H102=1.0790      C28-C27=1.3796       
C28-C29=1.4010       C28-H103=1.0792      C29-C28=1.4010       C29-C30=1.5208       C29-C34=1.3880       C30-C29=1.5208       
C30-C31=1.5355       C30-C32=1.5310       C30-C33=1.5355       C31-C30=1.5355       C31-H104=1.0881      C31-H105=1.0864      
C31-H106=1.0879      C32-C30=1.5310       C32-H107=1.0876      C32-H108=1.0875      C32-H109=1.0882      C33-C30=1.5355       
C33-H110=1.0863      C33-H111=1.0881      C33-H112=1.0879      C34-C29=1.3880       C34-C35=1.3856       C34-H113=1.0769      
C35-C26=1.4119       C35-C34=1.3856       C35-C36=1.4390       C36-C35=1.4390       C36-C37=1.3857       C36-C45=1.4100       
C37-C36=1.3857       C37-C38=1.3885       C37-H114=1.0770      C38-C37=1.3885       C38-C39=1.5201       C38-C43=1.4007       
C39-C38=1.5201       C39-C40=1.5350       C39-C41=1.5311       C39-C42=1.5355       C40-C39=1.5350       C40-H115=1.0861      
C40-H116=1.0881      C40-H117=1.0880      C41-C39=1.5311       C41-H118=1.0882      C41-H119=1.0875      C41-H120=1.0877      
C42-C39=1.5355       C42-H121=1.0879      C42-H122=1.0881      C42-H123=1.0865      C43-C38=1.4007       C43-C44=1.3790       
C43-H124=1.0788      C44-C43=1.3790       C44-C45=1.3863       C44-H125=1.0793      C45-N25=1.3800       C45-C36=1.4100       
C45-C44=1.3863       C46-C24=1.3846       C46-N47=1.3985       C46-C60=1.4445       N47-C46=1.3985       N47-C48=1.3803       
N47-C59=1.3797       C48-N47=1.3803       C48-C49=1.3873       C48-C53=1.4151       C49-C48=1.3873       C49-C50=1.3815       
C49-H126=1.0783      C50-C49=1.3815       C50-C51=1.3925       C50-H127=1.0797      C51-C50=1.3925       C51-C52=1.3828       
C51-H128=1.0800      C52-C51=1.3828       C52-C53=1.3859       C52-H129=1.0794      C53-C48=1.4151       C53-C52=1.3859       
C53-C54=1.4371       C54-C53=1.4371       C54-C55=1.3858       C54-C59=1.4139       C55-C54=1.3858       C55-C56=1.3835       
C55-H130=1.0796      C56-C55=1.3835       C56-C57=1.3921       C56-H131=1.0799      C57-C56=1.3921       C57-C58=1.3817       
C57-H132=1.0797      C58-C57=1.3817       C58-C59=1.3873       C58-H133=1.0794      C59-N47=1.3797       C59-C54=1.4139       
C59-C58=1.3873       C60-C46=1.4445       C60-C61=1.3777       C60-C63=1.4448       C61-C60=1.3777       C61-N62=1.1622       
N62-C61=1.1622       C63-C22=1.3836       C63-C60=1.4448       C63-N64=1.3989       N64-C63=1.3989       N64-C65=1.3791       
N64-C76=1.3801       C65-N64=1.3791       C65-C66=1.3872       C65-C70=1.4141       C66-C65=1.3872       C66-C67=1.3817       
C66-H134=1.0793      C67-C66=1.3817       C67-C68=1.3921       C67-H135=1.0797      C68-C67=1.3921       C68-C69=1.3836       
C68-H136=1.0799      C69-C68=1.3836       C69-C70=1.3856       C69-H137=1.0796      C70-C65=1.4141       C70-C69=1.3856       
C70-C71=1.4373       C71-C70=1.4373       C71-C72=1.3859       C71-C76=1.4149       C72-C71=1.3859       C72-C73=1.3829       
C72-H138=1.0794      C73-C72=1.3829       C73-C74=1.3925       C73-H139=1.0800      C74-C73=1.3925       C74-C75=1.3815       
C74-H140=1.0798      C75-C74=1.3815       C75-C76=1.3872       C75-H141=1.0785      C76-N64=1.3801       C76-C71=1.4149       
C76-C75=1.3872       H77-C1=1.0876        H78-C1=1.0875        H79-C1=1.0882        H80-C3=1.0879        H81-C3=1.0864        
H82-C3=1.0881        H83-C4=1.0879        H84-C4=1.0863        H85-C4=1.0881        H86-C6=1.0792        H87-C7=1.0792        
H88-C10=1.0769       H89-C12=1.0770       H90-C15=1.0881       H91-C15=1.0880       H92-C15=1.0861       H93-C16=1.0875       
H94-C16=1.0882       H95-C16=1.0877       H96-C17=1.0865       H97-C17=1.0879       H98-C17=1.0881       H99-C18=1.0788       
H100-C19=1.0794      H101-C23=1.0759      H102-C27=1.0790      H103-C28=1.0792      H104-C31=1.0881      H105-C31=1.0864      
H106-C31=1.0879      H107-C32=1.0876      H108-C32=1.0875      H109-C32=1.0882      H110-C33=1.0863      H111-C33=1.0881      
H112-C33=1.0879      H113-C34=1.0769      H114-C37=1.0770      H115-C40=1.0861      H116-C40=1.0881      H117-C40=1.0880      
H118-C41=1.0882      H119-C41=1.0875      H120-C41=1.0877      H121-C42=1.0879      H122-C42=1.0881      H123-C42=1.0865      
H124-C43=1.0788      H125-C44=1.0793      H126-C49=1.0783      H127-C50=1.0797      H128-C51=1.0800      H129-C52=1.0794      
H130-C55=1.0796      H131-C56=1.0799      H132-C57=1.0797      H133-C58=1.0794      H134-C66=1.0793      H135-C67=1.0797      
H136-C68=1.0799      H137-C69=1.0796      H138-C72=1.0794      H139-C73=1.0800      H140-C74=1.0798      H141-C75=1.0785      
 C  H  Rav=1.0837 sigma=0.0044  Rmin=1.0759  Rmax=1.0882    65
 C  C  Rav=1.4251 sigma=0.0573  Rmin=1.3777  Rmax=1.5357    75
 N  C  Rav=1.3694 sigma=0.0605  Rmin=1.1622  Rmax=1.4023    13
 
 selected bond angles (degree)
 --------------------
H77-C1-C2=111.08               H78-C1-C2=111.12               H78-C1-H77=109.21              H79-C1-C2=109.43               
H79-C1-H77=107.98              H79-C1-H78=107.92              C3-C2-C1=108.09                C4-C2-C1=108.03                
C4-C2-C3=109.84                C5-C2-C1=112.63                C5-C2-C3=108.92                C5-C2-C4=109.31                
H80-C3-C2=110.15               H81-C3-C2=111.48               H81-C3-H80=108.24              H82-C3-C2=110.15               
H82-C3-H80=108.48              H82-C3-H81=108.27              H83-C4-C2=110.10               H84-C4-C2=111.56               
H84-C4-H83=108.16              H85-C4-C2=110.17               H85-C4-H83=108.50              H85-C4-H84=108.26              
C6-C5-C2=118.81                C10-C5-C2=122.57               C10-C5-C6=118.61               C7-C6-C5=122.77                
H86-C6-C5=119.39               H86-C6-C7=117.84               C8-C7-C6=118.08                H87-C7-C6=120.75               
H87-C7-C8=121.16               C9-C8-C7=120.30                N21-C8-C7=130.02               N21-C8-C9=109.61               
C10-C9-C8=120.44               C11-C9-C8=106.40               C11-C9-C10=133.13              C9-C10-C5=119.79               
H88-C10-C5=121.57              H88-C10-C9=118.63              
 
 selected dihedral angles (degree)
 ---------------------------------
C3-C2-C1-H77=180.74           C3-C2-C1-H78= 58.95           C3-C2-C1-H79=299.87           C4-C2-C1-H77=299.55           
C4-C2-C1-H78=177.75           C4-C2-C1-H79= 58.67           C5-C2-C1-H77= 60.37           C5-C2-C1-H78=298.57           
C5-C2-C1-H79=179.50           H80-C3-C2-C1= 56.44           H80-C3-C2-C4=298.79           H80-C3-C2-C5=179.11           
H81-C3-C2-C1=176.62           H81-C3-C2-C4= 58.97           H81-C3-C2-C5=299.29           H82-C3-C2-C1=296.83           
H82-C3-C2-C4=179.18           H82-C3-C2-C5= 59.49           H83-C4-C2-C1=304.21           H83-C4-C2-C3= 61.90           
H83-C4-C2-C5=181.34           H84-C4-C2-C1=184.12           H84-C4-C2-C3=301.80           H84-C4-C2-C5= 61.25           
H85-C4-C2-C1= 63.85           H85-C4-C2-C3=181.53           H85-C4-C2-C5=300.98           C6-C5-C2-C1=180.87            
C6-C5-C2-C3= 60.98            C6-C5-C2-C4=300.96            C10-C5-C2-C1=  1.81           C10-C5-C2-C3=241.92           
C10-C5-C2-C4=121.90           C7-C6-C5-C2=180.92            C7-C6-C5-C10=  0.00           H86-C6-C5-C2=  0.39           
H86-C6-C5-C10=179.49          C8-C7-C6-C5=359.62            C8-C7-C6-H86=180.14           H87-C7-C6-C5=178.70           
H87-C7-C6-H86=359.23          C9-C8-C7-C6=  0.53            C9-C8-C7-H87=181.45           N21-C8-C7-C6=177.32           
N21-C8-C7-H87=358.24          C10-C9-C8-C7=359.66           C10-C9-C8-N21=182.27          C11-C9-C8-C7=177.81           
C11-C9-C8-N21=  0.42          C9-C10-C5-C2=179.25           C9-C10-C5-C6=  0.19           H88-C10-C5-C2=359.90          
H88-C10-C5-C6=180.83          C5-C10-C9-C8=359.97           C5-C10-C9-C11=182.41          H88-C10-C9-C8=179.34          
H88-C10-C9-C11=  1.78         
           -------------------------------------------------
          |                Final Singlepoint                |
           -------------------------------------------------
repulsion energy          3.5879969313618E+00 Eh
dispersion energy         8.3438165122002E-03 Eh
interaction energy        0.0000000000000E+00 Eh
number of electrons       3.7400000000000E+02 e
integral cutoff           1.7347787504999E+01 bohr

------------------------------------------------------------
  cycle        total energy    energy error   density error
------------------------------------------------------------
      1     -199.9276793493  -2.0352402E+02   7.0651190E-05
      2     -199.9276631933   1.6155991E-05   1.7738065E-04
      3     -199.9276821557  -1.8962413E-05   1.5004791E-05
      4     -199.9276822248  -6.9160052E-08   5.8537136E-06
------------------------------------------------------------

electronic energy        -2.0352402297271E+02 Eh
total energy             -1.9992768222484E+02 Eh

 total:                                   0.177 sec
 - repulsion                              0.000 sec (  0%)
 - dispersion                             0.007 sec (  3%)
 - coulomb                                0.011 sec (  6%)
 - hamiltonian                            0.019 sec ( 10%)
 - scc                                    0.140 sec ( 79%)

           ------------------------------------------------- 
          |                Numerical Hessian                |
           ------------------------------------------------- 
step length          :   0.00500
SCC accuracy         :   0.30000
Hessian scale factor :   1.00000
frozen atoms in %    :   0.00000    0
RMS gradient         :   0.00012
estimated CPU  time    591.28 min
estimated wall time     15.26 min

writing file <hessian>.

 projected vibrational frequencies (cm⁻¹)
eigval :       -0.00    -0.00     0.00     0.00     0.00     0.00
eigval :        9.52    12.46    14.04    17.00    19.90    28.21
eigval :       29.42    30.62    31.22    34.88    35.32    39.71
eigval :       43.46    48.14    49.25    56.69    63.19    68.17
eigval :       74.84    75.19    79.97    87.88    90.08    98.85
eigval :      109.80   114.01   115.17   119.14   120.23   128.54
eigval :      136.47   141.47   153.49   154.81   165.43   166.63
eigval :      174.04   174.37   178.38   188.81   194.88   201.66
eigval :      204.47   211.88   213.41   217.62   218.00   220.38
eigval :      221.79   225.94   228.12   231.40   232.12   248.22
eigval :      260.28   262.71   271.78   273.43   277.89   278.25
eigval :      285.97   287.45   306.33   317.74   318.48   318.82
eigval :      322.66   323.06   333.36   337.28   339.00   342.37
eigval :      347.26   352.59   359.61   360.33   370.73   378.32
eigval :      385.11   391.18   392.59   397.29   400.40   402.30
eigval :      405.07   408.48   409.22   418.95   422.83   424.07
eigval :      434.18   436.03   440.22   441.47   447.74   448.77
eigval :      452.15   460.28   465.51   465.75   468.20   469.26
eigval :      492.28   495.41   500.73   515.32   516.15   517.74
eigval :      524.67   528.08   537.66   538.17   539.75   541.50
eigval :      556.54   569.51   582.27   582.56   583.66   585.19
eigval :      589.84   591.70   593.48   606.19   617.77   634.89
eigval :      637.08   640.46   641.44   652.68   667.49   669.95
eigval :      676.50   676.96   683.97   687.80   688.63   702.21
eigval :      705.74   706.98   707.66   708.69   717.99   723.08
eigval :      729.62   751.28   755.66   758.99   764.32   767.15
eigval :      775.84   777.16   813.12   820.20   822.01   827.14
eigval :      828.04   831.79   840.07   858.46   865.37   865.53
eigval :      867.96   868.69   870.56   870.70   872.56   874.39
eigval :      874.59   877.96   888.44   896.86   899.05   901.08
eigval :      901.88   903.51   903.99   906.91   912.25   917.34
eigval :      918.06   918.47   918.98   919.57   919.78   923.33
eigval :      929.71   932.17   932.69   960.08   960.16   960.57
eigval :      960.59   962.54   962.59   962.84   962.92   962.95
eigval :      962.96   965.82   965.86   996.61  1008.53  1013.60
eigval :     1025.79  1030.32  1032.40  1034.71  1034.91  1035.57
eigval :     1035.70  1035.96  1037.26  1041.50  1043.85  1066.09
eigval :     1068.23  1068.70  1072.13  1075.36  1104.89  1117.37
eigval :     1119.58  1126.16  1128.44  1133.70  1142.31  1144.73
eigval :     1156.06  1163.36  1167.56  1171.62  1173.49  1178.43
eigval :     1178.81  1180.13  1187.70  1188.48  1215.80  1226.63
eigval :     1226.70  1226.79  1227.13  1227.27  1228.60  1228.95
eigval :     1230.10  1231.17  1231.39  1232.11  1233.26  1233.82
eigval :     1234.53  1237.70  1246.12  1253.36  1261.58  1280.44
eigval :     1280.61  1283.32  1285.48  1289.40  1292.62  1294.32
eigval :     1296.67  1297.46  1303.71  1313.12  1322.45  1344.61
eigval :     1344.94  1347.36  1348.21  1348.38  1351.43  1352.78
eigval :     1364.00  1364.86  1365.89  1371.26  1390.24  1402.02
eigval :     1402.32  1404.25  1404.36  1405.05  1405.19  1405.71
eigval :     1405.82  1411.31  1412.22  1413.64  1414.96  1416.80
eigval :     1426.30  1427.42  1427.55  1427.84  1427.94  1433.26
eigval :     1441.44  1458.67  1463.88  1466.31  1467.52  1469.62
eigval :     1476.36  1481.26  1481.49  1484.85  1485.80  1489.71
eigval :     1489.72  1491.36  1491.37  1493.57  1493.73  1493.79
eigval :     1493.85  1499.91  1500.18  1500.45  1500.49  1503.40
eigval :     1503.49  1504.65  1504.67  1513.96  1513.99  1514.19
eigval :     1514.23  1519.22  1519.39  1520.12  1520.20  1564.15
eigval :     1564.41  1567.74  1568.14  1577.30  1578.04  1580.11
eigval :     1581.03  1582.33  1582.67  1586.22  1586.63  1598.83
eigval :     1599.70  1603.47  1605.70  2211.79  3022.10  3022.20
eigval :     3022.69  3022.79  3023.67  3023.77  3024.29  3024.43
eigval :     3027.27  3027.33  3027.50  3027.57  3030.30  3030.44
eigval :     3030.56  3030.80  3031.52  3031.74  3032.11  3032.13
eigval :     3035.93  3035.98  3036.11  3036.22  3038.63  3038.70
eigval :     3038.89  3039.09  3047.42  3047.55  3048.28  3048.53
eigval :     3050.98  3051.16  3052.42  3052.53  3077.64  3077.73
eigval :     3078.65  3078.87  3082.97  3083.33  3083.55  3084.81
eigval :     3085.18  3085.35  3086.48  3087.22  3089.77  3090.08
eigval :     3094.14  3094.65  3094.78  3096.29  3096.85  3097.32
eigval :     3099.25  3099.73  3100.82  3103.46  3118.11  3118.26
eigval :     3121.88  3122.11  3124.99
           -------------------------------------------------
          |                Property Printout                |
           -------------------------------------------------
           -------------------------------------------------
          |                Geometry Summary                 |
           -------------------------------------------------

      molecular mass/u    :      988.3119137
   center of mass at/Å    :        0.0000759      -0.0039910       0.0019627
  moments of inertia/u·Å² :        0.1223085E+05   0.2374768E+05   0.3100404E+05
rotational constants/cm⁻¹ :        0.1378287E-02   0.7098643E-03   0.5437238E-03

 * 146 selected distances

     #   Z          #   Z                                           value/Å
     1   6 C        2   6 C                                       1.5310289
     2   6 C        3   6 C                                       1.5356708 (max)
     2   6 C        4   6 C                                       1.5353797
     5   6 C        6   6 C                                       1.4010394
     6   6 C        7   6 C                                       1.3795520
     7   6 C        8   6 C                                       1.3859186
     8   6 C        9   6 C                                       1.4116762
     5   6 C       10   6 C                                       1.3880917
     9   6 C       10   6 C                                       1.3857503
     9   6 C       11   6 C                                       1.4391323
    11   6 C       12   6 C                                       1.3855753
    12   6 C       13   6 C                                       1.3884823
    14   6 C       15   6 C                                       1.5350438
    14   6 C       16   6 C                                       1.5311422
[...]
 281: 11.55 282: 11.17 283: 11.63 284: 11.59 285: 11.18 286: 10.40 287: 11.40 288:  4.83
 289:  4.48 290:  3.29 291:  3.31 292:  3.07 293:  3.06 294:  3.04 295:  3.05 296:  8.66
 297:  8.96 298:  9.19 299:  8.82 300:  9.88 301: 10.97 302:  2.98 303:  2.97 304:  2.96
 305:  2.97 306: 10.11 307: 10.72 308: 11.15 309: 10.09 310: 10.36 311: 10.35 312: 10.79
 313: 11.57 314: 10.91 315: 10.88 316: 10.41 317: 10.39 318:  1.61 319:  1.61 320:  1.62
 321:  1.62 322:  1.58 323:  1.62 324:  1.62 325:  1.65 326:  1.74 327:  1.76 328:  1.78
 329:  1.78 330:  1.67 331:  1.67 332:  1.68 333:  1.67 334:  1.59 335:  1.59 336:  1.59
 337:  1.59 338:  1.65 339:  1.64 340:  1.72 341:  1.73 342: 11.60 343: 11.59 344: 11.56
 345: 11.55 346: 11.64 347: 11.64 348: 11.59 349: 11.60 350: 11.65 351: 11.65 352: 11.67
 353: 11.67 354: 11.66 355: 11.65 356: 11.69 357: 11.69 358: 12.75 359:  1.91 360:  1.91
 361:  1.93 362:  1.93 363:  1.90 364:  1.90 365:  1.93 366:  1.93 367:  1.84 368:  1.84
 369:  1.86 370:  1.87 371:  1.86 372:  1.86 373:  1.91 374:  1.86 375:  1.64 376:  1.69
 377:  1.70 378:  1.70 379:  1.83 380:  1.83 381:  1.84 382:  1.84 383:  1.30 384:  1.30
 385:  1.28 386:  1.29 387:  1.48 388:  1.48 389:  1.50 390:  1.50 391:  1.54 392:  1.54
 393:  1.56 394:  1.56 395:  1.75 396:  1.75 397:  1.76 398:  1.76 399:  1.78 400:  1.79
 401:  1.80 402:  1.79 403:  1.77 404:  1.78 405:  1.81 406:  1.81 407:  1.86 408:  1.86
 409:  1.87 410:  1.87 411:  1.88 412:  1.87 413:  1.91 414:  1.91 415:  1.86 416:  1.86
 417:  1.89 418:  1.88 419:  1.82 420:  1.82 421:  1.82 422:  1.82 423:  1.82
 IR intensities (km·mol⁻¹)
   1:  1.00   2:  1.58   3:  0.66   4:  0.75   5:  0.40   6:  0.82   7:  0.34   8:  0.51
   9:  0.07  10:  1.15  11:  0.44  12:  2.69  13:  0.76  14:  2.25  15:  2.31  16:  2.48
  17:  0.17  18:  0.34  19:  0.65  20:  5.16  21:  3.32  22:  1.15  23:  2.34  24:  0.82
  25:  0.24  26:  2.52  27:  1.34  28:  2.36  29:  0.89  30: 13.11  31:  1.76  32:  0.49
  33:  0.61  34:  0.93  35:  1.06  36:  2.72  37:  2.29  38:  3.49  39:  0.02  40:  0.68
  41:  1.46  42:  0.34  43:  1.50  44:  1.37  45:  2.62  46:  8.18  47:  2.70  48:  1.51
  49:  5.96  50:  1.03  51:  0.24  52:  6.62  53:  9.17  54:  1.00  55:  0.09  56:  0.07
  57:  4.79  58:  1.78  59:  2.15  60:  8.61  61:  0.70  62:  0.27  63:  1.01  64:  4.31
  65:  3.98  66:  5.20  67: 11.85  68:  4.89  69:  2.98  70:  2.92  71:  0.51  72:  0.62
  73:  0.77  74:  1.23  75:  1.26  76:  3.18  77:  5.63  78:  0.51  79:  2.56  80: 10.73
  81:  1.15  82:  0.35  83:  0.19  84:  9.88  85:  4.23  86:  7.09  87:  0.35  88:  7.13
  89:  2.66  90:  4.20  91:  1.85  92: 11.59  93:  7.83  94:  1.36  95:  4.42  96:  6.89
  97:  6.64  98:  4.78  99:  2.95 100:  0.72 101:  3.33 102:  7.61 103:  6.14 104: 12.32
 105:  8.41 106: 12.29 107: 12.32 108:  0.83 109: 24.73 110:  0.17 111:  0.91 112:  0.59
 113:  6.76 114:  1.69 115: 12.77 116:  0.21 117:  1.28 118:  1.48 119:  0.23 120: 10.27
 121:  3.04 122:  4.45 123: 10.53 124:  1.39 125: 10.58 126:  7.41 127:  3.79 128:  0.32
 129:  1.62 130:  6.26 131:  4.84 132:  4.01 133:  2.59 134:  3.24 135:  5.32 136:  0.39
 137: 15.33 138:  4.22 139: 27.66 140:  1.52 141: 24.67 142: 12.67 143:  6.18 144:  3.30
 145:  3.19 146:  0.99 147:  2.82 148: 30.06 149:  1.98 150: 35.81 151:  1.87 152:  9.30
 153:  1.21 154: 56.74 155:  0.05 156: 62.50 157: 10.39 158:  7.62 159:  4.05 160:  3.84
 161: 26.88 162:  2.26 163: 22.87 164:  6.89 165:  3.55 166:  0.52 167: 13.01 168:  0.63
 169: 34.66 170:  5.60 171:  3.96 172:  1.26 173: 15.53 174:  2.43 175:  5.23 176:  1.67
 177:  9.73 178:  2.35 179:  4.56 180:  2.13 181:  1.85 182:  2.88 183:  0.90 184:  1.40
 185:  3.37 186:  1.01 187:  0.16 188:  7.24 189:  2.31 190:  0.08 191:  2.37 192:  0.93
 193:  5.91 194: 33.14 195:  7.35 196:  1.32 197:  4.65 198:  3.82 199:  1.99 200:  4.56
 201:  5.13 202:  0.63 203:  0.23 204: 23.63 205:  5.11 206:  1.67 207:  1.28 208:  0.84
 209:  1.99 210:  0.58 211:  4.51 212: 28.42 213:  1.84 214:  4.94 215:  2.43 216:  8.07
 217:  1.62 218: 12.35 219:  6.31 220:  9.50 221: 19.41 222:  3.48 223:  3.63 224:  0.58
 225: 15.28 226: 19.11 227: 30.31 228:104.96 229: 34.17 230: 29.55 231: 95.61 232: 11.90
 233: 13.21 234: 12.66 235: 14.65 236:  0.78 237: 15.15 238:  0.62 239:  0.64 240:  6.81
 241: 18.70 242:  3.69 243:  0.75 244: 16.48 245: 41.64 246: 11.27 247: 55.03 248: 47.97
 249:  2.72 250: 11.76 251:  0.75 252:  0.74 253: 24.27 254:  1.55 255:  3.81 256:  1.06
 257: 14.36 258: 19.61 259: 26.19 260: 14.70 261: 14.24 262:104.19 263:  4.81 264:  2.52
 265: 22.26 266: 15.51 267:  3.36 268:  5.07 269:  4.24 270: 42.80 271: 31.46 272:  1.60
 273: 17.83 274:  4.83 275:  0.31 276:  7.75 277:  6.31 278:183.72 279:  1.56 280:  9.25
 281:110.41 282:209.56 283:  5.78 284: 17.51 285: 73.92 286: 17.62 287:  8.54 288:  0.08
 289:  4.23 290: 32.32 291:  7.89 292:  8.95 293:  7.66 294:  2.81 295: 20.84 296:  4.41
 297:  0.23 298: 37.44 299: 10.40 300: 69.14 301: 59.51 302:  4.12 303:  9.05 304:  7.61
 305:  2.02 306:383.42 307: 32.64 308:  5.47 309: 11.45 310: 34.54 311:  7.59 312: 19.15
 313:178.29 314:  6.82 315: 12.59 316: 18.14 317: 14.25 318:  1.07 319:  0.36 320:  0.12
 321: 10.41 322:  0.49 323:  6.53 324:  6.06 325:  2.74 326:  6.48 327:  5.88 328: 17.09
 329:  4.42 330:  2.97 331: 11.45 332: 15.13 333:  2.06 334:  0.77 335:  1.24 336:  4.67
 337:  5.09 338:  6.74 339: 20.15 340: 37.74 341:  5.27 342:  5.88 343:  2.92 344: 12.80
 345:  4.08 346: 30.25 347: 26.51 348:  0.95 349: 28.46 350:  4.02 351:  5.13 352: 42.28
 353: 36.07 354:158.56 355:130.76 356:219.74 357: 53.21 358:138.32 359:  1.82 360:  0.95
 361:  3.97 362:  4.66 363:  8.68 364: 21.02 365:  5.41 366:  3.86 367:  1.11 368:  4.99
 369:  1.93 370:  2.96 371:227.94 372:225.15 373: 31.55 374: 63.54 375: 46.89 376:189.90
 377: 14.15 378:  7.99 379: 35.90 380: 13.38 381:  2.54 382:242.32 383: 29.40 384: 30.76
 385:108.79 386: 55.70 387:  5.38 388: 14.67 389: 62.17 390:  3.78 391: 44.04 392: 21.51
 393: 17.35 394: 42.90 395:  3.06 396:  9.61 397:  2.31 398:  5.41 399:  4.37 400: 33.28
 401:  7.74 402: 57.08 403: 19.21 404: 53.46 405:  2.17 406: 13.44 407: 75.88 408: 17.12
 409:100.23 410:  8.67 411:142.39 412:128.51 413:183.94 414: 36.92 415:  5.36 416: 50.32
 417: 16.32 418: 18.77 419:  9.12 420: 23.54 421:  8.50 422: 92.01 423: 24.11
 Raman intensities (Ä⁴*amu⁻¹)
   1:  0.00   2:  0.00   3:  0.00   4:  0.00   5:  0.00   6:  0.00   7:  0.00   8:  0.00
   9:  0.00  10:  0.00  11:  0.00  12:  0.00  13:  0.00  14:  0.00  15:  0.00  16:  0.00
  17:  0.00  18:  0.00  19:  0.00  20:  0.00  21:  0.00  22:  0.00  23:  0.00  24:  0.00
  25:  0.00  26:  0.00  27:  0.00  28:  0.00  29:  0.00  30:  0.00  31:  0.00  32:  0.00
  33:  0.00  34:  0.00  35:  0.00  36:  0.00  37:  0.00  38:  0.00  39:  0.00  40:  0.00
  41:  0.00  42:  0.00  43:  0.00  44:  0.00  45:  0.00  46:  0.00  47:  0.00  48:  0.00
  49:  0.00  50:  0.00  51:  0.00  52:  0.00  53:  0.00  54:  0.00  55:  0.00  56:  0.00
  57:  0.00  58:  0.00  59:  0.00  60:  0.00  61:  0.00  62:  0.00  63:  0.00  64:  0.00
  65:  0.00  66:  0.00  67:  0.00  68:  0.00  69:  0.00  70:  0.00  71:  0.00  72:  0.00
  73:  0.00  74:  0.00  75:  0.00  76:  0.00  77:  0.00  78:  0.00  79:  0.00  80:  0.00
  81:  0.00  82:  0.00  83:  0.00  84:  0.00  85:  0.00  86:  0.00  87:  0.00  88:  0.00
  89:  0.00  90:  0.00  91:  0.00  92:  0.00  93:  0.00  94:  0.00  95:  0.00  96:  0.00
  97:  0.00  98:  0.00  99:  0.00 100:  0.00 101:  0.00 102:  0.00 103:  0.00 104:  0.00
 105:  0.00 106:  0.00 107:  0.00 108:  0.00 109:  0.00 110:  0.00 111:  0.00 112:  0.00
 113:  0.00 114:  0.00 115:  0.00 116:  0.00 117:  0.00 118:  0.00 119:  0.00 120:  0.00
 121:  0.00 122:  0.00 123:  0.00 124:  0.00 125:  0.00 126:  0.00 127:  0.00 128:  0.00
 129:  0.00 130:  0.00 131:  0.00 132:  0.00 133:  0.00 134:  0.00 135:  0.00 136:  0.00
 137:  0.00 138:  0.00 139:  0.00 140:  0.00 141:  0.00 142:  0.00 143:  0.00 144:  0.00
 145:  0.00 146:  0.00 147:  0.00 148:  0.00 149:  0.00 150:  0.00 151:  0.00 152:  0.00
 153:  0.00 154:  0.00 155:  0.00 156:  0.00 157:  0.00 158:  0.00 159:  0.00 160:  0.00
 161:  0.00 162:  0.00 163:  0.00 164:  0.00 165:  0.00 166:  0.00 167:  0.00 168:  0.00
 169:  0.00 170:  0.00 171:  0.00 172:  0.00 173:  0.00 174:  0.00 175:  0.00 176:  0.00
 177:  0.00 178:  0.00 179:  0.00 180:  0.00 181:  0.00 182:  0.00 183:  0.00 184:  0.00
 185:  0.00 186:  0.00 187:  0.00 188:  0.00 189:  0.00 190:  0.00 191:  0.00 192:  0.00
 193:  0.00 194:  0.00 195:  0.00 196:  0.00 197:  0.00 198:  0.00 199:  0.00 200:  0.00
 201:  0.00 202:  0.00 203:  0.00 204:  0.00 205:  0.00 206:  0.00 207:  0.00 208:  0.00
 209:  0.00 210:  0.00 211:  0.00 212:  0.00 213:  0.00 214:  0.00 215:  0.00 216:  0.00
 217:  0.00 218:  0.00 219:  0.00 220:  0.00 221:  0.00 222:  0.00 223:  0.00 224:  0.00
 225:  0.00 226:  0.00 227:  0.00 228:  0.00 229:  0.00 230:  0.00 231:  0.00 232:  0.00
 233:  0.00 234:  0.00 235:  0.00 236:  0.00 237:  0.00 238:  0.00 239:  0.00 240:  0.00
 241:  0.00 242:  0.00 243:  0.00 244:  0.00 245:  0.00 246:  0.00 247:  0.00 248:  0.00
 249:  0.00 250:  0.00 251:  0.00 252:  0.00 253:  0.00 254:  0.00 255:  0.00 256:  0.00
 257:  0.00 258:  0.00 259:  0.00 260:  0.00 261:  0.00 262:  0.00 263:  0.00 264:  0.00
 265:  0.00 266:  0.00 267:  0.00 268:  0.00 269:  0.00 270:  0.00 271:  0.00 272:  0.00
 273:  0.00 274:  0.00 275:  0.00 276:  0.00 277:  0.00 278:  0.00 279:  0.00 280:  0.00
 281:  0.00 282:  0.00 283:  0.00 284:  0.00 285:  0.00 286:  0.00 287:  0.00 288:  0.00
 289:  0.00 290:  0.00 291:  0.00 292:  0.00 293:  0.00 294:  0.00 295:  0.00 296:  0.00
 297:  0.00 298:  0.00 299:  0.00 300:  0.00 301:  0.00 302:  0.00 303:  0.00 304:  0.00
 305:  0.00 306:  0.00 307:  0.00 308:  0.00 309:  0.00 310:  0.00 311:  0.00 312:  0.00
 313:  0.00 314:  0.00 315:  0.00 316:  0.00 317:  0.00 318:  0.00 319:  0.00 320:  0.00
 321:  0.00 322:  0.00 323:  0.00 324:  0.00 325:  0.00 326:  0.00 327:  0.00 328:  0.00
 329:  0.00 330:  0.00 331:  0.00 332:  0.00 333:  0.00 334:  0.00 335:  0.00 336:  0.00
 337:  0.00 338:  0.00 339:  0.00 340:  0.00 341:  0.00 342:  0.00 343:  0.00 344:  0.00
 345:  0.00 346:  0.00 347:  0.00 348:  0.00 349:  0.00 350:  0.00 351:  0.00 352:  0.00
 353:  0.00 354:  0.00 355:  0.00 356:  0.00 357:  0.00 358:  0.00 359:  0.00 360:  0.00
 361:  0.00 362:  0.00 363:  0.00 364:  0.00 365:  0.00 366:  0.00 367:  0.00 368:  0.00
 369:  0.00 370:  0.00 371:  0.00 372:  0.00 373:  0.00 374:  0.00 375:  0.00 376:  0.00
 377:  0.00 378:  0.00 379:  0.00 380:  0.00 381:  0.00 382:  0.00 383:  0.00 384:  0.00
 385:  0.00 386:  0.00 387:  0.00 388:  0.00 389:  0.00 390:  0.00 391:  0.00 392:  0.00
 393:  0.00 394:  0.00 395:  0.00 396:  0.00 397:  0.00 398:  0.00 399:  0.00 400:  0.00
 401:  0.00 402:  0.00 403:  0.00 404:  0.00 405:  0.00 406:  0.00 407:  0.00 408:  0.00
 409:  0.00 410:  0.00 411:  0.00 412:  0.00 413:  0.00 414:  0.00 415:  0.00 416:  0.00
 417:  0.00 418:  0.00 419:  0.00 420:  0.00 421:  0.00 422:  0.00 423:  0.00
 output can be read by thermo (or use thermo option).
 writing <g98.out> molden fake output.
 recommended (thermochemical) frequency scaling factor: 1.0
           -------------------------------------------------
          |             Thermodynamic Functions             |
           -------------------------------------------------

Refinement of some symmetry elements was terminated before convergence was reached.
Some symmetry elements may remain unidentified.
Molecule has no symmetry elements
It seems to be the C1 point group
c1  symmetry found (for desy threshold:  0.10E+00) used in thermo

          ...................................................
          :                      SETUP                      :
          :.................................................:
          :  # frequencies                         417      :
          :  # imaginary freq.                       0      :
          :  linear?                             false      :
          :  only rotor calc.                    false      :
          :  symmetry                               c1      :
          :  rotational number                       1      :
          :  scaling factor                  1.0000000      :
          :  rotor cutoff                   50.0000000 cm⁻¹ :
          :  imag. cutoff                  -20.0000000 cm⁻¹ :
          :.................................................:

    mode    ω/cm⁻¹     T·S(HO)/kcal·mol⁻¹    T·S(FR)/kcal·mol⁻¹   T·S(vib)
   ------------------------------------------------------------------------
       1      9.52    -2.41775 (  0.13%)    -1.54794 ( 99.87%)    -1.54908
       2     12.46    -2.25823 (  0.38%)    -1.46817 ( 99.62%)    -1.47121
       3     14.04    -2.18737 (  0.62%)    -1.43273 ( 99.38%)    -1.43740
       4     17.00    -2.07430 (  1.32%)    -1.37617 ( 98.68%)    -1.38537
       5     19.90    -1.98093 (  2.45%)    -1.32945 ( 97.55%)    -1.34540
       6     28.21    -1.77434 (  9.21%)    -1.22605 ( 90.79%)    -1.27653
       7     29.42    -1.74962 ( 10.70%)    -1.21367 ( 89.30%)    -1.27102
       8     30.62    -1.72592 ( 12.33%)    -1.20180 ( 87.67%)    -1.26644
       9     31.22    -1.71452 ( 13.19%)    -1.19609 ( 86.81%)    -1.26447
      10     34.88    -1.64897 ( 19.14%)    -1.16325 ( 80.86%)    -1.25623
      11     35.32    -1.64154 ( 19.93%)    -1.15952 ( 80.07%)    -1.25561
      12     39.71    -1.57235 ( 28.45%)    -1.12483 ( 71.55%)    -1.25217
      13     43.46    -1.51896 ( 36.34%)    -1.09805 ( 63.66%)    -1.25103
      14     48.14    -1.45864 ( 46.22%)    -1.06777 ( 53.78%)    -1.24843
      15     49.25    -1.44519 ( 48.49%)    -1.06101 ( 51.51%)    -1.24731
      16     56.69    -1.36231 ( 62.30%)    -1.01935 ( 37.70%)    -1.23301
      17     63.19    -1.29842 ( 71.84%)    -0.98718 ( 28.16%)    -1.21078
      18     68.17    -1.25388 ( 77.55%)    -0.96472 ( 22.45%)    -1.18898
      19     74.84    -1.19912 ( 83.39%)    -0.93707 ( 16.61%)    -1.15558
      20     75.19    -1.19638 ( 83.64%)    -0.93569 ( 16.36%)    -1.15374
      21     79.97    -1.16028 ( 86.74%)    -0.91742 ( 13.26%)    -1.12809
      22     87.88    -1.10517 ( 90.51%)    -0.88949 (  9.49%)    -1.08471
      23     90.08    -1.09072 ( 91.33%)    -0.88215 (  8.67%)    -1.07264
      24     98.85    -1.03660 ( 93.86%)    -0.85462 (  6.14%)    -1.02542
      25    109.80    -0.97566 ( 95.88%)    -0.82350 (  4.12%)    -0.96938
      26    114.01    -0.95392 ( 96.43%)    -0.81237 (  3.57%)    -0.94887
      27    115.17    -0.94806 ( 96.57%)    -0.80936 (  3.43%)    -0.94330
      28    119.14    -0.92854 ( 96.99%)    -0.79934 (  3.01%)    -0.92465
      29    120.23    -0.92326 ( 97.10%)    -0.79662 (  2.90%)    -0.91958
      30    128.54    -0.88486 ( 97.76%)    -0.77684 (  2.24%)    -0.88244
      31    136.47    -0.85056 ( 98.23%)    -0.75910 (  1.77%)    -0.84894
      32    141.47    -0.83004 ( 98.46%)    -0.74845 (  1.54%)    -0.82878
      33    153.49    -0.78369 ( 98.89%)    -0.72428 (  1.11%)    -0.78303
      34    154.81    -0.77885 ( 98.92%)    -0.72175 (  1.08%)    -0.77824
      35    165.43    -0.74142 ( 99.17%)    -0.70208 (  0.83%)    -0.74110
      36    166.63    -0.73736 ( 99.20%)    -0.69994 (  0.80%)    -0.73706
      37    174.04    -0.71299 ( 99.32%)    -0.68705 (  0.68%)    -0.71281
      38    174.37    -0.71195 ( 99.33%)    -0.68650 (  0.67%)    -0.71178
      39    178.38    -0.69926 ( 99.39%)    -0.67977 (  0.61%)    -0.69915
      40    188.81    -0.66771 ( 99.51%)    -0.66293 (  0.49%)    -0.66769
      41    194.88    -0.65024 ( 99.57%)    -0.65356 (  0.43%)    -0.65026
      42    201.66    -0.63146 ( 99.62%)    -0.64343 (  0.38%)    -0.63151
      43    204.47    -0.62387 ( 99.64%)    -0.63932 (  0.36%)    -0.62392
      44    211.88    -0.60447 ( 99.69%)    -0.62877 (  0.31%)    -0.60454
      45    213.41    -0.60056 ( 99.70%)    -0.62664 (  0.30%)    -0.60063
      46    217.62    -0.58997 ( 99.72%)    -0.62085 (  0.28%)    -0.59006
      47    218.00    -0.58904 ( 99.72%)    -0.62034 (  0.28%)    -0.58912
      48    220.38    -0.58317 ( 99.74%)    -0.61713 (  0.26%)    -0.58326
      49    221.79    -0.57973 ( 99.74%)    -0.61523 (  0.26%)    -0.57982
      50    225.94    -0.56975 ( 99.76%)    -0.60974 (  0.24%)    -0.56984
      51    228.12    -0.56460 ( 99.77%)    -0.60690 (  0.23%)    -0.56469
      52    231.40    -0.55695 ( 99.78%)    -0.60267 (  0.22%)    -0.55705
      53    232.12    -0.55531 ( 99.79%)    -0.60175 (  0.21%)    -0.55541
      54    248.22    -0.51972 ( 99.84%)    -0.58188 (  0.16%)    -0.51982
      55    260.28    -0.49490 ( 99.86%)    -0.56783 (  0.14%)    -0.49500
      56    262.71    -0.49007 ( 99.87%)    -0.56508 (  0.13%)    -0.49016
      57    271.78    -0.47253 ( 99.89%)    -0.55502 (  0.11%)    -0.47262
      58    273.43    -0.46942 ( 99.89%)    -0.55323 (  0.11%)    -0.46951
      59    277.89    -0.46113 ( 99.90%)    -0.54844 (  0.10%)    -0.46122
      60    278.25    -0.46045 ( 99.90%)    -0.54805 (  0.10%)    -0.46055
      61    285.97    -0.44653 ( 99.91%)    -0.53994 (  0.09%)    -0.44662
      62    287.45    -0.44392 ( 99.91%)    -0.53841 (  0.09%)    -0.44401
   ------------------------------------------------------------------------

   temp. (K)  partition function   enthalpy   heat capacity  entropy
                                   cal/mol     cal/K/mol   cal/K/mol   J/K/mol
 298.15  VIB  0.306E+32            41639.667    257.852    257.344
         ROT  0.229E+09              888.752      2.981     41.236
         INT  0.702E+40            42528.420    260.833    298.580
         TR   0.301E+29             1481.254      4.968     46.525
         TOT                       44009.6736   265.8007   345.1054  1443.9211

       T/K    H(0)-H(T)+PV         H(T)/Eh          T*S/Eh         G(T)/Eh
   ------------------------------------------------------------------------
    298.15    0.701339E-01    0.121351E+01    0.163971E+00    0.104954E+01
   ------------------------------------------------------------------------

         :::::::::::::::::::::::::::::::::::::::::::::::::::::
         ::                  THERMODYNAMIC                  ::
         :::::::::::::::::::::::::::::::::::::::::::::::::::::
         :: total free energy        -198.878142151208 Eh   ::
         ::.................................................::
         :: total energy             -199.927682232008 Eh   ::
         :: zero point energy           1.143376929898 Eh   ::
         :: G(RRHO) w/o ZPVE           -0.093836849099 Eh   ::
         :: G(RRHO) contrib.            1.049540080799 Eh   ::
         :::::::::::::::::::::::::::::::::::::::::::::::::::::

optimized geometry written to: xtbopt.xyz


           -------------------------------------------------
          | TOTAL ENERGY             -199.927682232008 Eh   |
          | TOTAL ENTHALPY           -198.714171422977 Eh   |
          | TOTAL FREE ENERGY        -198.878142151208 Eh   |
          | GRADIENT NORM               0.000118176415 Eh/α |
           -------------------------------------------------

------------------------------------------------------------------------
 * finished run on 2025/09/07 at 18:50:08.991     
------------------------------------------------------------------------
 total:
 * wall-time:     0 d,  0 h,  0 min, 36.313 sec
 *  cpu-time:     0 d,  0 h, 21 min, 14.583 sec
 * ratio c/w:    35.100 speedup
 SCF:
 * wall-time:     0 d,  0 h,  0 min,  0.762 sec
 *  cpu-time:     0 d,  0 h,  0 min, 30.402 sec
 * ratio c/w:    39.891 speedup
 ANC optimizer:
 * wall-time:     0 d,  0 h,  0 min,  9.081 sec
 *  cpu-time:     0 d,  0 h,  6 min,  3.172 sec
 * ratio c/w:    39.991 speedup
 analytical hessian:
 * wall-time:     0 d,  0 h,  0 min, 26.339 sec
 *  cpu-time:     0 d,  0 h, 14 min, 38.065 sec
 * ratio c/w:    33.337 speedup

