 Entering Gaussian System
 *********************************************
 Gaussian 98:
 frequency output generated by the xtb code
 *********************************************
                         Standard orientation:
 --------------------------------------------------------------------
  Center     Atomic     Atomic              Coordinates (Angstroms)
  Number     Number      Type              X           Y           Z
 --------------------------------------------------------------------
    1          7             0      -11.746983   -2.240488   -0.824145
    2          6             0      -10.743755   -1.717745   -0.631634
    3          6             0       -9.529699   -1.037498   -0.385031
    4          7             0       -8.379044   -1.690031   -0.588977
    5          6             0       -7.283608   -0.999526   -0.349122
    6          6             0       -7.324040    0.375307    0.095710
    7          7             0       -8.458392    1.011029    0.302851
    8          6             0       -9.569249    0.302971    0.065659
    9          6             0      -10.821452    0.923324    0.276233
   10          7             0      -11.853635    1.397510    0.439060
   11          6             0       -5.970168    0.833666    0.248534
   12          6             0       -5.390441    2.024210    0.630981
   13          6             0       -4.001222    2.095373    0.618388
   14          6             0       -3.157755    1.041435    0.263331
   15          6             0       -1.732074    1.383103    0.218863
   16          6             0       -0.934497    1.145559   -0.901004
   17          6             0        0.347109    1.648900   -0.978772
   18          6             0        0.880296    2.409680    0.066298
   19          7             0        2.127291    3.013673   -0.029602
   20          6             0        2.340883    4.264488    0.575956
   21          6             0        1.363012    5.256656    0.516803
   22          6             0        1.583457    6.485733    1.108707
   23          6             0        2.779584    6.747117    1.757806
   24          6             0        3.756528    5.766055    1.813621
   25          6             0        3.541952    4.531152    1.231354
   26          6             0        3.185376    2.425233   -0.736711
   27          6             0        3.431586    1.056594   -0.644767
   28          6             0        4.516340    0.506091   -1.301133
   29          6             0        5.356113    1.299148   -2.065551
   30          6             0        5.105331    2.657702   -2.171688
   31          6             0        4.028894    3.219911   -1.513377
   32          6             0        0.106369    2.592677    1.216828
   33          6             0       -1.175533    2.101540    1.281875
   34          6             0       -3.728683   -0.225994   -0.069526
   35          6             0       -3.088264   -1.466749   -0.378052
   36          6             0       -1.649223   -1.717823   -0.275570
   37          6             0       -1.004819   -2.446378   -1.278840
   38          6             0        0.319329   -2.800501   -1.168725
   39          6             0        1.062191   -2.436181   -0.041095
   40          7             0        2.392984   -2.805967    0.087682
   41          6             0        2.950671   -3.013371    1.364589
   42          6             0        2.245279   -3.709587    2.344403
   43          6             0        2.808601   -3.916668    3.589480
   44          6             0        4.079898   -3.442342    3.871143
   45          6             0        4.786694   -2.755357    2.897374
   46          6             0        4.228296   -2.537791    1.651822
   47          6             0        3.187761   -3.081164   -1.036684
   48          6             0        4.105260   -4.131100   -1.005122
   49          6             0        4.900591   -4.395642   -2.104180
   50          6             0        4.789948   -3.627968   -3.252299
   51          6             0        3.878561   -2.584993   -3.290119
   52          6             0        3.085832   -2.306929   -2.192743
   53          6             0        0.420734   -1.702054    0.963710
   54          6             0       -0.908067   -1.357993    0.850241
   55          6             0       -3.867593   -2.561470   -0.754231
   56          6             0       -5.257278   -2.555116   -0.815088
   57          6             0       -5.905184   -1.391416   -0.459694
   58          6             0       -5.133785   -0.259108   -0.093597
   59          1             0       -5.988785    2.878884    0.905786
   60          1             0       -3.542072    3.041846    0.863307
   61          1             0       -1.345385    0.607602   -1.741958
   62          1             0        0.934019    1.492216   -1.871653
   63          1             0        0.434772    5.058631    0.000800
   64          1             0        0.819922    7.247916    1.053631
   65          1             0        2.949627    7.709894    2.215776
   66          1             0        4.690491    5.960820    2.320210
   67          1             0        4.302059    3.765140    1.280662
   68          1             0        2.778914    0.437281   -0.046636
   69          1             0        4.711928   -0.551743   -1.216353
   70          1             0        6.201004    0.859277   -2.573638
   71          1             0        5.749356    3.283566   -2.772065
   72          1             0        3.834948    4.279717   -1.592448
   73          1             0        0.518783    3.140015    2.051319
   74          1             0       -1.755187    2.254387    2.180555
   75          1             0       -1.551113   -2.728585   -2.166895
   76          1             0        0.781930   -3.383701   -1.950231
   77          1             0        1.259315   -4.090758    2.121081
   78          1             0        2.255064   -4.460844    4.340716
   79          1             0        4.517993   -3.609787    4.843595
   80          1             0        5.777307   -2.380960    3.109826
   81          1             0        4.778881   -1.999981    0.894374
   82          1             0        4.189126   -4.739507   -0.116504
   83          1             0        5.605681   -5.213046   -2.065202
   84          1             0        5.409924   -3.840327   -4.110231
   85          1             0        3.791215   -1.972893   -4.175829
   86          1             0        2.391254   -1.481173   -2.222267
   87          1             0        0.971811   -1.410518    1.845353
   88          1             0       -1.387857   -0.827892    1.658525
   89          1             0       -3.357430   -3.487752   -0.973215
   90          1             0       -5.805794   -3.438618   -1.102616
 --------------------------------------------------------------------
     1 basis functions        1 primitive gaussians
     1 alpha electrons        1 beta electrons
 
 Harmonic frequencies (cm**-1), IR intensities (km*mol⁻¹),
 Raman scattering activities (A**4/amu), Raman depolarization ratios,
 reduced masses (AMU), force constants (mDyne/A) and normal coordinates:
                      1                      2                      3
                        a                      a                      a 
 Frequencies --    10.6097                15.5731                16.6812
 Red. masses --    11.0207                11.8725                11.5444
 Frc consts  --     0.0000                 0.0000                 0.0000
 IR Inten    --     0.3524                 1.5600                 0.9025
 Raman Activ --     0.0000                 0.0000                 0.0000
 Depolar     --     0.0000                 0.0000                 0.0000
 Atom AN      X      Y      Z        X      Y      Z        X      Y      Z
   1   7     0.03   0.01   0.01     0.01  -0.18   0.31     0.02   0.08  -0.24
   2   6     0.02   0.00   0.01     0.01  -0.13   0.21     0.02   0.05  -0.15
   3   6     0.02   0.00   0.02     0.00  -0.08   0.12     0.02   0.02  -0.07
   4   7     0.03   0.01   0.00     0.01  -0.06   0.08     0.02   0.05  -0.15
   5   6     0.02   0.01   0.01     0.00  -0.01  -0.01     0.02   0.02  -0.07
   6   6     0.02   0.00   0.03    -0.01  -0.01  -0.03     0.01  -0.02   0.07
   7   7     0.02  -0.01   0.05    -0.02  -0.04   0.02     0.01  -0.05   0.15
   8   6     0.02  -0.00   0.04    -0.01  -0.07   0.09     0.01  -0.03   0.08
   9   6     0.02  -0.01   0.06    -0.02  -0.11   0.16     0.01  -0.06   0.16
  10   7     0.02  -0.02   0.09    -0.02  -0.15   0.23     0.01  -0.09   0.26
  11   6     0.02   0.00   0.03    -0.02   0.03  -0.10     0.01  -0.03   0.11
  12   6     0.02  -0.00   0.05    -0.03   0.05  -0.14     0.01  -0.06   0.21
  13   6     0.02   0.00   0.04    -0.03   0.07  -0.17     0.01  -0.05   0.19
  14   6     0.02   0.01   0.02    -0.02   0.08  -0.15     0.01  -0.02   0.09
  15   6     0.02   0.01   0.02    -0.02   0.08  -0.13     0.00   0.00   0.06
  16   6     0.02   0.01   0.01     0.01   0.08  -0.11    -0.04   0.05   0.01
  17   6     0.01   0.02   0.00     0.02   0.06  -0.07    -0.05   0.06  -0.02
  18   6     0.01   0.04  -0.01    -0.00   0.05  -0.05    -0.01   0.03  -0.01
  19   7    -0.00   0.07  -0.03     0.02   0.02  -0.01    -0.02   0.04  -0.04
  20   6    -0.04   0.10  -0.09     0.04  -0.00   0.03    -0.00   0.03  -0.02
  21   6    -0.08   0.06  -0.14     0.07   0.03   0.02    -0.01   0.02   0.06
  22   6    -0.12   0.10  -0.20     0.09   0.01   0.05     0.00   0.00   0.08
  23   6    -0.13   0.17  -0.20     0.08  -0.04   0.10     0.04  -0.00   0.03
  24   6    -0.10   0.20  -0.15     0.04  -0.08   0.12     0.05   0.01  -0.05
  25   6    -0.06   0.17  -0.09     0.02  -0.06   0.08     0.03   0.02  -0.08
  26   6     0.02   0.05   0.02     0.03   0.00   0.02    -0.04   0.05  -0.08
  27   6     0.02   0.05   0.08    -0.01  -0.01   0.01    -0.03   0.05  -0.09
  28   6     0.04   0.03   0.12     0.00  -0.02   0.04    -0.05   0.06  -0.13
  29   6     0.05   0.00   0.11     0.05  -0.03   0.09    -0.09   0.07  -0.17
  30   6     0.05  -0.00   0.05     0.08  -0.02   0.10    -0.10   0.07  -0.16
  31   6     0.03   0.02   0.01     0.07  -0.01   0.07    -0.08   0.06  -0.12
  32   6     0.01   0.05  -0.01    -0.04   0.06  -0.08     0.03  -0.02   0.03
  33   6     0.02   0.03   0.01    -0.04   0.08  -0.12     0.04  -0.03   0.06
  34   6     0.02   0.01   0.01    -0.00   0.06  -0.13     0.01   0.01  -0.00
  35   6     0.02   0.02  -0.02     0.01   0.07  -0.12     0.02   0.03  -0.09
  36   6     0.02   0.01  -0.02     0.01   0.08  -0.11     0.01   0.02  -0.07
  37   6     0.03   0.03  -0.03     0.02   0.07  -0.10     0.04   0.04  -0.07
  38   6     0.02   0.02  -0.02     0.01   0.05  -0.08     0.03   0.02  -0.04
  39   6     0.01  -0.03  -0.00    -0.00   0.05  -0.06     0.00  -0.01  -0.01
  40   7    -0.00  -0.07   0.01    -0.01   0.02  -0.03    -0.01  -0.03   0.02
  41   6    -0.04  -0.15   0.01    -0.06   0.01  -0.01    -0.03  -0.00   0.04
  42   6    -0.10  -0.17  -0.04    -0.11   0.03  -0.03    -0.04  -0.00   0.03
  43   6    -0.14  -0.26  -0.04    -0.16   0.02  -0.01    -0.06   0.02   0.05
  44   6    -0.12  -0.33   0.02    -0.16   0.00   0.04    -0.07   0.05   0.06
  45   6    -0.07  -0.31   0.07    -0.11  -0.01   0.06    -0.06   0.04   0.07
  46   6    -0.03  -0.22   0.07    -0.06  -0.01   0.04    -0.04   0.02   0.06
  47   6     0.02  -0.01   0.01     0.01  -0.02   0.00     0.02  -0.07   0.05
  48   6     0.00  -0.03  -0.03    -0.01  -0.03   0.05    -0.00  -0.09   0.11
  49   6     0.02   0.03  -0.03     0.02  -0.07   0.08     0.03  -0.14   0.14
  50   6     0.05   0.10   0.01     0.07  -0.09   0.06     0.08  -0.17   0.12
  51   6     0.06   0.11   0.05     0.09  -0.08   0.01     0.11  -0.14   0.06
  52   6     0.05   0.06   0.05     0.06  -0.04  -0.02     0.08  -0.10   0.03
  53   6     0.01  -0.04   0.01    -0.01   0.07  -0.09    -0.02  -0.03  -0.01
  54   6     0.02  -0.02  -0.00    -0.00   0.09  -0.11    -0.01  -0.02  -0.04
  55   6     0.03   0.02  -0.03     0.02   0.05  -0.09     0.02   0.06  -0.19
  56   6     0.03   0.02  -0.03     0.02   0.03  -0.06     0.02   0.07  -0.20
  57   6     0.02   0.01  -0.01     0.01   0.02  -0.06     0.02   0.04  -0.10
  58   6     0.02   0.01   0.01    -0.01   0.04  -0.10     0.01   0.00   0.00
  59   1     0.01  -0.00   0.02    -0.01   0.01  -0.04     0.00  -0.03   0.09
  60   1     0.01   0.00   0.01    -0.01   0.02  -0.06     0.00  -0.02   0.08
  61   1     0.00   0.00   0.01     0.01   0.02  -0.04    -0.02   0.02   0.00
  62   1     0.00   0.00   0.00     0.01   0.02  -0.02    -0.02   0.03  -0.01
  63   1    -0.02   0.00  -0.04     0.02   0.02  -0.01    -0.01   0.01   0.03
  64   1    -0.04   0.02  -0.07     0.04   0.01   0.01    -0.00  -0.00   0.04
  65   1    -0.05   0.06  -0.07     0.03  -0.02   0.04     0.01  -0.00   0.01
  66   1    -0.03   0.07  -0.04     0.01  -0.04   0.05     0.02   0.00  -0.03
  67   1    -0.01   0.06  -0.01    -0.00  -0.02   0.03     0.01   0.01  -0.04
  68   1     0.00   0.02   0.02    -0.01   0.00  -0.01    -0.00   0.01  -0.02
  69   1     0.01   0.01   0.05    -0.01  -0.01   0.01    -0.01   0.02  -0.04
  70   1     0.02  -0.00   0.04     0.02  -0.01   0.03    -0.03   0.02  -0.06
  71   1     0.02  -0.01   0.01     0.03  -0.01   0.04    -0.04   0.02  -0.05
  72   1     0.01   0.00  -0.01     0.03  -0.00   0.02    -0.03   0.02  -0.03
  73   1     0.00   0.02  -0.01    -0.02   0.02  -0.02     0.02  -0.01   0.01
  74   1     0.01   0.01   0.00    -0.02   0.03  -0.04     0.02  -0.02   0.03
  75   1     0.01   0.02  -0.01     0.01   0.02  -0.03     0.02   0.02  -0.03
  76   1     0.01   0.01  -0.01     0.01   0.01  -0.02     0.01   0.01  -0.01
  77   1    -0.03  -0.03  -0.02    -0.03   0.01  -0.02    -0.01  -0.01   0.01
  78   1    -0.05  -0.08  -0.02    -0.06   0.01  -0.01    -0.02   0.01   0.01
  79   1    -0.05  -0.11   0.01    -0.06  -0.00   0.02    -0.03   0.02   0.02
  80   1    -0.02  -0.11   0.03    -0.03  -0.01   0.03    -0.02   0.02   0.02
  81   1     0.01  -0.06   0.03    -0.01  -0.01   0.02    -0.01   0.01   0.02
  82   1    -0.01  -0.02  -0.02    -0.01  -0.01   0.02    -0.01  -0.02   0.04
  83   1     0.00   0.00  -0.02     0.00  -0.02   0.03     0.00  -0.04   0.05
  84   1     0.02   0.04   0.00     0.03  -0.04   0.02     0.03  -0.06   0.04
  85   1     0.03   0.05   0.02     0.04  -0.03  -0.00     0.04  -0.05   0.01
  86   1     0.02   0.02   0.03     0.02  -0.01  -0.02     0.03  -0.02  -0.00
  87   1     0.00  -0.02   0.01    -0.00   0.02  -0.02    -0.01  -0.01   0.00
  88   1     0.00  -0.01   0.00    -0.00   0.03  -0.03    -0.01  -0.01  -0.01
  89   1     0.01   0.01  -0.02     0.01   0.02  -0.03     0.01   0.02  -0.08
  90   1     0.01   0.01  -0.01     0.01   0.00  -0.01     0.01   0.03  -0.08
                      4                      5                      6
                        a                      a                      a 
 Frequencies --    21.8957                24.8186                28.5848
 Red. masses --    11.5328                10.9734                11.4125
 Frc consts  --     0.0000                 0.0000                 0.0000
 IR Inten    --     0.7465                 0.0858                 0.7447
 Raman Activ --     0.0000                 0.0000                 0.0000
 Depolar     --     0.0000                 0.0000                 0.0000
 Atom AN      X      Y      Z        X      Y      Z        X      Y      Z
   1   7    -0.07   0.15   0.03    -0.03  -0.01   0.13     0.03  -0.06  -0.25
   2   6    -0.05   0.11   0.02    -0.02  -0.00   0.08     0.01  -0.05  -0.15
   3   6    -0.03   0.07   0.02    -0.01   0.00   0.03    -0.01  -0.05  -0.06
   4   7    -0.05   0.07  -0.05    -0.02  -0.01   0.05     0.01  -0.03  -0.07
   5   6    -0.03   0.03  -0.04    -0.01  -0.01   0.01    -0.01  -0.02  -0.00
   6   6     0.01   0.01   0.01     0.00   0.00  -0.03    -0.04  -0.03   0.04
   7   7     0.03   0.02   0.08     0.01   0.02  -0.05    -0.06  -0.07   0.06
   8   6     0.01   0.05   0.09     0.00   0.02  -0.02    -0.04  -0.08   0.01
   9   6     0.03   0.05   0.19     0.01   0.04  -0.04    -0.05  -0.12   0.04
  10   7     0.05   0.07   0.30     0.01   0.06  -0.06    -0.07  -0.18   0.08
  11   6     0.02  -0.01  -0.01     0.00  -0.00  -0.04    -0.04  -0.01   0.06
  12   6     0.05  -0.04   0.01     0.02  -0.00  -0.07    -0.06  -0.01   0.09
  13   6     0.05  -0.06  -0.01     0.02  -0.01  -0.06    -0.07   0.02   0.08
  14   6     0.03  -0.07  -0.04     0.01  -0.03  -0.04    -0.04   0.04   0.06
  15   6     0.03  -0.10  -0.03     0.01  -0.04  -0.04    -0.05   0.06   0.04
  16   6     0.04  -0.09  -0.03     0.02  -0.05  -0.03    -0.05   0.02   0.05
  17   6     0.04  -0.10  -0.02     0.01  -0.04  -0.03    -0.04  -0.01   0.04
  18   6     0.04  -0.11  -0.01     0.01  -0.03  -0.04    -0.03   0.01   0.02
  19   7     0.03  -0.10  -0.01    -0.00  -0.02  -0.05    -0.00  -0.05   0.01
  20   6    -0.02  -0.07  -0.03     0.04  -0.05  -0.01     0.07  -0.04  -0.03
  21   6    -0.06  -0.10  -0.09     0.04  -0.03   0.10     0.13   0.02  -0.03
  22   6    -0.12  -0.08  -0.11     0.09  -0.06   0.14     0.22   0.03  -0.09
  23   6    -0.15  -0.03  -0.07     0.13  -0.10   0.08     0.25  -0.01  -0.14
  24   6    -0.12   0.01  -0.02     0.13  -0.11  -0.02     0.20  -0.07  -0.13
  25   6    -0.06  -0.01   0.00     0.08  -0.09  -0.07     0.10  -0.08  -0.07
  26   6     0.06  -0.08   0.03    -0.02   0.02  -0.11    -0.02  -0.11   0.03
  27   6     0.07  -0.07   0.03     0.07   0.04  -0.08    -0.03  -0.10   0.14
  28   6     0.10  -0.06   0.07     0.07   0.08  -0.12    -0.03  -0.15   0.17
  29   6     0.12  -0.05   0.11    -0.03   0.11  -0.21    -0.04  -0.21   0.11
  30   6     0.11  -0.05   0.11    -0.13   0.09  -0.24    -0.04  -0.22  -0.00
  31   6     0.08  -0.06   0.07    -0.12   0.05  -0.19    -0.03  -0.17  -0.04
  32   6     0.04  -0.13  -0.01     0.01  -0.03  -0.04    -0.04   0.08   0.01
  33   6     0.04  -0.12  -0.02     0.01  -0.04  -0.04    -0.04   0.10   0.02
  34   6    -0.01  -0.05  -0.06    -0.00  -0.03  -0.02    -0.02   0.04   0.04
  35   6    -0.04  -0.06  -0.09    -0.02  -0.04   0.00    -0.00   0.05   0.03
  36   6    -0.04  -0.09  -0.06    -0.02  -0.04   0.02    -0.00   0.06   0.02
  37   6    -0.01  -0.07  -0.05    -0.00  -0.04   0.03    -0.00   0.07   0.01
  38   6    -0.01  -0.05  -0.03    -0.00  -0.02   0.04    -0.00   0.07  -0.00
  39   6    -0.03  -0.03  -0.02    -0.02  -0.01   0.05     0.00   0.07  -0.00
  40   7    -0.02   0.02  -0.01    -0.01   0.01   0.06     0.01   0.08  -0.02
  41   6    -0.02   0.07   0.00    -0.05  -0.04   0.06    -0.00   0.05  -0.01
  42   6     0.02   0.02  -0.00    -0.07  -0.09   0.01    -0.01   0.02  -0.04
  43   6     0.01   0.08   0.01    -0.11  -0.13   0.02    -0.03  -0.01  -0.04
  44   6    -0.03   0.17   0.02    -0.13  -0.12   0.09    -0.04   0.00  -0.00
  45   6    -0.06   0.21   0.03    -0.11  -0.07   0.14    -0.03   0.04   0.03
  46   6    -0.06   0.16   0.02    -0.06  -0.03   0.13    -0.02   0.06   0.02
  47   6     0.01   0.07   0.00     0.02   0.09   0.06     0.00   0.10  -0.02
  48   6     0.08   0.13   0.02     0.09   0.15   0.04     0.04   0.13  -0.03
  49   6     0.11   0.18   0.03     0.12   0.23   0.04     0.04   0.16  -0.03
  50   6     0.08   0.17   0.03     0.08   0.26   0.06    -0.00   0.15  -0.04
  51   6     0.01   0.12   0.01     0.01   0.20   0.08    -0.04   0.11  -0.03
  52   6    -0.02   0.07   0.00    -0.01   0.12   0.08    -0.04   0.09  -0.03
  53   6    -0.07  -0.06  -0.02    -0.03  -0.03   0.04     0.01   0.06   0.00
  54   6    -0.07  -0.09  -0.04    -0.03  -0.04   0.03     0.01   0.06   0.02
  55   6    -0.06  -0.03  -0.13    -0.02  -0.04   0.02     0.02   0.04   0.01
  56   6    -0.06   0.01  -0.13    -0.02  -0.03   0.03     0.02   0.02  -0.01
  57   6    -0.03   0.01  -0.08    -0.01  -0.02   0.01    -0.00   0.01   0.01
  58   6    -0.01  -0.02  -0.06    -0.00  -0.02  -0.02    -0.02   0.01   0.04
  59   1     0.02  -0.01   0.01     0.01   0.00  -0.03    -0.02  -0.01   0.03
  60   1     0.02  -0.02   0.00     0.01  -0.00  -0.02    -0.02   0.01   0.03
  61   1     0.01  -0.02  -0.01     0.01  -0.02  -0.01    -0.02   0.00   0.02
  62   1     0.01  -0.03  -0.01     0.00  -0.01  -0.01    -0.01  -0.01   0.01
  63   1    -0.01  -0.04  -0.03     0.00   0.00   0.04     0.03   0.01   0.00
  64   1    -0.04  -0.03  -0.04     0.03  -0.02   0.07     0.08   0.02  -0.03
  65   1    -0.06  -0.00  -0.03     0.05  -0.04   0.03     0.09  -0.00  -0.05
  66   1    -0.04   0.01   0.00     0.05  -0.04  -0.02     0.06  -0.03  -0.05
  67   1    -0.01   0.00   0.01     0.02  -0.03  -0.04     0.02  -0.04  -0.02
  68   1     0.01  -0.02   0.00     0.04   0.01  -0.00    -0.01  -0.02   0.05
  69   1     0.03  -0.02   0.02     0.04   0.03  -0.02    -0.01  -0.04   0.07
  70   1     0.04  -0.01   0.04    -0.01   0.04  -0.07    -0.01  -0.07   0.04
  71   1     0.04  -0.01   0.04    -0.06   0.03  -0.09    -0.01  -0.08  -0.02
  72   1     0.02  -0.02   0.02    -0.06   0.01  -0.06    -0.01  -0.05  -0.03
  73   1     0.01  -0.04  -0.00     0.00  -0.01  -0.01    -0.01   0.03  -0.00
  74   1     0.01  -0.04  -0.00     0.00  -0.01  -0.01    -0.01   0.04   0.00
  75   1     0.00  -0.02  -0.02     0.00  -0.01   0.01    -0.00   0.02   0.00
  76   1     0.01  -0.01  -0.01     0.00  -0.01   0.01    -0.00   0.02  -0.00
  77   1     0.01  -0.01  -0.00    -0.02  -0.03  -0.01    -0.00   0.00  -0.02
  78   1     0.01   0.01   0.00    -0.04  -0.05  -0.01    -0.01  -0.01  -0.02
  79   1    -0.01   0.06   0.01    -0.05  -0.04   0.03    -0.02  -0.00   0.00
  80   1    -0.03   0.08   0.01    -0.03  -0.02   0.06    -0.01   0.01   0.01
  81   1    -0.02   0.06   0.01    -0.01   0.00   0.05    -0.00   0.02   0.01
  82   1     0.03   0.04   0.01     0.03   0.04   0.00     0.02   0.04  -0.01
  83   1     0.05   0.07   0.01     0.05   0.08   0.01     0.02   0.05  -0.01
  84   1     0.03   0.06   0.01     0.03   0.10   0.02    -0.00   0.05  -0.01
  85   1    -0.00   0.03   0.00    -0.00   0.07   0.03    -0.02   0.03  -0.01
  86   1    -0.02   0.01  -0.00    -0.02   0.02   0.03    -0.02   0.02  -0.01
  87   1    -0.03  -0.02  -0.00    -0.01  -0.01   0.01     0.00   0.02   0.00
  88   1    -0.03  -0.03  -0.01    -0.01  -0.01   0.01     0.00   0.02   0.01
  89   1    -0.02  -0.01  -0.05    -0.01  -0.01   0.01     0.01   0.01   0.00
  90   1    -0.02   0.01  -0.05    -0.01  -0.01   0.01     0.01   0.01  -0.01
                      7                      8                      9
                        a                      a                      a 
 Frequencies --    36.4409                41.2411                48.6597
 Red. masses --    11.7043                11.2642                11.1822
 Frc consts  --     0.0000                 0.0000                 0.0000
 IR Inten    --     1.2695                 2.7152                 1.5773
 Raman Activ --     0.0000                 0.0000                 0.0000
 Depolar     --     0.0000                 0.0000                 0.0000
 Atom AN      X      Y      Z        X      Y      Z        X      Y      Z
   1   7    -0.00   0.05  -0.22    -0.01  -0.12   0.35     0.02  -0.13   0.17
   2   6    -0.00   0.02  -0.13    -0.00  -0.06   0.17     0.01  -0.07   0.08
   3   6    -0.00   0.00  -0.06    -0.00  -0.01   0.00    -0.00  -0.03   0.02
   4   7    -0.00   0.02  -0.11    -0.00   0.02  -0.07     0.01  -0.00  -0.02
   5   6    -0.00   0.01  -0.07     0.00   0.04  -0.14    -0.00   0.01  -0.02
   6   6    -0.00   0.01  -0.08     0.00   0.03  -0.11    -0.02  -0.02   0.08
   7   7    -0.01  -0.02  -0.00     0.00   0.02  -0.10    -0.03  -0.03   0.07
   8   6    -0.01  -0.03   0.03     0.00   0.01  -0.04    -0.02  -0.02   0.00
   9   6    -0.01  -0.09   0.20     0.00   0.01  -0.03    -0.03  -0.00  -0.12
  10   7    -0.01  -0.16   0.41     0.01   0.01  -0.02    -0.04   0.01  -0.29
  11   6    -0.01   0.02  -0.11     0.00   0.02  -0.09    -0.02  -0.03   0.14
  12   6    -0.01   0.04  -0.15     0.00  -0.00  -0.03    -0.02  -0.07   0.25
  13   6    -0.01   0.04  -0.15     0.01  -0.02   0.02    -0.02  -0.05   0.22
  14   6    -0.00   0.02  -0.10     0.01  -0.01   0.00    -0.01  -0.00   0.09
  15   6    -0.00   0.01  -0.08     0.01  -0.02   0.06    -0.02   0.01   0.02
  16   6     0.03  -0.03  -0.04     0.03  -0.01   0.07    -0.07   0.01  -0.02
  17   6     0.03  -0.03  -0.03     0.03  -0.01   0.11    -0.06  -0.01  -0.08
  18   6     0.01   0.01  -0.04     0.01  -0.02   0.13    -0.01  -0.02  -0.10
  19   7     0.00   0.01  -0.03     0.01  -0.02   0.15    -0.01  -0.03  -0.15
  20   6     0.01   0.00  -0.00     0.02   0.01   0.07     0.01  -0.05  -0.09
  21   6     0.03   0.02  -0.02    -0.03  -0.03   0.15     0.06   0.00  -0.16
  22   6     0.04   0.01   0.01    -0.01   0.01   0.07     0.07  -0.02  -0.11
  23   6     0.03  -0.03   0.05     0.06   0.09  -0.10     0.02  -0.11   0.02
  24   6     0.01  -0.05   0.06     0.11   0.14  -0.18    -0.04  -0.16   0.09
  25   6    -0.00  -0.04   0.04     0.09   0.10  -0.09    -0.04  -0.13   0.04
  26   6     0.02   0.03  -0.03    -0.02  -0.02   0.10     0.02  -0.01  -0.10
  27   6     0.05   0.04  -0.02     0.04  -0.01   0.19     0.03  -0.01  -0.12
  28   6     0.06   0.06  -0.02     0.00  -0.02   0.14     0.10   0.03  -0.04
  29   6     0.05   0.08  -0.01    -0.10  -0.06  -0.01     0.17   0.06   0.07
  30   6     0.02   0.07  -0.01    -0.16  -0.07  -0.10     0.15   0.06   0.08
  31   6     0.00   0.05  -0.02    -0.12  -0.06  -0.04     0.08   0.02  -0.01
  32   6    -0.03   0.05  -0.07    -0.01  -0.04   0.12     0.04  -0.01  -0.07
  33   6    -0.03   0.05  -0.09    -0.01  -0.05   0.08     0.04   0.01  -0.01
  34   6    -0.00   0.01  -0.06     0.00   0.01  -0.07    -0.01   0.02   0.01
  35   6    -0.01  -0.01   0.01    -0.00   0.01  -0.10    -0.01   0.04  -0.08
  36   6    -0.01  -0.02   0.05    -0.01  -0.01  -0.05    -0.01   0.04  -0.03
  37   6    -0.01  -0.06   0.09     0.02   0.01  -0.04     0.02   0.06  -0.03
  38   6    -0.01  -0.07   0.12     0.01  -0.00  -0.01     0.02   0.05   0.02
  39   6    -0.02  -0.03   0.12    -0.02  -0.03   0.03    -0.02   0.02   0.05
  40   7    -0.02  -0.02   0.12    -0.02  -0.03   0.04    -0.03   0.03   0.07
  41   6     0.03  -0.03   0.08     0.02   0.00   0.02    -0.01   0.02   0.05
  42   6     0.03   0.07   0.15     0.05   0.05   0.07    -0.01   0.08   0.09
  43   6     0.10   0.05   0.11     0.10   0.07   0.05     0.02   0.07   0.08
  44   6     0.16  -0.07   0.02     0.12   0.05  -0.02     0.06  -0.01   0.02
  45   6     0.16  -0.16  -0.05     0.10  -0.00  -0.07     0.07  -0.08  -0.02
  46   6     0.10  -0.14  -0.02     0.04  -0.03  -0.05     0.04  -0.06   0.00
  47   6    -0.06   0.01   0.07    -0.03  -0.01   0.02    -0.04   0.04   0.05
  48   6    -0.11  -0.04  -0.03    -0.09  -0.06  -0.03    -0.10  -0.01  -0.01
  49   6    -0.18  -0.01  -0.09    -0.10  -0.05  -0.04    -0.13  -0.00  -0.04
  50   6    -0.19   0.06  -0.04    -0.06   0.01  -0.00    -0.10   0.06   0.00
  51   6    -0.14   0.11   0.06    -0.01   0.06   0.05    -0.03   0.12   0.07
  52   6    -0.07   0.08   0.12     0.01   0.05   0.06    -0.01   0.11   0.09
  53   6    -0.03   0.00   0.09    -0.06  -0.07   0.03    -0.06  -0.00   0.05
  54   6    -0.02   0.01   0.05    -0.05  -0.06  -0.01    -0.05   0.00   0.00
  55   6    -0.00  -0.02   0.03    -0.00   0.04  -0.18     0.00   0.08  -0.19
  56   6    -0.00  -0.01  -0.01    -0.00   0.06  -0.21     0.00   0.08  -0.19
  57   6    -0.00   0.01  -0.06    -0.00   0.05  -0.17    -0.00   0.04  -0.07
  58   6    -0.00   0.01  -0.08     0.00   0.03  -0.12    -0.01   0.01   0.03
  59   1    -0.00   0.01  -0.05     0.00  -0.00  -0.00    -0.00  -0.03   0.10
  60   1    -0.00   0.01  -0.05     0.00  -0.01   0.02    -0.01  -0.02   0.08
  61   1     0.02  -0.02  -0.01     0.01   0.00   0.02    -0.03   0.01  -0.00
  62   1     0.02  -0.02  -0.00     0.02   0.00   0.03    -0.03  -0.01  -0.03
  63   1     0.01   0.02  -0.02    -0.03  -0.03   0.08     0.03   0.02  -0.07
  64   1     0.02   0.01  -0.00    -0.01  -0.01   0.04     0.03   0.01  -0.05
  65   1     0.01  -0.01   0.02     0.02   0.04  -0.05     0.01  -0.04   0.02
  66   1    -0.00  -0.02   0.03     0.05   0.06  -0.09    -0.02  -0.06   0.06
  67   1    -0.01  -0.02   0.01     0.04   0.04  -0.04    -0.03  -0.05   0.03
  68   1     0.02   0.01  -0.01     0.03   0.01   0.09    -0.00  -0.01  -0.06
  69   1     0.02   0.02  -0.00     0.02  -0.00   0.06     0.03   0.01  -0.01
  70   1     0.02   0.03  -0.00    -0.04  -0.02  -0.01     0.07   0.03   0.04
  71   1     0.00   0.03  -0.00    -0.07  -0.03  -0.06     0.06   0.02   0.04
  72   1    -0.01   0.01  -0.00    -0.05  -0.02  -0.03     0.02   0.01   0.00
  73   1    -0.01   0.02  -0.02    -0.01  -0.02   0.04     0.02  -0.00  -0.03
  74   1    -0.01   0.02  -0.03    -0.01  -0.02   0.02     0.03   0.00   0.01
  75   1     0.00  -0.03   0.03     0.02   0.01  -0.02     0.02   0.03  -0.02
  76   1    -0.00  -0.03   0.04     0.01   0.00  -0.00     0.01   0.02   0.01
  77   1    -0.00   0.04   0.07     0.01   0.02   0.04    -0.01   0.04   0.04
  78   1     0.03   0.03   0.05     0.03   0.03   0.03     0.00   0.04   0.03
  79   1     0.06  -0.02  -0.00     0.05   0.02  -0.01     0.02  -0.01   0.00
  80   1     0.06  -0.07  -0.04     0.03  -0.01  -0.04     0.03  -0.04  -0.02
  81   1     0.03  -0.06  -0.02     0.01  -0.02  -0.03     0.01  -0.03  -0.01
  82   1    -0.03  -0.03  -0.02    -0.03  -0.03  -0.02    -0.04  -0.02  -0.01
  83   1    -0.06  -0.02  -0.05    -0.04  -0.03  -0.02    -0.05  -0.01  -0.03
  84   1    -0.07   0.02  -0.02    -0.02   0.01  -0.00    -0.03   0.02  -0.00
  85   1    -0.04   0.05   0.03     0.01   0.03   0.02    -0.00   0.05   0.03
  86   1    -0.01   0.03   0.06     0.01   0.03   0.03     0.01   0.04   0.04
  87   1    -0.01   0.01   0.02    -0.03  -0.03   0.02    -0.03  -0.01   0.02
  88   1    -0.01   0.01   0.01    -0.02  -0.02  -0.00    -0.02  -0.01   0.00
  89   1    -0.00  -0.01   0.02    -0.00   0.01  -0.06     0.00   0.03  -0.08
  90   1    -0.00  -0.00   0.00    -0.00   0.02  -0.08     0.00   0.03  -0.08
                     10                     11                     12
                        a                      a                      a 
 Frequencies --    54.4994                55.2154                57.8916
 Red. masses --    10.9903                10.6715                10.8066
 Frc consts  --     0.0000                 0.0000                 0.0000
 IR Inten    --     1.0199                 2.8789                 0.6581
 Raman Activ --     0.0000                 0.0000                 0.0000
 Depolar     --     0.0000                 0.0000                 0.0000
 Atom AN      X      Y      Z        X      Y      Z        X      Y      Z
   1   7    -0.04   0.02   0.09    -0.02   0.10  -0.09     0.04  -0.03  -0.06
   2   6    -0.02   0.01   0.04    -0.00   0.04  -0.02     0.03  -0.03  -0.02
   3   6    -0.01   0.01  -0.01     0.01  -0.00   0.04     0.02  -0.03   0.01
   4   7    -0.02   0.01  -0.04     0.00  -0.03   0.08     0.02  -0.03   0.02
   5   6    -0.01  -0.00  -0.04     0.01  -0.05   0.09     0.02  -0.03   0.03
   6   6     0.01  -0.01  -0.01     0.03  -0.06   0.09     0.02  -0.03   0.02
   7   7     0.01  -0.00  -0.00     0.04  -0.03   0.08     0.02  -0.03   0.02
   8   6     0.01   0.01  -0.01     0.03  -0.00   0.04     0.02  -0.03   0.01
   9   6     0.01   0.03  -0.01     0.04   0.04  -0.02     0.02  -0.03  -0.01
  10   7     0.03   0.06  -0.01     0.07   0.11  -0.09     0.01  -0.03  -0.04
  11   6     0.01  -0.03   0.00     0.03  -0.06   0.07     0.02  -0.03   0.02
  12   6     0.00  -0.04   0.04     0.04  -0.06   0.04     0.03  -0.03   0.01
  13   6     0.00  -0.05   0.04     0.04  -0.05  -0.01     0.03  -0.03   0.00
  14   6     0.01  -0.04   0.02     0.03  -0.05  -0.04     0.03  -0.04   0.01
  15   6    -0.00   0.01   0.02     0.02  -0.02  -0.08     0.04  -0.03   0.05
  16   6     0.01   0.01   0.02    -0.00   0.05  -0.11     0.08  -0.06   0.08
  17   6    -0.02   0.08  -0.00    -0.02   0.11  -0.12     0.09  -0.07   0.12
  18   6    -0.05   0.15  -0.03    -0.02   0.08  -0.10     0.06  -0.04   0.12
  19   7    -0.06   0.15  -0.04    -0.04   0.12  -0.12     0.07  -0.06   0.17
  20   6     0.01   0.12  -0.00    -0.01   0.07  -0.05     0.05  -0.02   0.10
  21   6     0.10   0.20  -0.05    -0.07   0.03   0.16     0.09   0.01  -0.04
  22   6     0.18   0.19  -0.05    -0.08  -0.02   0.27     0.12   0.07  -0.18
  23   6     0.17   0.08   0.00    -0.02  -0.02   0.16     0.11   0.10  -0.17
  24   6     0.08  -0.01   0.07     0.05   0.04  -0.07     0.06   0.06  -0.01
  25   6    -0.01   0.01   0.07     0.05   0.08  -0.17     0.03  -0.00   0.12
  26   6    -0.06   0.09   0.00    -0.02   0.04  -0.03     0.05   0.02   0.08
  27   6    -0.16   0.07  -0.04    -0.05   0.04   0.09     0.10   0.02  -0.01
  28   6    -0.17   0.02  -0.01    -0.03  -0.04   0.18     0.08   0.09  -0.10
  29   6    -0.08  -0.02   0.06     0.01  -0.12   0.15     0.02   0.17  -0.09
  30   6     0.03   0.01   0.10     0.04  -0.12   0.01    -0.02   0.17   0.01
  31   6     0.04   0.06   0.07     0.02  -0.04  -0.08    -0.01   0.09   0.09
  32   6    -0.07   0.17  -0.04     0.01  -0.00  -0.07     0.01  -0.00   0.08
  33   6    -0.04   0.09  -0.02     0.03  -0.05  -0.06     0.00  -0.00   0.05
  34   6     0.01  -0.03  -0.02     0.02  -0.05  -0.01     0.02  -0.03   0.01
  35   6    -0.01  -0.04  -0.04     0.02  -0.05  -0.04     0.00  -0.04  -0.00
  36   6    -0.01  -0.09  -0.03     0.02  -0.04  -0.06     0.00  -0.05  -0.03
  37   6    -0.04  -0.17   0.01     0.01  -0.09  -0.03    -0.02  -0.06  -0.02
  38   6    -0.06  -0.23   0.04     0.01  -0.09  -0.01    -0.02  -0.06  -0.03
  39   6    -0.04  -0.21   0.02     0.01  -0.03  -0.03    -0.01  -0.04  -0.05
  40   7    -0.05  -0.24   0.01     0.01  -0.06  -0.01    -0.01  -0.06  -0.04
  41   6    -0.00  -0.13   0.00    -0.01  -0.02  -0.00    -0.05  -0.03  -0.02
  42   6     0.07  -0.14   0.04    -0.10   0.17   0.07    -0.15   0.09   0.00
  43   6     0.10  -0.04   0.04    -0.15   0.26   0.11    -0.25   0.21   0.07
  44   6     0.07   0.08   0.00    -0.10   0.14   0.08    -0.26   0.20   0.11
  45   6     0.00   0.09  -0.04     0.00  -0.08   0.00    -0.15   0.05   0.08
  46   6    -0.04  -0.01  -0.04     0.05  -0.15  -0.03    -0.05  -0.07   0.01
  47   6    -0.02  -0.12  -0.00     0.00  -0.02  -0.02    -0.02  -0.03  -0.05
  48   6     0.11  -0.01  -0.01    -0.01  -0.04  -0.08    -0.04  -0.05  -0.11
  49   6     0.16   0.11   0.00    -0.03   0.01  -0.11    -0.10  -0.04  -0.15
  50   6     0.08   0.11   0.01    -0.03   0.07  -0.06    -0.13  -0.01  -0.13
  51   6    -0.06  -0.01   0.01    -0.02   0.08  -0.00    -0.09   0.03  -0.06
  52   6    -0.11  -0.12   0.01    -0.00   0.04   0.02    -0.04   0.02  -0.02
  53   6    -0.02  -0.15  -0.01     0.02   0.04  -0.07     0.01  -0.00  -0.06
  54   6    -0.00  -0.09  -0.03     0.02   0.03  -0.09     0.01  -0.02  -0.04
  55   6    -0.02  -0.02  -0.07     0.01  -0.05  -0.01    -0.00  -0.04   0.01
  56   6    -0.02  -0.00  -0.08     0.00  -0.06   0.04     0.00  -0.04   0.03
  57   6    -0.01  -0.01  -0.06     0.01  -0.06   0.07     0.02  -0.03   0.03
  58   6     0.00  -0.02  -0.03     0.02  -0.06   0.05     0.02  -0.03   0.02
  59   1     0.00  -0.01   0.02     0.01  -0.02   0.02     0.01  -0.01   0.00
  60   1    -0.00  -0.01   0.02     0.01  -0.01  -0.01     0.01  -0.01   0.00
  61   1     0.01  -0.01   0.01    -0.00   0.02  -0.03     0.03  -0.02   0.02
  62   1    -0.01   0.02   0.00    -0.01   0.05  -0.04     0.03  -0.03   0.04
  63   1     0.03   0.08  -0.03    -0.03   0.01   0.07     0.03  -0.00  -0.02
  64   1     0.07   0.07  -0.03    -0.04  -0.02   0.13     0.05   0.03  -0.09
  65   1     0.07   0.02   0.00    -0.01  -0.02   0.07     0.04   0.04  -0.09
  66   1     0.02  -0.03   0.04     0.03   0.01  -0.05     0.01   0.02   0.00
  67   1    -0.02  -0.02   0.03     0.03   0.04  -0.09    -0.00  -0.01   0.07
  68   1    -0.06   0.03  -0.02    -0.02   0.03   0.04     0.04  -0.01  -0.01
  69   1    -0.07  -0.00  -0.01    -0.02  -0.01   0.08     0.03   0.03  -0.05
  70   1    -0.02  -0.02   0.02     0.01  -0.05   0.06     0.00   0.07  -0.05
  71   1     0.03  -0.00   0.05     0.02  -0.06  -0.01    -0.02   0.07   0.01
  72   1     0.03   0.02   0.03     0.01  -0.01  -0.05    -0.01   0.03   0.05
  73   1    -0.03   0.06  -0.02     0.00  -0.01  -0.02    -0.01   0.01   0.02
  74   1    -0.01   0.03  -0.01     0.01  -0.03  -0.01    -0.01   0.01   0.01
  75   1    -0.01  -0.05   0.00     0.00  -0.04  -0.00    -0.01  -0.02  -0.00
  76   1    -0.02  -0.08   0.02     0.00  -0.04   0.01    -0.01  -0.02  -0.01
  77   1     0.03  -0.06   0.02    -0.04   0.07   0.03    -0.04   0.03  -0.01
  78   1     0.05  -0.01   0.02    -0.07   0.12   0.05    -0.10   0.09   0.03
  79   1     0.03   0.04   0.00    -0.04   0.06   0.03    -0.10   0.09   0.05
  80   1    -0.01   0.05  -0.02     0.01  -0.05  -0.01    -0.04   0.01   0.03
  81   1    -0.03   0.00  -0.02     0.04  -0.09  -0.02     0.01  -0.05  -0.00
  82   1     0.05  -0.00  -0.00    -0.00  -0.02  -0.03    -0.01  -0.02  -0.04
  83   1     0.08   0.06   0.00    -0.01  -0.00  -0.05    -0.04  -0.02  -0.06
  84   1     0.03   0.06   0.01    -0.01   0.03  -0.02    -0.05  -0.00  -0.05
  85   1    -0.04  -0.00   0.01    -0.01   0.04   0.01    -0.03   0.02  -0.01
  86   1    -0.06  -0.06   0.00     0.00   0.01   0.02    -0.01   0.01   0.01
  87   1    -0.00  -0.04  -0.01     0.01   0.03  -0.03     0.01   0.01  -0.02
  88   1     0.01  -0.01  -0.02     0.01   0.02  -0.03     0.00  -0.00  -0.01
  89   1    -0.01  -0.01  -0.02     0.00  -0.02  -0.01    -0.00  -0.01   0.00
  90   1    -0.01   0.00  -0.03    -0.00  -0.02   0.02    -0.00  -0.01   0.01
                     13                     14                     15
                        a                      a                      a 
 Frequencies --    59.2944                67.5728                70.1680
 Red. masses --    10.8376                10.8381                11.0876
 Frc consts  --     0.0000                 0.0000                 0.0000
 IR Inten    --     2.6179                 1.2064                 0.4468
 Raman Activ --     0.0000                 0.0000                 0.0000
 Depolar     --     0.0000                 0.0000                 0.0000
 Atom AN      X      Y      Z        X      Y      Z        X      Y      Z
   1   7    -0.12   0.16  -0.10    -0.07   0.09   0.04     0.12  -0.17  -0.14
   2   6    -0.09   0.07  -0.02    -0.04   0.03   0.01     0.05  -0.07  -0.04
   3   6    -0.06   0.00   0.05    -0.01  -0.01  -0.00     0.01  -0.02   0.03
   4   7    -0.08  -0.04   0.10    -0.03  -0.04  -0.02     0.03   0.01   0.07
   5   6    -0.06  -0.06   0.10    -0.01  -0.06  -0.02     0.00   0.04   0.08
   6   6    -0.04  -0.05   0.07     0.02  -0.06  -0.01    -0.02   0.05   0.04
   7   7    -0.03  -0.02   0.06     0.03  -0.04   0.00    -0.05   0.02   0.03
   8   6    -0.04   0.00   0.04     0.02  -0.01   0.00    -0.03  -0.01   0.02
   9   6    -0.02   0.05   0.01     0.04   0.03   0.00    -0.06  -0.08  -0.02
  10   7    -0.01   0.11  -0.03     0.07   0.10   0.01    -0.13  -0.21  -0.08
  11   6    -0.04  -0.05   0.03     0.02  -0.08  -0.01    -0.02   0.07   0.02
  12   6    -0.03  -0.03  -0.04     0.03  -0.09  -0.00     0.00   0.08  -0.03
  13   6    -0.04  -0.03  -0.08     0.03  -0.10  -0.01     0.01   0.08  -0.04
  14   6    -0.04  -0.04  -0.05     0.02  -0.10  -0.02     0.00   0.07  -0.02
  15   6    -0.04  -0.03  -0.04     0.02  -0.08  -0.03     0.02   0.03  -0.03
  16   6     0.01  -0.07   0.00     0.03  -0.04  -0.03     0.00   0.05  -0.04
  17   6     0.00  -0.06   0.03     0.01   0.03  -0.04     0.01   0.03  -0.04
  18   6    -0.04  -0.01   0.01    -0.02   0.06  -0.05     0.04  -0.01  -0.03
  19   7    -0.04  -0.01   0.03    -0.04   0.10  -0.06     0.04   0.01  -0.05
  20   6    -0.01  -0.01   0.02     0.00   0.07  -0.02     0.03  -0.00  -0.03
  21   6     0.05   0.05  -0.02     0.02   0.09   0.07    -0.03  -0.06   0.12
  22   6     0.13   0.06  -0.08     0.09   0.08   0.07    -0.05  -0.07   0.14
  23   6     0.15   0.01  -0.09     0.15   0.05  -0.02     0.02  -0.00  -0.00
  24   6     0.08  -0.05  -0.02     0.13   0.02  -0.09     0.09   0.06  -0.15
  25   6    -0.00  -0.06   0.03     0.05   0.03  -0.08     0.09   0.06  -0.16
  26   6    -0.02   0.02   0.03    -0.01   0.07  -0.01     0.06   0.02  -0.03
  27   6     0.08   0.04   0.10    -0.01   0.08   0.02     0.07   0.02  -0.04
  28   6     0.12   0.10   0.12     0.03   0.07   0.09     0.12   0.05   0.01
  29   6     0.06   0.12   0.08     0.08   0.07   0.14     0.16   0.07   0.08
  30   6    -0.05   0.10   0.01     0.08   0.07   0.11     0.13   0.07   0.07
  31   6    -0.09   0.04  -0.02     0.03   0.07   0.02     0.08   0.04   0.01
  32   6    -0.09   0.04  -0.03    -0.03   0.03  -0.05     0.07  -0.05  -0.01
  33   6    -0.08   0.02  -0.05     0.00  -0.05  -0.03     0.05  -0.02  -0.01
  34   6    -0.05  -0.05  -0.00     0.00  -0.10  -0.02    -0.01   0.07   0.01
  35   6    -0.05  -0.05  -0.02    -0.02  -0.10  -0.02    -0.02   0.06   0.02
  36   6    -0.04  -0.03  -0.05    -0.02  -0.08   0.01    -0.03   0.04   0.00
  37   6    -0.01   0.05  -0.09     0.03  -0.03   0.01    -0.05   0.06  -0.03
  38   6     0.00   0.09  -0.10     0.05   0.06   0.01    -0.07  -0.01  -0.03
  39   6    -0.02   0.01  -0.06     0.02   0.10   0.03    -0.08  -0.12   0.01
  40   7    -0.04  -0.01  -0.04     0.05   0.22   0.03    -0.11  -0.20  -0.00
  41   6    -0.01   0.01  -0.05     0.02   0.12   0.03    -0.06  -0.11  -0.01
  42   6     0.01   0.05  -0.00     0.05  -0.09  -0.09     0.05  -0.21  -0.00
  43   6     0.08   0.04  -0.03     0.04  -0.21  -0.10     0.09  -0.10  -0.00
  44   6     0.11   0.00  -0.10    -0.03  -0.11   0.00     0.01   0.14  -0.01
  45   6     0.08  -0.03  -0.14    -0.07   0.11   0.12    -0.11   0.24  -0.02
  46   6     0.01  -0.02  -0.11    -0.05   0.22   0.13    -0.14   0.11  -0.02
  47   6     0.01  -0.03  -0.01     0.00   0.11   0.02    -0.08  -0.10  -0.01
  48   6    -0.11  -0.13   0.01    -0.07   0.05   0.03    -0.10  -0.12  -0.06
  49   6     0.00  -0.12   0.09    -0.20  -0.11  -0.03    -0.07  -0.05  -0.05
  50   6     0.23   0.01   0.15    -0.25  -0.19  -0.08    -0.01   0.06   0.01
  51   6     0.33   0.09   0.12    -0.13  -0.09  -0.06     0.02   0.08   0.07
  52   6     0.20   0.06   0.04    -0.01   0.06  -0.01    -0.02   0.00   0.06
  53   6    -0.05  -0.04  -0.03    -0.04   0.02   0.05    -0.06  -0.15   0.05
  54   6    -0.05  -0.06  -0.03    -0.06  -0.06   0.04    -0.03  -0.06   0.04
  55   6    -0.05  -0.06   0.02    -0.02  -0.09  -0.04    -0.02   0.05   0.05
  56   6    -0.06  -0.07   0.08    -0.02  -0.08  -0.05    -0.02   0.04   0.09
  57   6    -0.06  -0.07   0.09    -0.01  -0.08  -0.03    -0.00   0.05   0.08
  58   6    -0.05  -0.06   0.04     0.00  -0.09  -0.02    -0.01   0.07   0.04
  59   1    -0.01  -0.01  -0.02     0.01  -0.02   0.00     0.00   0.03  -0.01
  60   1    -0.01  -0.00  -0.04     0.01  -0.03  -0.01     0.00   0.02  -0.02
  61   1     0.01  -0.03   0.00     0.02  -0.02  -0.01    -0.00   0.02  -0.01
  62   1     0.01  -0.03   0.02     0.00   0.01  -0.01    -0.00   0.01  -0.02
  63   1     0.01   0.02  -0.01    -0.01   0.03   0.04    -0.02  -0.03   0.06
  64   1     0.05   0.03  -0.04     0.03   0.03   0.04    -0.03  -0.03   0.07
  65   1     0.06   0.01  -0.04     0.06   0.01  -0.01     0.00  -0.00   0.00
  66   1     0.02  -0.03  -0.01     0.05  -0.00  -0.05     0.04   0.03  -0.08
  67   1    -0.02  -0.03   0.02     0.01   0.00  -0.04     0.04   0.03  -0.07
  68   1     0.04   0.01   0.04    -0.01   0.02  -0.00     0.02   0.00  -0.02
  69   1     0.06   0.03   0.05     0.01   0.02   0.03     0.04   0.01  -0.00
  70   1     0.03   0.05   0.03     0.04   0.02   0.06     0.06   0.03   0.04
  71   1    -0.03   0.03  -0.01     0.03   0.02   0.04     0.05   0.02   0.03
  72   1    -0.05   0.01  -0.02     0.01   0.02  -0.00     0.02   0.01   0.00
  73   1    -0.04   0.03  -0.01    -0.01   0.01  -0.01     0.03  -0.03   0.00
  74   1    -0.03   0.02  -0.02     0.00  -0.02  -0.01     0.02  -0.01   0.00
  75   1    -0.00   0.03  -0.03     0.01  -0.01   0.00    -0.02   0.04  -0.01
  76   1     0.01   0.05  -0.04     0.03   0.03   0.00    -0.02   0.01  -0.02
  77   1    -0.00   0.02   0.02     0.03  -0.05  -0.05     0.03  -0.11  -0.00
  78   1     0.03   0.02   0.00     0.02  -0.11  -0.06     0.05  -0.05   0.00
  79   1     0.04  -0.00  -0.04    -0.01  -0.06  -0.00     0.01   0.07   0.00
  80   1     0.03  -0.02  -0.06    -0.03   0.06   0.06    -0.05   0.12  -0.00
  81   1    -0.00  -0.01  -0.04    -0.02   0.11   0.06    -0.07   0.05  -0.01
  82   1    -0.08  -0.06  -0.01    -0.01   0.03   0.02    -0.04  -0.05  -0.03
  83   1    -0.02  -0.05   0.03    -0.08  -0.05  -0.01    -0.03  -0.02  -0.03
  84   1     0.10   0.01   0.06    -0.11  -0.10  -0.04     0.01   0.04   0.01
  85   1     0.14   0.05   0.05    -0.04  -0.04  -0.03     0.02   0.05   0.03
  86   1     0.08   0.04   0.01     0.02   0.04  -0.00    -0.00   0.00   0.03
  87   1    -0.02  -0.02  -0.00    -0.02   0.00   0.02    -0.02  -0.07   0.02
  88   1    -0.02  -0.03  -0.00    -0.03  -0.03   0.01    -0.01  -0.02   0.01
  89   1    -0.01  -0.01  -0.00    -0.01  -0.03  -0.01    -0.00   0.02   0.02
  90   1    -0.02  -0.02   0.03    -0.01  -0.02  -0.02    -0.01   0.01   0.03
                     16                     17                     18
                        a                      a                      a 
 Frequencies --    76.8000                80.3649                96.5741
 Red. masses --    10.1040                11.7609                11.1482
 Frc consts  --     0.0000                 0.0000                 0.0000
 IR Inten    --     4.8309                 1.4614                 8.3173
 Raman Activ --     0.0000                 0.0000                 0.0000
 Depolar     --     0.0000                 0.0000                 0.0000
 Atom AN      X      Y      Z        X      Y      Z        X      Y      Z
   1   7     0.05   0.00  -0.02    -0.02  -0.06   0.22     0.08  -0.11   0.01
   2   6     0.04   0.00   0.00    -0.01  -0.00   0.01     0.02   0.01   0.00
   3   6     0.04   0.00   0.02    -0.00   0.04  -0.14    -0.01   0.07  -0.00
   4   7     0.04  -0.00   0.02    -0.00   0.06  -0.19    -0.01   0.09  -0.03
   5   6     0.04  -0.00   0.02    -0.00   0.05  -0.17    -0.02   0.09  -0.00
   6   6     0.04  -0.00   0.03    -0.00   0.06  -0.21    -0.01   0.08   0.05
   7   7     0.04  -0.00   0.03    -0.00   0.07  -0.24    -0.03   0.07   0.07
   8   6     0.04  -0.00   0.02    -0.00   0.05  -0.16    -0.02   0.06   0.03
   9   6     0.05   0.02   0.00     0.00   0.00   0.01    -0.08  -0.05  -0.01
  10   7     0.06   0.05  -0.01     0.01  -0.06   0.26    -0.21  -0.30  -0.12
  11   6     0.03  -0.00   0.02    -0.00   0.03  -0.10     0.01   0.04   0.06
  12   6     0.03   0.01  -0.00    -0.01  -0.00   0.00     0.06   0.01   0.07
  13   6     0.03   0.02  -0.02    -0.00  -0.04   0.15     0.06  -0.03   0.04
  14   6     0.03   0.02  -0.00    -0.00  -0.05   0.17     0.05  -0.04   0.02
  15   6     0.02   0.02  -0.00    -0.01  -0.05   0.15     0.06  -0.04   0.02
  16   6     0.06  -0.08   0.04    -0.07  -0.07   0.11     0.13  -0.19   0.10
  17   6     0.06  -0.08   0.03    -0.09  -0.04   0.01     0.13  -0.17   0.09
  18   6     0.01   0.04  -0.03    -0.05   0.01  -0.04     0.06   0.02  -0.01
  19   7    -0.00   0.05  -0.06    -0.08   0.05  -0.16     0.04   0.06  -0.05
  20   6    -0.01   0.04  -0.05    -0.03   0.02  -0.09     0.03   0.06  -0.04
  21   6     0.03   0.08  -0.16    -0.01   0.04  -0.03     0.02   0.05  -0.00
  22   6    -0.03   0.03  -0.05     0.02   0.00   0.04    -0.02   0.01   0.08
  23   6    -0.14  -0.05   0.18     0.03  -0.07   0.05    -0.04   0.00   0.11
  24   6    -0.16  -0.07   0.26     0.01  -0.09  -0.02    -0.01   0.03   0.04
  25   6    -0.09  -0.02   0.13    -0.02  -0.05  -0.09     0.03   0.06  -0.04
  26   6     0.00   0.00  -0.01    -0.05   0.02  -0.10     0.07   0.05  -0.01
  27   6     0.07   0.03   0.19    -0.04   0.03  -0.04     0.14   0.07   0.11
  28   6     0.03  -0.03   0.17     0.03   0.04   0.07     0.14   0.06   0.12
  29   6    -0.09  -0.11  -0.06     0.09   0.03   0.13     0.09   0.03   0.03
  30   6    -0.15  -0.13  -0.23     0.06   0.02   0.05     0.02   0.01  -0.07
  31   6    -0.10  -0.07  -0.19    -0.01   0.02  -0.06     0.01   0.02  -0.10
  32   6    -0.03   0.15  -0.07     0.02   0.02   0.00    -0.00   0.15  -0.07
  33   6    -0.02   0.13  -0.06     0.04  -0.02   0.10     0.01   0.12  -0.06
  34   6     0.04   0.01   0.00    -0.01  -0.03   0.11    -0.00  -0.02   0.02
  35   6     0.04   0.02  -0.01    -0.01  -0.05   0.18    -0.07  -0.06   0.00
  36   6     0.03   0.01  -0.00     0.00  -0.04   0.14    -0.08  -0.11   0.01
  37   6     0.04   0.05  -0.04    -0.03   0.03   0.07    -0.10  -0.19   0.05
  38   6     0.03   0.04  -0.04    -0.01   0.06  -0.02    -0.08  -0.13   0.03
  39   6     0.01  -0.04   0.00     0.03   0.02  -0.03    -0.05   0.00  -0.03
  40   7     0.01  -0.06  -0.00     0.02  -0.02  -0.07    -0.02   0.10  -0.05
  41   6     0.01  -0.05  -0.00     0.01  -0.03  -0.06    -0.03   0.08  -0.04
  42   6     0.05  -0.14  -0.03    -0.04   0.02  -0.06    -0.06   0.11  -0.04
  43   6     0.02  -0.07  -0.01    -0.10   0.10  -0.02    -0.04   0.03  -0.07
  44   6    -0.06   0.11   0.05    -0.12   0.11   0.01     0.01  -0.08  -0.09
  45   6    -0.10   0.19   0.08    -0.06   0.03   0.00     0.02  -0.09  -0.08
  46   6    -0.06   0.10   0.05     0.01  -0.04  -0.04    -0.00   0.00  -0.05
  47   6     0.00  -0.03  -0.01     0.02  -0.03  -0.07    -0.02   0.03  -0.02
  48   6    -0.08  -0.10  -0.09    -0.03  -0.08  -0.08     0.04   0.08   0.08
  49   6    -0.13  -0.10  -0.12     0.00  -0.07  -0.06     0.07   0.03   0.11
  50   6    -0.08  -0.01  -0.07     0.10  -0.00  -0.02     0.03  -0.09   0.04
  51   6     0.01   0.08   0.02     0.15   0.04  -0.01    -0.03  -0.14  -0.06
  52   6     0.05   0.07   0.05     0.10   0.02  -0.04    -0.05  -0.08  -0.09
  53   6     0.01  -0.09   0.04     0.07  -0.01   0.02    -0.04   0.05  -0.06
  54   6     0.02  -0.06   0.03     0.05  -0.04   0.11    -0.06  -0.01  -0.04
  55   6     0.04   0.02  -0.02    -0.00  -0.06   0.20    -0.11  -0.02  -0.02
  56   6     0.04   0.01  -0.01    -0.00  -0.03   0.08    -0.10   0.05  -0.04
  57   6     0.04   0.00   0.01    -0.00   0.02  -0.06    -0.04   0.07  -0.02
  58   6     0.04   0.00   0.01    -0.00   0.00  -0.02    -0.01   0.03   0.02
  59   1     0.01   0.00  -0.00    -0.00   0.00  -0.01     0.03   0.01   0.03
  60   1     0.01   0.01  -0.01     0.00  -0.02   0.06     0.02  -0.01   0.01
  61   1     0.03  -0.05   0.02    -0.03  -0.03   0.04     0.06  -0.09   0.04
  62   1     0.03  -0.05   0.02    -0.04  -0.01  -0.01     0.05  -0.09   0.04
  63   1     0.03   0.04  -0.09    -0.01   0.03  -0.01     0.01   0.02  -0.01
  64   1    -0.00   0.02  -0.04     0.01   0.01   0.03    -0.01  -0.00   0.04
  65   1    -0.06  -0.03   0.09     0.02  -0.03   0.03    -0.02  -0.01   0.06
  66   1    -0.07  -0.04   0.12     0.01  -0.04  -0.00    -0.00   0.01   0.01
  67   1    -0.03  -0.01   0.05    -0.01  -0.02  -0.04     0.02   0.02  -0.02
  68   1     0.04   0.03   0.10    -0.02   0.01  -0.02     0.05   0.03   0.05
  69   1     0.03  -0.00   0.09     0.01   0.01   0.03     0.05   0.02   0.05
  70   1    -0.04  -0.04  -0.03     0.04   0.01   0.07     0.03   0.01   0.01
  71   1    -0.07  -0.06  -0.11     0.03   0.01   0.03    -0.01  -0.00  -0.04
  72   1    -0.04  -0.03  -0.09    -0.01   0.00  -0.03    -0.01   0.00  -0.05
  73   1    -0.02   0.07  -0.03     0.02   0.01  -0.01    -0.02   0.08  -0.03
  74   1    -0.01   0.06  -0.02     0.03  -0.00   0.04    -0.00   0.06  -0.03
  75   1     0.01   0.03  -0.02    -0.02   0.01   0.03    -0.03  -0.08   0.03
  76   1     0.01   0.02  -0.02    -0.01   0.03  -0.02    -0.02  -0.05   0.02
  77   1     0.03  -0.07  -0.02    -0.01   0.01  -0.02    -0.02   0.05  -0.01
  78   1     0.02  -0.04  -0.01    -0.04   0.04  -0.00    -0.02   0.01  -0.02
  79   1    -0.03   0.06   0.02    -0.05   0.05   0.01     0.01  -0.05  -0.03
  80   1    -0.05   0.09   0.04    -0.02   0.01   0.01     0.02  -0.05  -0.03
  81   1    -0.03   0.05   0.02     0.02  -0.03  -0.01     0.00  -0.00  -0.01
  82   1    -0.03  -0.04  -0.03    -0.03  -0.03  -0.03     0.02   0.05   0.04
  83   1    -0.06  -0.05  -0.06    -0.01  -0.03  -0.02     0.03   0.02   0.06
  84   1    -0.04  -0.00  -0.03     0.04   0.00   0.00     0.01  -0.04   0.02
  85   1     0.02   0.04   0.02     0.06   0.03   0.00    -0.02  -0.07  -0.04
  86   1     0.03   0.04   0.03     0.04   0.01  -0.01    -0.03  -0.03  -0.05
  87   1    -0.00  -0.04   0.02     0.03  -0.01  -0.00    -0.00   0.04  -0.03
  88   1     0.00  -0.02   0.01     0.03  -0.02   0.04    -0.01   0.01  -0.02
  89   1     0.01   0.01  -0.01    -0.00  -0.02   0.08    -0.04  -0.01  -0.00
  90   1     0.01   0.00  -0.01     0.00  -0.01   0.03    -0.04   0.02  -0.02
                     19                     20                     21
                        a                      a                      a 
 Frequencies --   101.3454               104.1520               113.2927
 Red. masses --    13.3787                11.2569                10.0435
 Frc consts  --     0.0000                 0.0000                 0.0000
 IR Inten    --     4.9885                 1.3497                 4.9229
 Raman Activ --     0.0000                 0.0000                 0.0000
 Depolar     --     0.0000                 0.0000                 0.0000
 Atom AN      X      Y      Z        X      Y      Z        X      Y      Z
   1   7     0.37  -0.59  -0.21    -0.01  -0.08  -0.01     0.04  -0.05   0.01
   2   6     0.11  -0.16  -0.06    -0.01  -0.06  -0.02     0.01   0.01  -0.01
   3   6    -0.01   0.03   0.01    -0.02  -0.04  -0.02    -0.01   0.04  -0.02
   4   7     0.00   0.04   0.03    -0.01  -0.03  -0.05    -0.01   0.04  -0.02
   5   6    -0.00   0.03   0.02    -0.01  -0.04  -0.04    -0.01   0.03  -0.01
   6   6     0.00   0.04   0.00    -0.03  -0.06   0.02    -0.01   0.03  -0.01
   7   7     0.00   0.03  -0.01    -0.03  -0.08   0.05    -0.01   0.04  -0.02
   8   6    -0.01   0.03  -0.00    -0.03  -0.06   0.01    -0.01   0.04  -0.02
   9   6     0.06   0.15   0.05     0.04   0.08   0.03    -0.02   0.01  -0.00
  10   7     0.20   0.41   0.16     0.18   0.38   0.07    -0.04  -0.04   0.02
  11   6     0.01   0.02   0.00    -0.05  -0.03   0.03    -0.00   0.02   0.01
  12   6     0.04   0.01  -0.01    -0.12  -0.00   0.05     0.00   0.01   0.06
  13   6     0.05  -0.03  -0.01    -0.12   0.06   0.02     0.00  -0.00   0.05
  14   6     0.02  -0.04   0.00    -0.09   0.10   0.00    -0.02   0.01  -0.02
  15   6     0.03  -0.06   0.01    -0.10   0.12  -0.01    -0.02   0.02  -0.06
  16   6     0.02  -0.01  -0.01    -0.05  -0.08   0.08    -0.12   0.24  -0.17
  17   6     0.01   0.02  -0.01    -0.01  -0.17   0.09    -0.12   0.23  -0.16
  18   6     0.00   0.01  -0.00    -0.04  -0.05   0.01    -0.04  -0.01  -0.03
  19   7    -0.01   0.03  -0.01    -0.04  -0.09   0.01    -0.03  -0.02   0.02
  20   6    -0.00   0.02   0.00    -0.03  -0.07  -0.02    -0.03  -0.03   0.04
  21   6     0.01   0.04  -0.02    -0.07  -0.10   0.06     0.01   0.01  -0.05
  22   6     0.03   0.04  -0.02    -0.08  -0.11   0.08     0.06   0.03  -0.12
  23   6     0.02   0.02   0.00    -0.03  -0.07  -0.01     0.04  -0.00  -0.07
  24   6     0.00   0.00   0.03     0.01  -0.03  -0.12    -0.03  -0.07   0.06
  25   6    -0.01   0.00   0.03     0.01  -0.03  -0.11    -0.06  -0.08   0.11
  26   6    -0.01   0.02   0.00    -0.02  -0.04  -0.01    -0.01   0.01   0.03
  27   6    -0.04   0.01  -0.00     0.11  -0.02   0.03     0.15   0.05   0.20
  28   6    -0.06  -0.01  -0.01     0.18   0.08   0.07     0.19   0.10   0.24
  29   6    -0.04  -0.03  -0.01     0.15   0.15   0.10     0.07   0.11   0.11
  30   6    -0.01  -0.03  -0.00     0.00   0.12   0.04    -0.12   0.06  -0.09
  31   6     0.01   0.00   0.01    -0.09   0.02  -0.02    -0.16   0.01  -0.12
  32   6     0.02  -0.03   0.01    -0.11   0.15  -0.06     0.06  -0.22   0.07
  33   6     0.03  -0.07   0.02    -0.13   0.23  -0.07     0.06  -0.21   0.06
  34   6    -0.01  -0.03   0.00    -0.02   0.06  -0.00    -0.00   0.01  -0.02
  35   6    -0.05  -0.05  -0.00     0.04   0.09  -0.00     0.01   0.01  -0.01
  36   6    -0.06  -0.05  -0.01     0.04   0.07   0.01     0.01   0.01  -0.03
  37   6    -0.05  -0.02  -0.02     0.01  -0.02   0.05    -0.03  -0.15   0.05
  38   6    -0.04   0.01  -0.02    -0.01  -0.09   0.05    -0.04  -0.18   0.06
  39   6    -0.06   0.03  -0.01     0.04  -0.05   0.00     0.01  -0.04  -0.01
  40   7    -0.06   0.07  -0.01     0.04  -0.09  -0.01     0.01  -0.04  -0.00
  41   6    -0.05   0.05  -0.01     0.04  -0.06  -0.00     0.01  -0.01   0.00
  42   6    -0.05   0.06  -0.00     0.04  -0.06  -0.00     0.03  -0.04  -0.01
  43   6    -0.01   0.01  -0.03     0.02  -0.02   0.01     0.04  -0.05  -0.01
  44   6     0.01  -0.04  -0.06     0.00   0.02   0.03     0.02  -0.02  -0.01
  45   6     0.00  -0.03  -0.06     0.00   0.02   0.02    -0.00   0.03   0.01
  46   6    -0.03   0.02  -0.03     0.02  -0.02   0.01    -0.01   0.03   0.01
  47   6    -0.05   0.04   0.00     0.03  -0.06  -0.01     0.02  -0.04   0.00
  48   6    -0.07   0.02   0.04     0.12   0.01  -0.01     0.06   0.00   0.01
  49   6    -0.03   0.01   0.07     0.09   0.02  -0.03     0.04  -0.01  -0.00
  50   6     0.02   0.02   0.06    -0.02  -0.05  -0.06    -0.03  -0.05  -0.03
  51   6     0.03   0.02   0.03    -0.08  -0.10  -0.06    -0.05  -0.07  -0.03
  52   6    -0.01   0.03  -0.00    -0.05  -0.10  -0.04    -0.03  -0.06  -0.01
  53   6    -0.07  -0.00   0.00     0.08   0.04  -0.04     0.06   0.10  -0.09
  54   6    -0.08  -0.04   0.00     0.09   0.10  -0.03     0.06   0.12  -0.10
  55   6    -0.06  -0.04   0.01     0.06   0.08  -0.03    -0.01   0.00   0.06
  56   6    -0.06  -0.01   0.03     0.06   0.04  -0.07    -0.01   0.01   0.06
  57   6    -0.02   0.01   0.03     0.01   0.00  -0.05    -0.01   0.02   0.01
  58   6    -0.01   0.00   0.01    -0.02   0.01  -0.01    -0.00   0.02  -0.01
  59   1     0.02   0.01  -0.01    -0.05  -0.01   0.02     0.00  -0.00   0.03
  60   1     0.02  -0.01  -0.00    -0.05   0.02   0.00     0.01  -0.01   0.03
  61   1     0.01  -0.00  -0.00    -0.01  -0.05   0.03    -0.06   0.12  -0.07
  62   1    -0.00   0.02  -0.01     0.01  -0.09   0.04    -0.05   0.12  -0.06
  63   1     0.01   0.01  -0.01    -0.03  -0.03   0.03     0.01   0.01  -0.02
  64   1     0.01   0.02  -0.01    -0.03  -0.04   0.05     0.03   0.02  -0.06
  65   1     0.01   0.01  -0.00    -0.01  -0.02  -0.00     0.02   0.01  -0.04
  66   1    -0.00  -0.00   0.01     0.01   0.00  -0.06    -0.02  -0.03   0.04
  67   1    -0.01  -0.00   0.01     0.01  -0.00  -0.05    -0.03  -0.04   0.05
  68   1    -0.02   0.01  -0.00     0.04  -0.02   0.01     0.07   0.02   0.08
  69   1    -0.02  -0.01  -0.00     0.08   0.03   0.02     0.09   0.04   0.10
  70   1    -0.02  -0.02  -0.01     0.06   0.06   0.04     0.03   0.04   0.04
  71   1     0.00  -0.01  -0.00    -0.01   0.05   0.01    -0.06   0.02  -0.06
  72   1     0.01   0.00   0.00    -0.06  -0.00  -0.02    -0.09  -0.01  -0.07
  73   1     0.00  -0.01   0.00    -0.04   0.07  -0.03     0.04  -0.11   0.04
  74   1     0.01  -0.03   0.01    -0.05   0.11  -0.03     0.03  -0.11   0.03
  75   1    -0.01  -0.01  -0.00    -0.00  -0.01   0.02    -0.02  -0.07   0.03
  76   1    -0.01   0.01  -0.01    -0.02  -0.04   0.02    -0.02  -0.08   0.04
  77   1    -0.02   0.03   0.00     0.01  -0.02  -0.00     0.01  -0.02  -0.00
  78   1    -0.00   0.00  -0.01     0.01  -0.00   0.00     0.02  -0.02  -0.01
  79   1     0.01  -0.03  -0.02    -0.00   0.02   0.01     0.01  -0.01  -0.00
  80   1     0.01  -0.02  -0.02    -0.00   0.02   0.01    -0.00   0.02   0.00
  81   1    -0.01   0.01  -0.01     0.01  -0.01   0.00    -0.01   0.02   0.01
  82   1    -0.03   0.01   0.01     0.06   0.01   0.00     0.03   0.01   0.01
  83   1    -0.01   0.00   0.03     0.04   0.02  -0.01     0.02   0.01   0.00
  84   1     0.02   0.00   0.03    -0.01  -0.02  -0.02    -0.01  -0.02  -0.01
  85   1     0.02   0.00   0.01    -0.05  -0.04  -0.02    -0.03  -0.03  -0.01
  86   1    -0.00   0.01  -0.01    -0.02  -0.04  -0.01    -0.01  -0.02  -0.00
  87   1    -0.02   0.00   0.00     0.03   0.02  -0.02     0.03   0.05  -0.04
  88   1    -0.03  -0.02   0.00     0.04   0.05  -0.01     0.03   0.06  -0.04
  89   1    -0.02  -0.01   0.00     0.02   0.03  -0.01    -0.01  -0.00   0.03
  90   1    -0.03   0.00   0.01     0.03   0.01  -0.03    -0.00  -0.00   0.03
                     22                     23                     24
                        a                      a                      a 
 Frequencies --   122.0687               131.3910               139.8609
 Red. masses --    10.5780                11.2757                11.8081
 Frc consts  --     0.0000                 0.0000                 0.0000
 IR Inten    --     1.8452                 1.3582                 3.6302
 Raman Activ --     0.0000                 0.0000                 0.0000
 Depolar     --     0.0000                 0.0000                 0.0000
 Atom AN      X      Y      Z        X      Y      Z        X      Y      Z
   1   7     0.07  -0.01  -0.14    -0.15   0.10   0.08     0.01  -0.14   0.18
   2   6     0.02   0.01   0.04    -0.04  -0.06  -0.04    -0.03   0.03  -0.08
   3   6     0.00   0.02   0.13    -0.00  -0.11  -0.10    -0.04   0.09  -0.17
   4   7    -0.00   0.00   0.18     0.01  -0.12  -0.04    -0.05   0.14  -0.32
   5   6    -0.00   0.02   0.09     0.00  -0.09  -0.01    -0.04   0.05  -0.11
   6   6     0.00   0.06  -0.02    -0.02  -0.08  -0.06    -0.03  -0.03   0.14
   7   7     0.01   0.07  -0.02    -0.03  -0.08  -0.16    -0.03  -0.06   0.27
   8   6     0.00   0.04   0.05    -0.01  -0.09  -0.15    -0.04   0.01   0.09
   9   6    -0.02   0.02   0.02     0.02  -0.04  -0.07    -0.04   0.02   0.06
  10   7    -0.06  -0.06  -0.03     0.13   0.10   0.15    -0.06   0.04  -0.11
  11   6     0.01   0.06  -0.07    -0.03  -0.06   0.00    -0.02  -0.04   0.15
  12   6     0.02   0.09  -0.17    -0.03  -0.09   0.09     0.01  -0.03   0.08
  13   6     0.02   0.05  -0.09    -0.02  -0.06   0.12     0.01   0.01  -0.13
  14   6    -0.00  -0.00   0.02     0.01  -0.00   0.03    -0.01  -0.00  -0.13
  15   6     0.01  -0.08   0.08     0.03   0.04  -0.00    -0.00  -0.01  -0.20
  16   6    -0.03  -0.08   0.05     0.03   0.10  -0.01     0.03   0.03  -0.19
  17   6    -0.05  -0.06   0.02     0.05   0.09  -0.01     0.04   0.05  -0.12
  18   6    -0.05  -0.03   0.00     0.09   0.05  -0.01     0.01   0.01  -0.07
  19   7    -0.11   0.04  -0.09     0.13   0.03   0.01     0.03  -0.01   0.06
  20   6    -0.08   0.01  -0.04     0.10   0.05  -0.01    -0.00  -0.01   0.07
  21   6    -0.03   0.05  -0.03     0.08   0.02  -0.04    -0.00  -0.01   0.06
  22   6     0.04   0.03  -0.02     0.00   0.02   0.00     0.01   0.02   0.00
  23   6     0.05  -0.03  -0.02    -0.04   0.04   0.08     0.02   0.05  -0.04
  24   6    -0.00  -0.09  -0.01    -0.00   0.08   0.07     0.01   0.04   0.01
  25   6    -0.07  -0.07  -0.03     0.08   0.09   0.02    -0.00   0.01   0.07
  26   6    -0.08   0.03  -0.05     0.13   0.02   0.02     0.04   0.01   0.07
  27   6    -0.04   0.05   0.03     0.17   0.03   0.08     0.05   0.01   0.07
  28   6     0.02   0.06   0.11     0.14   0.01   0.03     0.00   0.00   0.01
  29   6     0.03   0.07   0.13     0.08  -0.02  -0.06    -0.04  -0.00  -0.05
  30   6    -0.04   0.05   0.03     0.05  -0.02  -0.10    -0.02   0.00  -0.02
  31   6    -0.10   0.03  -0.07     0.08  -0.01  -0.06     0.02   0.01   0.05
  32   6     0.00  -0.08   0.05     0.07   0.03  -0.01    -0.05  -0.03  -0.10
  33   6     0.02  -0.11   0.09     0.07   0.03  -0.01    -0.04  -0.04  -0.17
  34   6    -0.00   0.01   0.01    -0.01   0.01   0.01    -0.03  -0.03   0.02
  35   6     0.01   0.03  -0.04    -0.03   0.02  -0.00    -0.02  -0.04   0.14
  36   6     0.02   0.02  -0.02    -0.03   0.08  -0.04    -0.01  -0.01   0.18
  37   6     0.08   0.22  -0.12    -0.03   0.21  -0.13     0.00   0.14   0.08
  38   6     0.08   0.18  -0.11    -0.05   0.16  -0.11     0.02   0.16   0.00
  39   6     0.03  -0.03  -0.00    -0.10   0.00  -0.02     0.03   0.01   0.04
  40   7     0.05  -0.04   0.01    -0.14  -0.07   0.00     0.04  -0.02  -0.02
  41   6     0.04  -0.05   0.01    -0.12  -0.02   0.00     0.05  -0.06  -0.03
  42   6     0.01   0.03   0.05    -0.08   0.03   0.06     0.03  -0.03  -0.03
  43   6    -0.02   0.09   0.07     0.00   0.04   0.03    -0.03   0.05   0.01
  44   6    -0.00   0.04   0.06     0.04  -0.01  -0.07    -0.04   0.07   0.04
  45   6     0.05  -0.08   0.02    -0.01  -0.03  -0.12     0.01  -0.02   0.02
  46   6     0.07  -0.11   0.00    -0.09  -0.03  -0.08     0.06  -0.09  -0.02
  47   6     0.07   0.01   0.01    -0.09  -0.02   0.02     0.03  -0.01  -0.04
  48   6     0.19   0.11   0.04     0.02   0.08   0.09     0.06   0.01  -0.03
  49   6     0.13   0.07   0.00     0.05   0.10   0.11     0.06   0.01  -0.02
  50   6    -0.07  -0.10  -0.09    -0.06  -0.01   0.05     0.04  -0.03  -0.05
  51   6    -0.15  -0.16  -0.10    -0.16  -0.10  -0.01     0.01  -0.05  -0.06
  52   6    -0.04  -0.09  -0.05    -0.16  -0.08  -0.01     0.02  -0.03  -0.05
  53   6    -0.05  -0.23   0.10    -0.10  -0.08   0.04     0.02  -0.13   0.14
  54   6    -0.04  -0.21   0.09    -0.09  -0.04   0.02     0.00  -0.13   0.20
  55   6     0.01   0.06  -0.11     0.02  -0.04   0.09    -0.02  -0.04   0.13
  56   6     0.00   0.05  -0.04     0.02  -0.10   0.13    -0.02   0.02  -0.04
  57   6    -0.00   0.02   0.05     0.01  -0.08   0.05    -0.03   0.02  -0.07
  58   6    -0.00   0.03   0.00    -0.01  -0.04   0.02    -0.03  -0.02   0.04
  59   1     0.01   0.04  -0.08    -0.01  -0.03   0.04     0.01  -0.01   0.04
  60   1     0.01   0.01  -0.04    -0.02  -0.02   0.06     0.00   0.01  -0.07
  61   1    -0.02  -0.02   0.02     0.01   0.04  -0.01     0.02   0.01  -0.06
  62   1    -0.02  -0.01   0.00     0.01   0.03  -0.01     0.02   0.02  -0.03
  63   1    -0.01   0.03  -0.01     0.03   0.00  -0.02    -0.00  -0.01   0.02
  64   1     0.02   0.02  -0.00    -0.01  -0.00  -0.00     0.00   0.00  -0.01
  65   1     0.03  -0.01  -0.00    -0.03   0.01   0.04     0.01   0.02  -0.03
  66   1     0.00  -0.04   0.00    -0.01   0.03   0.03     0.01   0.02  -0.00
  67   1    -0.03  -0.03  -0.01     0.03   0.04   0.01    -0.00   0.00   0.03
  68   1    -0.01   0.01   0.01     0.06   0.01   0.04     0.02   0.01   0.03
  69   1     0.01   0.02   0.05     0.04   0.00   0.02    -0.00   0.00  -0.00
  70   1     0.03   0.02   0.06     0.01  -0.01  -0.03    -0.02  -0.00  -0.03
  71   1    -0.01   0.01   0.01     0.00  -0.01  -0.05    -0.01  -0.00  -0.01
  72   1    -0.05   0.00  -0.04     0.02  -0.00  -0.03     0.01   0.00   0.02
  73   1     0.01  -0.02   0.01     0.02   0.00   0.00    -0.02  -0.02  -0.02
  74   1     0.01  -0.04   0.03     0.03   0.00   0.00    -0.02  -0.02  -0.05
  75   1     0.04   0.11  -0.06    -0.01   0.09  -0.05    -0.00   0.07   0.02
  76   1     0.03   0.09  -0.05    -0.01   0.06  -0.04     0.00   0.08  -0.03
  77   1     0.00   0.01   0.02    -0.03   0.01   0.04     0.01  -0.01  -0.01
  78   1    -0.02   0.05   0.03     0.01   0.02   0.02    -0.02   0.03   0.01
  79   1    -0.01   0.03   0.02     0.03  -0.01  -0.03    -0.03   0.04   0.02
  80   1     0.02  -0.04  -0.00     0.01  -0.02  -0.06     0.00  -0.01   0.01
  81   1     0.03  -0.05  -0.01    -0.04  -0.01  -0.04     0.03  -0.04  -0.01
  82   1     0.09   0.06   0.03     0.02   0.04   0.04     0.02   0.01  -0.01
  83   1     0.06   0.04   0.01     0.04   0.06   0.05     0.03   0.01  -0.00
  84   1    -0.05  -0.05  -0.04    -0.02  -0.00   0.02     0.01  -0.01  -0.01
  85   1    -0.08  -0.08  -0.05    -0.07  -0.05  -0.02    -0.00  -0.02  -0.02
  86   1    -0.02  -0.03  -0.02    -0.06  -0.03  -0.01     0.01  -0.01  -0.02
  87   1    -0.03  -0.11   0.05    -0.04  -0.05   0.02     0.00  -0.06   0.05
  88   1    -0.02  -0.10   0.05    -0.04  -0.03   0.02     0.00  -0.06   0.08
  89   1     0.00   0.02  -0.06     0.02  -0.01   0.03    -0.01  -0.02   0.06
  90   1     0.00   0.02  -0.02     0.01  -0.04   0.06    -0.00   0.01  -0.03
                     25                     26                     27
                        a                      a                      a 
 Frequencies --   147.8832               159.4241               165.9559
 Red. masses --    11.8955                11.8085                10.7247
 Frc consts  --     0.0000                 0.0000                 0.0000
 IR Inten    --     6.9189                 5.8375                11.3652
 Raman Activ --     0.0000                 0.0000                 0.0000
 Depolar     --     0.0000                 0.0000                 0.0000
 Atom AN      X      Y      Z        X      Y      Z        X      Y      Z
   1   7     0.10  -0.14   0.12    -0.10  -0.09  -0.16     0.05   0.00  -0.16
   2   6     0.01   0.09  -0.06    -0.14  -0.06   0.05    -0.01   0.01   0.10
   3   6    -0.02   0.17  -0.15    -0.16  -0.03   0.11    -0.02   0.00   0.18
   4   7    -0.04   0.10  -0.01    -0.16  -0.04   0.19    -0.03   0.01   0.08
   5   6    -0.02   0.02   0.11    -0.13  -0.01   0.04    -0.01   0.05  -0.12
   6   6     0.01   0.05   0.03    -0.13   0.02  -0.07     0.00   0.05  -0.13
   7   7     0.02   0.17  -0.20    -0.15   0.04  -0.15     0.01   0.02   0.06
   8   6     0.00   0.20  -0.24    -0.16   0.03  -0.05    -0.00   0.01   0.17
   9   6    -0.02   0.10  -0.11    -0.15   0.06  -0.02    -0.01   0.01   0.10
  10   7    -0.10  -0.17   0.22    -0.13   0.08   0.10    -0.05   0.01  -0.14
  11   6     0.01  -0.03   0.14    -0.11   0.00  -0.05     0.00   0.06  -0.21
  12   6     0.02  -0.04   0.17    -0.08  -0.02   0.01     0.01  -0.09   0.24
  13   6     0.01  -0.05   0.09    -0.07  -0.04   0.07     0.01  -0.10   0.28
  14   6    -0.01  -0.02  -0.03    -0.04  -0.01   0.04     0.00   0.01  -0.06
  15   6    -0.03   0.02  -0.11    -0.03   0.05   0.02    -0.01   0.01  -0.05
  16   6     0.01  -0.03  -0.07    -0.03   0.14  -0.01     0.02  -0.04  -0.03
  17   6     0.01  -0.05  -0.03    -0.02   0.15  -0.02     0.03  -0.06  -0.01
  18   6    -0.04  -0.00  -0.03     0.06   0.07  -0.01    -0.01  -0.01  -0.02
  19   7    -0.02  -0.05   0.06     0.12   0.01   0.03    -0.02  -0.00   0.01
  20   6    -0.03  -0.04   0.05     0.12   0.03  -0.01    -0.02  -0.01   0.02
  21   6    -0.04  -0.05   0.06     0.09   0.00  -0.04    -0.02  -0.01   0.03
  22   6    -0.02  -0.03   0.01    -0.00  -0.00   0.00    -0.00  -0.00   0.01
  23   6     0.00  -0.01  -0.05    -0.05   0.04   0.07     0.01   0.00  -0.02
  24   6     0.00  -0.00  -0.04     0.01   0.10   0.05     0.00  -0.00  -0.01
  25   6    -0.02  -0.03   0.02     0.10   0.10   0.01    -0.02  -0.01   0.01
  26   6    -0.02  -0.03   0.05     0.11  -0.01   0.02    -0.01   0.00   0.02
  27   6    -0.03  -0.03   0.00     0.12  -0.01   0.00    -0.01   0.00   0.01
  28   6    -0.03  -0.01  -0.03     0.08  -0.03  -0.05    -0.03  -0.00  -0.00
  29   6    -0.05   0.01  -0.02     0.05  -0.05  -0.11    -0.03  -0.00  -0.01
  30   6    -0.04   0.02   0.04     0.07  -0.04  -0.07    -0.01   0.00   0.01
  31   6    -0.03  -0.00   0.07     0.12  -0.02   0.00    -0.00   0.01   0.03
  32   6    -0.10   0.09  -0.09     0.03   0.05  -0.01    -0.03   0.03  -0.05
  33   6    -0.10   0.09  -0.13     0.02   0.05   0.00    -0.02   0.02  -0.05
  34   6     0.00  -0.04   0.01    -0.06  -0.01   0.02    -0.00   0.06  -0.28
  35   6     0.01  -0.01  -0.10    -0.04  -0.02  -0.01    -0.00   0.02  -0.06
  36   6     0.03   0.01  -0.20    -0.03  -0.08   0.04     0.01   0.03  -0.05
  37   6     0.09   0.03  -0.18     0.02  -0.10   0.07     0.03   0.05  -0.05
  38   6     0.09   0.02  -0.10     0.05  -0.05   0.06     0.03   0.05  -0.04
  39   6     0.05  -0.02  -0.05     0.08  -0.05   0.04     0.02   0.00  -0.02
  40   7     0.05  -0.04   0.05     0.14   0.05  -0.01     0.02  -0.02   0.01
  41   6     0.02  -0.01   0.06     0.14  -0.01  -0.01     0.01  -0.02   0.02
  42   6     0.04  -0.01   0.07     0.10  -0.02  -0.04     0.02  -0.01   0.03
  43   6     0.06  -0.03   0.07    -0.00   0.01   0.01     0.02  -0.00   0.03
  44   6     0.06  -0.03   0.06    -0.04   0.04   0.10     0.02   0.01   0.03
  45   6     0.03   0.00   0.06     0.04  -0.02   0.12     0.01  -0.00   0.02
  46   6     0.02   0.01   0.07     0.14  -0.05   0.06     0.01  -0.01   0.02
  47   6     0.09   0.01   0.06     0.12   0.03  -0.03     0.04   0.01   0.02
  48   6     0.09   0.01   0.01     0.09  -0.00  -0.06     0.04   0.01   0.00
  49   6     0.00  -0.01  -0.05     0.03  -0.05  -0.09     0.01  -0.00  -0.02
  50   6    -0.08  -0.03  -0.05     0.04  -0.05  -0.09    -0.02  -0.02  -0.03
  51   6    -0.03   0.02   0.02     0.10   0.00  -0.05    -0.00  -0.00   0.00
  52   6     0.06   0.04   0.08     0.14   0.04  -0.03     0.03   0.01   0.02
  53   6    -0.01  -0.03  -0.09     0.01  -0.11   0.05    -0.01  -0.03  -0.01
  54   6     0.00  -0.01  -0.17     0.00  -0.12   0.04    -0.00  -0.01  -0.03
  55   6    -0.02  -0.02  -0.00    -0.08   0.04  -0.10    -0.01  -0.09   0.27
  56   6    -0.03  -0.04   0.17    -0.09   0.04  -0.09    -0.02  -0.08   0.23
  57   6    -0.02  -0.05   0.20    -0.11   0.00   0.00    -0.01   0.05  -0.21
  58   6    -0.00  -0.05   0.15    -0.09  -0.00  -0.01    -0.00   0.10  -0.37
  59   1     0.01  -0.02   0.06    -0.02  -0.00   0.00     0.00  -0.06   0.16
  60   1     0.01  -0.01   0.02    -0.03  -0.01   0.04     0.00  -0.05   0.17
  61   1     0.01  -0.02  -0.02    -0.01   0.05  -0.01     0.01  -0.02  -0.01
  62   1     0.02  -0.03   0.00    -0.02   0.05  -0.01     0.02  -0.03   0.01
  63   1    -0.02  -0.02   0.03     0.03  -0.01  -0.02    -0.01  -0.00   0.01
  64   1    -0.01  -0.01   0.01    -0.01  -0.01  -0.00    -0.00   0.00   0.00
  65   1     0.01   0.00  -0.03    -0.04   0.01   0.04     0.01   0.00  -0.02
  66   1     0.01   0.00  -0.02    -0.00   0.04   0.02     0.00  -0.00  -0.01
  67   1    -0.00  -0.01   0.01     0.04   0.04   0.00    -0.01  -0.01   0.01
  68   1    -0.01  -0.01  -0.00     0.04  -0.00   0.01    -0.00   0.00   0.00
  69   1    -0.01  -0.00  -0.02     0.02  -0.01  -0.02    -0.01  -0.00  -0.00
  70   1    -0.02   0.01  -0.01    -0.00  -0.02  -0.05    -0.01  -0.00  -0.01
  71   1    -0.01   0.01   0.02     0.02  -0.01  -0.03    -0.00   0.00   0.01
  72   1    -0.01  -0.00   0.03     0.04  -0.00   0.01     0.00   0.00   0.01
  73   1    -0.04   0.04  -0.03     0.01   0.01   0.00    -0.01   0.01  -0.01
  74   1    -0.04   0.04  -0.05     0.02   0.01   0.01    -0.01   0.00  -0.01
  75   1     0.04   0.01  -0.06     0.02  -0.03   0.02     0.01   0.02  -0.01
  76   1     0.04   0.01  -0.03     0.01  -0.01   0.01     0.01   0.02  -0.02
  77   1     0.01  -0.00   0.03     0.03  -0.01  -0.03     0.01  -0.01   0.01
  78   1     0.02  -0.01   0.02    -0.02   0.01  -0.01     0.01   0.00   0.01
  79   1     0.02  -0.01   0.02    -0.03   0.02   0.04     0.00   0.00   0.01
  80   1     0.01   0.00   0.02     0.01  -0.01   0.05     0.00   0.00   0.01
  81   1     0.00   0.01   0.02     0.06  -0.02   0.03     0.00  -0.01   0.01
  82   1     0.04   0.01   0.00     0.03  -0.00  -0.02     0.02   0.00   0.00
  83   1    -0.00  -0.01  -0.03    -0.00  -0.03  -0.03     0.00  -0.00  -0.01
  84   1    -0.05  -0.02  -0.03    -0.00  -0.03  -0.03    -0.02  -0.01  -0.01
  85   1    -0.02   0.01   0.01     0.03   0.00  -0.01    -0.01  -0.00   0.00
  86   1     0.02   0.02   0.04     0.05   0.02  -0.00     0.01   0.01   0.01
  87   1    -0.02  -0.01  -0.01    -0.01  -0.03   0.02    -0.01  -0.02   0.00
  88   1    -0.01  -0.00  -0.05     0.01  -0.04   0.02    -0.00  -0.01  -0.00
  89   1    -0.01  -0.00  -0.03    -0.03   0.01  -0.05    -0.00  -0.05   0.17
  90   1    -0.01  -0.02   0.07    -0.02   0.01  -0.04    -0.01  -0.05   0.16
                     28                     29                     30
                        a                      a                      a 
 Frequencies --   175.3409               183.4450               195.1240
 Red. masses --    11.7285                11.1649                11.4793
 Frc consts  --     0.0000                 0.0000                 0.0000
 IR Inten    --    10.1004                 0.2902                 1.2863
 Raman Activ --     0.0000                 0.0000                 0.0000
 Depolar     --     0.0000                 0.0000                 0.0000
 Atom AN      X      Y      Z        X      Y      Z        X      Y      Z
   1   7     0.08   0.12  -0.11     0.08   0.02   0.07     0.12  -0.07  -0.12
   2   6     0.09  -0.01   0.11     0.07   0.06  -0.03    -0.02   0.11   0.12
   3   6     0.10  -0.05   0.13     0.07   0.05  -0.05    -0.04   0.12   0.15
   4   7     0.10  -0.09   0.23     0.06   0.04  -0.11    -0.11   0.04   0.07
   5   6     0.08  -0.01   0.06     0.05   0.01  -0.03    -0.03  -0.03  -0.08
   6   6     0.08   0.02  -0.05     0.06  -0.01   0.01     0.04  -0.02  -0.08
   7   7     0.09   0.09  -0.23     0.09  -0.01   0.12     0.12   0.08  -0.01
   8   6     0.10   0.04  -0.13     0.08   0.00   0.09     0.04   0.14   0.10
   9   6     0.09   0.00  -0.11     0.08  -0.02   0.06     0.03   0.12   0.08
  10   7     0.09  -0.11   0.11     0.05  -0.04  -0.10    -0.10  -0.10  -0.07
  11   6     0.06   0.00   0.02     0.05  -0.00  -0.04     0.04  -0.10  -0.07
  12   6     0.04  -0.03   0.17    -0.01   0.04  -0.09     0.03  -0.09  -0.09
  13   6     0.03  -0.02   0.12    -0.02   0.04  -0.04     0.03  -0.12  -0.02
  14   6     0.01   0.02  -0.03    -0.01   0.02   0.04     0.02  -0.15   0.07
  15   6    -0.02   0.04  -0.15    -0.04   0.12   0.09    -0.00  -0.05   0.03
  16   6    -0.02   0.04  -0.15    -0.11   0.23   0.03    -0.03   0.07  -0.01
  17   6    -0.02   0.04  -0.12    -0.13   0.26   0.01    -0.06   0.15  -0.02
  18   6    -0.05   0.01  -0.09    -0.07   0.13   0.06    -0.04   0.09   0.01
  19   7    -0.03  -0.05   0.06     0.03  -0.09   0.10     0.04  -0.06   0.08
  20   6    -0.05  -0.06   0.08     0.10  -0.05  -0.03     0.08  -0.02  -0.01
  21   6    -0.06  -0.07   0.09     0.07  -0.09  -0.08     0.06  -0.04  -0.05
  22   6    -0.03  -0.04   0.00    -0.04  -0.10  -0.03    -0.02  -0.05  -0.01
  23   6     0.02  -0.00  -0.09    -0.09  -0.06   0.04    -0.06  -0.02   0.04
  24   6    -0.00  -0.02  -0.04    -0.01   0.02  -0.01     0.01   0.04   0.00
  25   6    -0.05  -0.06   0.06     0.10   0.02  -0.05     0.08   0.04  -0.03
  26   6    -0.01  -0.03   0.06    -0.07  -0.12  -0.03    -0.01  -0.08   0.02
  27   6     0.01  -0.02   0.06    -0.03  -0.12  -0.10     0.03  -0.07  -0.02
  28   6     0.00   0.01   0.02     0.06  -0.02  -0.04     0.06  -0.01  -0.02
  29   6    -0.04   0.04  -0.00     0.08   0.06   0.07     0.05   0.04   0.01
  30   6    -0.06   0.04   0.02    -0.04   0.03   0.03    -0.02   0.02   0.01
  31   6    -0.05   0.01   0.06    -0.12  -0.07  -0.03    -0.06  -0.04   0.00
  32   6    -0.08   0.07  -0.12    -0.08   0.19   0.06    -0.09   0.14  -0.03
  33   6    -0.07   0.09  -0.15    -0.08   0.19   0.07    -0.05   0.06  -0.01
  34   6     0.03   0.01  -0.00     0.05  -0.01  -0.01    -0.00  -0.15   0.11
  35   6     0.02   0.01   0.03    -0.00  -0.04  -0.03    -0.01  -0.14   0.11
  36   6    -0.02  -0.03   0.16    -0.02  -0.13  -0.07     0.01   0.01   0.11
  37   6    -0.05  -0.03   0.14    -0.01  -0.13  -0.07     0.01   0.15   0.02
  38   6    -0.05  -0.02   0.12     0.00  -0.11  -0.04     0.02   0.21  -0.05
[...]
  32   6    -0.02  -0.03  -0.04     0.02   0.03   0.04    -0.00  -0.00  -0.01
  33   6     0.02  -0.01  -0.03    -0.02   0.01   0.03     0.00  -0.00  -0.01
  34   6    -0.00  -0.00  -0.00     0.00   0.00   0.00    -0.00  -0.00  -0.00
  35   6    -0.00   0.00  -0.00     0.00  -0.00   0.00     0.00   0.00   0.00
  36   6     0.00  -0.00  -0.00    -0.00   0.00   0.00    -0.00   0.00  -0.00
  37   6     0.00   0.00   0.00     0.00   0.00   0.00     0.00  -0.00   0.00
  38   6    -0.00   0.00   0.00     0.00  -0.00  -0.00    -0.00   0.00   0.00
  39   6    -0.00   0.00   0.00     0.00  -0.00  -0.00     0.00  -0.00  -0.00
  40   7     0.00  -0.00   0.00    -0.00   0.00  -0.00    -0.00   0.00  -0.00
  41   6    -0.00   0.00  -0.00     0.00  -0.00   0.00     0.00  -0.00   0.01
  42   6    -0.00  -0.00  -0.00     0.00   0.00   0.00     0.06   0.02   0.01
  43   6    -0.00  -0.00   0.00     0.00   0.00  -0.01     0.05   0.05  -0.07
  44   6     0.00  -0.00   0.01    -0.01   0.00  -0.01    -0.07   0.03  -0.15
  45   6     0.01   0.00   0.00    -0.01  -0.00  -0.00    -0.13  -0.05  -0.03
  46   6     0.00   0.00  -0.00    -0.00  -0.00   0.01    -0.06  -0.06   0.09
  47   6     0.00  -0.00  -0.00    -0.00   0.00   0.00    -0.00   0.00   0.00
  48   6    -0.00   0.01  -0.01     0.00  -0.01   0.01     0.00  -0.00   0.00
  49   6    -0.01   0.01  -0.00     0.01  -0.01   0.00     0.00  -0.00   0.00
  50   6    -0.01   0.00   0.02     0.01  -0.00  -0.01     0.01  -0.00  -0.01
  51   6     0.00  -0.01   0.01    -0.00   0.01  -0.01    -0.00   0.01  -0.01
  52   6    -0.00   0.00  -0.00    -0.00   0.00  -0.00    -0.02   0.02  -0.00
  53   6    -0.00  -0.00  -0.01     0.00   0.00   0.00     0.01   0.00   0.01
  54   6     0.01  -0.01  -0.01    -0.00   0.00   0.01    -0.01   0.01   0.02
  55   6     0.00  -0.00  -0.00    -0.00   0.00   0.00    -0.00  -0.00  -0.00
  56   6    -0.00  -0.00  -0.00     0.00   0.00   0.00    -0.00  -0.00  -0.00
  57   6    -0.00   0.00   0.00     0.00  -0.00  -0.00    -0.00   0.00   0.00
  58   6     0.00  -0.00   0.00    -0.00   0.00   0.00     0.00  -0.00   0.00
  59   1     0.01  -0.02  -0.01    -0.01   0.02   0.01     0.00  -0.01  -0.00
  60   1     0.00   0.00   0.00     0.00   0.00   0.00     0.00   0.00   0.00
  61   1    -0.21  -0.28  -0.43     0.15   0.20   0.32    -0.02  -0.03  -0.05
  62   1     0.25  -0.07  -0.38    -0.19   0.05   0.28     0.03  -0.01  -0.05
  63   1     0.14   0.03   0.08     0.20   0.04   0.11    -0.01  -0.00  -0.01
  64   1     0.17  -0.16   0.01     0.22  -0.21   0.02    -0.01   0.01  -0.00
  65   1    -0.06  -0.34  -0.16    -0.08  -0.43  -0.20     0.00   0.02   0.01
  66   1    -0.24  -0.05  -0.13    -0.30  -0.06  -0.16     0.01   0.00   0.01
  67   1    -0.14   0.14  -0.01    -0.18   0.18  -0.01     0.01  -0.01   0.00
  68   1    -0.01  -0.01   0.01     0.00   0.00  -0.00    -0.02  -0.02   0.02
  69   1    -0.00   0.01  -0.00     0.01  -0.05   0.00     0.01  -0.04   0.00
  70   1    -0.01   0.01   0.01     0.02  -0.01  -0.01     0.03  -0.02  -0.02
  71   1    -0.01  -0.01   0.01    -0.00  -0.00   0.00     0.02   0.02  -0.02
  72   1     0.00  -0.01   0.00     0.00  -0.02   0.00    -0.00   0.02  -0.00
  73   1     0.07   0.09   0.14    -0.07  -0.09  -0.14     0.01   0.02   0.03
  74   1    -0.06   0.02   0.10     0.06  -0.02  -0.10    -0.01   0.00   0.02
  75   1    -0.00  -0.00  -0.00    -0.00  -0.00  -0.00    -0.00  -0.00  -0.00
  76   1     0.01  -0.01  -0.02    -0.01   0.01   0.01     0.00  -0.00  -0.00
  77   1     0.01   0.00   0.00    -0.01  -0.01  -0.00    -0.21  -0.08  -0.05
  78   1     0.01   0.01  -0.01    -0.01  -0.01   0.02    -0.17  -0.17   0.23
  79   1    -0.01   0.01  -0.03     0.02  -0.01   0.04     0.23  -0.09   0.51
  80   1    -0.02  -0.01  -0.00     0.03   0.01   0.01     0.42   0.16   0.09
  81   1    -0.01  -0.01   0.01     0.01   0.01  -0.02     0.22   0.22  -0.30
  82   1     0.00  -0.03   0.04    -0.00   0.02  -0.03    -0.00   0.00  -0.00
  83   1     0.04  -0.04   0.00    -0.03   0.03  -0.00    -0.01   0.01  -0.00
  84   1     0.04  -0.01  -0.05    -0.03   0.01   0.04    -0.03   0.01   0.04
  85   1    -0.00   0.02  -0.02     0.00  -0.02   0.03     0.00  -0.03   0.04
  86   1     0.01  -0.01  -0.00     0.01  -0.02   0.00     0.06  -0.07   0.00
  87   1     0.01   0.01   0.02    -0.01  -0.01  -0.02    -0.02  -0.01  -0.04
  88   1    -0.02   0.02   0.03     0.01  -0.01  -0.02     0.03  -0.04  -0.06
  89   1    -0.00   0.00   0.00     0.00  -0.00  -0.00    -0.00   0.00   0.00
  90   1     0.00   0.01   0.00    -0.00  -0.01  -0.00     0.00   0.00   0.00
                    259                    260                    261
                        a                      a                      a 
 Frequencies --  3096.6857              3097.8515              3099.1147
 Red. masses --     1.8685                 1.8920                 1.8786
 Frc consts  --     0.0000                 0.0000                 0.0000
 IR Inten    --    51.6904                48.9935                10.3182
 Raman Activ --     0.0000                 0.0000                 0.0000
 Depolar     --     0.0000                 0.0000                 0.0000
 Atom AN      X      Y      Z        X      Y      Z        X      Y      Z
   1   7     0.00   0.00   0.00    -0.00  -0.00  -0.00     0.00   0.00   0.00
   2   6    -0.00  -0.00  -0.00     0.00   0.00   0.00    -0.00  -0.00  -0.00
   3   6     0.00  -0.00  -0.00    -0.00   0.00   0.00    -0.00   0.00   0.00
   4   7    -0.00  -0.00  -0.00     0.00  -0.00  -0.00     0.00   0.00   0.00
   5   6     0.00   0.00   0.00     0.00   0.00   0.00    -0.00   0.00   0.00
   6   6    -0.00  -0.00  -0.00     0.00  -0.00  -0.00     0.00  -0.00  -0.00
   7   7     0.00  -0.00  -0.00     0.00   0.00   0.00    -0.00  -0.00   0.00
   8   6    -0.00   0.00  -0.00    -0.00  -0.00  -0.00     0.00  -0.00  -0.00
   9   6     0.00  -0.00  -0.00     0.00  -0.00  -0.00    -0.00   0.00   0.00
  10   7    -0.00   0.00  -0.00    -0.00   0.00   0.00     0.00  -0.00  -0.00
  11   6     0.00   0.00   0.00    -0.00  -0.00  -0.00     0.00   0.00   0.00
  12   6     0.00  -0.00  -0.00    -0.00   0.00   0.00     0.00  -0.00  -0.00
  13   6     0.00   0.00   0.00     0.00   0.00   0.00    -0.00  -0.00  -0.00
  14   6    -0.00   0.00   0.00    -0.00  -0.00   0.00     0.00   0.00  -0.00
  15   6    -0.00  -0.00   0.00     0.00   0.00   0.00     0.00   0.00  -0.00
  16   6    -0.00  -0.00  -0.00     0.00   0.01   0.01     0.01   0.01   0.01
  17   6     0.00  -0.00  -0.01    -0.01   0.00   0.01    -0.01   0.00   0.01
  18   6     0.00   0.00  -0.00     0.00   0.00  -0.00    -0.00  -0.00  -0.00
  19   7    -0.00  -0.00   0.00    -0.00   0.00   0.00    -0.00   0.00   0.00
  20   6    -0.00  -0.00  -0.00     0.00   0.00   0.00     0.00   0.00   0.00
  21   6    -0.00  -0.00  -0.00     0.00   0.00   0.00     0.00   0.00   0.00
  22   6    -0.00   0.00  -0.00     0.00  -0.00   0.00     0.00  -0.00   0.00
  23   6     0.00   0.00   0.00    -0.00  -0.00  -0.00    -0.00  -0.00  -0.00
  24   6     0.00   0.00   0.00    -0.00  -0.00  -0.00    -0.00  -0.00  -0.00
  25   6     0.00  -0.00   0.00    -0.00   0.00  -0.00    -0.00   0.00  -0.00
  26   6    -0.00   0.00   0.00     0.00  -0.00  -0.00     0.00  -0.00  -0.00
  27   6    -0.00  -0.00   0.00     0.01   0.01  -0.01     0.01   0.01  -0.01
  28   6     0.00  -0.00   0.00    -0.01   0.04  -0.00    -0.00   0.02  -0.00
  29   6     0.00  -0.00  -0.00    -0.02   0.01   0.01    -0.01   0.00   0.01
  30   6     0.00   0.00  -0.00    -0.01  -0.01   0.01    -0.00  -0.00   0.00
  31   6    -0.00   0.00  -0.00     0.00  -0.01   0.00     0.00  -0.00   0.00
  32   6     0.00   0.00   0.01     0.00   0.00   0.00    -0.00  -0.00  -0.00
  33   6    -0.00   0.00   0.01    -0.00   0.00   0.00     0.00  -0.00  -0.01
  34   6     0.00   0.00   0.00    -0.00   0.00   0.00     0.00  -0.00  -0.00
  35   6     0.00  -0.00  -0.00    -0.00  -0.00  -0.00    -0.00  -0.00  -0.00
  36   6     0.00   0.00   0.00     0.00  -0.00   0.00    -0.01   0.00   0.00
  37   6    -0.04  -0.02  -0.07     0.00   0.00   0.00    -0.03  -0.02  -0.05
  38   6     0.09  -0.11  -0.15     0.01  -0.01  -0.01     0.06  -0.08  -0.10
  39   6     0.01  -0.00   0.00    -0.00   0.00   0.00     0.01  -0.00  -0.00
  40   7    -0.00   0.00  -0.00     0.00  -0.00  -0.00    -0.00   0.00  -0.00
  41   6     0.00  -0.00   0.00    -0.00   0.00  -0.00    -0.00   0.00  -0.00
  42   6     0.01   0.00   0.00    -0.00   0.00  -0.00    -0.01  -0.01  -0.00
  43   6     0.01   0.01  -0.01    -0.00  -0.00   0.00    -0.01  -0.01   0.01
  44   6    -0.01   0.00  -0.01     0.00  -0.00   0.01     0.01  -0.00   0.02
  45   6    -0.01  -0.00  -0.00     0.01   0.00   0.00     0.02   0.01   0.00
  46   6    -0.00  -0.00   0.01     0.01   0.01  -0.01     0.01   0.01  -0.01
  47   6     0.00  -0.00  -0.00    -0.01   0.00   0.01    -0.00   0.00   0.00
  48   6    -0.00   0.02  -0.03     0.00  -0.03   0.04     0.00  -0.02   0.02
  49   6    -0.03   0.03  -0.00     0.04  -0.05   0.00     0.02  -0.03   0.00
  50   6    -0.03   0.01   0.05     0.06  -0.02  -0.08     0.03  -0.01  -0.04
  51   6     0.00  -0.03   0.04    -0.01   0.06  -0.08    -0.00   0.03  -0.04
  52   6     0.03  -0.04   0.00    -0.10   0.12  -0.00    -0.06   0.07  -0.00
  53   6    -0.03  -0.02  -0.05    -0.04  -0.02  -0.07     0.05   0.03   0.09
  54   6     0.05  -0.05  -0.08     0.06  -0.07  -0.10    -0.07   0.08   0.12
  55   6     0.00  -0.00  -0.00     0.00  -0.00  -0.00    -0.01   0.01   0.00
  56   6     0.01   0.01   0.00    -0.00  -0.00  -0.00     0.02   0.03   0.01
  57   6     0.00   0.00   0.00    -0.00   0.00   0.00     0.00  -0.00  -0.00
  58   6    -0.00  -0.00  -0.00    -0.00   0.00  -0.00    -0.00  -0.00  -0.00
  59   1    -0.01   0.01   0.00     0.00  -0.01  -0.00    -0.00   0.00   0.00
  60   1    -0.00  -0.00  -0.00    -0.00  -0.00  -0.00     0.00   0.00   0.00
  61   1     0.00   0.01   0.01    -0.01  -0.02  -0.03    -0.02  -0.03  -0.05
  62   1    -0.02   0.00   0.03     0.02  -0.01  -0.03     0.03  -0.01  -0.04
  63   1     0.00   0.00   0.00    -0.01  -0.00  -0.00    -0.00  -0.00  -0.00
  64   1     0.00  -0.00   0.00    -0.01   0.01  -0.00    -0.00   0.00  -0.00
  65   1    -0.00  -0.00  -0.00     0.00   0.01   0.01     0.00   0.00   0.00
  66   1    -0.00  -0.00  -0.00     0.01   0.00   0.00     0.00   0.00   0.00
  67   1    -0.00   0.00  -0.00     0.01  -0.01   0.00     0.00  -0.00   0.00
  68   1     0.02   0.02  -0.02    -0.02  -0.02   0.02    -0.03  -0.03   0.03
  69   1     0.00  -0.00   0.00     0.02  -0.12   0.01     0.01  -0.06   0.00
  70   1    -0.01   0.00   0.00     0.07  -0.04  -0.04     0.03  -0.02  -0.02
  71   1    -0.00  -0.00   0.00     0.03   0.03  -0.03     0.01   0.01  -0.01
  72   1     0.00  -0.01   0.00    -0.01   0.04  -0.00    -0.00   0.01  -0.00
  73   1    -0.01  -0.01  -0.02    -0.00  -0.00  -0.01     0.01   0.01   0.01
  74   1     0.01  -0.00  -0.02     0.01  -0.00  -0.01    -0.01   0.00   0.02
  75   1     0.13   0.07   0.21    -0.01  -0.00  -0.01     0.11   0.06   0.17
  76   1    -0.32   0.40   0.53    -0.02   0.03   0.04    -0.21   0.26   0.36
  77   1    -0.04  -0.02  -0.01     0.00  -0.00  -0.00     0.05   0.02   0.01
  78   1    -0.02  -0.02   0.03     0.01   0.01  -0.01     0.02   0.02  -0.03
  79   1     0.02  -0.01   0.04    -0.01   0.01  -0.03    -0.03   0.01  -0.06
  80   1     0.03   0.01   0.01    -0.03  -0.01  -0.01    -0.05  -0.02  -0.01
  81   1     0.02   0.02  -0.02    -0.02  -0.02   0.03    -0.03  -0.03   0.04
  82   1     0.01  -0.06   0.09    -0.01   0.09  -0.13    -0.01   0.05  -0.07
  83   1     0.09  -0.11   0.01    -0.14   0.16  -0.01    -0.07   0.08  -0.00
  84   1     0.11  -0.04  -0.16    -0.18   0.06   0.25    -0.09   0.03   0.12
  85   1    -0.01   0.10  -0.14     0.03  -0.18   0.27     0.01  -0.09   0.13
  86   1    -0.11   0.13  -0.00     0.35  -0.42   0.02     0.20  -0.23   0.01
  87   1     0.10   0.05   0.17     0.15   0.08   0.24    -0.19  -0.10  -0.30
  88   1    -0.16   0.18   0.27    -0.21   0.23   0.35     0.24  -0.27  -0.40
  89   1    -0.00   0.01   0.00    -0.00   0.01   0.00     0.02  -0.04  -0.01
  90   1    -0.02  -0.03  -0.01     0.00   0.00   0.00    -0.06  -0.09  -0.03
                    262                    263                    264
                        a                      a                      a 
 Frequencies --  3100.6362              3101.3523              3101.5613
 Red. masses --     1.8758                 1.8757                 1.9026
 Frc consts  --     0.0000                 0.0000                 0.0000
 IR Inten    --    74.3674                20.8401                79.7621
 Raman Activ --     0.0000                 0.0000                 0.0000
 Depolar     --     0.0000                 0.0000                 0.0000
 Atom AN      X      Y      Z        X      Y      Z        X      Y      Z
   1   7     0.00   0.00   0.00     0.00   0.00   0.00     0.00   0.00   0.00
   2   6    -0.00  -0.00  -0.00    -0.00  -0.00  -0.00    -0.00  -0.00  -0.00
   3   6     0.00   0.00   0.00     0.00  -0.00  -0.00     0.00   0.00   0.00
   4   7     0.00   0.00   0.00    -0.00   0.00   0.00    -0.00   0.00   0.00
   5   6    -0.00  -0.00  -0.00     0.00   0.00   0.00    -0.00   0.00   0.00
   6   6     0.00  -0.00  -0.00     0.00   0.00   0.00    -0.00  -0.00  -0.00
   7   7    -0.00   0.00   0.00    -0.00  -0.00  -0.00     0.00  -0.00  -0.00
   8   6     0.00   0.00   0.00     0.00   0.00   0.00     0.00  -0.00  -0.00
   9   6    -0.00   0.00   0.00    -0.00   0.00   0.00    -0.00   0.00   0.00
  10   7     0.00  -0.00  -0.00     0.00  -0.00  -0.00     0.00  -0.00  -0.00
  11   6     0.01   0.00   0.00    -0.01  -0.00  -0.00    -0.00  -0.00  -0.00
  12   6     0.08  -0.12  -0.04    -0.11   0.16   0.05    -0.02   0.03   0.01
  13   6    -0.03  -0.06  -0.02     0.04   0.08   0.02     0.01   0.01   0.00
  14   6    -0.00   0.00   0.00     0.00  -0.00  -0.00     0.00  -0.00  -0.00
  15   6     0.00  -0.00  -0.00    -0.00  -0.00   0.00    -0.00   0.00   0.00
  16   6     0.00   0.00   0.00    -0.00  -0.00  -0.00    -0.00  -0.00  -0.00
  17   6    -0.00   0.00   0.00     0.00  -0.00  -0.00     0.00  -0.00  -0.00
  18   6    -0.00  -0.00   0.00     0.00   0.00  -0.00    -0.00  -0.00   0.00
  19   7    -0.00   0.00   0.00    -0.00   0.00   0.00     0.00  -0.00  -0.00
  20   6    -0.00   0.00   0.00    -0.00  -0.00   0.00     0.00   0.00   0.00
  21   6    -0.00  -0.00  -0.00     0.00   0.00   0.00    -0.00  -0.00  -0.00
  22   6     0.00  -0.00   0.00     0.00  -0.00  -0.00    -0.00   0.00  -0.00
  23   6    -0.00  -0.00  -0.00     0.00   0.00   0.00     0.00   0.00   0.00
  24   6    -0.00  -0.00  -0.00     0.00   0.00   0.00     0.00   0.00   0.00
  25   6    -0.00   0.00  -0.00     0.00  -0.00   0.00     0.00  -0.00   0.00
  26   6     0.00  -0.00  -0.00     0.00  -0.00  -0.00    -0.00   0.00   0.00
  27   6     0.00   0.00  -0.00     0.01   0.01  -0.01    -0.05  -0.04   0.04
  28   6    -0.00   0.01  -0.00    -0.01   0.04  -0.00     0.04  -0.21   0.02
  29   6    -0.00   0.00   0.00    -0.02   0.01   0.01     0.10  -0.05  -0.06
  30   6    -0.00  -0.00   0.00    -0.01  -0.01   0.01     0.03   0.04  -0.03
  31   6     0.00  -0.00   0.00     0.00  -0.01   0.00    -0.01   0.03  -0.00
  32   6    -0.00  -0.00  -0.00     0.00   0.00   0.00     0.00   0.00   0.00
  33   6     0.00  -0.00  -0.00    -0.00   0.00   0.01    -0.00   0.00   0.00
  34   6    -0.00   0.00   0.00    -0.00  -0.00  -0.00    -0.00   0.00   0.00
  35   6     0.00   0.00   0.00     0.00   0.00   0.00     0.00  -0.00   0.00
  36   6    -0.00   0.00  -0.00    -0.00   0.00  -0.00    -0.00   0.00   0.00
  37   6    -0.01  -0.00  -0.01    -0.01  -0.00  -0.01    -0.00  -0.00  -0.01
  38   6     0.01  -0.01  -0.01     0.01  -0.01  -0.01     0.01  -0.01  -0.01
  39   6     0.00  -0.00   0.00     0.00  -0.00   0.00     0.00  -0.00  -0.00
  40   7    -0.00   0.00  -0.00    -0.00   0.00   0.00    -0.00  -0.00  -0.00
  41   6    -0.00  -0.00  -0.00    -0.00   0.00  -0.00     0.00  -0.00   0.00
  42   6    -0.00  -0.00  -0.00    -0.00  -0.00  -0.00     0.00   0.00   0.00
  43   6    -0.00  -0.00   0.00    -0.00  -0.00   0.00     0.00   0.00  -0.00
  44   6     0.00  -0.00   0.00     0.00  -0.00   0.00    -0.00   0.00  -0.00
  45   6     0.00   0.00   0.00     0.00   0.00   0.00    -0.01  -0.00  -0.00
  46   6     0.00   0.00  -0.00     0.00   0.00  -0.00    -0.01  -0.01   0.01
  47   6    -0.00   0.00   0.00     0.00  -0.00  -0.00    -0.00   0.00   0.00
  48   6     0.00  -0.00   0.00    -0.00  -0.00   0.00     0.00  -0.00   0.00
  49   6     0.00  -0.00   0.00    -0.00   0.00  -0.00     0.01  -0.01   0.00
  50   6     0.00  -0.00  -0.00    -0.00   0.00   0.00     0.01  -0.00  -0.01
  51   6    -0.00   0.00  -0.00     0.00  -0.00   0.00    -0.00   0.02  -0.02
  52   6    -0.00   0.01  -0.00     0.00  -0.00   0.00    -0.03   0.04  -0.00
  53   6     0.00   0.00   0.01     0.01   0.00   0.01    -0.00  -0.00  -0.00
  54   6    -0.01   0.01   0.01    -0.00   0.01   0.01     0.00  -0.00  -0.00
  55   6     0.05  -0.09  -0.02     0.04  -0.07  -0.02     0.01  -0.01  -0.00
  56   6    -0.10  -0.16  -0.05    -0.07  -0.12  -0.04    -0.02  -0.03  -0.01
  57   6    -0.01   0.00   0.00    -0.01   0.00   0.00    -0.00   0.00   0.00
  58   6     0.00   0.00   0.00     0.00  -0.00  -0.00     0.00  -0.00   0.00
  59   1    -0.29   0.42   0.14     0.38  -0.55  -0.18     0.07  -0.10  -0.03
  60   1     0.10   0.20   0.05    -0.13  -0.27  -0.07    -0.02  -0.05  -0.01
  61   1    -0.00  -0.00  -0.01     0.00   0.00   0.01     0.01   0.01   0.01
  62   1     0.00  -0.00  -0.01    -0.01   0.00   0.01    -0.01   0.00   0.01
  63   1     0.00   0.00   0.00    -0.00  -0.00  -0.00     0.01   0.00   0.01
  64   1    -0.00   0.00  -0.00    -0.00   0.00  -0.00     0.01  -0.01   0.00
  65   1     0.00   0.00   0.00    -0.00  -0.00  -0.00    -0.00  -0.01  -0.01
  66   1     0.00   0.00   0.00    -0.00  -0.00  -0.00    -0.01  -0.00  -0.01
  67   1     0.00  -0.00   0.00    -0.00   0.00  -0.00    -0.00   0.00  -0.00
  68   1    -0.01  -0.01   0.01    -0.03  -0.03   0.03     0.14   0.14  -0.13
  69   1     0.00  -0.02   0.00     0.03  -0.15   0.01    -0.13   0.74  -0.06
  70   1     0.01  -0.00  -0.01     0.06  -0.03  -0.04    -0.32   0.17   0.19
  71   1     0.00   0.00  -0.00     0.02   0.02  -0.02    -0.11  -0.11   0.11
  72   1    -0.00   0.00  -0.00    -0.00   0.02  -0.00     0.02  -0.11   0.01
  73   1     0.00   0.00   0.00    -0.01  -0.01  -0.01    -0.01  -0.01  -0.01
  74   1    -0.01   0.00   0.01     0.01  -0.00  -0.02     0.01  -0.00  -0.01
  75   1     0.02   0.01   0.04     0.02   0.01   0.03     0.01   0.01   0.02
  76   1    -0.02   0.03   0.04    -0.02   0.02   0.03    -0.02   0.03   0.04
  77   1     0.00   0.00   0.00     0.00   0.00   0.00    -0.00  -0.00  -0.00
  78   1     0.00   0.00  -0.00     0.00   0.00  -0.00    -0.00  -0.00   0.00
  79   1    -0.00   0.00  -0.00    -0.00   0.00  -0.01     0.00  -0.00   0.01
  80   1    -0.00  -0.00  -0.00    -0.01  -0.00  -0.00     0.02   0.01   0.00
  81   1    -0.00  -0.00   0.00    -0.01  -0.01   0.01     0.03   0.03  -0.04
  82   1    -0.00   0.00  -0.01    -0.00   0.00  -0.00    -0.00   0.01  -0.02
  83   1    -0.00   0.01  -0.00     0.00  -0.00   0.00    -0.02   0.03  -0.00
  84   1    -0.01   0.00   0.01     0.00  -0.00  -0.01    -0.04   0.01   0.05
  85   1     0.00  -0.01   0.01    -0.00   0.01  -0.01     0.01  -0.05   0.07
  86   1     0.02  -0.02   0.00    -0.01   0.01  -0.00     0.10  -0.12   0.01
  87   1    -0.02  -0.01  -0.03    -0.02  -0.01  -0.03     0.01   0.00   0.01
  88   1     0.02  -0.02  -0.03     0.02  -0.02  -0.03    -0.00   0.00   0.00
  89   1    -0.17   0.30   0.07    -0.12   0.23   0.05    -0.03   0.05   0.01
  90   1     0.34   0.55   0.18     0.25   0.40   0.13     0.05   0.09   0.03
