 Entering Gaussian System
 *********************************************
 Gaussian 98:
 frequency output generated by the xtb code
 *********************************************
                         Standard orientation:
 --------------------------------------------------------------------
  Center     Atomic     Atomic              Coordinates (Angstroms)
  Number     Number      Type              X           Y           Z
 --------------------------------------------------------------------
    1          7             0       10.714467   -0.001229   -1.385337
    2          6             0        9.600965   -0.000898   -1.104908
    3          6             0        8.232091   -0.000580   -0.760135
    4          6             0        7.259795   -0.000539   -1.762912
    5          6             0        5.923244   -0.000245   -1.418862
    6          6             0        5.534431    0.000011   -0.080834
    7          6             0        4.096508    0.000242    0.276938
    8          6             0        3.421934   -1.216257    0.440714
    9          6             0        4.079491   -2.464996    0.280651
   10          6             0        3.409458   -3.638730    0.440553
   11          6             0        2.037869   -3.637682    0.768935
   12          6             0        1.372047   -2.462575    0.935394
   13          6             0        2.033502   -1.215271    0.781908
   14          6             0        1.359921    0.000627    0.954238
   15          6             0       -0.072277    0.000747    1.335112
   16          6             0       -0.429129    0.000724    2.681712
   17          6             0       -1.757321    0.000453    3.073152
   18          6             0       -2.739405    0.000180    2.095866
   19          6             0       -2.380896    0.000364    0.739505
   20          6             0       -1.060275    0.000652    0.351066
   21          6             0       -3.610874   -0.000057   -0.135980
   22          6             0       -3.671924   -1.172189   -1.086829
   23          6             0       -3.650302   -2.517602   -0.789889
   24          6             0       -3.723015   -3.427931   -1.836322
   25          6             0       -3.814700   -2.993421   -3.150382
   26          6             0       -3.836029   -1.640918   -3.452858
   27          6             0       -3.763503   -0.727110   -2.413862
   28          6             0       -3.764331    0.727908   -2.413519
   29          6             0       -3.837938    1.642118   -3.452088
   30          6             0       -3.818161    2.994504   -3.148983
   31          6             0       -3.726947    3.428505   -1.834723
   32          6             0       -3.653179    2.517770   -0.788714
   33          6             0       -3.673215    1.172472   -1.086282
   34          6             0       -4.719631   -0.000814    0.890270
   35          6             0       -6.081173   -0.001730    0.678923
   36          6             0       -6.922364   -0.002321    1.784131
   37          6             0       -6.404880   -0.001991    3.071086
   38          6             0       -5.035910   -0.001101    3.287694
   39          6             0       -4.190792   -0.000534    2.189747
   40          6             0        2.033866    1.216329    0.782010
   41          6             0        1.372771    2.463812    0.935586
   42          6             0        2.038933    3.638734    0.769192
   43          6             0        3.410516    3.639400    0.440772
   44          6             0        4.080210    2.465484    0.280787
   45          6             0        3.422298    1.216927    0.440805
   46          6             0        6.510080   -0.000014    0.913621
   47          6             0        7.850322   -0.000307    0.583378
   48          1             0        7.561562   -0.000742   -2.800211
   49          1             0        5.167591   -0.000231   -2.190499
   50          1             0        5.129835   -2.466329    0.027272
   51          1             0        3.922381   -4.581396    0.315978
   52          1             0        1.522334   -4.579643    0.887141
   53          1             0        0.321333   -2.457815    1.186356
   54          1             0        0.351887    0.000840    3.428800
   55          1             0       -2.018407    0.000366    4.121041
   56          1             0       -0.786600    0.000697   -0.694643
   57          1             0       -3.580604   -2.857538    0.233492
   58          1             0       -3.708420   -4.487088   -1.623659
   59          1             0       -3.871040   -3.719807   -3.948481
   60          1             0       -3.908063   -1.307906   -4.477776
   61          1             0       -3.909631    1.309502   -4.477159
   62          1             0       -3.875372    3.721201   -3.946738
   63          1             0       -3.713588    4.487578   -1.621562
   64          1             0       -3.583872    2.857324    0.234818
   65          1             0       -6.485377   -0.002000   -0.323339
   66          1             0       -7.992884   -0.003050    1.638921
   67          1             0       -7.079311   -0.002461    3.915371
   68          1             0       -4.638159   -0.000894    4.291845
   69          1             0        0.322054    2.459324    1.186552
   70          1             0        1.523683    4.580839    0.887484
   71          1             0        3.923712    4.581927    0.316259
   72          1             0        5.130549    2.466523    0.027379
   73          1             0        6.210268    0.000186    1.951241
   74          1             0        8.607590   -0.000330    1.353791
 --------------------------------------------------------------------
     1 basis functions        1 primitive gaussians
     1 alpha electrons        1 beta electrons
 
 Harmonic frequencies (cm**-1), IR intensities (km*mol⁻¹),
 Raman scattering activities (A**4/amu), Raman depolarization ratios,
 reduced masses (AMU), force constants (mDyne/A) and normal coordinates:
                      1                      2                      3
                        a                      a                      a 
 Frequencies --   -23.6932               -16.6647                 7.0803
 Red. masses --    10.1384                10.6609                11.1077
 Frc consts  --     0.0000                 0.0000                 0.0000
 IR Inten    --     0.0040                 0.0358                 0.1098
 Raman Activ --     0.0000                 0.0000                 0.0000
 Depolar     --     0.0000                 0.0000                 0.0000
 Atom AN      X      Y      Z        X      Y      Z        X      Y      Z
   1   7     0.00  -0.05   0.00    -0.00   0.09  -0.00     0.00  -0.23   0.00
   2   6     0.00  -0.03   0.00    -0.00   0.06  -0.00     0.00  -0.17   0.00
   3   6     0.00  -0.02   0.00    -0.00   0.04  -0.00     0.00  -0.12   0.00
   4   6     0.00   0.36   0.00    -0.00  -0.20  -0.00     0.00  -0.16   0.00
   5   6     0.00   0.37  -0.00    -0.00  -0.23   0.00     0.00  -0.11   0.00
   6   6     0.00   0.01   0.00    -0.00  -0.01   0.00     0.00  -0.03   0.00
   7   6     0.00   0.01  -0.00     0.00  -0.03   0.00     0.00   0.01  -0.00
   8   6     0.02   0.01   0.07     0.03  -0.04   0.08    -0.03   0.03   0.02
   9   6     0.04   0.01   0.12     0.07  -0.03   0.17    -0.06   0.01   0.04
  10   6     0.06   0.01   0.18     0.10  -0.04   0.24    -0.09   0.03   0.06
  11   6     0.06  -0.00   0.19     0.09  -0.05   0.23    -0.09   0.07   0.06
  12   6     0.04  -0.00   0.13     0.06  -0.06   0.15    -0.06   0.09   0.04
  13   6     0.02  -0.00   0.07     0.03  -0.05   0.08    -0.03   0.07   0.02
  14   6     0.00  -0.00  -0.00     0.00  -0.06   0.00     0.00   0.09  -0.00
  15   6     0.00  -0.01  -0.00     0.00  -0.07   0.00     0.00   0.12  -0.00
  16   6     0.00  -0.04  -0.00    -0.00  -0.15   0.00     0.00   0.15  -0.00
  17   6     0.00  -0.05  -0.00    -0.00  -0.16   0.00     0.00   0.12  -0.00
  18   6     0.00  -0.03  -0.00    -0.00  -0.09   0.00     0.00   0.07  -0.00
  19   6     0.00  -0.00  -0.00     0.00  -0.01   0.00    -0.00   0.06  -0.00
  20   6    -0.00   0.01  -0.00     0.00  -0.00   0.00    -0.00   0.09  -0.00
  21   6    -0.00   0.01   0.00     0.00   0.03  -0.00    -0.00  -0.00   0.00
  22   6     0.00   0.02  -0.01    -0.01   0.06  -0.03     0.08   0.02  -0.03
  23   6     0.00   0.02  -0.03    -0.03   0.05  -0.06     0.19   0.01  -0.06
  24   6     0.01   0.03  -0.04    -0.04   0.08  -0.09     0.26   0.03  -0.08
  25   6     0.00   0.04  -0.03    -0.03   0.11  -0.08     0.22   0.05  -0.07
  26   6     0.00   0.04  -0.02    -0.02   0.12  -0.04     0.12   0.06  -0.04
  27   6     0.00   0.03  -0.01    -0.01   0.09  -0.02     0.05   0.04  -0.02
  28   6    -0.00   0.03   0.01     0.01   0.09   0.02    -0.05   0.04   0.02
  29   6    -0.00   0.04   0.02     0.02   0.12   0.04    -0.13   0.06   0.04
  30   6    -0.00   0.04   0.03     0.03   0.11   0.08    -0.23   0.05   0.07
  31   6    -0.01   0.03   0.04     0.04   0.08   0.09    -0.26   0.03   0.08
  32   6    -0.00   0.02   0.03     0.03   0.05   0.06    -0.19   0.01   0.06
  33   6    -0.00   0.02   0.01     0.01   0.06   0.03    -0.08   0.02   0.03
  34   6     0.00  -0.01   0.00    -0.00   0.01  -0.00     0.00  -0.09   0.00
  35   6     0.00  -0.01   0.00    -0.00   0.05  -0.00     0.00  -0.21   0.00
  36   6     0.00  -0.03   0.00    -0.00   0.00  -0.00     0.00  -0.26   0.00
  37   6     0.00  -0.05   0.00    -0.00  -0.07  -0.00     0.00  -0.20   0.00
  38   6     0.00  -0.05   0.00    -0.00  -0.11  -0.00     0.00  -0.08   0.00
  39   6     0.00  -0.03   0.00    -0.00  -0.07  -0.00     0.00  -0.02   0.00
  40   6    -0.02  -0.00  -0.07    -0.03  -0.05  -0.08     0.03   0.07  -0.02
  41   6    -0.04  -0.00  -0.13    -0.06  -0.06  -0.15     0.06   0.09  -0.04
  42   6    -0.06  -0.00  -0.19    -0.09  -0.05  -0.23     0.09   0.07  -0.06
  43   6    -0.06   0.01  -0.18    -0.10  -0.04  -0.24     0.09   0.03  -0.06
  44   6    -0.04   0.01  -0.12    -0.07  -0.03  -0.17     0.06   0.01  -0.04
  45   6    -0.02   0.01  -0.07    -0.03  -0.04  -0.08     0.03   0.03  -0.02
  46   6    -0.00  -0.37   0.00     0.00   0.22  -0.00    -0.00   0.01   0.00
  47   6    -0.00  -0.38   0.00     0.00   0.25  -0.00     0.00  -0.04   0.00
  48   1     0.00   0.18  -0.00    -0.00  -0.11  -0.00     0.00  -0.06   0.00
  49   1     0.00   0.19  -0.00    -0.00  -0.12   0.00     0.00  -0.04   0.00
  50   1     0.01   0.00   0.03     0.02  -0.01   0.05    -0.02  -0.01   0.01
  51   1     0.02   0.00   0.06     0.04  -0.01   0.09    -0.03   0.00   0.02
  52   1     0.02  -0.00   0.07     0.03  -0.02   0.08    -0.03   0.03   0.02
  53   1     0.01  -0.00   0.04     0.02  -0.02   0.04    -0.02   0.04   0.01
  54   1     0.00  -0.02  -0.00    -0.00  -0.06   0.00     0.00   0.05  -0.00
  55   1     0.00  -0.02  -0.00    -0.00  -0.06   0.00     0.00   0.04  -0.00
  56   1    -0.00   0.01  -0.00     0.00   0.02   0.00    -0.00   0.02  -0.00
  57   1     0.00   0.00  -0.01    -0.01   0.01  -0.02     0.06  -0.00  -0.02
  58   1     0.00   0.01  -0.01    -0.01   0.02  -0.03     0.10   0.01  -0.03
  59   1     0.00   0.01  -0.01    -0.01   0.04  -0.03     0.08   0.02  -0.02
  60   1     0.00   0.02  -0.00    -0.00   0.04  -0.01     0.03   0.02  -0.01
  61   1    -0.00   0.02   0.00     0.00   0.04   0.01    -0.03   0.02   0.01
  62   1    -0.00   0.01   0.01     0.01   0.04   0.03    -0.08   0.02   0.02
  63   1    -0.00   0.01   0.01     0.01   0.02   0.03    -0.10   0.01   0.03
  64   1    -0.00   0.00   0.01     0.01   0.01   0.02    -0.06  -0.00   0.02
  65   1    -0.00   0.00   0.00     0.00   0.03  -0.00    -0.00  -0.08   0.00
  66   1     0.00  -0.01   0.00    -0.00   0.01  -0.00     0.00  -0.10   0.00
  67   1     0.00  -0.02   0.00    -0.00  -0.03  -0.00     0.00  -0.07   0.00
  68   1     0.00  -0.02   0.00    -0.00  -0.05  -0.00     0.00  -0.01   0.00
  69   1    -0.01  -0.00  -0.04    -0.02  -0.02  -0.04     0.02   0.04  -0.01
  70   1    -0.02  -0.00  -0.07    -0.03  -0.02  -0.08     0.03   0.03  -0.02
  71   1    -0.02   0.00  -0.06    -0.04  -0.01  -0.09     0.03   0.00  -0.02
  72   1    -0.01   0.00  -0.03    -0.02  -0.01  -0.05     0.02  -0.01  -0.01
  73   1    -0.00  -0.19   0.00     0.00   0.11  -0.00    -0.00   0.02   0.00
  74   1    -0.00  -0.19   0.00     0.00   0.12  -0.00    -0.00  -0.00   0.00
                      4                      5                      6
                        a                      a                      a 
 Frequencies --    12.8770                30.7224                31.6955
 Red. masses --    11.7399                11.0131                12.0333
 Frc consts  --     0.0000                 0.0000                 0.0000
 IR Inten    --     0.4116                 0.2355                 1.6993
 Raman Activ --     0.0000                 0.0000                 0.0000
 Depolar     --     0.0000                 0.0000                 0.0000
 Atom AN      X      Y      Z        X      Y      Z        X      Y      Z
   1   7     0.15   0.00   0.39    -0.01  -0.00   0.18    -0.00  -0.54  -0.00
   2   6     0.12   0.00   0.29    -0.02  -0.00   0.11     0.00  -0.31  -0.00
   3   6     0.10   0.00   0.20    -0.04  -0.00   0.05     0.00  -0.10  -0.00
   4   6     0.16   0.00   0.13     0.00  -0.00   0.01    -0.00  -0.05  -0.00
   5   6     0.14   0.00   0.04    -0.01   0.00  -0.05     0.00   0.07   0.00
   6   6     0.05   0.00   0.02    -0.07   0.00  -0.07     0.00   0.15   0.00
   7   6     0.03  -0.00  -0.06    -0.07   0.00  -0.10     0.00   0.15   0.00
   8   6     0.02  -0.00  -0.10    -0.07   0.00  -0.10     0.03   0.13  -0.01
   9   6     0.03  -0.00  -0.08    -0.09   0.00  -0.15     0.06   0.15  -0.01
  10   6     0.02  -0.00  -0.11    -0.09   0.00  -0.17     0.09   0.13  -0.02
  11   6     0.01  -0.00  -0.15    -0.08   0.00  -0.13     0.08   0.09  -0.02
  12   6     0.01  -0.00  -0.16    -0.07   0.00  -0.07     0.06   0.08  -0.02
  13   6     0.01  -0.00  -0.13    -0.06   0.00  -0.06     0.03   0.09  -0.01
  14   6     0.01  -0.00  -0.14    -0.05   0.00  -0.02     0.00   0.08   0.00
  15   6     0.02  -0.00  -0.11    -0.04   0.00   0.02     0.00   0.03  -0.00
  16   6     0.07  -0.00  -0.10    -0.02   0.00   0.03     0.00   0.01  -0.00
  17   6     0.08  -0.00  -0.05    -0.02  -0.00   0.04     0.00  -0.04  -0.00
  18   6     0.05  -0.00  -0.02    -0.03  -0.00   0.06     0.00  -0.06  -0.00
  19   6    -0.00  -0.00  -0.03    -0.04  -0.00   0.05     0.00  -0.05  -0.00
  20   6    -0.01  -0.00  -0.08    -0.05   0.00   0.03     0.00  -0.00  -0.00
  21   6    -0.03  -0.00   0.01    -0.05  -0.00   0.06     0.00  -0.04  -0.00
  22   6    -0.07  -0.00   0.01     0.02  -0.00   0.06    -0.04  -0.03  -0.01
  23   6    -0.07  -0.00   0.01    -0.02   0.00   0.06    -0.12  -0.03  -0.02
  24   6    -0.11  -0.00   0.02     0.12  -0.00   0.05    -0.19  -0.02  -0.02
  25   6    -0.16  -0.00   0.02     0.28  -0.00   0.04    -0.18  -0.01  -0.02
  26   6    -0.17  -0.00   0.02     0.32  -0.00   0.04    -0.10  -0.01  -0.01
  27   6    -0.12  -0.00   0.02     0.18  -0.00   0.04    -0.04  -0.02  -0.01
  28   6    -0.12  -0.00   0.02     0.18   0.00   0.04     0.04  -0.02   0.00
  29   6    -0.17  -0.00   0.02     0.32   0.00   0.04     0.10  -0.01   0.01
  30   6    -0.16  -0.00   0.02     0.28   0.00   0.04     0.18  -0.01   0.02
  31   6    -0.11  -0.00   0.02     0.12   0.00   0.05     0.18  -0.02   0.02
  32   6    -0.06  -0.00   0.01    -0.02  -0.00   0.06     0.12  -0.03   0.02
  33   6    -0.07  -0.00   0.01     0.02  -0.00   0.06     0.04  -0.03   0.01
  34   6     0.00   0.00   0.05    -0.04  -0.00   0.06     0.00  -0.05  -0.00
  35   6    -0.00   0.00   0.10    -0.04  -0.00   0.08     0.00  -0.06  -0.00
  36   6     0.04   0.00   0.14    -0.03  -0.00   0.08     0.00  -0.10  -0.00
  37   6     0.08   0.00   0.12    -0.03  -0.00   0.08     0.00  -0.14  -0.00
  38   6     0.09   0.00   0.07    -0.02  -0.00   0.07     0.00  -0.13  -0.00
  39   6     0.05   0.00   0.03    -0.03  -0.00   0.06     0.00  -0.08  -0.00
  40   6     0.01  -0.00  -0.13    -0.06   0.00  -0.06    -0.03   0.09   0.01
  41   6     0.01  -0.00  -0.16    -0.07  -0.00  -0.07    -0.06   0.08   0.02
  42   6     0.01  -0.00  -0.15    -0.08   0.00  -0.13    -0.08   0.09   0.02
  43   6     0.02  -0.00  -0.11    -0.09   0.00  -0.17    -0.08   0.13   0.02
  44   6     0.03  -0.00  -0.08    -0.09   0.00  -0.15    -0.06   0.15   0.01
  45   6     0.02  -0.00  -0.10    -0.07   0.00  -0.10    -0.03   0.13   0.01
  46   6    -0.01   0.00   0.08    -0.11   0.00  -0.02     0.00   0.15   0.00
  47   6     0.01   0.00   0.17    -0.09   0.00   0.03     0.00   0.03  -0.00
  48   1     0.07   0.00   0.04     0.01  -0.00   0.01    -0.00  -0.04  -0.00
  49   1     0.05   0.00  -0.00     0.01   0.00  -0.02    -0.00   0.02   0.00
  50   1     0.01  -0.00  -0.01    -0.03  -0.00  -0.05     0.02   0.05  -0.00
  51   1     0.01  -0.00  -0.03    -0.03   0.00  -0.06     0.03   0.04  -0.01
  52   1     0.00  -0.00  -0.05    -0.02   0.00  -0.04     0.03   0.02  -0.01
  53   1     0.00  -0.00  -0.05    -0.02   0.00  -0.01     0.02   0.01  -0.01
  54   1     0.03  -0.00  -0.04    -0.00   0.00   0.00     0.00   0.01  -0.00
  55   1     0.03  -0.00  -0.01    -0.00  -0.00   0.01     0.00  -0.01  -0.00
  56   1    -0.01  -0.00  -0.03    -0.02   0.00   0.01     0.00   0.00  -0.00
  57   1    -0.01   0.00   0.00    -0.04   0.00   0.02    -0.04  -0.01  -0.01
  58   1    -0.03  -0.00   0.00     0.03  -0.00   0.02    -0.07  -0.01  -0.01
  59   1    -0.06  -0.00   0.01     0.11  -0.00   0.01    -0.07  -0.00  -0.01
  60   1    -0.06  -0.00   0.01     0.13  -0.00   0.01    -0.03   0.00  -0.00
  61   1    -0.06   0.00   0.01     0.13   0.00   0.01     0.03   0.00   0.00
  62   1    -0.06   0.00   0.01     0.11   0.00   0.01     0.07   0.00   0.01
  63   1    -0.03  -0.00   0.00     0.03   0.00   0.02     0.07  -0.01   0.01
  64   1    -0.01  -0.00   0.00    -0.04  -0.00   0.02     0.04  -0.01   0.01
  65   1    -0.01   0.00   0.03    -0.01  -0.00   0.02     0.00  -0.01  -0.00
  66   1     0.01   0.00   0.05    -0.01  -0.00   0.03     0.00  -0.03  -0.00
  67   1     0.03   0.00   0.04    -0.01  -0.00   0.02     0.00  -0.05  -0.00
  68   1     0.04   0.00   0.01    -0.00  -0.00   0.02     0.00  -0.05  -0.00
  69   1     0.00  -0.00  -0.05    -0.02  -0.00  -0.01    -0.02   0.01   0.01
  70   1     0.00  -0.00  -0.05    -0.03  -0.00  -0.04    -0.03   0.02   0.01
  71   1     0.01  -0.00  -0.03    -0.03   0.00  -0.06    -0.03   0.04   0.01
  72   1     0.01   0.00  -0.01    -0.03   0.00  -0.05    -0.02   0.05   0.00
  73   1    -0.02   0.00   0.02    -0.04   0.00  -0.01     0.00   0.06   0.00
  74   1    -0.01   0.00   0.06    -0.04   0.00   0.02     0.00   0.00  -0.00
                      7                      8                      9
                        a                      a                      a 
 Frequencies --    36.8378                44.6382                55.2113
 Red. masses --    10.8367                10.7440                10.6424
 Frc consts  --     0.0000                 0.0000                 0.0000
 IR Inten    --     0.2718                 0.5239                 0.5430
 Raman Activ --     0.0000                 0.0000                 0.0000
 Depolar     --     0.0000                 0.0000                 0.0000
 Atom AN      X      Y      Z        X      Y      Z        X      Y      Z
   1   7    -0.00   0.25  -0.00    -0.00  -0.18  -0.00     0.04   0.00   0.21
   2   6    -0.00   0.14  -0.00    -0.00  -0.08  -0.00     0.01   0.00   0.10
   3   6    -0.00   0.03  -0.00    -0.00  -0.00  -0.00    -0.01   0.00   0.01
   4   6    -0.00  -0.00  -0.00    -0.00   0.02  -0.00     0.04  -0.00  -0.03
   5   6    -0.00  -0.05   0.00    -0.00   0.05   0.00     0.02  -0.00  -0.09
   6   6     0.00  -0.07   0.00    -0.00   0.06   0.00    -0.04  -0.00  -0.11
   7   6     0.00  -0.04   0.00    -0.00   0.03   0.00    -0.04   0.00  -0.10
   8   6    -0.03  -0.02   0.01     0.04   0.01  -0.01    -0.03  -0.00  -0.06
   9   6    -0.07  -0.04   0.02     0.08   0.03  -0.01    -0.06  -0.00  -0.20
  10   6    -0.10  -0.02   0.05     0.12   0.01  -0.01    -0.06   0.00  -0.19
  11   6    -0.10   0.02   0.06     0.13  -0.04  -0.01    -0.01   0.00  -0.01
  12   6    -0.07   0.04   0.05     0.08  -0.07  -0.00     0.02   0.00   0.13
  13   6    -0.03   0.02   0.02     0.04  -0.04  -0.01     0.01   0.00   0.09
  14   6    -0.00   0.04  -0.00    -0.00  -0.07   0.00     0.04   0.00   0.18
  15   6    -0.00   0.08  -0.00    -0.00  -0.09  -0.00     0.04   0.00   0.20
  16   6    -0.00   0.29  -0.00    -0.00   0.08  -0.00    -0.02   0.00   0.18
  17   6    -0.00   0.29  -0.00    -0.00   0.14  -0.00    -0.05   0.00   0.11
  18   6    -0.00   0.10  -0.00    -0.00   0.04   0.00    -0.00  -0.00   0.07
  19   6    -0.00  -0.06  -0.00    -0.00  -0.13  -0.00     0.07  -0.00   0.08
  20   6    -0.00  -0.09  -0.00    -0.00  -0.20  -0.00     0.09  -0.00   0.15
  21   6    -0.00  -0.11  -0.00    -0.00  -0.14   0.00     0.13  -0.00   0.01
  22   6    -0.04  -0.07  -0.05     0.01  -0.09  -0.06     0.11  -0.00   0.02
  23   6    -0.13  -0.08  -0.10     0.05  -0.11  -0.13     0.20   0.00   0.01
  24   6    -0.20  -0.04  -0.14     0.10  -0.05  -0.18     0.10  -0.00   0.02
  25   6    -0.20   0.02  -0.12     0.11   0.02  -0.16    -0.10  -0.00   0.03
  26   6    -0.12   0.04  -0.06     0.06   0.03  -0.09    -0.18  -0.00   0.04
  27   6    -0.04  -0.01  -0.03     0.02  -0.02  -0.04    -0.07  -0.00   0.03
  28   6     0.04  -0.01   0.03    -0.02  -0.02   0.04    -0.07  -0.00   0.03
  29   6     0.12   0.04   0.06    -0.06   0.03   0.09    -0.18   0.00   0.04
  30   6     0.20   0.02   0.12    -0.11   0.02   0.16    -0.10   0.00   0.03
  31   6     0.20  -0.04   0.14    -0.10  -0.05   0.18     0.10   0.00   0.02
  32   6     0.12  -0.08   0.10    -0.05  -0.11   0.13     0.20  -0.00   0.01
  33   6     0.04  -0.07   0.05    -0.01  -0.09   0.06     0.11  -0.00   0.02
  34   6    -0.00  -0.11  -0.00    -0.00  -0.06   0.00     0.07  -0.00  -0.05
  35   6     0.00  -0.24   0.00    -0.00  -0.02   0.00     0.08  -0.00  -0.14
  36   6     0.00  -0.21   0.00    -0.00   0.20   0.00     0.01   0.00  -0.20
  37   6     0.00  -0.04   0.00    -0.00   0.38   0.00    -0.07   0.00  -0.17
  38   6     0.00   0.09   0.00    -0.00   0.33   0.00    -0.09  -0.00  -0.08
  39   6     0.00   0.05  -0.00    -0.00   0.10   0.00    -0.01  -0.00  -0.02
  40   6     0.03   0.02  -0.02    -0.04  -0.04   0.01     0.01   0.00   0.09
  41   6     0.07   0.04  -0.05    -0.09  -0.07   0.00     0.02  -0.00   0.13
  42   6     0.10   0.02  -0.06    -0.13  -0.04   0.01    -0.01  -0.00  -0.01
  43   6     0.10  -0.02  -0.05    -0.12   0.01   0.01    -0.06  -0.00  -0.19
  44   6     0.07  -0.04  -0.02    -0.08   0.03   0.01    -0.06   0.00  -0.20
  45   6     0.03  -0.02  -0.01    -0.04   0.01   0.01    -0.03   0.00  -0.06
  46   6     0.00  -0.06   0.00    -0.00   0.07   0.00    -0.08  -0.00  -0.07
  47   6     0.00  -0.01  -0.00    -0.00   0.04  -0.00    -0.07  -0.00  -0.00
  48   1    -0.00   0.01  -0.00    -0.00  -0.00  -0.00     0.03  -0.00  -0.00
  49   1    -0.00  -0.02   0.00    -0.00   0.01   0.00     0.02  -0.00  -0.04
  50   1    -0.02  -0.02   0.01     0.02   0.02  -0.00    -0.03  -0.00  -0.10
  51   1    -0.04  -0.01   0.02     0.05   0.01  -0.01    -0.03   0.00  -0.09
  52   1    -0.04   0.01   0.02     0.05  -0.02  -0.00    -0.00   0.00   0.00
  53   1    -0.02   0.02   0.02     0.02  -0.03   0.00     0.02   0.00   0.08
  54   1    -0.00   0.13  -0.00    -0.00   0.05   0.00    -0.02   0.00   0.06
  55   1    -0.00   0.13  -0.00    -0.00   0.08  -0.00    -0.03   0.00   0.03
  56   1    -0.00  -0.06  -0.00    -0.00  -0.09  -0.00     0.04  -0.00   0.05
  57   1    -0.04  -0.04  -0.03     0.01  -0.05  -0.04     0.10   0.00   0.00
  58   1    -0.08  -0.01  -0.05     0.04  -0.02  -0.07     0.05  -0.00   0.00
  59   1    -0.08   0.02  -0.04     0.04   0.02  -0.06    -0.05  -0.00   0.01
  60   1    -0.03   0.02  -0.01     0.02   0.03  -0.02    -0.10  -0.00   0.01
  61   1     0.03   0.02   0.01    -0.02   0.03   0.02    -0.09   0.00   0.01
  62   1     0.08   0.02   0.04    -0.04   0.02   0.06    -0.05   0.00   0.01
  63   1     0.08  -0.01   0.05    -0.04  -0.02   0.07     0.05   0.00   0.00
  64   1     0.04  -0.04   0.03    -0.01  -0.05   0.04     0.10  -0.00   0.00
  65   1     0.00  -0.11   0.00    -0.00  -0.04   0.00     0.05  -0.00  -0.05
  66   1     0.00  -0.09   0.00    -0.00   0.07   0.00     0.01   0.00  -0.08
  67   1     0.00  -0.01   0.00    -0.00   0.16   0.00    -0.04   0.00  -0.06
  68   1     0.00   0.06  -0.00    -0.00   0.14   0.00    -0.05  -0.00  -0.01
  69   1     0.02   0.02  -0.02    -0.02  -0.03  -0.00     0.02  -0.00   0.08
  70   1     0.04   0.01  -0.02    -0.05  -0.02   0.00    -0.00  -0.00   0.00
  71   1     0.04  -0.01  -0.02    -0.05   0.01   0.01    -0.03  -0.00  -0.09
  72   1     0.02  -0.02  -0.00    -0.02   0.02   0.00    -0.03   0.00  -0.10
  73   1     0.00  -0.02   0.00     0.00   0.03   0.00    -0.04  -0.00  -0.02
  74   1     0.00   0.00  -0.00     0.00   0.01  -0.00    -0.03  -0.00   0.01
                     10                     11                     12
                        a                      a                      a 
 Frequencies --    64.8913                76.5375                82.8867
 Red. masses --    10.9234                10.8250                10.2422
 Frc consts  --     0.0000                 0.0000                 0.0000
 IR Inten    --     0.3813                 0.0250                 0.0961
 Raman Activ --     0.0000                 0.0000                 0.0000
 Depolar     --     0.0000                 0.0000                 0.0000
 Atom AN      X      Y      Z        X      Y      Z        X      Y      Z
   1   7     0.08  -0.00   0.29     0.00   0.09  -0.00     0.04  -0.00  -0.01
   2   6     0.03  -0.00   0.10     0.00   0.01  -0.00     0.04  -0.00  -0.01
   3   6    -0.00   0.00  -0.04     0.00  -0.04   0.00     0.04  -0.00  -0.00
   4   6     0.07   0.00  -0.11     0.00  -0.05   0.00     0.04  -0.00  -0.00
   5   6     0.04   0.00  -0.21     0.00  -0.04   0.00     0.04  -0.00   0.00
   6   6    -0.05   0.00  -0.24     0.00  -0.02   0.00     0.04  -0.00   0.00
   7   6    -0.06  -0.00  -0.26     0.00   0.03   0.00     0.04  -0.00   0.02
   8   6    -0.03  -0.00  -0.15    -0.05   0.06   0.01     0.04   0.00   0.02
   9   6    -0.01  -0.00  -0.05    -0.10   0.03   0.03     0.01   0.00  -0.07
  10   6     0.06  -0.00   0.22    -0.15   0.06   0.04     0.01   0.00  -0.12
  11   6     0.09  -0.00   0.34    -0.15   0.12   0.03     0.03   0.00  -0.04
  12   6     0.05  -0.00   0.17    -0.10   0.15   0.02     0.05  -0.00   0.07
  13   6    -0.01  -0.00  -0.06    -0.04   0.12   0.01     0.05   0.00   0.08
  14   6    -0.01  -0.00  -0.08    -0.00   0.15  -0.00     0.05   0.00   0.11
  15   6    -0.01  -0.00  -0.05    -0.00   0.10  -0.00     0.04   0.00   0.10
  16   6     0.01  -0.00  -0.05     0.00  -0.07  -0.00    -0.00  -0.00   0.09
  17   6     0.01   0.00  -0.03     0.00  -0.24  -0.00    -0.02  -0.00   0.04
  18   6     0.00   0.00  -0.02     0.00  -0.25  -0.00     0.01  -0.00   0.02
  19   6    -0.02   0.00  -0.03    -0.00  -0.13  -0.00     0.04   0.00   0.03
  20   6    -0.02  -0.00  -0.04    -0.00   0.05  -0.00     0.06   0.00   0.07
  21   6    -0.03   0.00  -0.01    -0.00  -0.12   0.00     0.06  -0.00  -0.00
  22   6    -0.03  -0.00  -0.01    -0.01  -0.10  -0.03     0.03   0.00  -0.00
  23   6    -0.07  -0.00  -0.01    -0.01  -0.11  -0.08    -0.28  -0.00   0.02
  24   6    -0.05   0.00  -0.01     0.00  -0.08  -0.11    -0.39  -0.00   0.03
  25   6     0.01   0.00  -0.02     0.02  -0.04  -0.10    -0.15  -0.00   0.01
  26   6     0.05   0.00  -0.02     0.01  -0.03  -0.05     0.16  -0.00  -0.01
  27   6     0.02   0.00  -0.02     0.00  -0.06  -0.02     0.21   0.00  -0.01
  28   6     0.02  -0.00  -0.02    -0.00  -0.06   0.02     0.21   0.00  -0.01
  29   6     0.05  -0.00  -0.02    -0.01  -0.03   0.05     0.16   0.00  -0.01
  30   6     0.01  -0.00  -0.02    -0.02  -0.04   0.10    -0.16   0.00   0.01
  31   6    -0.05  -0.00  -0.01    -0.00  -0.08   0.11    -0.39  -0.00   0.03
  32   6    -0.07   0.00  -0.01     0.01  -0.11   0.08    -0.28  -0.00   0.02
  33   6    -0.03   0.00  -0.01     0.01  -0.10   0.03     0.03  -0.00  -0.00
  34   6    -0.02   0.00   0.01    -0.00  -0.07   0.00     0.04  -0.00  -0.03
  35   6    -0.02  -0.00   0.03    -0.00   0.22   0.00     0.05   0.00  -0.08
  36   6    -0.00  -0.00   0.04    -0.00   0.36   0.00     0.01   0.00  -0.11
  37   6     0.02   0.00   0.04    -0.00   0.17   0.00    -0.03   0.00  -0.09
  38   6     0.02   0.00   0.01     0.00  -0.13   0.00    -0.04   0.00  -0.05
  39   6     0.00   0.00  -0.00     0.00  -0.22   0.00     0.00  -0.00  -0.02
  40   6    -0.01   0.00  -0.06     0.04   0.12  -0.01     0.05  -0.00   0.08
  41   6     0.05   0.00   0.17     0.10   0.15  -0.02     0.05   0.00   0.07
  42   6     0.09   0.00   0.34     0.15   0.12  -0.03     0.03  -0.00  -0.04
  43   6     0.06   0.00   0.22     0.15   0.06  -0.04     0.01  -0.00  -0.12
  44   6    -0.01   0.00  -0.05     0.10   0.03  -0.03     0.02  -0.00  -0.07
  45   6    -0.03  -0.00  -0.15     0.05   0.06  -0.01     0.04  -0.00   0.02
  46   6    -0.12   0.00  -0.17     0.00  -0.04   0.00     0.04  -0.00  -0.00
  47   6    -0.10   0.00  -0.07     0.00  -0.05   0.00     0.04  -0.00  -0.00
  48   1     0.04   0.00  -0.03    -0.00  -0.02   0.00     0.01  -0.00  -0.00
  49   1     0.03   0.00  -0.08    -0.00  -0.01   0.00     0.01  -0.00   0.00
  50   1    -0.01  -0.00  -0.04    -0.03  -0.01   0.01     0.00   0.00  -0.04
  51   1     0.03  -0.00   0.10    -0.05   0.01   0.02    -0.00   0.00  -0.06
  52   1     0.04  -0.00   0.16    -0.06   0.04   0.01     0.01   0.00  -0.02
  53   1     0.02  -0.00   0.07    -0.03   0.06   0.00     0.02  -0.00   0.04
  54   1     0.01  -0.00  -0.02     0.00  -0.02  -0.00    -0.01  -0.00   0.03
  55   1     0.01   0.00  -0.01     0.00  -0.10  -0.00    -0.01  -0.00   0.01
  56   1    -0.01  -0.00  -0.01    -0.00   0.05  -0.00     0.03   0.00   0.02
  57   1    -0.03  -0.00  -0.00    -0.00  -0.04  -0.03    -0.13   0.00   0.01
  58   1    -0.03   0.00  -0.00     0.00  -0.02  -0.04    -0.19  -0.00   0.01
  59   1     0.01   0.00  -0.01     0.01  -0.00  -0.04    -0.07  -0.00   0.01
  60   1     0.03   0.00  -0.01     0.01   0.00  -0.01     0.09  -0.00  -0.01
  61   1     0.03  -0.00  -0.01    -0.01   0.00   0.01     0.09   0.00  -0.01
  62   1     0.01  -0.00  -0.01    -0.01  -0.00   0.04    -0.07   0.00   0.01
  63   1    -0.03  -0.00  -0.00    -0.00  -0.02   0.04    -0.19  -0.00   0.01
  64   1    -0.03   0.00  -0.00     0.00  -0.04   0.03    -0.13  -0.00   0.01
  65   1    -0.01  -0.00   0.01    -0.00   0.11   0.00     0.03   0.00  -0.03
  66   1    -0.00  -0.00   0.02    -0.00   0.18   0.00     0.00   0.00  -0.04
  67   1     0.01   0.00   0.01    -0.00   0.08   0.00    -0.02   0.00  -0.03
  68   1     0.01   0.00   0.00     0.00  -0.07   0.00    -0.02   0.00  -0.01
  69   1     0.02   0.00   0.07     0.03   0.06  -0.00     0.02   0.00   0.04
  70   1     0.04   0.00   0.16     0.06   0.04  -0.01     0.01  -0.00  -0.02
  71   1     0.03   0.00   0.10     0.05   0.01  -0.02    -0.00  -0.00  -0.06
  72   1    -0.01   0.00  -0.04     0.03  -0.01  -0.01     0.00  -0.00  -0.04
  73   1    -0.06   0.00  -0.06     0.00  -0.01   0.00     0.01  -0.00  -0.00
  74   1    -0.05   0.00  -0.00     0.00  -0.01   0.00     0.01  -0.00  -0.00
                     13                     14                     15
                        a                      a                      a 
 Frequencies --    96.6907               114.5774               121.6269
 Red. masses --     9.7232                11.7763                 9.8133
 Frc consts  --     0.0000                 0.0000                 0.0000
 IR Inten    --     0.0003                 4.2818                 0.0080
 Raman Activ --     0.0000                 0.0000                 0.0000
 Depolar     --     0.0000                 0.0000                 0.0000
 Atom AN      X      Y      Z        X      Y      Z        X      Y      Z
   1   7    -0.00   0.02  -0.00    -0.00  -0.47   0.00    -0.00  -0.03  -0.00
   2   6    -0.00   0.00  -0.00     0.00   0.07  -0.00    -0.00   0.01   0.00
   3   6    -0.00  -0.01   0.00     0.00   0.38  -0.00    -0.00   0.03   0.00
   4   6    -0.00   0.00   0.00     0.00   0.38  -0.00    -0.00   0.03   0.00
   5   6    -0.00   0.01   0.00     0.00   0.19  -0.00    -0.00   0.01   0.00
   6   6     0.00  -0.00   0.00     0.00   0.01   0.00    -0.00   0.00   0.00
   7   6     0.00   0.00   0.00     0.00  -0.12   0.00    -0.00   0.00   0.00
   8   6     0.03   0.00   0.10    -0.03  -0.10   0.01    -0.01   0.01   0.00
   9   6     0.09   0.00   0.35    -0.08  -0.13   0.03    -0.04  -0.00  -0.01
  10   6     0.06   0.00   0.22    -0.13  -0.11   0.04    -0.05   0.01  -0.00
  11   6    -0.05   0.00  -0.23    -0.14  -0.05   0.03    -0.05   0.03   0.02
  12   6    -0.08   0.00  -0.36    -0.09  -0.02   0.01    -0.03   0.04   0.03
  13   6    -0.02   0.00  -0.10    -0.04  -0.05   0.00    -0.01   0.03   0.02
  14   6    -0.00   0.00   0.00    -0.00  -0.03  -0.00     0.00   0.03   0.00
  15   6    -0.00   0.00  -0.00    -0.00   0.01  -0.00     0.00  -0.00   0.00
  16   6    -0.00  -0.01  -0.00    -0.00   0.03  -0.00     0.00  -0.36   0.00
  17   6    -0.00   0.00  -0.00    -0.00   0.02  -0.00     0.00  -0.31  -0.00
  18   6    -0.00   0.01  -0.00    -0.00  -0.01   0.00     0.00  -0.01  -0.00
  19   6    -0.00   0.01  -0.00    -0.00  -0.01   0.00     0.00   0.10  -0.00
  20   6    -0.00   0.01  -0.00    -0.00  -0.01  -0.00     0.00   0.20  -0.00
  21   6    -0.00  -0.00  -0.00    -0.00  -0.00   0.00    -0.00   0.00  -0.00
  22   6     0.00  -0.00  -0.00    -0.00  -0.01  -0.00     0.08   0.00  -0.01
  23   6     0.00  -0.00  -0.00    -0.01  -0.01  -0.00     0.16   0.00  -0.01
  24   6    -0.00  -0.00  -0.00    -0.00  -0.00  -0.00     0.04   0.00  -0.00
  25   6    -0.01  -0.00  -0.00     0.01  -0.00  -0.00    -0.16   0.00   0.01
  26   6    -0.01  -0.00  -0.00     0.01  -0.00  -0.00    -0.16   0.00   0.01
  27   6    -0.00  -0.00  -0.00     0.00  -0.00  -0.00    -0.01   0.00   0.00
  28   6     0.00  -0.00   0.00    -0.00  -0.00   0.00     0.01   0.00  -0.00
  29   6     0.01  -0.00   0.00    -0.01  -0.00   0.00     0.16   0.00  -0.01
  30   6     0.01  -0.00   0.00    -0.01  -0.00   0.00     0.16   0.00  -0.01
  31   6     0.00  -0.00   0.00     0.00  -0.00   0.00    -0.04   0.00   0.00
  32   6    -0.00  -0.00   0.00     0.01  -0.01   0.00    -0.16   0.00   0.01
  33   6    -0.00  -0.00   0.00     0.00  -0.01   0.00    -0.08   0.00   0.01
  34   6    -0.00  -0.01   0.00    -0.00   0.00   0.00     0.00  -0.10   0.00
  35   6     0.00  -0.03   0.00    -0.00   0.04  -0.00     0.00  -0.33   0.00
  36   6     0.00  -0.02   0.00    -0.00   0.03  -0.00     0.00  -0.17   0.00
  37   6    -0.00   0.02   0.00    -0.00  -0.02  -0.00     0.00   0.25   0.00
  38   6    -0.00   0.03   0.00    -0.00  -0.04   0.00     0.00   0.33   0.00
  39   6    -0.00   0.02   0.00    -0.00  -0.02   0.00     0.00   0.07  -0.00
  40   6     0.02   0.00   0.10     0.04  -0.05  -0.00     0.01   0.03  -0.02
  41   6     0.08   0.00   0.36     0.09  -0.02  -0.01     0.03   0.04  -0.03
  42   6     0.05   0.00   0.23     0.14  -0.05  -0.03     0.05   0.03  -0.02
  43   6    -0.06   0.00  -0.22     0.13  -0.11  -0.04     0.05   0.01   0.00
  44   6    -0.09   0.00  -0.35     0.08  -0.13  -0.03     0.04  -0.00   0.01
  45   6    -0.03   0.00  -0.10     0.03  -0.10  -0.01     0.01   0.01  -0.00
  46   6     0.00  -0.02   0.00     0.00   0.18  -0.00    -0.00   0.01   0.00
  47   6     0.00  -0.03   0.00     0.00   0.36  -0.00    -0.00   0.03   0.00
  48   1    -0.00   0.00   0.00     0.00   0.13  -0.00    -0.00   0.01   0.00
  49   1    -0.00   0.01   0.00     0.00   0.05  -0.00    -0.00   0.00   0.00
  50   1     0.05   0.00   0.18    -0.02  -0.05   0.01    -0.01  -0.00  -0.01
  51   1     0.03   0.00   0.12    -0.05  -0.04   0.02    -0.02   0.00  -0.00
  52   1    -0.03   0.00  -0.13    -0.05  -0.01   0.01    -0.02   0.01   0.01
  53   1    -0.04   0.00  -0.18    -0.03   0.01  -0.00    -0.01   0.02   0.01
  54   1    -0.00  -0.01  -0.00    -0.00   0.01  -0.00     0.00  -0.18   0.00
  55   1    -0.00   0.00  -0.00    -0.00   0.01  -0.00     0.00  -0.15  -0.00
  56   1    -0.00   0.00  -0.00    -0.00  -0.00  -0.00     0.00   0.11   0.00
  57   1     0.00  -0.00  -0.00    -0.00  -0.00  -0.00     0.08   0.00  -0.01
  58   1    -0.00  -0.00  -0.00    -0.00  -0.00  -0.00     0.02   0.00  -0.00
  59   1    -0.00  -0.00  -0.00     0.00  -0.00  -0.00    -0.09   0.00   0.01
  60   1    -0.00  -0.00   0.00     0.00  -0.00  -0.00    -0.09  -0.00   0.01
  61   1     0.00  -0.00  -0.00    -0.00  -0.00   0.00     0.09  -0.00  -0.01
  62   1     0.00  -0.00   0.00    -0.00  -0.00   0.00     0.09   0.00  -0.01
  63   1     0.00  -0.00   0.00     0.00  -0.00   0.00    -0.02   0.00   0.00
  64   1    -0.00  -0.00   0.00     0.00  -0.00   0.00    -0.08   0.00   0.01
  65   1     0.00  -0.02   0.00    -0.00   0.02  -0.00     0.00  -0.17   0.00
  66   1     0.00  -0.01   0.00    -0.00   0.02  -0.00     0.00  -0.09   0.00
  67   1    -0.00   0.01   0.00    -0.00  -0.01  -0.00     0.00   0.13   0.00
  68   1    -0.00   0.02   0.00     0.00  -0.02   0.00     0.00   0.17   0.00
  69   1     0.04   0.00   0.18     0.03   0.01   0.00     0.01   0.02  -0.01
  70   1     0.03   0.00   0.13     0.05  -0.01  -0.01     0.02   0.01  -0.01
  71   1    -0.03   0.00  -0.12     0.05  -0.04  -0.02     0.02   0.00   0.00
  72   1    -0.05   0.00  -0.18     0.02  -0.05  -0.01     0.01  -0.00   0.01
  73   1     0.00  -0.01   0.00     0.00   0.04  -0.00    -0.00   0.00   0.00
  74   1     0.00  -0.01   0.00     0.00   0.13  -0.00    -0.00   0.01   0.00
                     16                     17                     18
                        a                      a                      a 
 Frequencies --   123.3204               132.7696               138.9241
 Red. masses --    10.7395                11.7485                11.4772
 Frc consts  --     0.0000                 0.0000                 0.0000
 IR Inten    --     0.2404                 6.3296                 2.4613
 Raman Activ --     0.0000                 0.0000                 0.0000
 Depolar     --     0.0000                 0.0000                 0.0000
 Atom AN      X      Y      Z        X      Y      Z        X      Y      Z
   1   7     0.12  -0.00   0.10     0.03   0.00   0.55    -0.23  -0.00  -0.27
   2   6     0.08  -0.00  -0.03    -0.10   0.00  -0.03    -0.13   0.00   0.08
   3   6     0.07  -0.00  -0.08    -0.15   0.00  -0.24    -0.10   0.00   0.19
   4   6     0.06   0.00  -0.07    -0.21   0.00  -0.18    -0.03   0.00   0.12
   5   6     0.06   0.00  -0.06    -0.19   0.00  -0.08    -0.05  -0.00   0.03
   6   6     0.05  -0.00  -0.06    -0.08  -0.00  -0.05    -0.10  -0.00   0.01
   7   6     0.04   0.00  -0.06    -0.03  -0.00   0.08    -0.10  -0.00  -0.10
   8   6     0.03   0.01  -0.05    -0.01  -0.01   0.11    -0.07  -0.02  -0.12
   9   6     0.07   0.01   0.12     0.00  -0.02   0.18    -0.05  -0.03   0.02
  10   6     0.09   0.01   0.14    -0.04  -0.01   0.07    -0.05  -0.01   0.14
  11   6     0.04   0.00  -0.08    -0.09  -0.00  -0.13    -0.07  -0.00   0.05
  12   6     0.00  -0.00  -0.20    -0.07   0.00  -0.10    -0.09   0.00  -0.11
  13   6     0.00   0.01  -0.12    -0.01  -0.01   0.05    -0.07  -0.02  -0.15
  14   6    -0.02   0.00  -0.11     0.02   0.00   0.05    -0.01   0.00  -0.12
  15   6    -0.02   0.00  -0.03     0.04   0.00   0.03     0.06   0.00  -0.02
  16   6    -0.03  -0.00  -0.03     0.05  -0.00   0.04     0.11  -0.00  -0.01
  17   6    -0.03  -0.00   0.02     0.05  -0.00   0.02     0.12  -0.00   0.01
  18   6    -0.09   0.00   0.07     0.08  -0.00  -0.00     0.12   0.00   0.01
  19   6    -0.06   0.00   0.08     0.07   0.00  -0.01     0.11   0.00   0.01
  20   6    -0.07   0.00   0.02     0.07   0.00   0.01     0.08   0.00  -0.02
  21   6    -0.01   0.00   0.05     0.09   0.00  -0.01     0.15   0.00  -0.00
  22   6     0.00   0.00   0.08     0.08  -0.00  -0.02     0.16   0.00   0.01
  23   6     0.01   0.02   0.13     0.04  -0.00  -0.03     0.09   0.01   0.04
  24   6     0.01  -0.01   0.17    -0.04   0.00  -0.03    -0.06  -0.01   0.07
  25   6     0.01  -0.04   0.16    -0.06   0.01  -0.03    -0.11  -0.02   0.07
  26   6     0.01  -0.04   0.11     0.01   0.01  -0.02     0.02  -0.02   0.03
  27   6     0.01  -0.00   0.08     0.07   0.00  -0.02     0.14  -0.00   0.01
  28   6     0.01   0.01   0.08     0.07  -0.00  -0.02     0.14   0.00   0.01
  29   6     0.01   0.04   0.11     0.01  -0.01  -0.02     0.02   0.02   0.03
  30   6     0.01   0.04   0.16    -0.06  -0.01  -0.03    -0.11   0.02   0.07
  31   6     0.01   0.01   0.17    -0.04  -0.00  -0.03    -0.06   0.01   0.07
  32   6     0.01  -0.02   0.13     0.04   0.00  -0.03     0.09  -0.01   0.04
  33   6     0.00  -0.00   0.08     0.08   0.00  -0.02     0.16  -0.00   0.01
  34   6    -0.05  -0.00  -0.02     0.09  -0.00  -0.01     0.15   0.00  -0.03
  35   6    -0.02  -0.00  -0.17     0.09  -0.00   0.02     0.16  -0.00  -0.08
  36   6    -0.14  -0.00  -0.27     0.11   0.00   0.04     0.13  -0.00  -0.10
  37   6    -0.24   0.00  -0.23     0.12   0.00   0.03     0.10   0.00  -0.09
  38   6    -0.25   0.00  -0.08     0.12   0.00   0.01     0.09   0.00  -0.04
  39   6    -0.12   0.00   0.01     0.09   0.00  -0.01     0.12   0.00  -0.01
  40   6     0.00  -0.01  -0.12    -0.01   0.01   0.05    -0.07   0.02  -0.15
  41   6     0.00   0.00  -0.20    -0.07  -0.00  -0.10    -0.09  -0.00  -0.11
  42   6     0.04  -0.00  -0.08    -0.09   0.00  -0.13    -0.07   0.00   0.05
  43   6     0.09  -0.01   0.14    -0.04   0.01   0.07    -0.05   0.01   0.14
  44   6     0.07  -0.01   0.12     0.00   0.02   0.18    -0.05   0.03   0.02
  45   6     0.03  -0.01  -0.05    -0.01   0.01   0.11    -0.07   0.02  -0.12
  46   6     0.06  -0.00  -0.07    -0.02  -0.00  -0.11    -0.18   0.00   0.09
  47   6     0.06  -0.00  -0.08    -0.06  -0.00  -0.21    -0.15   0.00   0.17
  48   1     0.01   0.00  -0.02    -0.08   0.00  -0.06     0.02   0.00   0.04
  49   1     0.02   0.00  -0.02    -0.07   0.00  -0.00    -0.00  -0.00  -0.00
  50   1     0.03   0.01   0.07     0.01  -0.01   0.09    -0.01  -0.01   0.02
  51   1     0.04   0.00   0.09    -0.01  -0.00   0.03    -0.01  -0.01   0.08
  52   1     0.01  -0.00  -0.04    -0.04   0.00  -0.08    -0.02  -0.00   0.03
  53   1    -0.01  -0.00  -0.10    -0.03   0.00  -0.06    -0.03   0.01  -0.05
  54   1    -0.01  -0.00  -0.01     0.02  -0.00   0.01     0.04  -0.00  -0.01
  55   1     0.01  -0.00   0.01     0.01  -0.00   0.00     0.04  -0.00   0.00
  56   1    -0.04   0.00   0.00     0.03   0.00   0.00     0.02   0.00  -0.01
  57   1     0.00   0.02   0.04     0.01  -0.00  -0.01     0.03   0.01   0.01
  58   1     0.00  -0.00   0.05    -0.03   0.00  -0.01    -0.04  -0.00   0.02
  59   1     0.00  -0.02   0.05    -0.04   0.00  -0.01    -0.07  -0.01   0.02
  60   1     0.00  -0.03   0.03    -0.00   0.01  -0.00    -0.00  -0.01   0.01
  61   1     0.00   0.03   0.03    -0.00  -0.01  -0.00    -0.00   0.01   0.01
  62   1     0.00   0.02   0.05    -0.04  -0.00  -0.01    -0.07   0.01   0.02
  63   1     0.00   0.00   0.05    -0.03  -0.00  -0.01    -0.04   0.00   0.02
  64   1     0.00  -0.02   0.04     0.01   0.00  -0.01     0.03  -0.01   0.01
  65   1     0.03  -0.00  -0.07     0.02  -0.00   0.01     0.06  -0.00  -0.03
  66   1    -0.04  -0.00  -0.11     0.03   0.00   0.01     0.04  -0.00  -0.04
  67   1    -0.09   0.00  -0.08     0.04   0.00   0.01     0.02   0.00  -0.03
  68   1    -0.11   0.00  -0.01     0.04   0.00   0.00     0.02   0.00  -0.01
  69   1    -0.01   0.00  -0.10    -0.03  -0.00  -0.06    -0.03  -0.01  -0.05
  70   1     0.01   0.00  -0.04    -0.04  -0.00  -0.08    -0.02   0.00   0.03
  71   1     0.04  -0.00   0.09    -0.01   0.00   0.03    -0.01   0.01   0.08
  72   1     0.03  -0.01   0.07     0.01   0.01   0.09    -0.01   0.01   0.02
  73   1     0.02  -0.00  -0.02     0.01  -0.00  -0.03    -0.07   0.00   0.02
  74   1     0.02  -0.00  -0.02     0.00  -0.00  -0.08    -0.06   0.00   0.06
                     19                     20                     21
                        a                      a                      a 
 Frequencies --   141.0148               178.0174               183.1490
 Red. masses --     9.7570                10.9257                10.9279
 Frc consts  --     0.0000                 0.0000                 0.0000
 IR Inten    --     0.0028                 0.5320                 0.5272
 Raman Activ --     0.0000                 0.0000                 0.0000
 Depolar     --     0.0000                 0.0000                 0.0000
 Atom AN      X      Y      Z        X      Y      Z        X      Y      Z
   1   7    -0.00   0.00  -0.00    -0.17   0.00   0.16    -0.22   0.00  -0.02
   2   6    -0.00  -0.00   0.00    -0.20   0.00  -0.00    -0.18   0.00   0.08
   3   6    -0.00  -0.00   0.00    -0.19   0.00  -0.03    -0.16   0.00   0.09
   4   6    -0.00  -0.00   0.00    -0.21   0.00   0.00    -0.09   0.00   0.02
   5   6    -0.00  -0.00   0.00    -0.18   0.00   0.08    -0.10   0.00  -0.04
   6   6    -0.00  -0.00   0.00    -0.06   0.00   0.11    -0.09   0.00  -0.05
   7   6    -0.00  -0.01  -0.00    -0.02   0.00   0.12    -0.05   0.00  -0.06
   8   6     0.01  -0.02  -0.00     0.02  -0.01   0.05     0.00   0.00  -0.03
   9   6     0.02  -0.01  -0.00     0.06   0.03  -0.10     0.16   0.08   0.01
  10   6     0.04  -0.02  -0.01     0.11   0.01  -0.14     0.27   0.03  -0.00
  11   6     0.04  -0.03  -0.01     0.15  -0.02   0.04     0.25  -0.04  -0.11
  12   6     0.02  -0.04  -0.01     0.10  -0.05   0.10     0.13  -0.09  -0.10
  13   6     0.01  -0.03  -0.01     0.03  -0.02   0.03     0.01  -0.02  -0.01
  14   6     0.00  -0.03  -0.00     0.02  -0.00  -0.08     0.01  -0.00   0.05
  15   6     0.00   0.02  -0.00     0.00  -0.00  -0.18     0.01  -0.00   0.11
  16   6     0.00   0.19   0.00     0.03  -0.00  -0.18    -0.02   0.00   0.11
  17   6     0.00   0.17   0.00     0.05   0.00  -0.14    -0.03   0.00   0.09
  18   6     0.00   0.01  -0.00     0.03   0.00  -0.12    -0.04   0.00   0.09
  19   6     0.00   0.02  -0.00     0.01  -0.00  -0.12    -0.02  -0.00   0.09
  20   6     0.00  -0.03  -0.00    -0.00  -0.00  -0.17    -0.01  -0.00   0.12
  21   6     0.00  -0.00  -0.00    -0.02   0.00  -0.06    -0.01  -0.00   0.05
  22   6     0.09  -0.01  -0.01    -0.05   0.01  -0.02    -0.01  -0.01   0.03
  23   6     0.33  -0.01  -0.03    -0.03   0.05   0.11    -0.01  -0.04  -0.07
  24   6     0.18  -0.01  -0.02     0.02  -0.04   0.19    -0.01   0.03  -0.14
  25   6    -0.24  -0.00   0.01     0.05  -0.10   0.17    -0.00   0.08  -0.12
  26   6    -0.31  -0.00   0.02     0.00  -0.12   0.05    -0.00   0.10  -0.03
  27   6    -0.04  -0.00   0.00    -0.05  -0.01  -0.03    -0.01   0.01   0.04
  28   6     0.04  -0.00  -0.00    -0.05   0.01  -0.03    -0.01  -0.01   0.04
  29   6     0.31  -0.00  -0.02     0.00   0.12   0.05    -0.00  -0.10  -0.03
  30   6     0.24  -0.00  -0.01     0.05   0.10   0.17    -0.00  -0.08  -0.12
  31   6    -0.18  -0.01   0.02     0.02   0.04   0.19    -0.01  -0.03  -0.14
  32   6    -0.33  -0.01   0.03    -0.03  -0.05   0.11    -0.01   0.04  -0.07
  33   6    -0.09  -0.01   0.01    -0.05  -0.01  -0.02    -0.01   0.01   0.03
  34   6     0.00  -0.01  -0.00     0.00   0.00  -0.06    -0.02  -0.00   0.05
  35   6     0.00   0.17  -0.00     0.00   0.00  -0.07    -0.02   0.00   0.04
  36   6     0.00   0.17  -0.00     0.02  -0.00  -0.06    -0.05  -0.00   0.02
  37   6     0.00  -0.07  -0.00     0.04  -0.00  -0.07    -0.08  -0.00   0.03
  38   6     0.00  -0.19  -0.00     0.04   0.00  -0.07    -0.08  -0.00   0.05
  39   6     0.00  -0.08  -0.00     0.03   0.00  -0.08    -0.05  -0.00   0.07
  40   6    -0.01  -0.03   0.01     0.03   0.02   0.03     0.01   0.02  -0.01
  41   6    -0.02  -0.04   0.01     0.10   0.05   0.10     0.13   0.09  -0.10
  42   6    -0.04  -0.03   0.01     0.15   0.02   0.04     0.25   0.04  -0.11
  43   6    -0.04  -0.02   0.01     0.11  -0.01  -0.14     0.27  -0.03  -0.00
  44   6    -0.02  -0.01   0.00     0.06  -0.03  -0.10     0.16  -0.08   0.01
  45   6    -0.01  -0.02   0.00     0.02   0.01   0.05     0.00  -0.00  -0.03
  46   6    -0.00  -0.00   0.00    -0.05   0.00   0.09    -0.18   0.00   0.02
  47   6    -0.00  -0.00   0.00    -0.08  -0.00   0.01    -0.17   0.00   0.08
  48   1     0.00  -0.00   0.00    -0.07   0.00  -0.00    -0.00  -0.00   0.01
  49   1    -0.00  -0.00  -0.00    -0.07   0.00   0.05    -0.03   0.00  -0.01
  50   1     0.01   0.00   0.00     0.01   0.03  -0.05     0.05   0.06   0.02
  51   1     0.01  -0.00  -0.00     0.03   0.01  -0.08     0.10   0.02   0.02
  52   1     0.01  -0.01  -0.00     0.06  -0.01   0.03     0.09  -0.02  -0.05
  53   1     0.01  -0.01  -0.00     0.04  -0.03   0.06     0.03  -0.06  -0.04
  54   1     0.00   0.09  -0.00     0.02  -0.00  -0.06    -0.01   0.00   0.04
  55   1     0.00   0.07  -0.00     0.02   0.00  -0.04    -0.01   0.00   0.03
  56   1     0.00  -0.03  -0.00    -0.01  -0.00  -0.05    -0.00  -0.00   0.04
  57   1     0.16  -0.00  -0.01    -0.01   0.05   0.04    -0.00  -0.04  -0.03
  58   1     0.10  -0.00  -0.01     0.01  -0.01   0.07    -0.00   0.01  -0.06
  59   1    -0.13  -0.00   0.01     0.03  -0.04   0.06     0.00   0.03  -0.05
  60   1    -0.16  -0.00   0.01     0.00  -0.07   0.00    -0.00   0.05  -0.00
  61   1     0.16   0.00  -0.01     0.00   0.07   0.00    -0.00  -0.05  -0.00
  62   1     0.13  -0.00  -0.01     0.03   0.04   0.06     0.00  -0.03  -0.05
  63   1    -0.10  -0.00   0.01     0.01   0.01   0.07    -0.00  -0.01  -0.06
  64   1    -0.17  -0.00   0.01    -0.01  -0.05   0.04    -0.01   0.04  -0.03
  65   1     0.00   0.09  -0.00     0.00   0.00  -0.02    -0.00   0.00   0.01
  66   1     0.00   0.10  -0.00     0.00  -0.00  -0.01    -0.01  -0.00  -0.00
  67   1     0.00  -0.04  -0.00     0.01  -0.00  -0.02    -0.03  -0.00   0.01
  68   1     0.00  -0.09  -0.00     0.01  -0.00  -0.02    -0.03  -0.00   0.02
  69   1    -0.01  -0.01   0.00     0.04   0.03   0.06     0.03   0.06  -0.04
  70   1    -0.01  -0.01   0.00     0.06   0.01   0.03     0.09   0.02  -0.05
  71   1    -0.01  -0.00   0.00     0.03  -0.01  -0.08     0.10  -0.02   0.02
  72   1    -0.01   0.00  -0.00     0.01  -0.03  -0.05     0.05  -0.06   0.02
  73   1    -0.00  -0.00   0.00    -0.00  -0.00   0.03    -0.07   0.00  -0.00
  74   1    -0.00  -0.00   0.00    -0.00  -0.00  -0.02    -0.05   0.00   0.03
                     22                     23                     24
                        a                      a                      a 
 Frequencies --   204.0662               211.4915               223.1992
 Red. masses --    10.3880                10.5848                10.7209
 Frc consts  --     0.0000                 0.0000                 0.0000
 IR Inten    --     0.0000                 0.7809                 0.0625
 Raman Activ --     0.0000                 0.0000                 0.0000
 Depolar     --     0.0000                 0.0000                 0.0000
 Atom AN      X      Y      Z        X      Y      Z        X      Y      Z
   1   7    -0.00   0.00   0.00     0.04  -0.00   0.18     0.00   0.03   0.00
   2   6    -0.00  -0.00  -0.00    -0.04   0.00  -0.13    -0.00  -0.03  -0.00
   3   6    -0.00  -0.00  -0.00    -0.04   0.00  -0.13    -0.00  -0.04  -0.00
   4   6    -0.00   0.01  -0.00    -0.17   0.00   0.00    -0.00  -0.01  -0.00
   5   6    -0.00   0.01   0.00    -0.11  -0.00   0.22    -0.00   0.04   0.00
   6   6     0.00   0.00   0.00     0.07  -0.00   0.27     0.00   0.05   0.00
   7   6     0.00   0.00   0.00     0.03  -0.00   0.13     0.00   0.04   0.00
   8   6    -0.07   0.00  -0.29    -0.02  -0.00  -0.09     0.01   0.03   0.02
   9   6    -0.06   0.00  -0.24    -0.05  -0.01  -0.17    -0.03   0.01   0.04
  10   6     0.05   0.00   0.23    -0.02  -0.00  -0.03    -0.09   0.03   0.00
  11   6     0.05   0.00   0.23     0.03  -0.00   0.16    -0.09   0.07  -0.00
  12   6    -0.06   0.01  -0.25    -0.01   0.00  -0.01    -0.03   0.09   0.03
  13   6    -0.07   0.01  -0.29    -0.04  -0.00  -0.18     0.02   0.05   0.01
  14   6    -0.00   0.00  -0.00    -0.03  -0.00  -0.20     0.00   0.04  -0.00
  15   6     0.00  -0.02  -0.00     0.00   0.00  -0.08     0.00  -0.20  -0.00
  16   6     0.00  -0.00  -0.00     0.07   0.00  -0.06     0.00  -0.03  -0.00
  17   6     0.00  -0.02   0.00     0.09   0.00   0.04     0.00  -0.15   0.00
  18   6     0.00  -0.02   0.00     0.01  -0.00   0.12     0.00  -0.15   0.00
  19   6     0.00  -0.03   0.00    -0.02   0.00   0.11     0.00  -0.33   0.00
  20   6     0.00  -0.06   0.00    -0.06   0.00   0.00     0.00  -0.63  -0.00
  21   6     0.00   0.00   0.00     0.02   0.00   0.09     0.00   0.02   0.00
  22   6    -0.01   0.01  -0.00     0.06  -0.02   0.08    -0.10   0.06  -0.00
  23   6     0.00   0.01   0.01     0.06  -0.05  -0.04     0.00   0.08   0.05
  24   6     0.01   0.01   0.01    -0.01   0.04  -0.12     0.12   0.05   0.07
  25   6    -0.00   0.00   0.01    -0.06   0.11  -0.09     0.01   0.04   0.07
  26   6    -0.01   0.00   0.00     0.01   0.12   0.01    -0.10   0.03   0.03
  27   6    -0.00   0.01   0.00     0.07   0.01   0.09    -0.07   0.06  -0.00
  28   6     0.00   0.01  -0.00     0.07  -0.01   0.09     0.07   0.06   0.00
  29   6     0.01   0.00  -0.00     0.01  -0.12   0.01     0.10   0.03  -0.03
  30   6    -0.00   0.00  -0.01    -0.06  -0.11  -0.09    -0.01   0.04  -0.07
  31   6    -0.01   0.01  -0.01    -0.01  -0.04  -0.12    -0.12   0.05  -0.07
  32   6    -0.00   0.01  -0.01     0.06   0.05  -0.04    -0.00   0.08  -0.05
  33   6     0.01   0.01   0.00     0.06   0.02   0.08     0.10   0.06   0.00
  34   6     0.00   0.00   0.00     0.02  -0.00   0.08    -0.00   0.11   0.00
  35   6     0.00  -0.01   0.00     0.04  -0.00  -0.00    -0.00   0.02   0.00
  36   6     0.00  -0.01  -0.00    -0.04   0.00  -0.07     0.00  -0.13   0.00
  37   6    -0.00   0.01  -0.00    -0.10   0.00  -0.04    -0.00  -0.03   0.00
  38   6    -0.00   0.01   0.00    -0.10  -0.00   0.04    -0.00   0.12   0.00
  39   6     0.00  -0.00   0.00    -0.01  -0.00   0.10    -0.00   0.08   0.00
  40   6     0.07   0.01   0.29    -0.04   0.00  -0.18    -0.02   0.05  -0.01
  41   6     0.06   0.01   0.25    -0.01  -0.00  -0.01     0.03   0.09  -0.03
  42   6    -0.05   0.00  -0.23     0.03   0.00   0.16     0.09   0.07   0.00
  43   6    -0.05   0.00  -0.23    -0.02   0.00  -0.03     0.09   0.03  -0.00
  44   6     0.06   0.00   0.24    -0.05   0.01  -0.17     0.03   0.01  -0.04
  45   6     0.07   0.00   0.29    -0.02   0.00  -0.09    -0.01   0.03  -0.02
  46   6     0.00   0.00   0.00     0.19  -0.00   0.15     0.00   0.04   0.00
  47   6     0.00  -0.01  -0.00     0.14  -0.00  -0.07     0.00  -0.01  -0.00
  48   1    -0.00   0.01  -0.00    -0.10   0.00  -0.01    -0.00  -0.01  -0.00
  49   1    -0.00   0.00   0.00    -0.07  -0.00   0.10    -0.00   0.02   0.00
  50   1    -0.03  -0.00  -0.10    -0.02  -0.01  -0.08    -0.01  -0.01   0.02
  51   1     0.04   0.00   0.16    -0.01  -0.00  -0.02    -0.04   0.00  -0.00
  52   1     0.03   0.00   0.16     0.02   0.00   0.11    -0.04   0.02  -0.00
  53   1    -0.03   0.00  -0.10     0.00   0.00   0.01    -0.01   0.04   0.02
  54   1     0.00   0.00  -0.00     0.03   0.00  -0.03     0.00   0.07  -0.00
  55   1     0.00  -0.01   0.00     0.05   0.00   0.02     0.00  -0.03   0.00
  56   1    -0.00  -0.02   0.00    -0.04   0.00  -0.01     0.00  -0.26  -0.00
  57   1     0.00   0.00   0.00     0.02  -0.04  -0.02     0.01   0.04   0.02
  58   1     0.00   0.00   0.00    -0.01   0.01  -0.05     0.08   0.02   0.02
  59   1     0.00   0.00   0.00    -0.04   0.05  -0.04     0.02   0.00   0.02
  60   1    -0.00  -0.00   0.00     0.00   0.07   0.01    -0.04  -0.00   0.01
  61   1     0.00  -0.00  -0.00     0.00  -0.07   0.01     0.04  -0.00  -0.01
  62   1    -0.00   0.00  -0.00    -0.04  -0.05  -0.04    -0.02   0.00  -0.02
  63   1    -0.00   0.00  -0.00    -0.01  -0.01  -0.05    -0.08   0.02  -0.02
  64   1    -0.00   0.00  -0.00     0.02   0.04  -0.02    -0.01   0.04  -0.02
  65   1     0.00  -0.01  -0.00     0.03  -0.00  -0.01     0.00  -0.00   0.00
  66   1     0.00  -0.01  -0.00    -0.01   0.00  -0.04     0.00  -0.09  -0.00
  67   1    -0.00   0.00  -0.00    -0.04   0.00  -0.02     0.00  -0.03   0.00
  68   1    -0.00   0.01   0.00    -0.05  -0.00   0.02    -0.00   0.05   0.00
  69   1     0.03   0.00   0.10     0.00  -0.00   0.01     0.01   0.04  -0.02
  70   1    -0.03   0.00  -0.16     0.02  -0.00   0.11     0.04   0.02   0.00
  71   1    -0.04   0.00  -0.16    -0.01   0.00  -0.02     0.04   0.00   0.00
  72   1     0.03  -0.00   0.10    -0.02   0.01  -0.08     0.01  -0.01  -0.02
  73   1     0.00  -0.00   0.00     0.10  -0.00   0.06     0.00   0.02   0.00
  74   1     0.00  -0.01  -0.00     0.08  -0.00  -0.06     0.00  -0.00  -0.00
                     25                     26                     27
                        a                      a                      a 
 Frequencies --   229.0158               232.1118               253.0628
 Red. masses --    10.5761                10.5922                10.6462
 Frc consts  --     0.0000                 0.0000                 0.0000
 IR Inten    --     0.9560                 0.8947                 0.0788
 Raman Activ --     0.0000                 0.0000                 0.0000
 Depolar     --     0.0000                 0.0000                 0.0000
 Atom AN      X      Y      Z        X      Y      Z        X      Y      Z
   1   7     0.00   0.02   0.00     0.05  -0.00   0.00     0.05  -0.00   0.06
   2   6     0.00  -0.02  -0.00     0.04   0.00  -0.03     0.01   0.00  -0.08
   3   6     0.00  -0.02  -0.00     0.04   0.00  -0.02     0.01   0.00  -0.06
   4   6    -0.00  -0.00   0.00     0.01   0.00   0.00    -0.07   0.00   0.02
   5   6     0.00   0.02   0.00     0.01  -0.00   0.03    -0.03  -0.00   0.14
   6   6     0.00   0.02   0.00     0.01  -0.00   0.03     0.04  -0.00   0.16
   7   6    -0.00   0.01   0.00    -0.01  -0.00   0.01    -0.01   0.00  -0.01
   8   6     0.00   0.01  -0.01    -0.03   0.02  -0.01    -0.06   0.01  -0.16
   9   6    -0.01   0.00  -0.01     0.01   0.05  -0.03    -0.03   0.03  -0.13
  10   6    -0.03   0.01   0.01     0.07   0.02  -0.01     0.06   0.01   0.10
  11   6    -0.03   0.02   0.01     0.07  -0.01   0.00     0.05  -0.00   0.05
  12   6    -0.01   0.03  -0.00     0.02  -0.03  -0.02    -0.03  -0.02  -0.16
  13   6     0.01   0.02  -0.00    -0.04   0.01  -0.02    -0.06   0.00  -0.12
  14   6    -0.00   0.01  -0.00    -0.08  -0.00   0.00    -0.02   0.00   0.11
  15   6    -0.00  -0.06   0.00    -0.09   0.00   0.01     0.02  -0.00   0.31
  16   6    -0.00  -0.28   0.00    -0.15   0.00   0.00    -0.08   0.00   0.29
  17   6    -0.00  -0.00  -0.00    -0.16   0.00  -0.02    -0.13  -0.00   0.10
  18   6    -0.00   0.28  -0.00    -0.14  -0.00  -0.04     0.00  -0.00  -0.03
  19   6    -0.00   0.08   0.00    -0.09  -0.00  -0.01     0.05  -0.00  -0.02
  20   6    -0.00   0.05   0.00    -0.09  -0.00   0.01     0.11  -0.00   0.20
  21   6    -0.00  -0.03  -0.00    -0.04   0.00  -0.06     0.04   0.00  -0.08
  22   6    -0.05  -0.09   0.02     0.18   0.01  -0.08    -0.07   0.02  -0.10
  23   6    -0.01  -0.12  -0.08     0.26   0.03  -0.02    -0.12   0.04  -0.01
  24   6     0.05  -0.09  -0.13    -0.00  -0.03   0.06    -0.00  -0.03   0.06
  25   6    -0.00  -0.06  -0.11    -0.23  -0.07   0.06     0.11  -0.10   0.03
  26   6    -0.06  -0.04  -0.03     0.05  -0.08  -0.03    -0.03  -0.11  -0.05
  27   6    -0.03  -0.09   0.01     0.26  -0.01  -0.10    -0.12  -0.01  -0.12
  28   6     0.04  -0.09  -0.01     0.26   0.01  -0.10    -0.12   0.01  -0.12
  29   6     0.06  -0.04   0.03     0.05   0.08  -0.03    -0.03   0.11  -0.05
  30   6    -0.00  -0.06   0.11    -0.23   0.07   0.06     0.11   0.10   0.03
  31   6    -0.05  -0.09   0.13     0.00   0.03   0.06    -0.00   0.04   0.06
  32   6     0.01  -0.12   0.08     0.26  -0.03  -0.02    -0.12  -0.04  -0.01
  33   6     0.06  -0.09  -0.02     0.18  -0.01  -0.08    -0.07  -0.02  -0.10
  34   6    -0.00   0.30  -0.00    -0.14  -0.00  -0.07     0.03  -0.00  -0.07
  35   6    -0.00   0.36   0.00    -0.19  -0.00   0.12     0.02  -0.00  -0.00
  36   6    -0.00  -0.08   0.00    -0.09   0.00   0.22     0.08   0.00   0.05
  37   6     0.00  -0.32   0.00    -0.02   0.00   0.19     0.11   0.00   0.04
  38   6    -0.00   0.14   0.00     0.00  -0.00   0.02     0.11  -0.00  -0.02
  39   6    -0.00   0.40  -0.00    -0.12  -0.00  -0.07     0.03  -0.00  -0.07
  40   6    -0.01   0.02   0.00    -0.04  -0.01  -0.02    -0.06  -0.00  -0.12
  41   6     0.01   0.03   0.00     0.02   0.03  -0.02    -0.03   0.02  -0.16
  42   6     0.03   0.02  -0.01     0.07   0.01   0.00     0.05   0.00   0.05
  43   6     0.03   0.01  -0.01     0.07  -0.02  -0.01     0.06  -0.01   0.10
  44   6     0.01   0.00   0.01     0.01  -0.05  -0.03    -0.03  -0.03  -0.13
  45   6    -0.00   0.01   0.01    -0.03  -0.02  -0.01    -0.06  -0.01  -0.16
  46   6     0.00   0.02   0.00     0.04  -0.00   0.01     0.12  -0.00   0.09
  47   6     0.00  -0.00  -0.00     0.04   0.00  -0.02     0.10  -0.00  -0.04
  48   1    -0.00  -0.00  -0.00    -0.01   0.00  -0.00    -0.05   0.00  -0.00
  49   1    -0.00   0.01   0.00     0.00  -0.00   0.01    -0.03  -0.00   0.06
  50   1    -0.00  -0.00  -0.00     0.00   0.03  -0.01    -0.01   0.02  -0.05
  51   1    -0.01   0.00   0.01     0.03   0.01  -0.00     0.03   0.01   0.07
  52   1    -0.01   0.01   0.01     0.03  -0.01   0.01     0.02  -0.00   0.04
  53   1    -0.00   0.01  -0.00     0.00  -0.02  -0.01    -0.02  -0.01  -0.07
  54   1    -0.00  -0.16   0.00    -0.05   0.00   0.01    -0.05   0.00   0.11
  55   1    -0.00  -0.01  -0.00    -0.05   0.00  -0.01    -0.09  -0.00   0.02
  56   1    -0.00   0.02   0.00    -0.02  -0.00   0.00     0.08   0.00   0.07
  57   1     0.00  -0.06  -0.03     0.11   0.03  -0.00    -0.05   0.04   0.01
  58   1     0.04  -0.03  -0.05    -0.02  -0.00   0.03     0.01  -0.01   0.04
  59   1     0.01  -0.01  -0.04    -0.16  -0.03   0.03     0.07  -0.04   0.02
  60   1    -0.02   0.01  -0.00     0.00  -0.04  -0.01    -0.01  -0.06  -0.02
  61   1     0.02   0.01   0.00     0.00   0.04  -0.01    -0.01   0.06  -0.02
  62   1    -0.01  -0.01   0.04    -0.16   0.03   0.03     0.07   0.04   0.02
  63   1    -0.04  -0.03   0.05    -0.02   0.00   0.03     0.01   0.01   0.04
  64   1    -0.00  -0.06   0.03     0.11  -0.03  -0.00    -0.05  -0.04   0.01
  65   1    -0.00   0.14   0.00    -0.10  -0.00   0.05    -0.01  -0.00   0.01
  66   1    -0.00  -0.09   0.00    -0.03   0.00   0.08     0.02   0.00   0.02
  67   1     0.00  -0.23   0.00     0.02   0.00   0.07     0.04   0.00   0.02
  68   1     0.00   0.04  -0.00     0.04  -0.00  -0.01     0.05  -0.00  -0.02
  69   1     0.00   0.01   0.00     0.00   0.02  -0.01    -0.02   0.01  -0.07
  70   1     0.01   0.01  -0.01     0.03   0.01   0.01     0.02   0.00   0.04
  71   1     0.01   0.00  -0.01     0.03  -0.01  -0.00     0.03  -0.01   0.07
  72   1     0.00  -0.00   0.00     0.00  -0.03  -0.01    -0.01  -0.02  -0.05
  73   1     0.00   0.01   0.00     0.02  -0.00   0.00     0.06  -0.00   0.04
  74   1     0.00  -0.00  -0.00     0.01   0.00  -0.01     0.05  -0.00  -0.03
                     28                     29                     30
                        a                      a                      a 
 Frequencies --   257.6835               283.3271               328.7418
 Red. masses --    11.2861                10.0241                11.1600
 Frc consts  --     0.0000                 0.0000                 0.0000
 IR Inten    --     3.0359                 0.0333                 0.6289
 Raman Activ --     0.0000                 0.0000                 0.0000
 Depolar     --     0.0000                 0.0000                 0.0000
 Atom AN      X      Y      Z        X      Y      Z        X      Y      Z
   1   7     0.00   0.31  -0.00     0.00   0.03  -0.00     0.20  -0.00  -0.05
   2   6    -0.00  -0.39  -0.00     0.00  -0.04   0.00     0.18   0.00  -0.04
   3   6    -0.00  -0.39   0.00     0.00  -0.04   0.00     0.14   0.00  -0.03
   4   6    -0.00   0.02   0.00     0.00   0.01  -0.00     0.05  -0.00   0.04
   5   6     0.00   0.41   0.00     0.00   0.04  -0.00     0.03  -0.00   0.05
   6   6     0.00   0.27   0.00    -0.00   0.01  -0.00    -0.10   0.00   0.02
   7   6    -0.00  -0.02   0.00    -0.00  -0.02   0.00    -0.16   0.00   0.04
   8   6     0.03  -0.06  -0.01    -0.01  -0.02   0.00    -0.21   0.04   0.06
   9   6    -0.03  -0.10   0.01     0.00  -0.01  -0.00    -0.06   0.15   0.02
  10   6    -0.08  -0.08   0.02     0.02  -0.02  -0.00     0.10   0.07  -0.03
  11   6    -0.08  -0.05   0.02     0.02  -0.03  -0.00     0.10  -0.05  -0.02
  12   6    -0.03  -0.02   0.01     0.01  -0.04  -0.00    -0.06  -0.14   0.02
  13   6     0.02  -0.04  -0.00    -0.01  -0.02   0.01    -0.22  -0.03   0.05
  14   6    -0.00  -0.05   0.00    -0.00  -0.01  -0.00    -0.19  -0.00   0.02
  15   6     0.00  -0.03   0.00    -0.00   0.11  -0.00    -0.16  -0.00  -0.03
  16   6    -0.00  -0.01   0.00    -0.00   0.06  -0.00    -0.11  -0.00  -0.03
  17   6    -0.00   0.04   0.00     0.00   0.03  -0.00    -0.09   0.00  -0.02
  18   6    -0.00   0.03  -0.00    -0.00  -0.07   0.00     0.03   0.00  -0.10
  19   6     0.00   0.04  -0.00    -0.00  -0.00   0.00     0.01   0.00  -0.09
  20   6     0.00   0.05   0.00    -0.00   0.24  -0.00    -0.03  -0.00  -0.12
  21   6     0.00   0.00  -0.00    -0.00   0.00   0.00     0.03  -0.00   0.01
  22   6     0.04  -0.00  -0.00    -0.25  -0.00   0.02     0.01  -0.03   0.10
  23   6     0.02  -0.00  -0.00    -0.28  -0.00   0.02    -0.01  -0.04   0.07
  24   6    -0.03  -0.00   0.00     0.23  -0.00  -0.02    -0.00   0.04  -0.01
  25   6    -0.01  -0.00  -0.00     0.15  -0.00  -0.01     0.02   0.11   0.01
  26   6     0.04  -0.00  -0.00    -0.32  -0.00   0.02    -0.00   0.12   0.08
  27   6     0.02  -0.00  -0.00    -0.19  -0.00   0.01     0.00   0.01   0.14
  28   6    -0.02  -0.00   0.00     0.19  -0.00  -0.01     0.00  -0.01   0.14
  29   6    -0.04  -0.00   0.00     0.32  -0.00  -0.02    -0.00  -0.12   0.08
  30   6     0.01  -0.00   0.00    -0.15  -0.00   0.01     0.02  -0.11   0.01
  31   6     0.03  -0.00  -0.00    -0.23  -0.00   0.02    -0.00  -0.04  -0.01
  32   6    -0.02  -0.00   0.00     0.28  -0.00  -0.02    -0.01   0.04   0.07
  33   6    -0.04  -0.00   0.00     0.25  -0.00  -0.02     0.01   0.03   0.10
  34   6     0.00  -0.04  -0.00    -0.00   0.01   0.00     0.05  -0.00  -0.07
  35   6     0.00  -0.03  -0.00     0.00  -0.09   0.00     0.07  -0.00  -0.11
  36   6     0.00   0.03   0.00    -0.00  -0.02   0.00     0.15   0.00  -0.06
  37   6     0.00   0.02   0.00    -0.00   0.08   0.00     0.19   0.00  -0.07
  38   6     0.00  -0.04  -0.00    -0.00  -0.03   0.00     0.18  -0.00  -0.06
  39   6     0.00  -0.03  -0.00    -0.00  -0.07   0.00     0.08   0.00  -0.10
  40   6    -0.02  -0.04   0.00     0.01  -0.02  -0.01    -0.22   0.03   0.05
  41   6     0.03  -0.02  -0.01    -0.01  -0.04   0.00    -0.06   0.14   0.02
  42   6     0.08  -0.05  -0.02    -0.02  -0.03   0.00     0.10   0.05  -0.02
  43   6     0.08  -0.08  -0.02    -0.02  -0.02   0.00     0.10  -0.07  -0.03
  44   6     0.03  -0.10  -0.01    -0.00  -0.01   0.00    -0.06  -0.15   0.02
  45   6    -0.03  -0.06   0.01     0.01  -0.02  -0.00    -0.21  -0.04   0.06
  46   6     0.00   0.41   0.00    -0.00   0.04  -0.00     0.00  -0.00  -0.06
  47   6     0.00   0.02  -0.00    -0.00   0.01  -0.00     0.02  -0.00  -0.06
  48   1    -0.00  -0.00   0.00     0.00   0.00  -0.00    -0.01  -0.00   0.01
  49   1     0.00   0.18   0.00     0.00   0.02  -0.00     0.03  -0.00  -0.01
  50   1    -0.01  -0.04   0.00     0.00   0.00  -0.00    -0.02   0.09   0.01
  51   1    -0.03  -0.03   0.01     0.01  -0.00  -0.00     0.06   0.04  -0.02
  52   1    -0.03  -0.01   0.01     0.01  -0.01  -0.00     0.06  -0.03  -0.01
  53   1    -0.01   0.01   0.00     0.00  -0.01  -0.00    -0.02  -0.09   0.01
  54   1    -0.00  -0.01   0.00     0.00   0.01  -0.00    -0.02  -0.00  -0.02
  55   1    -0.00   0.02   0.00     0.00   0.01   0.00    -0.05   0.00  -0.01
  56   1     0.00   0.02   0.00    -0.00   0.11  -0.00     0.01  -0.00  -0.03
  57   1     0.01  -0.00  -0.00    -0.12  -0.00   0.01    -0.01  -0.03   0.01
  58   1    -0.02  -0.00   0.00     0.17  -0.00  -0.01    -0.00   0.01  -0.03
  59   1    -0.01  -0.00   0.00     0.13  -0.00  -0.01     0.01   0.04  -0.01
  60   1     0.01   0.00  -0.00    -0.14   0.00   0.01    -0.00   0.06   0.03
  61   1    -0.01   0.00   0.00     0.14   0.00  -0.01    -0.00  -0.06   0.03
  62   1     0.01  -0.00  -0.00    -0.13  -0.00   0.01     0.01  -0.04  -0.01
  63   1     0.02  -0.00  -0.00    -0.17  -0.00   0.01    -0.00  -0.01  -0.03
  64   1    -0.01  -0.00   0.00     0.12  -0.00  -0.01    -0.01   0.03   0.01
  65   1     0.00  -0.01  -0.00     0.00  -0.04   0.00     0.02  -0.00  -0.03
  66   1     0.00   0.03   0.00    -0.00  -0.01   0.00     0.04   0.00   0.00
  67   1     0.00   0.01   0.00    -0.00   0.05   0.00     0.05   0.00  -0.02
  68   1     0.00  -0.02  -0.00    -0.00  -0.01   0.00     0.06  -0.00  -0.02
  69   1     0.01   0.01  -0.00    -0.00  -0.01   0.00    -0.02   0.09   0.01
  70   1     0.03  -0.01  -0.01    -0.01  -0.01   0.00     0.06   0.03  -0.01
  71   1     0.03  -0.03  -0.01    -0.01  -0.00   0.00     0.06  -0.04  -0.02
  72   1     0.01  -0.04  -0.00    -0.00   0.00   0.00    -0.02  -0.09   0.01
  73   1     0.00   0.19   0.00    -0.00   0.02  -0.00     0.02  -0.00  -0.01
  74   1     0.00  -0.00  -0.00    -0.00   0.00   0.00    -0.01  -0.00   0.00
                     31                     32                     33
                        a                      a                      a 
 Frequencies --   332.9301               342.3277               362.1583
 Red. masses --    10.0842                10.8926                 8.9056
 Frc consts  --     0.0000                 0.0000                 0.0000
 IR Inten    --     0.0659                 0.3689                 0.0002
 Raman Activ --     0.0000                 0.0000                 0.0000
 Depolar     --     0.0000                 0.0000                 0.0000
 Atom AN      X      Y      Z        X      Y      Z        X      Y      Z
   1   7    -0.00  -0.03   0.00    -0.12   0.00   0.04     0.00   0.00  -0.00
   2   6    -0.00   0.06   0.00    -0.11   0.00   0.02     0.00  -0.00   0.00
   3   6    -0.00   0.04   0.00    -0.08   0.00   0.02     0.00   0.00   0.00
   4   6    -0.00  -0.03  -0.00    -0.03  -0.00  -0.02    -0.00  -0.42   0.00
   5   6    -0.00  -0.03  -0.00    -0.01   0.00  -0.01     0.00   0.43  -0.00
   6   6     0.00   0.04  -0.00     0.07   0.00   0.01    -0.00   0.01   0.00
   7   6     0.00   0.04  -0.00     0.10  -0.00  -0.04    -0.00   0.00  -0.00
   8   6     0.05   0.02  -0.01     0.11  -0.02  -0.06     0.01  -0.00   0.02
   9   6     0.01  -0.01  -0.00     0.02  -0.08  -0.10    -0.00  -0.00  -0.01
  10   6    -0.05   0.03   0.01    -0.03  -0.03   0.09    -0.00  -0.00   0.00
  11   6    -0.05   0.06   0.01    -0.05   0.04   0.02     0.00  -0.00   0.01
  12   6     0.00   0.08  -0.00     0.02   0.09  -0.09    -0.00   0.00  -0.02
  13   6     0.06   0.03  -0.01     0.13   0.03   0.02     0.00  -0.00   0.01
  14   6     0.00  -0.02  -0.00     0.13  -0.00   0.14    -0.00  -0.00  -0.00
  15   6     0.00  -0.26   0.00     0.06  -0.00   0.04    -0.00  -0.00   0.00
  16   6     0.00  -0.35   0.00    -0.15  -0.00   0.00    -0.00   0.00   0.00
  17   6     0.00   0.23   0.00    -0.19   0.00  -0.14    -0.00   0.00   0.00
  18   6    -0.00   0.38   0.00    -0.07  -0.00  -0.23     0.00  -0.00   0.00
  19   6    -0.00   0.11   0.00     0.06  -0.00  -0.16     0.00  -0.00   0.00
  20   6     0.00  -0.16   0.00     0.12   0.00  -0.05    -0.00   0.00   0.00
  21   6    -0.00  -0.01   0.00    -0.02  -0.00  -0.01     0.00  -0.00  -0.00
  22   6     0.01   0.00  -0.01     0.00  -0.05   0.14    -0.00   0.00  -0.00
  23   6    -0.06   0.01   0.01     0.01  -0.06   0.10     0.00   0.00   0.00
  24   6     0.02   0.01   0.01     0.00   0.06   0.00    -0.00  -0.00   0.00
  25   6     0.03   0.01   0.01    -0.01   0.16   0.03    -0.00  -0.00   0.00
  26   6    -0.05   0.00   0.00     0.01   0.16   0.10     0.00  -0.00   0.00
  27   6    -0.01   0.01  -0.00     0.02   0.02   0.19    -0.00   0.00  -0.00
  28   6     0.01   0.01   0.00     0.02  -0.02   0.19     0.00   0.00   0.00
  29   6     0.05   0.00  -0.00     0.01  -0.16   0.10    -0.00  -0.00  -0.00
  30   6    -0.03   0.01  -0.01    -0.01  -0.16   0.03     0.00  -0.00  -0.00
  31   6    -0.02   0.01  -0.01     0.00  -0.06   0.00     0.00  -0.00  -0.00
  32   6     0.06   0.01  -0.01     0.01   0.06   0.10    -0.00   0.00  -0.00
  33   6    -0.01   0.00   0.01     0.00   0.05   0.14     0.00   0.00   0.00
  34   6    -0.00  -0.12   0.00    -0.14  -0.00  -0.17     0.00  -0.00  -0.00
  35   6     0.00  -0.30   0.00    -0.18  -0.00  -0.06    -0.00   0.00  -0.00
  36   6    -0.00   0.28   0.00    -0.04   0.00   0.05     0.00  -0.00  -0.00
  37   6    -0.00   0.06   0.00     0.09   0.00   0.00     0.00  -0.00  -0.00
  38   6    -0.00  -0.36   0.00     0.10   0.00  -0.14    -0.00   0.00  -0.00
  39   6    -0.00   0.09   0.00    -0.05  -0.00  -0.23     0.00  -0.00  -0.00
  40   6    -0.06   0.03   0.01     0.13  -0.03   0.02    -0.00  -0.00  -0.01
  41   6    -0.00   0.08   0.00     0.02  -0.09  -0.09     0.00   0.00   0.02
  42   6     0.05   0.06  -0.01    -0.05  -0.04   0.02    -0.00  -0.00  -0.01
  43   6     0.05   0.03  -0.01    -0.03   0.03   0.09     0.00  -0.00  -0.00
  44   6    -0.01  -0.01   0.00     0.02   0.08  -0.10     0.00  -0.00   0.01
  45   6    -0.05   0.02   0.01     0.11   0.02  -0.06    -0.01  -0.00  -0.02
  46   6     0.00  -0.04   0.00     0.02  -0.00   0.05    -0.00  -0.42   0.00
  47   6    -0.00  -0.02   0.00     0.00   0.00   0.04     0.00   0.42  -0.00
  48   1     0.00  -0.02  -0.00     0.00  -0.00  -0.00    -0.00  -0.27   0.00
  49   1    -0.00  -0.02   0.00    -0.02   0.00   0.01     0.00   0.26  -0.00
  50   1     0.00  -0.02  -0.00    -0.00  -0.05  -0.05    -0.00  -0.00  -0.02
  51   1    -0.03   0.00   0.01    -0.02  -0.02   0.05    -0.00  -0.00  -0.00
  52   1    -0.02   0.02   0.01    -0.03   0.02   0.00    -0.00   0.00   0.00
  53   1     0.00   0.04  -0.00    -0.00   0.05  -0.06    -0.00   0.00  -0.01
  54   1     0.00  -0.19   0.00    -0.08  -0.00   0.03    -0.00   0.00   0.00
  55   1     0.00   0.11   0.00    -0.09   0.00  -0.05    -0.00   0.00   0.00
  56   1    -0.00  -0.08   0.00     0.06   0.00  -0.01     0.00   0.00   0.00
  57   1    -0.03   0.01   0.00     0.01  -0.04   0.02     0.00   0.00   0.00
  58   1     0.01   0.00   0.00    -0.00   0.01  -0.03    -0.00  -0.00   0.00
  59   1     0.02   0.00   0.00    -0.01   0.06  -0.00    -0.00  -0.00   0.00
  60   1    -0.03  -0.00   0.00     0.01   0.08   0.04     0.00  -0.00   0.00
  61   1     0.03  -0.00  -0.00     0.01  -0.08   0.04    -0.00  -0.00  -0.00
  62   1    -0.02   0.00  -0.00    -0.01  -0.06  -0.00     0.00  -0.00  -0.00
  63   1    -0.01   0.00  -0.00    -0.00  -0.01  -0.03     0.00  -0.00  -0.00
  64   1     0.03   0.01  -0.00     0.01   0.04   0.02    -0.00   0.00  -0.00
  65   1     0.00  -0.17   0.00    -0.09  -0.00  -0.00    -0.00   0.00  -0.00
  66   1    -0.00   0.19  -0.00    -0.02   0.00   0.05     0.00  -0.00  -0.00
  67   1    -0.00   0.05   0.00     0.05   0.00   0.02     0.00  -0.00  -0.00
  68   1    -0.00  -0.20   0.00     0.07   0.00  -0.06    -0.00   0.00  -0.00
  69   1    -0.00   0.04   0.00    -0.00  -0.05  -0.06     0.00   0.00   0.01
  70   1     0.02   0.02  -0.01    -0.03  -0.02   0.00     0.00   0.00  -0.00
  71   1     0.02   0.00  -0.01    -0.02   0.02   0.05     0.00  -0.00   0.00
  72   1    -0.00  -0.02   0.00    -0.00   0.05  -0.05     0.00  -0.00   0.02
  73   1    -0.00  -0.02   0.00    -0.01  -0.00   0.01    -0.00  -0.26   0.00
  74   1     0.00  -0.02   0.00     0.01  -0.00  -0.00     0.00   0.27  -0.00
                     34                     35                     36
                        a                      a                      a 
 Frequencies --   379.5781               388.2979               391.7686
 Red. masses --     9.6542                 9.2884                10.1564
 Frc consts  --     0.0000                 0.0000                 0.0000
 IR Inten    --     0.9484                 1.5689                 1.5059
 Raman Activ --     0.0000                 0.0000                 0.0000
 Depolar     --     0.0000                 0.0000                 0.0000
 Atom AN      X      Y      Z        X      Y      Z        X      Y      Z
   1   7     0.03  -0.00  -0.03    -0.00  -0.00   0.01    -0.00   0.06   0.00
   2   6     0.05  -0.00   0.04    -0.00   0.00  -0.01    -0.00  -0.14   0.00
   3   6     0.03  -0.00   0.02    -0.00   0.00  -0.00    -0.00  -0.07   0.00
   4   6     0.04  -0.00   0.00    -0.01  -0.00   0.00     0.00   0.08  -0.00
   5   6     0.00   0.00  -0.07    -0.00  -0.00   0.02     0.00   0.02  -0.00
   6   6    -0.05  -0.00  -0.08     0.01   0.00   0.02     0.00  -0.17  -0.00
   7   6     0.01  -0.00   0.19    -0.01   0.00  -0.04     0.00  -0.01  -0.00
   8   6     0.02  -0.01   0.23    -0.01   0.00  -0.04    -0.20   0.09   0.04
   9   6    -0.08   0.00  -0.27     0.01   0.00   0.03    -0.11   0.17   0.04
  10   6     0.04  -0.01   0.12    -0.00   0.00  -0.00     0.03   0.10  -0.01
  11   6     0.04  -0.03   0.13    -0.01   0.00  -0.02     0.03  -0.10  -0.01
  12   6    -0.08  -0.04  -0.28     0.01   0.00   0.04    -0.11  -0.17   0.04
  13   6     0.02  -0.02   0.22    -0.00   0.00  -0.02    -0.20  -0.09   0.03
  14   6     0.04   0.00   0.16     0.00  -0.00   0.01    -0.00   0.01  -0.00
  15   6    -0.01   0.00  -0.08     0.01  -0.00   0.03    -0.00   0.20   0.00
  16   6     0.04   0.00  -0.08     0.01  -0.00   0.03    -0.00   0.13   0.00
  17   6     0.07  -0.00  -0.01    -0.00   0.00  -0.00    -0.00  -0.27   0.00
  18   6     0.03   0.00   0.03     0.02  -0.00  -0.02    -0.00   0.18   0.00
  19   6    -0.01   0.00   0.00     0.00  -0.00  -0.03    -0.00   0.14   0.00
  20   6    -0.02  -0.00  -0.07     0.02   0.00   0.01    -0.00  -0.19  -0.00
  21   6    -0.02   0.00   0.01    -0.03  -0.00   0.00    -0.00   0.04  -0.00
  22   6    -0.03   0.01  -0.01    -0.15   0.00   0.01     0.01  -0.01   0.03
  23   6     0.04   0.01  -0.02     0.30   0.00  -0.02    -0.00  -0.02  -0.01
  24   6    -0.02  -0.01  -0.00    -0.22   0.00   0.02    -0.00  -0.01  -0.03
  25   6    -0.02  -0.03  -0.01    -0.05   0.00   0.00     0.00  -0.01  -0.03
  26   6     0.04  -0.03  -0.02     0.29   0.00  -0.02    -0.00  -0.00   0.01
  27   6    -0.03  -0.00  -0.02    -0.34   0.00   0.02     0.00  -0.02   0.02
  28   6    -0.03   0.00  -0.02    -0.34  -0.00   0.02    -0.00  -0.02  -0.02
  29   6     0.04   0.03  -0.02     0.29  -0.00  -0.02     0.00  -0.00  -0.01
  30   6    -0.02   0.03  -0.01    -0.05  -0.00   0.00    -0.00  -0.01   0.03
  31   6    -0.02   0.01  -0.00    -0.22  -0.00   0.02     0.00  -0.01   0.03
[...]
  66   1     0.06   0.00   0.01     0.00   0.00   0.00     0.00   0.00   0.00
  67   1    -0.02  -0.00   0.03    -0.00  -0.00   0.00    -0.00   0.00   0.00
  68   1     0.04   0.00   0.11     0.00   0.00   0.01     0.00   0.00   0.00
  69   1     0.01   0.00  -0.00     0.13   0.00  -0.03     0.41   0.00  -0.10
  70   1     0.00  -0.01  -0.00     0.00  -0.00  -0.00     0.03  -0.06  -0.01
  71   1     0.01   0.01  -0.00     0.06   0.11  -0.01     0.16   0.30  -0.04
  72   1     0.02   0.00  -0.00     0.10  -0.00  -0.02     0.41   0.00  -0.10
  73   1    -0.00   0.00   0.01     0.13  -0.00  -0.46    -0.00  -0.00   0.00
  74   1    -0.01   0.00  -0.01     0.44  -0.00   0.45    -0.00  -0.00  -0.00
                    208                    209                    210
                        a                      a                      a 
 Frequencies --  3083.2115              3084.7070              3087.9037
 Red. masses --     1.8541                 1.8783                 1.9138
 Frc consts  --     0.0000                 0.0000                 0.0000
 IR Inten    --   185.7020                87.4255               210.2739
 Raman Activ --     0.0000                 0.0000                 0.0000
 Depolar     --     0.0000                 0.0000                 0.0000
 Atom AN      X      Y      Z        X      Y      Z        X      Y      Z
   1   7     0.00  -0.00  -0.00    -0.00   0.00   0.00    -0.00  -0.00  -0.00
   2   6    -0.00  -0.00   0.00     0.00   0.00  -0.00     0.00   0.00  -0.00
   3   6    -0.00   0.00   0.00    -0.00  -0.00   0.00     0.00   0.00   0.00
   4   6    -0.01   0.00   0.04    -0.00   0.00   0.00     0.00  -0.00  -0.00
   5   6    -0.02   0.00  -0.02     0.00   0.00   0.00    -0.00  -0.00  -0.00
   6   6    -0.00   0.00   0.00     0.00  -0.00  -0.00    -0.00   0.00   0.00
   7   6     0.00  -0.00  -0.00    -0.00   0.00   0.00    -0.00  -0.00   0.00
   8   6     0.00   0.00  -0.00    -0.00  -0.00   0.00     0.00  -0.00  -0.00
   9   6     0.11   0.00  -0.03    -0.01  -0.00   0.00    -0.00  -0.00   0.00
  10   6     0.04  -0.08  -0.01    -0.01   0.01   0.00    -0.00   0.00   0.00
  11   6     0.01   0.02  -0.00     0.00   0.01  -0.00    -0.00  -0.00   0.00
  12   6     0.11  -0.00  -0.03     0.00  -0.00  -0.00    -0.00   0.00   0.00
  13   6     0.00  -0.00  -0.00    -0.00   0.00   0.00    -0.00   0.00   0.00
  14   6     0.00   0.00  -0.00     0.00   0.00   0.00    -0.00   0.00   0.00
  15   6    -0.00  -0.00   0.00     0.00   0.00  -0.00     0.00  -0.00  -0.00
  16   6     0.00  -0.00  -0.00     0.10   0.00   0.09     0.00  -0.00   0.00
  17   6    -0.00  -0.00   0.02    -0.05  -0.00   0.22    -0.00  -0.00   0.00
  18   6    -0.00  -0.00   0.00    -0.01  -0.00   0.00    -0.00  -0.00   0.00
  19   6     0.00  -0.00   0.00     0.00   0.00  -0.00    -0.00   0.00  -0.00
  20   6    -0.00  -0.00   0.01     0.01   0.00  -0.03     0.00   0.00  -0.00
  21   6     0.00   0.00   0.00     0.00  -0.00   0.00    -0.00   0.00   0.00
  22   6    -0.00   0.00   0.00     0.00  -0.00  -0.00    -0.00  -0.00  -0.00
  23   6     0.00  -0.00   0.01    -0.00   0.00  -0.01    -0.01   0.03  -0.08
  24   6     0.00  -0.00   0.00    -0.00   0.00  -0.00    -0.00   0.12  -0.03
  25   6     0.00   0.00   0.00     0.00   0.00   0.00     0.01   0.07   0.08
  26   6     0.00  -0.00   0.00    -0.00   0.00  -0.00     0.01  -0.03   0.07
  27   6    -0.00  -0.00  -0.00    -0.00   0.00   0.00     0.00  -0.00   0.00
  28   6    -0.00   0.00  -0.00    -0.00  -0.00   0.00    -0.00  -0.00  -0.00
  29   6     0.00   0.00   0.00    -0.00  -0.00  -0.00    -0.01  -0.02  -0.07
  30   6     0.00  -0.00   0.00     0.00  -0.00   0.00    -0.01   0.07  -0.08
  31   6     0.00   0.00   0.00    -0.00  -0.00  -0.00     0.00   0.12   0.03
  32   6     0.00   0.00   0.01    -0.00  -0.00  -0.01     0.01   0.03   0.08
  33   6    -0.00  -0.00   0.00     0.00   0.00  -0.00     0.00  -0.00   0.00
  34   6    -0.00  -0.00   0.00    -0.00  -0.00   0.00     0.00   0.00  -0.00
  35   6     0.00   0.00   0.00     0.01   0.00   0.03    -0.00  -0.00  -0.00
  36   6     0.00   0.00   0.00     0.06   0.00   0.01    -0.00  -0.00  -0.00
  37   6    -0.00  -0.00   0.00     0.03   0.00  -0.03    -0.00  -0.00   0.00
  38   6     0.00   0.00   0.00    -0.00  -0.00  -0.00     0.00  -0.00   0.00
  39   6     0.00   0.00   0.00    -0.00  -0.00   0.00     0.00  -0.00  -0.00
  40   6     0.00   0.00  -0.00    -0.00  -0.00   0.00     0.00   0.00  -0.00
  41   6     0.11   0.00  -0.03     0.00   0.00  -0.00     0.00   0.00  -0.00
  42   6     0.01  -0.02  -0.00     0.00  -0.01  -0.00     0.00  -0.00  -0.00
  43   6     0.04   0.08  -0.01    -0.01  -0.01   0.00     0.00   0.00  -0.00
  44   6     0.11  -0.00  -0.03    -0.01   0.00   0.00     0.00  -0.00  -0.00
  45   6     0.00  -0.00  -0.00    -0.00   0.00   0.00    -0.00  -0.00   0.00
  46   6    -0.01   0.00   0.03    -0.00   0.00  -0.00     0.00  -0.00  -0.00
  47   6    -0.04   0.00  -0.04     0.00  -0.00   0.00    -0.00  -0.00  -0.00
  48   1     0.04  -0.00  -0.15     0.00  -0.00  -0.00    -0.00   0.00   0.00
  49   1     0.06  -0.00   0.06    -0.00   0.00  -0.00     0.00   0.00   0.00
  50   1    -0.39   0.00   0.09     0.03   0.00  -0.01     0.00   0.00  -0.00
  51   1    -0.15   0.27   0.04     0.02  -0.04  -0.00     0.00  -0.00  -0.00
  52   1    -0.04  -0.07   0.01    -0.01  -0.03   0.00     0.00   0.00  -0.00
  53   1    -0.40   0.00   0.09    -0.00  -0.00   0.00     0.01   0.00  -0.00
  54   1     0.00   0.00   0.00    -0.33  -0.00  -0.32    -0.00   0.00  -0.00
  55   1     0.01   0.00  -0.06     0.19   0.00  -0.76     0.00   0.00  -0.00
  56   1     0.01   0.00  -0.03    -0.03  -0.00   0.10    -0.00   0.00   0.00
  57   1    -0.00   0.01  -0.02     0.00  -0.01   0.02     0.02  -0.09   0.28
  58   1    -0.00   0.01  -0.00     0.00  -0.01   0.00     0.01  -0.41   0.08
  59   1    -0.00  -0.01  -0.01    -0.00  -0.00  -0.00    -0.02  -0.24  -0.26
  60   1    -0.00   0.01  -0.02     0.00  -0.00   0.01    -0.02   0.08  -0.25
  61   1    -0.00  -0.01  -0.02     0.00   0.00   0.01     0.02   0.08   0.25
  62   1    -0.00   0.01  -0.01    -0.00   0.00  -0.00     0.02  -0.24   0.26
  63   1    -0.00  -0.01  -0.00     0.00   0.01   0.00    -0.01  -0.41  -0.08
  64   1    -0.00  -0.01  -0.02     0.00   0.01   0.02    -0.02  -0.09  -0.27
  65   1    -0.00  -0.00  -0.01    -0.04  -0.00  -0.10     0.00  -0.00   0.00
  66   1    -0.01  -0.00  -0.00    -0.21  -0.00  -0.03     0.00   0.00   0.00
  67   1     0.00   0.00  -0.00    -0.09  -0.00   0.11     0.00   0.00  -0.00
  68   1    -0.01  -0.00  -0.01     0.00   0.00   0.00    -0.00   0.00  -0.00
  69   1    -0.38  -0.00   0.09    -0.00   0.00   0.00    -0.01   0.00   0.00
  70   1    -0.04   0.07   0.01    -0.01   0.03   0.00    -0.00   0.00   0.00
  71   1    -0.14  -0.26   0.03     0.02   0.04  -0.00    -0.00  -0.00   0.00
  72   1    -0.38  -0.00   0.09     0.03  -0.00  -0.01    -0.00   0.00   0.00
  73   1     0.03  -0.00  -0.11    -0.00   0.00   0.00    -0.00   0.00   0.00
  74   1     0.14  -0.00   0.14    -0.00   0.00  -0.00     0.00  -0.00   0.00
                    211                    212                    213
                        a                      a                      a 
 Frequencies --  3088.6089              3089.5873              3089.9734
 Red. masses --     1.9105                 1.9094                 1.9117
 Frc consts  --     0.0000                 0.0000                 0.0000
 IR Inten    --   154.6127               253.0200                19.0982
 Raman Activ --     0.0000                 0.0000                 0.0000
 Depolar     --     0.0000                 0.0000                 0.0000
 Atom AN      X      Y      Z        X      Y      Z        X      Y      Z
   1   7    -0.00   0.00   0.00    -0.00   0.00   0.00    -0.00   0.00   0.00
   2   6     0.00  -0.00  -0.00     0.00   0.00  -0.00     0.00   0.00   0.00
   3   6     0.00  -0.00  -0.00    -0.00   0.00   0.00     0.00  -0.00  -0.00
   4   6     0.00  -0.00  -0.00    -0.00  -0.00   0.00     0.00  -0.00  -0.00
   5   6    -0.00   0.00  -0.00     0.00  -0.00   0.00    -0.00  -0.00  -0.00
   6   6    -0.00  -0.00   0.00     0.00   0.00  -0.00    -0.00   0.00   0.00
   7   6     0.00   0.00  -0.00     0.00  -0.00  -0.00     0.00  -0.00  -0.00
   8   6    -0.00  -0.00   0.00    -0.00  -0.00   0.00    -0.00  -0.00   0.00
   9   6    -0.01  -0.00   0.00    -0.06  -0.00   0.01    -0.01  -0.00   0.00
  10   6    -0.00   0.01   0.00    -0.04   0.08   0.01    -0.00   0.01   0.00
  11   6     0.00   0.01  -0.00     0.05   0.10  -0.01     0.00   0.01  -0.00
  12   6     0.01  -0.00  -0.00     0.12  -0.00  -0.03     0.01  -0.00  -0.00
  13   6     0.00  -0.00  -0.00     0.00  -0.00  -0.00     0.00  -0.00  -0.00
  14   6     0.00   0.00   0.00    -0.00  -0.00   0.00     0.00  -0.00  -0.00
  15   6     0.00   0.00  -0.00     0.00  -0.00  -0.00     0.00  -0.00  -0.00
  16   6     0.02   0.00   0.02     0.00  -0.00   0.00     0.01   0.00   0.01
  17   6    -0.01  -0.00   0.05    -0.00  -0.00   0.00    -0.00  -0.00   0.02
  18   6    -0.00  -0.00   0.00    -0.00   0.00   0.00    -0.00  -0.00   0.00
  19   6    -0.00  -0.00  -0.00    -0.00  -0.00  -0.00     0.00   0.00   0.00
  20   6     0.00   0.00  -0.01     0.00  -0.00  -0.00     0.00  -0.00  -0.01
  21   6    -0.00  -0.00   0.00     0.00   0.00   0.00    -0.00   0.00  -0.00
  22   6    -0.00  -0.00  -0.00     0.00   0.00   0.00     0.00   0.00   0.00
  23   6    -0.00   0.01  -0.02     0.00  -0.00   0.00     0.01  -0.03   0.08
  24   6    -0.00   0.03  -0.01    -0.00   0.00  -0.00     0.00  -0.11   0.02
  25   6     0.00   0.02   0.02     0.00   0.00   0.00    -0.01  -0.07  -0.07
  26   6     0.00  -0.01   0.03     0.00  -0.00   0.00    -0.01   0.03  -0.09
  27   6     0.00  -0.00   0.00    -0.00  -0.00  -0.00    -0.00   0.00  -0.00
  28   6     0.00   0.00   0.00     0.00  -0.00   0.00    -0.00  -0.00  -0.00
  29   6     0.00   0.01   0.03    -0.00  -0.00  -0.00    -0.01  -0.03  -0.09
  30   6     0.00  -0.02   0.02    -0.00   0.00  -0.00    -0.01   0.07  -0.08
  31   6    -0.00  -0.03  -0.01     0.00   0.00   0.00     0.00   0.11   0.02
  32   6    -0.00  -0.01  -0.02    -0.00  -0.00  -0.00     0.01   0.03   0.08
  33   6    -0.00   0.00  -0.00    -0.00   0.00  -0.00     0.00  -0.00   0.00
  34   6     0.00   0.00  -0.00     0.00  -0.00  -0.00     0.00   0.00  -0.00
  35   6    -0.03  -0.00  -0.08    -0.00   0.00  -0.00    -0.01  -0.00  -0.02
  36   6    -0.15  -0.00  -0.02    -0.00  -0.00  -0.00    -0.05  -0.00  -0.01
  37   6    -0.09  -0.00   0.12    -0.00  -0.00   0.00    -0.03  -0.00   0.03
  38   6     0.05   0.00   0.12     0.00  -0.00   0.00     0.01   0.00   0.04
  39   6     0.00   0.00   0.00     0.00   0.00   0.00     0.00   0.00   0.00
  40   6     0.00   0.00  -0.00    -0.00  -0.00   0.00     0.00   0.00  -0.00
  41   6     0.01   0.00  -0.00    -0.12  -0.00   0.03     0.01   0.00  -0.00
  42   6     0.00  -0.01  -0.00    -0.06   0.10   0.01     0.00  -0.01  -0.00
  43   6    -0.00  -0.01   0.00     0.04   0.08  -0.01    -0.00  -0.01   0.00
  44   6    -0.01   0.00   0.00     0.06  -0.00  -0.01    -0.01   0.00   0.00
  45   6    -0.00   0.00   0.00     0.00  -0.00  -0.00    -0.00   0.00   0.00
  46   6    -0.00   0.00   0.00     0.00  -0.00  -0.00    -0.00   0.00   0.00
  47   6     0.00   0.00   0.00    -0.00  -0.00  -0.00     0.00  -0.00   0.00
  48   1    -0.00   0.00   0.01     0.00   0.00  -0.00    -0.00   0.00   0.00
  49   1     0.01  -0.00   0.01    -0.00   0.00  -0.00     0.00   0.00   0.00
  50   1     0.02   0.00  -0.00     0.20   0.00  -0.05     0.02   0.00  -0.00
  51   1     0.01  -0.02  -0.00     0.15  -0.27  -0.04     0.01  -0.03  -0.00
  52   1    -0.01  -0.02   0.00    -0.19  -0.34   0.04    -0.02  -0.03   0.00
  53   1    -0.02   0.00   0.01    -0.40   0.00   0.09    -0.03   0.00   0.01
  54   1    -0.07  -0.00  -0.07    -0.00   0.00  -0.00    -0.03  -0.00  -0.03
  55   1     0.05   0.00  -0.18     0.00   0.00  -0.00     0.02   0.00  -0.07
  56   1    -0.01  -0.00   0.05    -0.00   0.00   0.00    -0.01  -0.00   0.02
  57   1     0.01  -0.03   0.08    -0.00   0.00  -0.00    -0.02   0.09  -0.26
  58   1     0.00  -0.11   0.02     0.00  -0.00   0.00    -0.00   0.36  -0.07
  59   1    -0.01  -0.07  -0.08    -0.00  -0.00  -0.00     0.02   0.22   0.24
  60   1    -0.01   0.03  -0.09    -0.00   0.00  -0.00     0.02  -0.09   0.29
  61   1    -0.01  -0.03  -0.09     0.00   0.00   0.00     0.02   0.09   0.29
  62   1    -0.01   0.07  -0.08     0.00  -0.00   0.00     0.02  -0.22   0.25
  63   1     0.00   0.11   0.02    -0.00  -0.00  -0.00    -0.00  -0.36  -0.07
  64   1     0.01   0.03   0.08     0.00   0.00   0.00    -0.02  -0.09  -0.26
  65   1     0.11   0.00   0.27     0.00   0.00   0.00     0.03   0.00   0.08
  66   1     0.51   0.00   0.07     0.00   0.00   0.00     0.15   0.00   0.02
  67   1     0.30   0.00  -0.38     0.00   0.00  -0.00     0.09   0.00  -0.11
  68   1    -0.17  -0.00  -0.42    -0.00   0.00  -0.00    -0.05  -0.00  -0.12
  69   1    -0.02  -0.00   0.01     0.40   0.00  -0.09    -0.03  -0.00   0.01
  70   1    -0.01   0.02   0.00     0.19  -0.34  -0.04    -0.01   0.03   0.00
  71   1     0.01   0.02  -0.00    -0.15  -0.27   0.04     0.01   0.02  -0.00
  72   1     0.02  -0.00  -0.00    -0.20   0.00   0.05     0.02  -0.00  -0.00
  73   1     0.00  -0.00  -0.00    -0.00   0.00   0.00     0.00  -0.00  -0.01
  74   1    -0.00   0.00  -0.00     0.00   0.00   0.00    -0.01   0.00  -0.01
                    214                    215                    216
                        a                      a                      a 
 Frequencies --  3091.1477              3091.7682              3093.7429
 Red. masses --     1.9083                 1.8803                 1.8863
 Frc consts  --     0.0000                 0.0000                 0.0000
 IR Inten    --    15.1083                85.6379                 3.0045
 Raman Activ --     0.0000                 0.0000                 0.0000
 Depolar     --     0.0000                 0.0000                 0.0000
 Atom AN      X      Y      Z        X      Y      Z        X      Y      Z
   1   7     0.00  -0.00  -0.00     0.00  -0.00  -0.00    -0.00   0.00   0.00
   2   6     0.00  -0.00   0.00     0.00   0.00   0.00     0.00  -0.00  -0.00
   3   6    -0.00   0.00   0.00    -0.00  -0.00  -0.00     0.01  -0.00  -0.00
   4   6    -0.01   0.00   0.04    -0.04   0.00   0.12     0.03  -0.00  -0.10
   5   6     0.04  -0.00   0.04     0.12  -0.00   0.12    -0.09   0.00  -0.10
   6   6     0.00  -0.00  -0.00     0.00  -0.00  -0.00    -0.01   0.00   0.00
   7   6    -0.00   0.00   0.00    -0.00  -0.00   0.00     0.00   0.00   0.00
   8   6     0.00   0.00  -0.00    -0.00  -0.00   0.00     0.00   0.00  -0.00
   9   6     0.06   0.00  -0.02    -0.01  -0.00   0.00     0.02   0.00  -0.00
  10   6     0.04  -0.08  -0.01    -0.01   0.01   0.00     0.01  -0.02  -0.00
  11   6    -0.05  -0.10   0.01     0.01   0.01  -0.00    -0.01  -0.02   0.00
  12   6    -0.11   0.00   0.03     0.02  -0.00  -0.00    -0.02   0.00   0.00
  13   6    -0.00   0.00   0.00     0.00  -0.00  -0.00    -0.00   0.00   0.00
  14   6    -0.00   0.00   0.00     0.00  -0.00  -0.00    -0.00   0.00   0.00
  15   6     0.00   0.00  -0.00    -0.00  -0.00   0.00     0.00   0.00  -0.00
  16   6     0.01   0.00   0.01    -0.00  -0.00  -0.00     0.00   0.00   0.00
  17   6    -0.00  -0.00   0.02     0.00   0.00  -0.00    -0.00  -0.00   0.00
  18   6    -0.00  -0.00   0.00     0.00   0.00  -0.00    -0.00  -0.00   0.00
  19   6    -0.00   0.00  -0.00     0.00  -0.00   0.00    -0.00   0.00  -0.00
  20   6     0.00   0.00  -0.01    -0.00  -0.00   0.00     0.00   0.00  -0.00
  21   6    -0.00  -0.00   0.00    -0.00   0.00  -0.00     0.00  -0.00   0.00
  22   6     0.00   0.00   0.00    -0.00  -0.00  -0.00     0.00  -0.00  -0.00
  23   6     0.00  -0.00   0.00    -0.00   0.00  -0.00    -0.00   0.00  -0.00
  24   6     0.00  -0.01   0.00    -0.00   0.00  -0.00    -0.00   0.00  -0.00
  25   6    -0.00  -0.00  -0.00     0.00   0.00   0.00     0.00   0.00   0.00
  26   6    -0.00   0.00  -0.01     0.00  -0.00   0.00     0.00  -0.00   0.00
  27   6    -0.00   0.00  -0.00     0.00  -0.00   0.00    -0.00  -0.00   0.00
  28   6    -0.00  -0.00  -0.00     0.00   0.00   0.00    -0.00   0.00   0.00
  29   6    -0.00  -0.00  -0.01     0.00   0.00   0.00     0.00   0.00   0.00
  30   6    -0.00   0.00  -0.00     0.00  -0.00   0.00     0.00  -0.00   0.00
  31   6     0.00   0.01   0.00    -0.00  -0.00  -0.00    -0.00  -0.00  -0.00
  32   6     0.00   0.00   0.00    -0.00  -0.00  -0.00    -0.00  -0.00  -0.00
  33   6     0.00  -0.00   0.00    -0.00   0.00  -0.00     0.00   0.00  -0.00
  34   6     0.00   0.00  -0.00    -0.00   0.00   0.00     0.00   0.00   0.00
  35   6    -0.00  -0.00  -0.01     0.00  -0.00   0.00     0.00   0.00   0.00
  36   6    -0.01  -0.00  -0.00     0.00   0.00   0.00     0.00   0.00   0.00
  37   6    -0.01  -0.00   0.01     0.00   0.00  -0.00     0.00   0.00  -0.00
  38   6     0.00   0.00   0.01    -0.00  -0.00  -0.00    -0.00  -0.00  -0.00
  39   6     0.00   0.00   0.00    -0.00  -0.00  -0.00    -0.00  -0.00   0.00
  40   6    -0.00  -0.00   0.00     0.00   0.00  -0.00    -0.00  -0.00   0.00
  41   6    -0.11  -0.00   0.03     0.02   0.00  -0.00    -0.02  -0.00   0.00
  42   6    -0.05   0.10   0.01     0.01  -0.01  -0.00    -0.01   0.02   0.00
  43   6     0.04   0.08  -0.01    -0.01  -0.01   0.00     0.01   0.02  -0.00
  44   6     0.06  -0.00  -0.02    -0.01   0.00   0.00     0.02  -0.00  -0.00
  45   6     0.00  -0.00  -0.00    -0.00   0.00   0.00     0.00  -0.00  -0.00
  46   6     0.00  -0.00  -0.01    -0.04   0.00   0.13    -0.05   0.00   0.17
  47   6    -0.01   0.00  -0.01     0.08  -0.00   0.07     0.09  -0.00   0.09
  48   1     0.04  -0.00  -0.14     0.12  -0.00  -0.42    -0.09   0.00   0.32
  49   1    -0.12   0.00  -0.13    -0.42   0.00  -0.43     0.32  -0.00   0.33
  50   1    -0.21  -0.00   0.05     0.04   0.00  -0.01    -0.07   0.00   0.02
  51   1    -0.14   0.26   0.03     0.02  -0.04  -0.01    -0.03   0.06   0.01
  52   1     0.17   0.32  -0.04    -0.03  -0.05   0.01     0.03   0.06  -0.01
  53   1     0.38  -0.00  -0.09    -0.05   0.00   0.01     0.07  -0.00  -0.02
  54   1    -0.04  -0.00  -0.04     0.01   0.00   0.01    -0.01  -0.00  -0.01
  55   1     0.01   0.00  -0.06    -0.00  -0.00   0.01     0.00   0.00  -0.01
  56   1    -0.01  -0.00   0.05     0.00   0.00  -0.00    -0.00  -0.00   0.01
  57   1    -0.00   0.00  -0.01     0.00  -0.00   0.00     0.00  -0.00   0.00
  58   1    -0.00   0.02  -0.00     0.00  -0.01   0.00     0.00  -0.00   0.00
  59   1     0.00   0.01   0.02    -0.00  -0.00  -0.00    -0.00  -0.00  -0.00
  60   1     0.00  -0.01   0.02    -0.00   0.00  -0.01    -0.00   0.00  -0.00
  61   1     0.00   0.01   0.02    -0.00  -0.00  -0.01    -0.00  -0.00  -0.00
  62   1     0.00  -0.01   0.02    -0.00   0.00  -0.00    -0.00   0.00  -0.00
  63   1    -0.00  -0.02  -0.00     0.00   0.01   0.00     0.00   0.00   0.00
  64   1    -0.00  -0.00  -0.01     0.00   0.00   0.00     0.00   0.00   0.00
  65   1     0.01   0.00   0.02    -0.00  -0.00  -0.00    -0.00  -0.00  -0.00
  66   1     0.04   0.00   0.00    -0.00  -0.00  -0.00    -0.00  -0.00  -0.00
  67   1     0.02   0.00  -0.03    -0.00  -0.00   0.00    -0.00  -0.00   0.00
  68   1    -0.01  -0.00  -0.03     0.00   0.00   0.00     0.00   0.00   0.00
  69   1     0.38   0.00  -0.09    -0.05  -0.00   0.01     0.07   0.00  -0.02
  70   1     0.17  -0.32  -0.04    -0.03   0.05   0.01     0.03  -0.06  -0.01
  71   1    -0.14  -0.26   0.03     0.02   0.04  -0.01    -0.03  -0.06   0.01
  72   1    -0.21   0.00   0.05     0.04  -0.00  -0.01    -0.07   0.00   0.02
  73   1    -0.01   0.00   0.04     0.13  -0.00  -0.46     0.17  -0.00  -0.58
  74   1     0.03  -0.00   0.03    -0.25   0.00  -0.26    -0.31   0.00  -0.32
