$hessian                                                                        
        0.6518613281   0.0298552976   0.0032876873  -0.1336672342   0.0459425140
        0.0006821580   0.0331729980   0.0291917806   0.0006157762   0.0023485176
       -0.0168179808  -0.0003114727   0.0060333522   0.0027850727   0.0000295205
       -0.0024084282  -0.0015304159   0.0000019499   0.0071794926   0.0081851994
        0.0001203942  -0.0115582828  -0.0052565587   0.0001899392   0.0113884998
        0.0088641222  -0.0002079682  -0.0101809593   0.0073818680  -0.0000319332
        0.0039782483  -0.0065039045   0.0001505193   0.0003876289  -0.0014064899
        0.0000548807   0.0018435934   0.0052363980  -0.0001012454  -0.0062840832
       -0.0051301172   0.0000679671   0.0057936652  -0.0040599584   0.0001359602
        0.0088760883   0.0054568732  -0.0000852199  -0.0478174660  -0.0468121554
       -0.0011730257  -0.3515458314   0.0310930404  -0.0011446882  -0.0219003902
        0.0029731737   0.0001336969  -0.0015573064  -0.0070203416  -0.0001059812
       -0.1093693131  -0.1111214971  -0.0025420726  -0.0178585542   0.0258035659
        0.0003771102  -0.0001466061  -0.0002138896  -0.0000119571  -0.0000445454
       -0.0002060440  -0.0000012231  -0.0000250437   0.0000269516  -0.0000231315
        0.0000371986   0.0000061813  -0.0000553420  -0.0000494901   0.0000314930
       -0.0000154309   0.0000466772  -0.0000574584  -0.0000344817   0.0000207079
        0.0000179977   0.0000179484   0.0000126756  -0.0000440122  -0.0000034011
        0.0001989882   0.0001217414   0.0000420564  -0.0187661256   0.0032075530
       -0.0000589898
        0.0298552976   0.6399715321   0.0113513998   0.1271835382  -0.2568310585
       -0.0038971936  -0.0104224501  -0.0651691745  -0.0012185469  -0.0056908480
        0.0055825306   0.0000403621  -0.0027860574  -0.0037068413  -0.0000590870
        0.0012152355   0.0021250515   0.0000270535  -0.0058379436  -0.0074282824
       -0.0001160752   0.0085350229   0.0044643388  -0.0001710559  -0.0083215738
       -0.0065826352   0.0001554581   0.0073825227  -0.0052048843   0.0000256999
       -0.0027757020   0.0047692002  -0.0001030572  -0.0003587425   0.0003481145
       -0.0000053784  -0.0014350085  -0.0037178583   0.0000725667   0.0051304982
        0.0038232157  -0.0000462612  -0.0041643515   0.0036261896  -0.0000372844
       -0.0051033890  -0.0104794513  -0.0000778474  -0.0184281927   0.0091044967
        0.0000254747  -0.0460321075  -0.0867426070  -0.0011709318   0.0150156487
        0.0056494956   0.0000047392  -0.0008541606   0.0038259454   0.0000151762
       -0.1108449913  -0.2333120428  -0.0048785748   0.0016955087  -0.0010652145
       -0.0000254408  -0.0001917870   0.0002161842   0.0000172202  -0.0001900263
       -0.0002440168  -0.0000071859   0.0000180872   0.0000737180   0.0000201673
       -0.0000453852  -0.0000031149   0.0000372550   0.0000607392  -0.0000068247
        0.0000092503  -0.0000412380   0.0000026683   0.0000185137   0.0000148854
        0.0000053024  -0.0000130994   0.0000267649   0.0000030405   0.0000008021
       -0.0003537212   0.0001619296  -0.0000551566   0.0277439271  -0.0032589472
        0.0000610377
        0.0032876873   0.0113513998   0.1059832392   0.0023045960  -0.0043529293
       -0.0427346683  -0.0000051315  -0.0011324786   0.0020274545  -0.0001133286
       -0.0000144292   0.0052466128  -0.0000291813  -0.0000586322  -0.0001144584
       -0.0000022513   0.0000526423  -0.0002605711  -0.0000224080  -0.0000990126
       -0.0006760572   0.0000269968   0.0000557782   0.0003841259  -0.0000454325
       -0.0000477451   0.0000936763   0.0000288944  -0.0000234425  -0.0002546872
       -0.0000153419  -0.0000010283  -0.0000687424  -0.0000043460   0.0000079239
       -0.0004046339  -0.0000137113  -0.0000566644  -0.0000727043   0.0000662498
        0.0000449647   0.0000513759  -0.0000408265   0.0000160128  -0.0003244139
       -0.0000536197  -0.0002144084   0.0037236334  -0.0007330457  -0.0001016014
        0.0010820993  -0.0025391040  -0.0007418458  -0.0408722660   0.0001419702
        0.0001573721  -0.0029725544  -0.0000383328  -0.0000311424   0.0003485740
       -0.0026696981  -0.0047526509  -0.0347402254  -0.0000275157   0.0000159881
        0.0020823240  -0.0000100484   0.0000103683  -0.0002635559  -0.0000069581
        0.0000049685  -0.0002896922  -0.0000028982  -0.0000029019   0.0002159675
       -0.0000011975   0.0000029305   0.0000929771   0.0000011395   0.0000001824
       -0.0000154159   0.0000007194   0.0000046835   0.0002688397   0.0000013461
       -0.0000021554  -0.0000885972   0.0000025115   0.0000011992   0.0000832716
        0.0000044952   0.0000122160   0.0000321155   0.0005077711  -0.0001055619
        0.0024369571
       -0.1336672342   0.1271835382   0.0023045960   0.6411741784  -0.0219913592
        0.0005362009  -0.1450534555  -0.1043867764  -0.0019350355   0.0133756837
       -0.0033214489  -0.0000778070   0.0023495309   0.0056909097   0.0001130563
        0.0000356040  -0.0034536747  -0.0000527776  -0.0124583925   0.0036028791
        0.0000910799   0.0064261513   0.0009738238  -0.0000740184  -0.0050861355
       -0.0039484697   0.0000931420   0.0039780355  -0.0027750831   0.0000167791
       -0.0017189367   0.0021092415  -0.0000486252  -0.0000472998   0.0010782863
       -0.0000423643  -0.0003077418  -0.0020647270   0.0000415122   0.0018434401
        0.0014348047  -0.0000142176  -0.0016011932   0.0010631769  -0.0000665432
       -0.0054494029  -0.0029223353   0.0000377430   0.0115505512   0.0048109754
        0.0002717169  -0.0493770126   0.0245314731   0.0003062816  -0.0276019712
       -0.0240426383  -0.0005705392   0.0005693166   0.0039428396   0.0000336228
        0.0068181613  -0.0126338366  -0.0002890378  -0.3008646589   0.0011837443
       -0.0006623026   0.0007519312   0.0022354779   0.0000244060   0.0002889616
        0.0010334939   0.0000312978   0.0000132667   0.0001395494  -0.0000183072
       -0.0000426462   0.0000387836   0.0000174800  -0.0000018505  -0.0000096918
        0.0000028315   0.0000026944   0.0000069079   0.0000140011  -0.0000122882
       -0.0000172960  -0.0000079460   0.0000602743  -0.0000325044   0.0000010938
        0.0000411200  -0.0001890443   0.0000020939  -0.0059886813   0.0007289806
       -0.0000794134
        0.0459425140  -0.2568310585  -0.0043529293  -0.0219913592   0.6109560437
        0.0091371207  -0.0865778388  -0.2002538017  -0.0025363255   0.0033203427
       -0.0815179047  -0.0014452424   0.0168173491   0.0055803820  -0.0000135576
       -0.0023221708  -0.0102160167  -0.0001065665   0.0015289040   0.0211155887
        0.0003068634  -0.0042043298  -0.0037994176   0.0001205916   0.0073094777
        0.0050045316  -0.0001552504  -0.0065020808   0.0047667201  -0.0000010279
        0.0021063210  -0.0049146719   0.0001088899   0.0002557431   0.0006832070
       -0.0000181916   0.0020648329   0.0032086837  -0.0000646776  -0.0052366216
       -0.0037177037   0.0000579045   0.0057084138  -0.0050545175   0.0001137583
       -0.0021781558   0.0052380284  -0.0000790785  -0.0023714541  -0.0153873744
       -0.0001544196   0.0797624046   0.0028558758   0.0004208563  -0.0443282082
       -0.0070148242  -0.0002463629  -0.0003208506  -0.0010037758  -0.0000299904
        0.0111667347  -0.0269273194  -0.0004036471   0.0023670367  -0.0438830400
       -0.0003717487  -0.0016614097   0.0008532520   0.0000200792  -0.0005764889
       -0.0011325649  -0.0000085649  -0.0000069409   0.0001259809  -0.0000491460
        0.0000238315  -0.0000240305  -0.0000405568  -0.0000264193   0.0000075333
       -0.0000089435   0.0000135376  -0.0000297585  -0.0000256255   0.0000080852
        0.0000308900   0.0000104343  -0.0000209300   0.0000172284  -0.0000006707
        0.0000964742   0.0002078175   0.0000121730  -0.0001667442   0.0010560168
       -0.0001961477
        0.0006821580  -0.0038971936  -0.0427346683   0.0005362009   0.0091371207
        0.1028558448  -0.0017762350  -0.0027636298  -0.0470007451   0.0000782333
       -0.0014455900   0.0019491532   0.0003112882   0.0000405021   0.0052466043
       -0.0001016546  -0.0001179329  -0.0001997332   0.0000798945   0.0002294795
        0.0056666548  -0.0001263327  -0.0000945827   0.0001203685   0.0001547687
        0.0001185396  -0.0002200532  -0.0001476819   0.0001009923  -0.0000687868
        0.0000477238  -0.0001068247  -0.0000140637   0.0000063388   0.0000081111
        0.0000461821   0.0000408258   0.0000635636  -0.0000540048  -0.0000994830
       -0.0000713300  -0.0000726996   0.0001186990  -0.0001073726  -0.0001343692
       -0.0000062719   0.0001023819  -0.0001970019  -0.0001053925  -0.0002046152
       -0.0051489841   0.0013813211   0.0001683247   0.0015536832  -0.0006003637
       -0.0001322392   0.0010530711  -0.0000081419  -0.0000344100   0.0003132558
        0.0002589223  -0.0006324511   0.0012107295  -0.0006191466  -0.0002660475
       -0.0297387773  -0.0000337782   0.0000484827  -0.0017969751  -0.0000041842
       -0.0000074448   0.0000265228  -0.0000089350   0.0000334250  -0.0011715568
        0.0000008997   0.0000006215   0.0000332231  -0.0000009634   0.0000011568
        0.0000377667   0.0000002033  -0.0000007892   0.0000007339  -0.0000000726
        0.0000010928   0.0000202302  -0.0000009471   0.0000008965   0.0000278236
       -0.0000000385   0.0000083695   0.0001017806  -0.0000578545  -0.0001806072
        0.0082887907
        0.0331729980  -0.0104224501  -0.0000051315  -0.1450534555  -0.0865778388
       -0.0017762350   0.6141298591   0.0000036593   0.0000086849  -0.1450370254
        0.0865750137   0.0017717468   0.0331761844   0.0104166017   0.0000062858
       -0.0227475183   0.0133820179   0.0003012036  -0.0272922076  -0.0430726833
       -0.0005671891   0.0021232138  -0.0026672578  -0.0000081734  -0.0015295711
       -0.0007240487   0.0000271757   0.0003835720  -0.0003614322   0.0000045540
       -0.0000572435   0.0002556759  -0.0000064652  -0.0001452321   0.0000027305
        0.0000000679  -0.0000473617  -0.0002557138   0.0000064265   0.0003876927
        0.0003587455  -0.0000044631  -0.0015305487   0.0007146534  -0.0000269390
        0.0021224397   0.0026707413   0.0000078482  -0.0272892534   0.0430773298
        0.0005650200  -0.0227473560  -0.0133931763  -0.0003013417  -0.2509548982
        0.0000079857  -0.0000025999  -0.0000544464   0.0000041419  -0.0000000715
       -0.0007112985   0.0036674089   0.0000614870  -0.0196050333  -0.0244456283
       -0.0004512091  -0.0196051099   0.0244453866   0.0004508781  -0.0007120162
       -0.0036682231  -0.0000619539  -0.0001962713   0.0005889429   0.0000635565
        0.0000342576   0.0002770330  -0.0000016687  -0.0000341015   0.0000234511
        0.0000017540   0.0000093103   0.0000287574  -0.0000031387   0.0000075063
       -0.0000297677   0.0000031334  -0.0000348454  -0.0000242733  -0.0000017380
        0.0000351526  -0.0002729962   0.0000015398  -0.0001973927  -0.0005847869
       -0.0000630443
        0.0291917806  -0.0651691745  -0.0011324786  -0.1043867764  -0.2002538017
       -0.0027636298   0.0000036593   0.6258294634   0.0084066832   0.1043870452
       -0.2002584969  -0.0027613208  -0.0291956953  -0.0651704048  -0.0011348916
        0.0175115759   0.0104160563   0.0001196110  -0.0144428810  -0.0107398400
       -0.0003360602  -0.0123210171  -0.0049629082  -0.0000424716   0.0006617233
        0.0028793497   0.0000444856  -0.0014063566   0.0003479999  -0.0000085347
        0.0010779884   0.0006826854  -0.0000082509  -0.0000028437  -0.0029412166
        0.0001109171  -0.0010782730   0.0006832888  -0.0000083097   0.0014065170
        0.0003480469  -0.0000081503  -0.0006636231   0.0028648006   0.0000440672
        0.0123204818  -0.0049643992  -0.0000425436   0.0144432218  -0.0107420787
       -0.0003346909  -0.0175080385   0.0104052618   0.0001186422   0.0000072806
       -0.0753895626  -0.0000290140  -0.0000039942  -0.0064341889  -0.0000752179
        0.0026722460  -0.0038805425  -0.0002436675  -0.0024785339  -0.0005204492
        0.0000921258   0.0024801379  -0.0005214880   0.0000919129  -0.0026731922
       -0.0038824881  -0.0002445886   0.0004461464   0.0006056250   0.0000898306
        0.0000784721   0.0000656079  -0.0000115988  -0.0001347707   0.0000018529
       -0.0000064240  -0.0000024105   0.0000175745   0.0000011002  -0.0000011279
        0.0000178498   0.0000010689   0.0001356294   0.0000047897  -0.0000064617
       -0.0000788628   0.0000605879  -0.0000113456  -0.0004455087   0.0006001995
        0.0000892060
        0.0006157762  -0.0012185469   0.0020274545  -0.0019350355  -0.0025363255
       -0.0470007451   0.0000086849   0.0084066832   0.1266074123   0.0019318741
       -0.0025335429  -0.0470007671  -0.0006159002  -0.0012204974   0.0020273772
        0.0003516942   0.0002593559  -0.0037768831   0.0002122787   0.0001731148
        0.0014381532  -0.0003240669  -0.0000996649   0.0062005005   0.0000434447
        0.0001176773   0.0004909632  -0.0000546101   0.0000051910  -0.0004046176
        0.0000421048   0.0000179141   0.0000461922   0.0000000668  -0.0001104034
       -0.0012927980  -0.0000420257   0.0000179794   0.0000461792   0.0000544145
        0.0000051381  -0.0004046330  -0.0000432999   0.0001176378   0.0004909466
        0.0003240587  -0.0000995427   0.0062005424  -0.0002129673   0.0001737913
        0.0014381679  -0.0003515047   0.0002593478  -0.0037769537  -0.0000037604
       -0.0008536223  -0.0573211818   0.0000000845  -0.0002578005  -0.0006792516
        0.0000154078  -0.0002331234   0.0069085583  -0.0000922191  -0.0001069595
        0.0011650166   0.0000912439  -0.0001057494   0.0011649646  -0.0000158040
       -0.0002339973   0.0069085046   0.0000148559   0.0000270529  -0.0008159011
        0.0000004588  -0.0000005813  -0.0000335516  -0.0000056244  -0.0000022794
       -0.0000729860   0.0000003266   0.0000038404   0.0001709067  -0.0000003496
        0.0000038395   0.0001709016   0.0000056218  -0.0000022691  -0.0000729978
       -0.0000004595  -0.0000005929  -0.0000335509  -0.0000147695   0.0000269352
       -0.0008159231
        0.0023485176  -0.0056908480  -0.0001133286   0.0133756837   0.0033203427
        0.0000782333  -0.1450370254   0.1043870452   0.0019318741   0.6411747037
        0.0219894000  -0.0005040503  -0.1336715693  -0.1271858463  -0.0023149473
       -0.0493768263  -0.0245063105  -0.0003101431   0.0115506074  -0.0048103968
       -0.0002722208  -0.0054496717   0.0029243329  -0.0000377531  -0.0016037906
       -0.0010482853   0.0000670081   0.0018431567  -0.0014338250   0.0000140011
       -0.0003085694   0.0020659445  -0.0000416231  -0.0000573038  -0.0010779439
        0.0000424437  -0.0017190928  -0.0021064082   0.0000484579   0.0039785862
        0.0027757262  -0.0000162708  -0.0050895567   0.0039159447  -0.0000934699
        0.0064265313  -0.0009737462   0.0000737191  -0.0124579174  -0.0036010403
       -0.0000910194   0.0000380376   0.0034287911   0.0000528979  -0.0275852723
        0.0240384615   0.0005696084   0.0005550780  -0.0039422333  -0.0000335810
        0.0002882043  -0.0010300004  -0.0000310666   0.0007546477  -0.0022341983
       -0.0000242690  -0.3008595454  -0.0011739519   0.0006474354   0.0068166767
        0.0126297227   0.0002903715  -0.0059885759  -0.0007217334   0.0000791713
        0.0000405429   0.0001959640  -0.0000023622   0.0000612063   0.0000292803
       -0.0000009679  -0.0000187719   0.0000186683   0.0000079272   0.0000005060
       -0.0000047509  -0.0000140337  -0.0000004374   0.0000137517  -0.0000028620
       -0.0000427960  -0.0000454434  -0.0000171817   0.0000140364  -0.0001464137
        0.0000180017
       -0.0168179808   0.0055825306  -0.0000144292  -0.0033214489  -0.0815179047
       -0.0014455900   0.0865750137  -0.2002584969  -0.0025335429   0.0219894000
        0.6109493609   0.0091534815  -0.0459456007  -0.2568228855  -0.0043675601
       -0.0797596661   0.0028630027   0.0004178413   0.0023705147  -0.0153869297
       -0.0001545793   0.0021788160   0.0052374605  -0.0000791703  -0.0057090203
       -0.0050502571   0.0001137766   0.0052372126  -0.0037191091   0.0000582842
       -0.0020658679   0.0032081744  -0.0000649699  -0.0002556503   0.0006827595
       -0.0000181315  -0.0021093580  -0.0049145117   0.0001084878   0.0065039982
        0.0047688972  -0.0000006299  -0.0073092780   0.0050022372  -0.0001552011
        0.0042035641  -0.0037988048   0.0001202484  -0.0015274327   0.0211158158
        0.0003056924   0.0023217086  -0.0102217897  -0.0001057937   0.0443290884
       -0.0070172445  -0.0002444896   0.0003203851  -0.0010037648  -0.0000298527
        0.0005764974  -0.0011311493  -0.0000085107   0.0016621131   0.0008531474
        0.0000200430  -0.0023575239  -0.0438832348  -0.0003723216  -0.0111682628
       -0.0269263010  -0.0004044024   0.0001669605   0.0010561173  -0.0001967107
       -0.0000964035   0.0002079868   0.0000121753   0.0000213559   0.0000177087
       -0.0000006298  -0.0000080686   0.0000306959   0.0000103763  -0.0000144002
       -0.0000299873  -0.0000256088   0.0000262900   0.0000088448  -0.0000089180
       -0.0000243717  -0.0000261826  -0.0000403842   0.0000074161   0.0001238137
       -0.0000489803
       -0.0003114727   0.0000403621   0.0052466128  -0.0000778070  -0.0014452424
        0.0019491532   0.0017717468  -0.0027613208  -0.0470007671  -0.0005040503
        0.0091534815   0.1028567735  -0.0006884963  -0.0039134977  -0.0427353797
       -0.0013874516   0.0001677090   0.0015535571   0.0001069040  -0.0002053069
       -0.0051489888   0.0000057592   0.0001028343  -0.0001970021  -0.0001190813
       -0.0001077354  -0.0001343336   0.0000997578  -0.0000715533  -0.0000726745
       -0.0000409309   0.0000638524  -0.0000539953  -0.0000063763   0.0000080560
        0.0000461951  -0.0000478946  -0.0001072159  -0.0000140635   0.0001483046
        0.0001013938  -0.0000687773  -0.0001555354   0.0001191002  -0.0002200716
        0.0001271418  -0.0000948702   0.0001203744  -0.0000809791   0.0002303150
        0.0056666457   0.0001014536  -0.0001180921  -0.0001997197   0.0006007381
       -0.0001315883   0.0010530674   0.0000081670  -0.0000348073   0.0003132548
        0.0000042234  -0.0000075138   0.0000265064   0.0000339610   0.0000483276
       -0.0017970003   0.0006042797  -0.0002665908  -0.0297387750  -0.0002594200
       -0.0006334842   0.0012106814   0.0000571871  -0.0001812853   0.0082887368
        0.0000000507   0.0000084284   0.0001017711   0.0000009698   0.0000009005
        0.0000278352   0.0000000636   0.0000010891   0.0000202456  -0.0000002440
       -0.0000007956   0.0000007353   0.0000009613   0.0000011907   0.0000377662
       -0.0000009036   0.0000005772   0.0000332222   0.0000089736   0.0000332822
       -0.0011715859
        0.0060333522  -0.0027860574  -0.0000291813   0.0023495309   0.0168173491
        0.0003112882   0.0331761844  -0.0291956953  -0.0006159002  -0.1336715693
       -0.0459456007  -0.0006884963   0.6518551195  -0.0298586625  -0.0032684148
       -0.3515459848  -0.0310710092   0.0011320464  -0.0478145285   0.0468129019
        0.0011740260   0.0088764372  -0.0054578829   0.0000853252   0.0057954072
        0.0040775233  -0.0001359815  -0.0062846428   0.0051294394  -0.0000682988
        0.0018430027  -0.0052373602   0.0001015293   0.0003836385   0.0014063541
       -0.0000550812   0.0039783874   0.0065020701  -0.0001498920  -0.0101815008
       -0.0073823417   0.0000313926   0.0113903592  -0.0088730463   0.0002078664
       -0.0115585156   0.0052565485  -0.0001895908   0.0071793018  -0.0081865135
       -0.0001196868  -0.0024092494   0.0015205362  -0.0000021316  -0.0218949896
       -0.0029682817  -0.0001349357  -0.0015632145   0.0070215377   0.0001058695
       -0.0000443377   0.0002078737   0.0000013099  -0.0001438620   0.0002126863
        0.0000119938  -0.0178602309  -0.0258044391  -0.0003788526  -0.1093619676
        0.1111179171   0.0025443950  -0.0187671457  -0.0032072150   0.0000580155
        0.0001995539  -0.0001229773  -0.0000420686   0.0000133887   0.0000450099
        0.0000032843   0.0000227605  -0.0000199384  -0.0000178603   0.0000434188
        0.0000559281   0.0000344901  -0.0000499600  -0.0000298370   0.0000152821
        0.0000369244  -0.0000080145   0.0000552146  -0.0000250681  -0.0000288027
        0.0000230434
        0.0027850727  -0.0037068413  -0.0000586322   0.0056909097   0.0055803820
        0.0000405021   0.0104166017  -0.0651704048  -0.0012204974  -0.1271858463
       -0.2568228855  -0.0039134977  -0.0298586625   0.6399668711   0.0113808109
        0.0460374990  -0.0867472873  -0.0011717377   0.0184303497   0.0091002852
        0.0000263782   0.0051027025  -0.0104812910  -0.0000782597   0.0041668204
        0.0036304144  -0.0000373386  -0.0051291090   0.0038207460  -0.0000463500
        0.0014336317  -0.0037189405   0.0000727861   0.0003614392   0.0003479352
       -0.0000054284   0.0027751215   0.0047663482  -0.0001026364  -0.0073817015
       -0.0052043551   0.0000251144   0.0083240167  -0.0065709309   0.0001556129
       -0.0085347558   0.0044644900  -0.0001706487   0.0058371878  -0.0074282685
       -0.0001158595  -0.0012167237   0.0021307338   0.0000266248  -0.0150187834
        0.0056553740   0.0000039985   0.0008584483   0.0038255818   0.0000150267
        0.0001902561  -0.0002459144  -0.0000071306   0.0001912994   0.0002149993
        0.0000172612  -0.0016968273  -0.0010651367  -0.0000256277   0.1108408504
       -0.2333170322  -0.0048877798  -0.0277430382  -0.0032610891   0.0000597848
        0.0003541536   0.0001583072  -0.0000551349  -0.0000270821   0.0000047072
        0.0000006777  -0.0000101914   0.0000036133  -0.0000130385   0.0000413035
        0.0000006719   0.0000185029  -0.0000616038  -0.0000093119   0.0000092181
        0.0000455380   0.0000006425   0.0000369773  -0.0000188767   0.0000775861
        0.0000203211
        0.0000295205  -0.0000590870  -0.0001144584   0.0001130563  -0.0000135576
        0.0052466043   0.0000062858  -0.0011348916   0.0020273772  -0.0023149473
       -0.0043675601  -0.0427353797  -0.0032684148   0.0113808109   0.1059847940
        0.0025293638  -0.0007458057  -0.0408722720   0.0007332329  -0.0001000740
        0.0010820893   0.0000539547  -0.0002153836   0.0037235563   0.0000412784
        0.0000161564  -0.0003244183  -0.0000665727   0.0000450660   0.0000513871
        0.0000135102  -0.0000570383  -0.0000726797   0.0000044378   0.0000082836
       -0.0004046188   0.0000158244  -0.0000006486  -0.0000687515  -0.0000294193
       -0.0000239996  -0.0002546870   0.0000460949  -0.0000480537   0.0000936825
       -0.0000276268   0.0000562692   0.0003841135   0.0000229385  -0.0000995440
       -0.0006760540   0.0000021036   0.0000528728  -0.0002605765  -0.0001433772
        0.0001577795  -0.0029725036   0.0000386031  -0.0000309175   0.0003485832
        0.0000069966   0.0000049225  -0.0002896927   0.0000101112   0.0000103544
       -0.0002635531   0.0000264158   0.0000146125   0.0020822657   0.0026731868
       -0.0047608132  -0.0347407703  -0.0005104837  -0.0001061015   0.0024368388
       -0.0000044934   0.0000121777   0.0000320960  -0.0000025174   0.0000012774
        0.0000832668  -0.0000011821  -0.0000021825  -0.0000885961  -0.0000007623
        0.0000046278   0.0002688387  -0.0000011809   0.0000001502  -0.0000154170
        0.0000012144   0.0000030353   0.0000929737   0.0000028483  -0.0000027374
        0.0002159614
       -0.0024084282   0.0012152355  -0.0000022513   0.0000356040  -0.0023221708
       -0.0001016546  -0.0227475183   0.0175115759   0.0003516942  -0.0493768263
       -0.0797596661  -0.0013874516  -0.3515459848   0.0460374990   0.0025293638
        0.6718159560   0.0368751843  -0.0021607328  -0.1075794112   0.0579960365
        0.0014487046  -0.0426153949   0.0352031928   0.0005805569  -0.0053527456
       -0.0027153225   0.0002183128   0.0057950857  -0.0041668128   0.0000426697
       -0.0016034563   0.0057088480  -0.0001210006  -0.0015295775  -0.0006616326
        0.0000436438  -0.0050862949  -0.0073090602   0.0001572586   0.0113884726
        0.0083209190  -0.0000482516  -0.0124594649   0.0097634173  -0.0002459738
        0.0137515444  -0.0046909525   0.0001952599  -0.0098068653  -0.0017120261
        0.0000600114   0.0034347611   0.0011690722   0.0000178679   0.0306726462
        0.0032022396   0.0003501212  -0.0039180339  -0.0120089832   0.0000648755
       -0.0000216902   0.0000616762   0.0000079372   0.0002425514   0.0000899452
        0.0000054460  -0.0007614222  -0.0027823921  -0.0000538856  -0.0193344684
        0.0029989324   0.0003067750  -0.0974024915  -0.1088564825  -0.0023511978
       -0.0034341824   0.0008076851   0.0001841180   0.0001041611   0.0000038730
       -0.0000010251  -0.0000558303   0.0000761310   0.0000200640  -0.0001409235
        0.0000777245  -0.0000390765   0.0000674000   0.0000516581  -0.0000113848
       -0.0000719958   0.0000416633  -0.0000530071  -0.0000551760  -0.0002270076
       -0.0000077874
       -0.0015304159   0.0021250515   0.0000526423  -0.0034536747  -0.0102160167
       -0.0001179329   0.0133820179   0.0104160563   0.0002593559  -0.0245063105
        0.0028630027   0.0001677090  -0.0310710092  -0.0867472873  -0.0007458057
        0.0368751843   0.6005485157   0.0107609706   0.0796564989  -0.2115313320
       -0.0034731091   0.0291518586  -0.0054838017  -0.0001333739   0.0027156177
       -0.0003876947  -0.0002382155  -0.0040776304   0.0036306716  -0.0000175153
        0.0010481477  -0.0050504849   0.0001093983   0.0007242278   0.0028793318
       -0.0001184563   0.0039488935   0.0050046479  -0.0001203539  -0.0088648524
       -0.0065826808   0.0000500212   0.0097582159  -0.0082003492   0.0001921059
       -0.0124447493   0.0036608687  -0.0001275941   0.0048783660  -0.0009036983
       -0.0000855459  -0.0011649535  -0.0053510594  -0.0000538161  -0.0067756083
       -0.0451692030  -0.0010150563  -0.0019218686   0.0108237057   0.0000589616
        0.0000515203   0.0001092229   0.0000020962   0.0002327809   0.0001641795
       -0.0000078708  -0.0034065833  -0.0043304017  -0.0002127250   0.0268094615
       -0.0019853837  -0.0001975832  -0.1067583636  -0.2498558083  -0.0051771925
       -0.0028142623  -0.0001516748   0.0001584583  -0.0001166123  -0.0001006442
        0.0000009746  -0.0000273974  -0.0000664496  -0.0000217207  -0.0000452331
        0.0000270166   0.0000322955  -0.0000857618  -0.0000005139   0.0000079388
        0.0000337999   0.0001064856   0.0000351549  -0.0002013044  -0.0002442721
       -0.0000242160
        0.0000019499   0.0000270535  -0.0002605711  -0.0000527776  -0.0001065665
       -0.0001997332   0.0003012036   0.0001196110  -0.0037768831  -0.0003101431
        0.0004178413   0.0015535571   0.0011320464  -0.0011717377  -0.0408722720
       -0.0021607328   0.0107609706   0.1035841360   0.0024232042  -0.0038421036
       -0.0484903760   0.0004649867  -0.0005813841   0.0005967593   0.0002174107
        0.0002379644  -0.0010222130  -0.0001346198   0.0000359973  -0.0003244247
        0.0000666476  -0.0001121068  -0.0001343322   0.0000269162  -0.0000452836
        0.0004910191   0.0000918177   0.0001534564  -0.0002200650  -0.0002049504
       -0.0001531854   0.0000937124   0.0002427588  -0.0001892533  -0.0014191561
       -0.0002236571   0.0001077829  -0.0005694841   0.0000631183   0.0000119056
        0.0057107371  -0.0000178219  -0.0000534724  -0.0002398893  -0.0003242086
       -0.0006822559   0.0019752796   0.0000859195   0.0002854246   0.0053818996
        0.0000008034   0.0000006048   0.0000568117   0.0000012813   0.0000010633
        0.0001689888  -0.0000714005  -0.0002058483   0.0061034162   0.0006637264
       -0.0000799929   0.0010091056  -0.0023761629  -0.0048548011  -0.0302043473
        0.0000814783  -0.0000759669   0.0004423236  -0.0000039735  -0.0000002793
        0.0001519567   0.0000074165  -0.0000049204   0.0001078775   0.0000043022
       -0.0000088652  -0.0002454447  -0.0000017537   0.0000047124   0.0002598615
       -0.0000019401   0.0000067718   0.0001506294   0.0000071544  -0.0000031364
        0.0001411203
        0.0071794926  -0.0058379436  -0.0000224080  -0.0124583925   0.0015289040
        0.0000798945  -0.0272922076  -0.0144428810   0.0002122787   0.0115506074
        0.0023705147   0.0001069040  -0.0478145285   0.0184303497   0.0007332329
       -0.1075794112   0.0796564989   0.0024232042   0.6040688782  -0.0014454717
       -0.0054320008  -0.2413376512  -0.0022228482   0.0028355421  -0.0426176853
       -0.0291503529   0.0004750333   0.0088764321  -0.0051033752   0.0000557420
       -0.0054498440  -0.0021784227   0.0000064284   0.0021237437   0.0123206445
       -0.0003282082   0.0064262830   0.0042039019  -0.0001278185  -0.0115584142
       -0.0085344510   0.0000299171   0.0137516282  -0.0124428855   0.0002277738
       -0.0381996890  -0.0063918086  -0.0001524698   0.0473016879  -0.0062050395
        0.0000887166  -0.0098065808  -0.0048780559  -0.0000630187  -0.1306796992
       -0.0615276435  -0.0012781774  -0.0289698891   0.0516367359   0.0005586009
        0.0000858949   0.0001001622  -0.0000147227  -0.0009650952  -0.0012311014
       -0.0000807749   0.0008443538  -0.0000275749  -0.0000136697  -0.0055366672
        0.0001037130   0.0000157513   0.0076221253  -0.0110693289  -0.0005497364
        0.0003637347   0.0015288925   0.0000616785  -0.0004806933   0.0000350890
        0.0000425718   0.0001210100   0.0000626043  -0.0000124460   0.0000457156
        0.0000983726   0.0000448968  -0.0000414332  -0.0000778809   0.0000199785
        0.0001325574  -0.0002181701   0.0000666920   0.0002937363   0.0009088523
       -0.0000093861
        0.0081851994  -0.0074282824  -0.0000990126   0.0036028791   0.0211155887
        0.0002294795  -0.0430726833  -0.0107398400   0.0001731148  -0.0048103968
       -0.0153869297  -0.0002053069   0.0468129019   0.0091002852  -0.0001000740