$hessian                                                                        
        0.9702981279   0.4920062064   0.0473332112  -0.9180006157  -0.4529803802
       -0.0436936065  -0.0715307879  -0.0503736188  -0.0048330081   0.0440637575
        0.0034092391   0.0007137245  -0.0324320642  -0.0116477966  -0.0012238814
        0.0145336921  -0.0088241094  -0.0005208711  -0.0044178354   0.0066943554
        0.0003708707   0.0081965916  -0.0001620421   0.0002148647  -0.0059852099
       -0.0030657929  -0.0003387051   0.0019979590  -0.0007443467   0.0000283292
       -0.0004074057   0.0002950653  -0.0000207091  -0.0001162612  -0.0004287184
        0.0001303782   0.0011891920  -0.0002712768   0.0000432334  -0.0012440443
        0.0004585103   0.0000238610   0.0000759442   0.0001237076   0.0002219850
        0.0001707525  -0.0002598801  -0.0000036563   0.0000348780  -0.0001225762
        0.0001586361   0.0000798252   0.0000988145  -0.0000084470  -0.0001272066
        0.0000597665  -0.0001927552  -0.0001580514   0.0002256478  -0.0001395694
       -0.0000538398  -0.0001709781  -0.0002610097  -0.0002859978   0.0000276476
        0.0001411105  -0.0001622448   0.0000725269   0.0002344627   0.0000189848
       -0.0000936251   0.0000172822   0.0001208587   0.0001151626  -0.0001860451
        0.0002904096   0.0000688867   0.0000269883   0.0003545323   0.0001457681
       -0.0000058428  -0.0007355646   0.0001554562  -0.0000485496   0.0013799879
        0.0014200177  -0.0000412607  -0.0064630925  -0.0054805747  -0.0002872789
        0.0031104720   0.0057367348   0.0005832250  -0.0036199070  -0.0039669384
       -0.0004312880   0.0012333298   0.0028085938   0.0001380937  -0.0011231467
       -0.0004709875  -0.0000073957   0.0007045424  -0.0003394574  -0.0001139960
       -0.0000658282  -0.0007045776  -0.0000299184   0.0003820517   0.0001679144
        0.0000099501   0.0005518245   0.0000859471   0.0000554639  -0.0007343841
        0.0006508432  -0.0000366406   0.0005947856   0.0003257784  -0.0002026891
        0.0000644278   0.0002873558  -0.0002570899   0.0000979650  -0.0001196893
        0.0000533501  -0.0003265420  -0.0000908635   0.0002135180  -0.0003298908
       -0.0006162931   0.0001202231  -0.0001235939  -0.0008324267   0.0000267259
       -0.0005505542   0.0002592980  -0.0001196190  -0.0002629875  -0.0001537315
       -0.0000997694   0.0000396932   0.0001433330  -0.0000241800   0.0002484545
       -0.0001703301   0.0002583188   0.0006193091   0.0000874460   0.0002270812
       -0.0004767902   0.0004243605   0.0000192836   0.0003288638   0.0007076782
        0.0002164771  -0.0013185211  -0.0012907948  -0.0000978388   0.0013174880
        0.0046123183   0.0002334449  -0.0060494816  -0.0044844252  -0.0002186435
        0.0169749527   0.0016967405   0.0000197379  -0.0398610011  -0.0133094054
       -0.0009610108   0.0317872463   0.0332084442   0.0026210585  -0.0136981380
        0.0082883489   0.0007793769   0.0099838726  -0.0037989444  -0.0003900698
        0.0000241140   0.0000722458   0.0000610830  -0.0002849566   0.0000708207
        0.0000215013   0.0001513291   0.0001055524  -0.0001216930  -0.0001625863
       -0.0001765464   0.0000327686   0.0000925667   0.0001259941   0.0000730619
       -0.0000729863   0.0000262372  -0.0001593398   0.0000889403  -0.0000998052
       -0.0000228023   0.0000155178  -0.0000537240   0.0001654995   0.0001512519
        0.0000564426  -0.0000303630   0.0000019516  -0.0000841452   0.0000107247
        0.0000767955   0.0000526231  -0.0002254434   0.0000288777  -0.0000335035
        0.0000096512  -0.0000453275   0.0000014080   0.0001695420  -0.0000464689
       -0.0002085430  -0.0000974154  -0.0002074101  -0.0000225912  -0.0000335639
        0.0000610776  -0.0000667847  -0.0000179420  -0.0000531854   0.0000479874
        0.0000455838  -0.0000822854   0.0000475230  -0.0001627016  -0.0000887828
       -0.0000456160  -0.0000258920  -0.0000681383   0.0000511328  -0.0001656638
       -0.0001162915   0.0000296760  -0.0000360806  -0.0000238812   0.0001200828
       -0.0000018264   0.0000949197   0.0001217898   0.0001048579   0.0001022877
        0.0000408546  -0.0001186002  -0.0000028786  -0.0000335554  -0.0001947237
       -0.0000510831  -0.0001117517   0.0000365091  -0.0000545562  -0.0000728633
        0.0001733193  -0.0000158497  -0.0000765763   0.0000354808   0.0000823513
        0.0002503672   0.0001630176   0.0000387701  -0.0000294003  -0.0000999476
       -0.0000840905   0.0000338352   0.0000503948   0.0002662237  -0.0000324990
       -0.0000779178
        0.4920062064   0.2691474798   0.0245375182  -0.4558988350  -0.2657264131
       -0.0229657958  -0.0456989620  -0.0079839203  -0.0019967175   0.0198131133
       -0.0015431273  -0.0001059073  -0.0176590524  -0.0053521945  -0.0004794631
        0.0073257024  -0.0047023686  -0.0002473529  -0.0024183213   0.0033141875
        0.0001788966   0.0042690008  -0.0000740258   0.0001138169  -0.0032113062
       -0.0015316000  -0.0001743017   0.0011813853  -0.0004344422   0.0000127538
       -0.0002638019   0.0002039466   0.0000052134  -0.0000010308  -0.0001654335
        0.0000700491   0.0006073615  -0.0001196420   0.0000243904  -0.0006738010
        0.0002551421   0.0000147163   0.0000681973   0.0000887205   0.0001262096
        0.0000382248  -0.0000998024  -0.0000143388   0.0000130501  -0.0000468928
        0.0000625220   0.0000308253   0.0000421065  -0.0000017917  -0.0000516935
        0.0000209131  -0.0000857821  -0.0000566117   0.0000742452  -0.0000514163
       -0.0000259953  -0.0001283389  -0.0001422483  -0.0001025693   0.0000331565
        0.0000545008  -0.0000647738   0.0000311350   0.0001062707   0.0000052893
       -0.0000366775   0.0000079433   0.0000451589   0.0000503589  -0.0000752065
        0.0001031059   0.0000377841   0.0000289756   0.0002121360  -0.0000146685
       -0.0000018004  -0.0004544950   0.0000512752  -0.0000349418   0.0010136162
        0.0007173612  -0.0000752343  -0.0036565847  -0.0026467773  -0.0001237519
        0.0012849337   0.0029091617   0.0002820732  -0.0014556692  -0.0020373776
       -0.0001665473   0.0004545006   0.0014206529   0.0000634279  -0.0004330169
       -0.0001795960  -0.0000056948   0.0002795780  -0.0001336573  -0.0000533313
       -0.0000251461  -0.0002714543  -0.0000095656   0.0002280739   0.0000818956
        0.0000111839   0.0002420424   0.0000391860   0.0000306626  -0.0003719466
        0.0003290989  -0.0000321582   0.0002592029   0.0001275452  -0.0000821171
        0.0000175574   0.0001347646  -0.0001119925   0.0000315773  -0.0000467860
        0.0000244934  -0.0001570696  -0.0000308174   0.0000922825  -0.0001368499
       -0.0002769774   0.0000390147  -0.0000740557  -0.0004397338   0.0000267926
       -0.0002356349   0.0001233419  -0.0000367929  -0.0001163545  -0.0000805032
       -0.0000305936   0.0000131400   0.0000561630  -0.0000120170   0.0001019910
       -0.0000847144   0.0001104016   0.0002694410   0.0000508109   0.0000940138
       -0.0001943791   0.0001616895   0.0000044027   0.0001337224   0.0002764156
        0.0000828473  -0.0006483689  -0.0006370507  -0.0000416130   0.0006449879
        0.0023249754   0.0001364173  -0.0029479263  -0.0023330258  -0.0001703922
        0.0083802556   0.0011083279  -0.0000013904  -0.0192834381  -0.0049690950
       -0.0002186338   0.0192192810   0.0171152271   0.0012658738  -0.0055560490
        0.0041669060   0.0004169071   0.0037558028  -0.0025386190  -0.0002570393
       -0.0000579726   0.0000708559   0.0000371569  -0.0001800396   0.0000758456
        0.0000161069   0.0000682781   0.0000531527  -0.0000558968  -0.0000806552
       -0.0000788142   0.0000355732   0.0000394578   0.0000567488   0.0000310264
       -0.0000275467   0.0000179184  -0.0000768392   0.0000487193  -0.0000429951
       -0.0000096393   0.0000116562  -0.0000162581   0.0000768461   0.0000780597
        0.0000285156  -0.0000031287  -0.0000005577  -0.0000522820  -0.0000079675
        0.0000402388   0.0000227531  -0.0001083216   0.0000134635  -0.0000220096
        0.0000035325  -0.0000195022  -0.0000071406   0.0000806558  -0.0000286111
       -0.0000984695  -0.0000431065  -0.0001071951  -0.0000221354  -0.0000349225
        0.0000363633  -0.0000270890  -0.0000071996  -0.0000249427   0.0000147404
        0.0000282768  -0.0000378879   0.0000285309  -0.0000653506  -0.0000447355
       -0.0000255307  -0.0000109527  -0.0000229328   0.0000261455  -0.0000800154
       -0.0000516278   0.0000151582  -0.0000224817  -0.0000113398   0.0000485530
       -0.0000040831   0.0000410373   0.0000607854   0.0000495797   0.0000543233
        0.0000172678  -0.0000577379  -0.0000102966  -0.0000068027  -0.0000984560
       -0.0000287789  -0.0000467612   0.0000191849  -0.0000219433  -0.0000329974
        0.0000831954  -0.0000088736  -0.0000384793   0.0000115135   0.0000449368
        0.0001228037   0.0000673819   0.0000110919  -0.0000007315  -0.0000481472
       -0.0000533427   0.0000069813   0.0000151974   0.0001564332   0.0000234979
       -0.0000396232
        0.0473332112   0.0245375182   0.0166434016  -0.0438781053  -0.0229063487
       -0.0297868078  -0.0045382462  -0.0018445490   0.0117682246   0.0020981198
       -0.0004981410   0.0024382809  -0.0017278584  -0.0003038084  -0.0015284206
        0.0007665430  -0.0004787763  -0.0001705019  -0.0002459344   0.0003509511
        0.0000058173   0.0004377653  -0.0000070495  -0.0000279131  -0.0003333112
       -0.0001375423   0.0000079912   0.0001188281  -0.0000421684   0.0000269175
       -0.0000266588   0.0000176907  -0.0000038819  -0.0000097433  -0.0000214107
        0.0000076696   0.0000753871  -0.0000186171   0.0000006826  -0.0000709469
        0.0000252528   0.0000059818  -0.0000021620   0.0000005744   0.0000148443
        0.0000101873  -0.0000118961   0.0000006114  -0.0000004238  -0.0000058040
        0.0000081358   0.0000023223   0.0000028555   0.0000005969  -0.0000080254
        0.0000002650  -0.0000084044  -0.0000081812   0.0000156560  -0.0000078261
       -0.0000058087   0.0000027110  -0.0000201057  -0.0000142262  -0.0000019456
        0.0000061647  -0.0000032931   0.0000074424   0.0000107218  -0.0000016077
       -0.0000031482   0.0000008660   0.0000049970   0.0000084035  -0.0000050352
        0.0000168808  -0.0000002363   0.0000040510   0.0000210236   0.0000094521
        0.0000020741  -0.0000437352  -0.0000025916   0.0000094209   0.0000988203
        0.0000765369  -0.0000329588  -0.0003839255  -0.0002989578  -0.0000322268
        0.0002164691   0.0002676159   0.0000702426  -0.0002042949  -0.0001540350
       -0.0001119718   0.0000307736   0.0001134259   0.0000313012  -0.0000248818
       -0.0000139848   0.0000325578   0.0000311606  -0.0000219348   0.0000475875
       -0.0000098748  -0.0000261233   0.0000053531   0.0000281926   0.0000144277
        0.0000032528   0.0000327682   0.0000052061   0.0000063412  -0.0000542301
        0.0000466203   0.0000040008   0.0000347896   0.0000143723  -0.0000082312
       -0.0000013721   0.0000176734  -0.0000120103   0.0000033871  -0.0000058655
        0.0000015360  -0.0000189526  -0.0000010673   0.0000073232  -0.0000139282
       -0.0000361548   0.0000048575  -0.0000100743  -0.0000601061  -0.0000096741
       -0.0000277779   0.0000171421  -0.0000060725  -0.0000172123  -0.0000092447
       -0.0000029092   0.0000023245   0.0000049318  -0.0000021844   0.0000086861
       -0.0000106804   0.0000118677   0.0000332444   0.0000076370   0.0000109925
       -0.0000193819   0.0000114187  -0.0000056982   0.0000221705   0.0000313292
       -0.0000328229  -0.0000796476  -0.0000808832  -0.0001335565   0.0000873833
        0.0002629461  -0.0001377634  -0.0003556908  -0.0002886648   0.0005474124
        0.0010006790  -0.0000233682   0.0003703936  -0.0020445561  -0.0002360126
       -0.0015145000   0.0019038702   0.0014678577   0.0012293353  -0.0006576181
        0.0004784099  -0.0000519175   0.0004393666  -0.0002746319   0.0003007502
       -0.0000022274   0.0000011614  -0.0000174221  -0.0000196865   0.0000044657
       -0.0000014408   0.0000075924   0.0000050785  -0.0000083297  -0.0000076319
       -0.0000066212   0.0000030998   0.0000024268   0.0000057834   0.0000043113
       -0.0000023685   0.0000019130  -0.0000093237   0.0000060860  -0.0000039295
       -0.0000028448  -0.0000002656  -0.0000027232   0.0000063460   0.0000086518
       -0.0000006898   0.0000007579   0.0000037354  -0.0000015693  -0.0000017024
        0.0000052405   0.0000025081  -0.0000098940   0.0000028086  -0.0000022629
       -0.0000000013  -0.0000040829  -0.0000000880   0.0000067789  -0.0000061455
       -0.0000099441  -0.0000050913  -0.0000091375  -0.0000006080  -0.0000060937
        0.0000080880  -0.0000056895  -0.0000030404  -0.0000172636  -0.0000020219
       -0.0000008212  -0.0000040828   0.0000130926  -0.0000229812  -0.0000042838
       -0.0000033636  -0.0000007478  -0.0000036371   0.0000025863  -0.0000102861
       -0.0000064815   0.0000009764  -0.0000018913  -0.0000005850   0.0000041161
       -0.0000025698   0.0000029473   0.0000078892   0.0000062369   0.0000063342
       -0.0000000023  -0.0000066343  -0.0000016650  -0.0000021047  -0.0000094488
       -0.0000033266  -0.0000050201  -0.0000002118  -0.0000013059  -0.0000031841
        0.0000055060  -0.0000004876  -0.0000033793  -0.0000011332   0.0000103238
        0.0000086377   0.0000146424  -0.0000039580  -0.0000028928  -0.0000017176
        0.0000075697   0.0000077612   0.0000716777   0.0000091540  -0.0000004509
        0.0000101051
       -0.9180006157  -0.4558988350  -0.0438781053   1.1886685500   0.5607891961
        0.0538826788  -0.1740258355  -0.0634807459  -0.0056890453  -0.1223556264
       -0.0141368412  -0.0021635266   0.0484223172   0.0267255346   0.0025481540
       -0.0245678570   0.0129879440   0.0007260728   0.0070328550  -0.0108558769
       -0.0006139111  -0.0133605826   0.0000606372  -0.0003408970   0.0093038471
        0.0056742937   0.0005931669  -0.0030204783   0.0011945452  -0.0000377231
        0.0006125960  -0.0004576488   0.0000183049   0.0001404866   0.0005995652
       -0.0001931798  -0.0017880128   0.0003782597  -0.0000739664   0.0019135241
       -0.0007155495  -0.0000373422  -0.0001710205  -0.0002349401  -0.0003422825
       -0.0002062550   0.0003642241   0.0000144186  -0.0000491330   0.0001683390
       -0.0002232764  -0.0001145829  -0.0001401755   0.0000081547   0.0001745140
       -0.0000820280   0.0002812233   0.0002163498  -0.0002995727   0.0001941944
        0.0000788103   0.0003270001   0.0003996827   0.0003934840  -0.0000592460
       -0.0001964750   0.0002273557  -0.0000988986  -0.0003373621  -0.0000252324
        0.0001341630  -0.0000239004  -0.0001663008  -0.0001600231   0.0002623253
       -0.0003959899  -0.0001054050  -0.0000510413  -0.0005547909  -0.0001278634
        0.0000029761   0.0011650095  -0.0002186744   0.0000861658  -0.0015552313
       -0.0028652906   0.0000762651   0.0096927517   0.0099026256   0.0005055611
       -0.0052247347  -0.0100707851  -0.0009445406   0.0060490865   0.0075415345
        0.0007433711  -0.0020608892  -0.0055305598  -0.0002951576   0.0020634127
        0.0008628953   0.0000212103  -0.0012102202   0.0005437263   0.0001959655
        0.0001642873   0.0010718127   0.0000466086  -0.0005939693  -0.0002494377
       -0.0000225760  -0.0009472477  -0.0001602992  -0.0000936076   0.0011879664
       -0.0010531551   0.0000618190  -0.0009088708  -0.0004766371   0.0002941014
       -0.0000762579  -0.0004439151   0.0003912493  -0.0001477388   0.0001787606
       -0.0000796668   0.0005076840   0.0001209684  -0.0003156664   0.0004778064
        0.0009526612  -0.0001837857   0.0002113427   0.0013613301  -0.0000442880
        0.0008353770  -0.0004100293   0.0001829865   0.0003999712   0.0002493103
        0.0001473638  -0.0000595497  -0.0002166243   0.0000356294  -0.0003649491
        0.0002733016  -0.0003917715  -0.0009458821  -0.0001580905  -0.0003325594
        0.0007737811  -0.0006087646  -0.0000261690  -0.0005941200  -0.0012040575
       -0.0003521256   0.0019859111   0.0021339101   0.0001362328  -0.0021322388
       -0.0077527857  -0.0004218943   0.0105443571   0.0078970924   0.0004154672
       -0.0268901280  -0.0052042980  -0.0002118196   0.0649480618   0.0203388475
        0.0014407757  -0.0591461378  -0.0740493061  -0.0060153605   0.0169182345
       -0.0105904016  -0.0010138969  -0.0137432311   0.0056108390   0.0005919020
       -0.0000489098  -0.0002305839  -0.0001017420   0.0003847801  -0.0001184894
       -0.0000311084  -0.0002171838  -0.0001674018   0.0001706233   0.0002407561
        0.0002526587  -0.0000685684  -0.0001250179  -0.0001774817  -0.0001028313
        0.0001055150  -0.0000425931   0.0002328616  -0.0001302757   0.0001380587
        0.0000326909  -0.0000232742   0.0000730607  -0.0002364035  -0.0002289636
       -0.0000835497   0.0000287311  -0.0000003992   0.0001343159   0.0000016787
       -0.0001166038  -0.0000753980   0.0003258176  -0.0000407602   0.0000530889
       -0.0000139314   0.0000686572   0.0000055839  -0.0002459501   0.0000813387
        0.0003021217   0.0001379849   0.0003203994   0.0000438979   0.0000723075
       -0.0000971740   0.0000897496   0.0000271156   0.0000824222  -0.0000833032
       -0.0000816130   0.0001144321  -0.0000749701   0.0002409774   0.0001334611
        0.0000821759   0.0000394971   0.0000988161  -0.0000762993   0.0002387063
        0.0001716037  -0.0000470290   0.0000576229   0.0000394950  -0.0001743779
        0.0000104793  -0.0001310462  -0.0001890511  -0.0001541577  -0.0001628699
       -0.0000524507   0.0001735063   0.0000131478   0.0000479129   0.0002825068
        0.0000824437   0.0001614831  -0.0000572784   0.0000817448   0.0001129516
       -0.0002502428   0.0000296542   0.0001075991  -0.0000525670  -0.0001223466
       -0.0003656537  -0.0002396554  -0.0000503170   0.0000518426   0.0001575089
        0.0001454304  -0.0000465539  -0.0000748409  -0.0004049763   0.0000221296
        0.0001231669
       -0.4529803802  -0.2657264131  -0.0229063487   0.5607891961   0.3899845121
        0.0306532101  -0.0680321746  -0.0993818691  -0.0047268246  -0.0325652639
        0.0123383537   0.0009748672   0.0295205064   0.0062621116   0.0001410188
       -0.0115686072   0.0075737693   0.0003120383   0.0038174244  -0.0056244031
       -0.0003153423  -0.0066879966   0.0002203375  -0.0001820076   0.0052582217
        0.0013364317   0.0001985271  -0.0023785708   0.0009342477  -0.0000131712
        0.0006047294  -0.0005746454  -0.0000948392  -0.0001720258   0.0001824614
       -0.0001044826  -0.0009523599   0.0001438130  -0.0000373134   0.0012795475
       -0.0004737782  -0.0000295712  -0.0003095395  -0.0003146244  -0.0002231330
        0.0000672875   0.0000942408   0.0000384295  -0.0000249415   0.0000281463
       -0.0000557132  -0.0000232314  -0.0000392266  -0.0000026087   0.0000370200
       -0.0000267996   0.0001154319   0.0000565787  -0.0000079349   0.0000484643
        0.0000203806   0.0004352084   0.0002497798   0.0000689290  -0.0001131845
       -0.0000454993   0.0000609636  -0.0000188093  -0.0001313219   0.0000005320
        0.0000303063  -0.0000120380  -0.0000340081  -0.0000421954   0.0000744675
       -0.0000583644  -0.0000832772  -0.0000609262  -0.0004196671   0.0002370268
       -0.0000065792   0.0010402112  -0.0000073756   0.0001046668  -0.0019474915
        0.0000114439   0.0003342273   0.0060900956   0.0030096010   0.0001016850
       -0.0022295378  -0.0036651613  -0.0003708995   0.0016942177   0.0026926627
        0.0001125821  -0.0009256637  -0.0011993914  -0.0000052732   0.0004503730
        0.0002114490   0.0000183991  -0.0002661386   0.0001675472   0.0000868057
       -0.0000122264   0.0002599602   0.0000281855  -0.0002072286  -0.0000467286
       -0.0000382798  -0.0003292943  -0.0000471087  -0.0000594121   0.0004165703
       -0.0003724244   0.0000323014  -0.0003007751  -0.0001533571   0.0001286047
       -0.0000385690  -0.0001758338   0.0001387740  -0.0000353199   0.0000553702
       -0.0000350830   0.0002135681   0.0000500893  -0.0001296741   0.0001927749
        0.0003560761  -0.0000437697   0.0000966638   0.0004887300  -0.0000287287
        0.0003023176  -0.0001380328   0.0000382070   0.0001543356   0.0000972601
        0.0000342192  -0.0000079739  -0.0000698186   0.0000115268  -0.0001372301
        0.0000984841  -0.0001377782  -0.0003388079  -0.0000670734  -0.0001452911
        0.0001465500  -0.0001664055  -0.0000246096  -0.0000801415  -0.0002867411
       -0.0000947534   0.0019218495   0.0009727011   0.0000308621  -0.0014628906
       -0.0044651908  -0.0003199686   0.0062598058   0.0050549923   0.0005114686
       -0.0178222745   0.0017014781   0.0003902907   0.0355714406   0.0007723143
       -0.0005532871  -0.0564776842  -0.0488972944  -0.0041637895   0.0105154850
       -0.0074061924  -0.0006142904  -0.0082519421   0.0040717699   0.0004383853
        0.0000842153  -0.0001027659  -0.0000574694   0.0002818076  -0.0001662611
       -0.0000302091  -0.0001059724  -0.0000624886   0.0000904944   0.0001158366
        0.0001062846  -0.0001039063  -0.0000462761  -0.0000725507  -0.0000328682
        0.0000303336  -0.0000366018   0.0001158968  -0.0000757134   0.0000473275
        0.0000106124  -0.0000267326   0.0000053256  -0.0001058689  -0.0001403061
       -0.0000522484  -0.0000298030  -0.0000016814   0.0001046656   0.0000463316
       -0.0000768345  -0.0000240866   0.0001551596  -0.0000249258   0.0000432433
       -0.0000034848   0.0000271747   0.0000286386  -0.0001155735   0.0000667352
        0.0001400121   0.0000470627   0.0001902438   0.0000662873   0.0001110307
       -0.0000609095   0.0000277740   0.0000111567   0.0000434958  -0.0000435828
       -0.0000726483   0.0000558604  -0.0000576347   0.0000637156   0.0000647092
        0.0000642320  -0.0000023740   0.0000283710  -0.0000451976   0.0001073384
        0.0000888025  -0.0000315664   0.0000447810   0.0000210500  -0.0000676133
        0.0000313547  -0.0000642360  -0.0000971707  -0.0000672714  -0.0000988420
       -0.0000382948   0.0000789879   0.0000372346   0.0000036263   0.0001327566
        0.0000633664   0.0000685551  -0.0000406682   0.0000349275   0.0000621214
       -0.0001117521   0.0000146788   0.0000438607   0.0000019303  -0.0000621593
       -0.0001730364  -0.0000683127  -0.0000027337  -0.0000103576   0.0000865133
        0.0001442846   0.0000242912  -0.0000027967  -0.0001750595  -0.0000363937
        0.0000750663
       -0.0436936065  -0.0229657958  -0.0297868078   0.0538826788   0.0306532101
        0.0670870393  -0.0059598056  -0.0049840378  -0.0447310252  -0.0037166429
        0.0015822760  -0.0040694622   0.0028789790  -0.0001217215   0.0080243949
       -0.0012445473   0.0007297059   0.0007572484   0.0004255244  -0.0005739773
        0.0000862610  -0.0006983068   0.0000521696   0.0001147743   0.0005823598
        0.0001816025  -0.0001084066  -0.0002316575   0.0000833823  -0.0000587865
        0.0000500169  -0.0000347718   0.0000118002   0.0000085612   0.0000257104
       -0.0000067051  -0.0001622836   0.0000419420  -0.0000043679   0.0001283788
       -0.0000509872  -0.0000110196   0.0000199846   0.0000107010  -0.0000374449
       -0.0000159161   0.0000111464   0.0000063404   0.0000032315   0.0000133332
       -0.0000070062  -0.0000032378  -0.0000025868  -0.0000009132   0.0000178948
        0.0000023196   0.0000136607   0.0000067446  -0.0000212780   0.0000088721
        0.0000158018  -0.0000272005   0.0000460885   0.0000182269   0.0000043470
       -0.0000102067   0.0000102755  -0.0000148022  -0.0000139110  -0.0000012777
        0.0000015168  -0.0000045850  -0.0000056230  -0.0000160641   0.0000119612
       -0.0000262220   0.0000033798  -0.0000066538  -0.0000434301  -0.0000064984
       -0.0000041805   0.0000802527   0.0000184759  -0.0000404204  -0.0003200281
       -0.0001251526   0.0001340975   0.0007553238   0.0004034770   0.0000142018
       -0.0004294546  -0.0002970026  -0.0002410554   0.0002793448   0.0000651409
        0.0004243444   0.0000226676  -0.0000688446  -0.0001117161  -0.0000358626
        0.0000024237  -0.0000940233  -0.0000238369   0.0000333017  -0.0002049246
        0.0000395148   0.0000053056  -0.0000163543  -0.0000410278  -0.0000086272
       -0.0000213337  -0.0000632461  -0.0000159555  -0.0000140941   0.0000993687
       -0.0000855913  -0.0000250901  -0.0000503479  -0.0000219709   0.0000157952
        0.0000102886  -0.0000254567   0.0000279263   0.0000031231   0.0000071565
       -0.0000098949   0.0000212966   0.0000069310  -0.0000077160   0.0000192474
        0.0000565715  -0.0000001648   0.0000131810   0.0001018974   0.0000463339
        0.0000414002  -0.0000295792   0.0000063129   0.0000186946   0.0000119986
        0.0000056401   0.0000020094  -0.0000051851   0.0000055548  -0.0000049097
        0.0000184502  -0.0000155270  -0.0000451937  -0.0000085494  -0.0000097625
        0.0000045426   0.0000031570   0.0000294957  -0.0000248341  -0.0000194816
        0.0001471027   0.0001566769   0.0001637366   0.0005258671  -0.0001717565
       -0.0005139372   0.0006394196   0.0007324356   0.0006903796  -0.0023883118
       -0.0020101662   0.0003350914  -0.0016274493   0.0036122534  -0.0006551478
        0.0063126727  -0.0052305403  -0.0043959920   0.0008468163   0.0010836054
       -0.0006671641  -0.0012347114  -0.0008315843   0.0004328872  -0.0000531189
       -0.0000103145   0.0000145327  -0.0000822100   0.0000470331  -0.0000173840
        0.0000041527  -0.0000143073  -0.0000022716   0.0000009227   0.0000145712
        0.0000113502  -0.0000124105  -0.0000043826  -0.0000080073  -0.0000044922
        0.0000023861  -0.0000038904   0.0000099844  -0.0000052168   0.0000044300
        0.0000019999  -0.0000012992   0.0000029195  -0.0000083435  -0.0000126603
       -0.0000036297   0.0000021479  -0.0000010097   0.0000077531   0.0000024303
       -0.0000082795  -0.0000013652   0.0000116374  -0.0000019717   0.0000037351
       -0.0000018536   0.0000023215   0.0000025353  -0.0000119628   0.0000091571
        0.0000133291   0.0000051906   0.0000144359   0.0000006331   0.0000186316
       -0.0000193768   0.0000079009   0.0000081571   0.0000606516   0.0000170223
        0.0000079920  -0.0000001029  -0.0000368267   0.0000592542   0.0000091725
        0.0000062258   0.0000032281   0.0000035994  -0.0000036108   0.0000140424
        0.0000053335  -0.0000051356   0.0000063914  -0.0000003346  -0.0000054762
        0.0000032170  -0.0000101058  -0.0000124169  -0.0000037970  -0.0000110083
       -0.0000054640   0.0000121642   0.0000044917   0.0000005143   0.0000165001
        0.0000051307   0.0000060901   0.0000011098   0.0000042853   0.0000051640
       -0.0000095714   0.0000010876   0.0000051320   0.0000021439  -0.0000282746
       -0.0000005000  -0.0000444763   0.0000277841   0.0000127233  -0.0000047656
       -0.0000367906  -0.0000194157  -0.0002947365  -0.0000045460   0.0000136381
       -0.0000855491
       -0.0715307879  -0.0456989620  -0.0045382462  -0.1740258355  -0.0680321746
       -0.0059598056   0.5629647644   0.0422549171   0.0057770743  -0.1279685689
        0.1120909293   0.0086341994  -0.1543419105  -0.0182828201  -0.0026518554
        0.0357575870  -0.0283060069  -0.0016513268  -0.0101020739   0.0204504360
        0.0011816603   0.0177149454  -0.0021065057   0.0004017822  -0.0145494115
        0.0014815767  -0.0001487891   0.0071591436  -0.0027024033   0.0000239346
       -0.0017071408   0.0024521485   0.0004404617   0.0009136920  -0.0001718198
        0.0003184510   0.0015049000  -0.0003539692   0.0000487460  -0.0032532225
        0.0009721778   0.0000481405   0.0010215725   0.0010175519   0.0003287157
       -0.0004627928  -0.0000349001  -0.0002481496   0.0000461699   0.0002378669
       -0.0001364872  -0.0000452357  -0.0000440969   0.0000545854   0.0003073601
        0.0000097224  -0.0000917827   0.0001068704  -0.0005953804   0.0000144239
        0.0001696928  -0.0013074578  -0.0004147771   0.0003359404   0.0004157850
       -0.0000250432   0.0001510367  -0.0001624851   0.0001318557  -0.0000162793
        0.0001161079  -0.0000168397  -0.0001060388  -0.0001347486   0.0000926135
       -0.0004469905   0.0003285741   0.0003004099   0.0011913097  -0.0010146855
       -0.0000586078  -0.0032121308  -0.0004607582  -0.0004164635   0.0093703720
       -0.0065921636  -0.0009114216  -0.0200778289  -0.0007340491   0.0001195129
        0.0133222597   0.0012673050   0.0005019482  -0.0065485851  -0.0026101077
       -0.0006649574   0.0090191326  -0.0019219717  -0.0002696214  -0.0032162744
       -0.0013259653   0.0000203049   0.0015451976  -0.0002685683  -0.0001416583
       -0.0002488044  -0.0008639576  -0.0001283793  -0.0007259311   0.0001189983
        0.0000868519   0.0021448917   0.0007257573   0.0001172888  -0.0014473608
        0.0013173904   0.0001334405   0.0008358432   0.0002643406  -0.0002606691
        0.0000730672   0.0002598504  -0.0001605530   0.0000734089  -0.0000714560
        0.0000634584  -0.0002924647  -0.0000899604   0.0001984378  -0.0003115647
       -0.0006537959   0.0000748089  -0.0000680387  -0.0017787442  -0.0001563633
       -0.0004594448   0.0005467065  -0.0000639618  -0.0001562011  -0.0001255493
        0.0001181863   0.0000753762   0.0000847455   0.0000099388   0.0002158244
       -0.0001264236   0.0001591563   0.0005906244   0.0001449734   0.0003372874
       -0.0003517913   0.0002193330   0.0000734167   0.0007485382   0.0009721465
        0.0001990127  -0.0133815129  -0.0021503943  -0.0000020332   0.0081613066
        0.0166172631   0.0008460525  -0.0299598965  -0.0196550273  -0.0011530684
        0.0692388925  -0.0048346535  -0.0007339036  -0.1183399533  -0.0395310029
       -0.0027224523   0.0402238480   0.0102400828   0.0005931583  -0.0590054456
        0.0566678140   0.0049501897   0.0318610933  -0.0196781756  -0.0017518080
       -0.0004101524   0.0009384014   0.0001400777  -0.0005034533   0.0000846915