$hessian                                                                        
        0.6579654551  -0.0163741137  -0.0213291963  -0.1228447056  -0.0347057559
        0.0105007465   0.0545109999  -0.0088882078  -0.0010893022  -0.0354280801
       -0.0344892748   0.0071224953  -0.0013604309   0.0015146496  -0.0003569578
        0.0005310196   0.0000301117  -0.0002354003   0.0001430318   0.0003111355
        0.0001864372  -0.0000338682   0.0000299505   0.0000097318   0.0000040234
       -0.0000274722  -0.0000109443  -0.0000293560  -0.0000048731  -0.0000069236
       -0.0000125778   0.0000026916  -0.0000152887   0.0000132428  -0.0000006297
        0.0000015990  -0.0000017721   0.0000050166  -0.0000036824   0.0000010520
       -0.0000004055   0.0000023262   0.0000053700   0.0000008122  -0.0000003150
        0.0000027889   0.0000053654   0.0000008523   0.0000037881   0.0000033257
        0.0000023309  -0.0000043392  -0.0000111766  -0.0000030794  -0.0000138779
        0.0000116646   0.0000028790  -0.0000018874   0.0000098954   0.0000067863
        0.0000143903  -0.0000071991   0.0000004549  -0.0000000265  -0.0000102610
       -0.0000113511   0.0000076052   0.0000122273   0.0000375377   0.0000317945
       -0.0000222999  -0.0000171449   0.0000072620  -0.0000063630   0.0000284087
       -0.0000012944  -0.0000248754   0.0000445128  -0.0000019229  -0.0000189404
        0.0000100821  -0.0000250086   0.0000256654  -0.0000005598   0.0000125769
        0.0000045041   0.0000069216  -0.0000042933   0.0000199407   0.0000071294
        0.0000108957   0.0000036460  -0.0000075789  -0.0005891363   0.0001135089
       -0.0001920003   0.0000475503  -0.0000396484  -0.0000409975   0.0000025593
        0.0000238935   0.0000206227  -0.0000090080   0.0000303894  -0.0000126607
        0.0000007820  -0.0000149013   0.0000004543  -0.0000004009  -0.0000013513
        0.0000227410  -0.0000069773   0.0000472576  -0.0000198433   0.0003791871
       -0.0011021410   0.0000848661  -0.0000757087   0.0000087646  -0.0000325630
        0.0000683612  -0.0001555263  -0.0001256964   0.0001645054   0.0001062910
       -0.0000251525  -0.0000462077  -0.0001094908   0.0000854877  -0.0000873458
       -0.0000622706  -0.0000553595   0.0001014089   0.0001752415   0.0000221844
       -0.0536099933   0.0710107269  -0.0090991332  -0.3216810595  -0.0766580207
        0.0239687140  -0.1488162907   0.1243039670  -0.0162260515  -0.0136721364
       -0.0279782202   0.0054733632  -0.0016196784   0.0039040498  -0.0002364401
       -0.0000046942  -0.0000032429  -0.0000003749  -0.0000048244   0.0000035560
       -0.0000035031   0.0000006088  -0.0000027338  -0.0000016170   0.0000009635
       -0.0000029471   0.0000020274  -0.0000039057  -0.0000025139  -0.0000004592
        0.0000011766   0.0000008418  -0.0000021090  -0.0000012768  -0.0000031852
        0.0000014014   0.0000005074   0.0000042265   0.0000010407  -0.0000049482
       -0.0000011181  -0.0000016828  -0.0000005699  -0.0000005281  -0.0000023543
       -0.0000048835   0.0000005694   0.0000014249   0.0000004035   0.0000004241
       -0.0000004208  -0.0000020698  -0.0000016581  -0.0000008176   0.0000045703
        0.0000030378  -0.0000051326   0.0000223188   0.0000540561  -0.0000095675
       -0.0000889537   0.0000469233  -0.0000937285  -0.0000246307   0.0000055304
        0.0000133638  -0.0000060902  -0.0000061034  -0.0000013161  -0.0000048833
        0.0000013065  -0.0000022016   0.0000253683   0.0000266222   0.0000408007
       -0.0000047606  -0.0000079104  -0.0000088627  -0.0000033131  -0.0000044458
        0.0000065540   0.0000024019   0.0000087297   0.0000025085   0.0000006270
        0.0000026258  -0.0000044057   0.0000002028  -0.0000110834   0.0000194399
       -0.0000337366  -0.0000136742   0.0000438106   0.0000126160  -0.0000001984
        0.0000008775  -0.0000015455   0.0000016903   0.0000048090   0.0000057156
       -0.0000078703  -0.0000128643  -0.0000030087  -0.0000112883   0.0000190342
       -0.0014413429   0.0032108756   0.0000745735  -0.0124903092  -0.0042917885
        0.0014237089
       -0.0163741137   0.6477163076  -0.0924662704  -0.1131697007  -0.2927861667
        0.0493196691   0.0501375990  -0.0633704556   0.0094108311  -0.0348248306
       -0.0214906002   0.0043573368   0.0015584442  -0.0021336174   0.0000351920
       -0.0008287341   0.0003000558   0.0000142878   0.0000205044  -0.0005529784
       -0.0000418600  -0.0000801659   0.0000409911  -0.0000531134   0.0000385203
       -0.0000095685  -0.0000043066  -0.0000258864   0.0000131075   0.0000016325
        0.0000158358   0.0000021822   0.0000195320  -0.0000220540   0.0000019195
       -0.0000016614   0.0000051234  -0.0000046250   0.0000056297   0.0000002914
       -0.0000042130   0.0000014926   0.0000048422   0.0000000909   0.0000019387
        0.0000089004   0.0000050306  -0.0000015707   0.0000007796   0.0000060579
       -0.0000014170  -0.0000003464  -0.0000018716  -0.0000026429   0.0000037337
        0.0000011588  -0.0000004443   0.0000021547   0.0000018987  -0.0000021923
       -0.0000077237   0.0000147791   0.0000030224  -0.0000002324  -0.0000318663
       -0.0000108786  -0.0000491561   0.0000208760  -0.0000122135   0.0000300083
       -0.0000040266   0.0000082851   0.0000154663   0.0000253559  -0.0000024481
        0.0000480041  -0.0000574029   0.0000034318  -0.0000497218  -0.0000298536
       -0.0000278477   0.0000451617   0.0000348632   0.0000165361  -0.0000425678
       -0.0000298039  -0.0000136994   0.0000322909   0.0000011778   0.0000078166
        0.0000206324  -0.0000057906  -0.0000014105   0.0001008819   0.0004103006
        0.0000895469   0.0000039232  -0.0000243107  -0.0000086449   0.0000112805
        0.0000226775  -0.0000052230   0.0000078780  -0.0000294488   0.0000118425
       -0.0000010849   0.0000131065  -0.0000001880  -0.0000051004  -0.0000176722
       -0.0000120572  -0.0000079277   0.0000126298  -0.0000078267   0.0003045556
        0.0007797543  -0.0001308091  -0.0001911536  -0.0000921933  -0.0000006057
        0.0000364821  -0.0002307923  -0.0000460514   0.0000991736   0.0000621484
        0.0000130915   0.0000312562  -0.0000767138   0.0001297403  -0.0001224064
        0.0000007153  -0.0001390105   0.0000650089   0.0002421536  -0.0000230203
        0.0119354535   0.0414666177  -0.0072858943   0.0020338852  -0.1000974956
        0.0082030102   0.1243697912  -0.1915071096   0.0216581579  -0.0040652307
       -0.0060477232   0.0009481807   0.0033383499  -0.0026038073   0.0017120357
       -0.0000032711   0.0000094029   0.0000046912   0.0000012934  -0.0000028822
        0.0000045475  -0.0000008771  -0.0000007689   0.0000009379  -0.0000029789
        0.0000030452  -0.0000028329  -0.0000014216   0.0000026577   0.0000000481
       -0.0000000789  -0.0000025113   0.0000004182   0.0000010157   0.0000026607
       -0.0000032449  -0.0000067839  -0.0000061774   0.0000002873  -0.0000028154
        0.0000006441   0.0000003714   0.0000035253   0.0000049717   0.0000019290
        0.0000054283   0.0000030567  -0.0000017870   0.0000012656  -0.0000012662
        0.0000011712  -0.0000007577  -0.0000003696   0.0000017026   0.0000028071
        0.0000068792   0.0000007727  -0.0000011032   0.0000075403   0.0000170582
        0.0000264262   0.0000060359  -0.0000429547   0.0000141652   0.0000132202
        0.0000122497  -0.0000061622   0.0000159446   0.0000033312  -0.0000023614
        0.0000019539   0.0000022635   0.0000030824   0.0000018344  -0.0000000379
        0.0000010380   0.0000108175   0.0000243441   0.0000042433   0.0000038368
       -0.0000013745   0.0000002226  -0.0000068887  -0.0000007452  -0.0000013045
        0.0000010630   0.0000022156  -0.0000021360   0.0000057464  -0.0000138510
        0.0000425307  -0.0001277361   0.0000448985  -0.0000127193  -0.0000395600
       -0.0000399711  -0.0000196791   0.0000008703   0.0000078037   0.0000048102
       -0.0000139512  -0.0000149973  -0.0000061969   0.0000135676  -0.0000497792
        0.0036978317  -0.0026681952   0.0017282183  -0.0281971137  -0.0072012911
        0.0026433836
       -0.0213291963  -0.0924662704   0.1321579316   0.0239921836   0.0446708005
       -0.0568461518  -0.0116417402   0.0118268081  -0.0005010489   0.0076047627
        0.0041647732  -0.0074171256  -0.0002365439   0.0003671737  -0.0002082790
        0.0001880002  -0.0001055948   0.0000201304  -0.0000384668   0.0001013010
        0.0000067851   0.0000174344  -0.0000072648   0.0000125191  -0.0000091701
        0.0000029069   0.0000005962   0.0000049503  -0.0000037185  -0.0000006439
       -0.0000028476  -0.0000016693  -0.0000047726   0.0000077702   0.0000008732
        0.0000031674   0.0000012679  -0.0000004741  -0.0000026835  -0.0000003481
        0.0000004065   0.0000001810  -0.0000004498   0.0000004989  -0.0000006579
        0.0000002441   0.0000016753   0.0000003597  -0.0000008496  -0.0000023952
        0.0000001978   0.0000005879  -0.0000038343   0.0000000181  -0.0000017213
        0.0000009736   0.0000008075   0.0000008661   0.0000017323   0.0000015905
        0.0000019099  -0.0000051574  -0.0000007669   0.0000016593   0.0000036304
        0.0000007783   0.0000148067   0.0000008938   0.0000064389  -0.0000109100
       -0.0000031900  -0.0000050773  -0.0000064130  -0.0000072897   0.0000020620
       -0.0000066942   0.0000172569   0.0000130241   0.0000007528   0.0000018590
        0.0000055191  -0.0000149028  -0.0000017098  -0.0000028316   0.0000099098
        0.0000112061   0.0000045174  -0.0000071837  -0.0000009046  -0.0000011305
       -0.0000054762  -0.0000011284   0.0000024218  -0.0000071963  -0.0001044223
       -0.0000022730  -0.0000039167   0.0000056986   0.0000036751  -0.0000035382
       -0.0000043822   0.0000004848  -0.0000015795   0.0000049447  -0.0000022008
        0.0000001113  -0.0000030291  -0.0000009441   0.0000015788   0.0000022298
        0.0000032097   0.0000013143  -0.0000039209   0.0000009003  -0.0000687819
       -0.0001021513   0.0000296510   0.0000198460   0.0000836519   0.0000294246
        0.0000073566   0.0001341383   0.0000164912  -0.0000711590  -0.0000288048
       -0.0000024566  -0.0000099398   0.0000304862  -0.0000475790   0.0000532099
        0.0000071426   0.0000503352  -0.0000423902  -0.0000850988   0.0000186941
        0.0004475432  -0.0102304878   0.0030121481   0.0108797471   0.0122665375
       -0.0500351517  -0.0162441368   0.0216709650  -0.0366257294   0.0015163787
        0.0027885345   0.0002602188   0.0000576528   0.0017751414   0.0079026967
        0.0000011222  -0.0000002694  -0.0000003278  -0.0000004957   0.0000017108
       -0.0000002895   0.0000004531   0.0000010391   0.0000008352  -0.0000002686
        0.0000000252   0.0000000300  -0.0000008026  -0.0000002410   0.0000005246
        0.0000005366   0.0000004750   0.0000003467  -0.0000000497  -0.0000004759
        0.0000007109   0.0000007014   0.0000009897  -0.0000004550   0.0000001105
        0.0000001191   0.0000002810  -0.0000003862  -0.0000012304  -0.0000000091
       -0.0000004734   0.0000000767   0.0000002508   0.0000003008   0.0000004430
       -0.0000002467   0.0000001168   0.0000007168  -0.0000004645  -0.0000003670
       -0.0000011912  -0.0000018017   0.0000129311   0.0000003298  -0.0000037732
       -0.0000307963  -0.0000071436  -0.0000026560   0.0000018066   0.0000059308
       -0.0000007558   0.0000020600  -0.0000018976  -0.0000009559   0.0000020064
       -0.0000002027  -0.0000003083  -0.0000033128  -0.0000006743  -0.0000059272
        0.0000005591  -0.0000015036  -0.0000041375  -0.0000004962  -0.0000006184
        0.0000004669   0.0000001661   0.0000009652   0.0000005570   0.0000005263
       -0.0000008199   0.0000001199   0.0000011005  -0.0000005287   0.0000027743
       -0.0000179740   0.0000485985  -0.0000031120   0.0000068619   0.0000153756
        0.0000151164   0.0000061432   0.0000001960  -0.0000035699  -0.0000002162
        0.0000007313   0.0000038279   0.0000014565  -0.0000012981   0.0000098718
       -0.0003115161   0.0016465464   0.0078906230   0.0052619033   0.0015224842
        0.0002429824
       -0.1228447056  -0.1131697007   0.0239921836   0.6699124879  -0.0028587613
       -0.0300208254  -0.1931255406   0.1565986783  -0.0193301969  -0.0512483111
        0.0138186629   0.0004586361  -0.0034387246  -0.0029781986   0.0009816435
       -0.0015871858   0.0010030658  -0.0000398628  -0.0001417434  -0.0002424471
       -0.0002145087  -0.0000801264   0.0001202543  -0.0000901661  -0.0000186044
        0.0000291912   0.0000025861   0.0000284643   0.0000111540   0.0000477738
       -0.0001848677   0.0000021615  -0.0000548503   0.0001995727  -0.0000099082
        0.0000502894  -0.0000467716   0.0000349512   0.0000177171  -0.0000012862
        0.0000007725  -0.0000099654  -0.0000086788  -0.0000045529  -0.0000013258
       -0.0000127741  -0.0000118081   0.0000063463  -0.0000032170  -0.0000102644
       -0.0000017003  -0.0000079164   0.0000071053   0.0000007005  -0.0000004859
        0.0000049194  -0.0000015574  -0.0000029601  -0.0000053930  -0.0000062784
        0.0000055884   0.0000054924  -0.0000005030   0.0000036597   0.0000242864
        0.0000173334   0.0000234270  -0.0000119929  -0.0000204068   0.0000041120
        0.0000010420   0.0000129402  -0.0000016986  -0.0000785506  -0.0000152447
        0.0000523955   0.0000252590   0.0000330891  -0.0000416740  -0.0000063348
       -0.0000266089  -0.0000237854  -0.0000308945  -0.0000228498   0.0000459527
        0.0000412241   0.0000181428  -0.0000024394  -0.0000206329  -0.0000332303
        0.0000073269  -0.0000532781  -0.0000410092   0.0005616428  -0.0002227522
        0.0001090109  -0.0000225997   0.0001599425   0.0000165220   0.0000061175
       -0.0000442584  -0.0000324859   0.0000073893   0.0000075517   0.0000304023
       -0.0000039155   0.0000280153   0.0000032054  -0.0000098242   0.0000305380
       -0.0000307407   0.0000201366  -0.0000598324   0.0000054992  -0.0002286633
        0.0005583527  -0.0002945380  -0.0001141013  -0.0001261118  -0.0000027525
        0.0001314531  -0.0001229710  -0.0002466792   0.0001713619   0.0000484816
        0.0001209159   0.0000118923  -0.0000634757   0.0001260880  -0.0000677572
        0.0000134447  -0.0001136735   0.0000328722   0.0001418434  -0.0000594899
        0.0013675249   0.0102512712  -0.0019794939  -0.0156380977  -0.0325188775
        0.0061999312   0.0054333574   0.0180273438  -0.0033213262  -0.2896224070
       -0.0402429894   0.0215949054   0.0057663928  -0.0068820690   0.0011702260
       -0.0000112063  -0.0000095335  -0.0000095419   0.0000055586  -0.0000054915
       -0.0000027076   0.0000009098   0.0000008886   0.0000026381   0.0000063418
       -0.0000053873   0.0000015827   0.0000107437   0.0000008526  -0.0000038862
        0.0000000183   0.0000046200   0.0000035285   0.0000037191   0.0000077873
        0.0000038482   0.0000125909  -0.0000023358   0.0000027725   0.0000092553
        0.0000011280   0.0000001420  -0.0000017099   0.0000008487  -0.0000051988
        0.0000000847  -0.0000010800   0.0000039063  -0.0000018658  -0.0000004622
       -0.0000001620  -0.0000016938   0.0000028609   0.0000015581   0.0000119672
       -0.0000086911   0.0000104842   0.0000243825   0.0000365604   0.0000068848
       -0.0001062220  -0.0000113245  -0.0000295131  -0.0000078441   0.0000075998
        0.0000236073  -0.0000057917   0.0000110134   0.0000031142   0.0000158897
        0.0000107713   0.0000101796   0.0000025313   0.0000286427   0.0000345793
       -0.0000202198   0.0000081966   0.0000142413  -0.0000044151  -0.0000016076
       -0.0000087498   0.0000038568  -0.0000126895   0.0000001660   0.0000060792
       -0.0000079433   0.0000105967  -0.0000033064  -0.0000013208  -0.0000028791
       -0.0000918139  -0.0000064549   0.0001518301  -0.0000202818   0.0000007237
       -0.0000541475  -0.0000479309  -0.0000419230  -0.0000115890  -0.0000151812
       -0.0000402526   0.0000079140  -0.0000105801  -0.0000101579   0.0000009450
        0.0008451660   0.0003036869   0.0000117796  -0.0058712975  -0.0014784750
        0.0008182580
       -0.0347057559  -0.2927861667   0.0446708005  -0.0028587613   0.6382761323
       -0.0925573010   0.0796098106  -0.2345912746   0.0284924071   0.0698288453
        0.0379255564  -0.0098245348  -0.0044369467   0.0048101050   0.0013297765
        0.0013522488  -0.0003129634   0.0001320964  -0.0001168494   0.0007613803
       -0.0001459703   0.0000966212  -0.0000488216   0.0000388522  -0.0000155293
       -0.0000138625   0.0000079284   0.0000073042  -0.0000215181  -0.0000155936
        0.0000818675  -0.0000081022   0.0000018074  -0.0000710780   0.0000053426
       -0.0000221281   0.0000133749  -0.0000120092  -0.0000173064   0.0000007581
        0.0000028961   0.0000031569  -0.0000006161   0.0000026349  -0.0000003734
        0.0000031382   0.0000046383   0.0000003066  -0.0000041418   0.0000009224
        0.0000019675   0.0000063741  -0.0000082602  -0.0000001862  -0.0000048524
        0.0000023188   0.0000025514  -0.0000013400   0.0000064214   0.0000060701
       -0.0000005460  -0.0000138943  -0.0000025081  -0.0000016451   0.0000140426
        0.0000037391   0.0000307750  -0.0000173784   0.0000178093  -0.0000301374
        0.0000122757  -0.0000106563  -0.0000059679  -0.0000065952  -0.0000191339
       -0.0000662710   0.0000480275  -0.0000329871   0.0000566614   0.0000236205
        0.0000335428  -0.0000107728  -0.0000099073  -0.0000025781   0.0000054954
        0.0000049425   0.0000016417  -0.0000240736   0.0000082027   0.0000110437
       -0.0000123522   0.0000365197   0.0000341892  -0.0002429327  -0.0003795801
       -0.0001681044  -0.0000331338   0.0000268789   0.0000040198  -0.0000126764
       -0.0000213636   0.0000045677  -0.0000085928   0.0000341924  -0.0000245780
        0.0000042030  -0.0000337016   0.0000018778   0.0000178315   0.0000060106
        0.0000242175   0.0000075800   0.0000072835  -0.0000015514  -0.0008375188
       -0.0016619666   0.0000472859   0.0003944182   0.0002216222   0.0000880033
       -0.0001998531   0.0000409205   0.0001776385   0.0000135830   0.0000335567
        0.0000116205  -0.0000128091   0.0000741167  -0.0001104782   0.0001723048
        0.0000390660   0.0001159963   0.0000036966  -0.0002529774  -0.0001410909
        0.0127542451  -0.0606137221   0.0089662177  -0.0908029930   0.0083406981
        0.0034430117  -0.0058801808  -0.0248307934   0.0047264950  -0.0401575693
       -0.0503827076   0.0059951578   0.0167484335  -0.0253983523   0.0039767866
        0.0000023455   0.0000028931   0.0000066297   0.0000011114   0.0000068218
       -0.0000032569  -0.0000003840  -0.0000006756  -0.0000020073   0.0000023538
       -0.0000019722   0.0000027279  -0.0000042737  -0.0000032064   0.0000002256
        0.0000014543   0.0000007366  -0.0000021161   0.0000012926  -0.0000055325
        0.0000011387  -0.0000019415   0.0000026855  -0.0000013554  -0.0000031426
       -0.0000008748  -0.0000012679  -0.0000022097  -0.0000059542  -0.0000000463
       -0.0000044754  -0.0000020058  -0.0000000137   0.0000022507   0.0000006649
       -0.0000009012  -0.0000004553  -0.0000001448  -0.0000010683  -0.0000052672
       -0.0000101500  -0.0000026200  -0.0000126647  -0.0000505882  -0.0000120869
        0.0000402240   0.0000055218   0.0000848478   0.0000006380  -0.0000166118
       -0.0000098033   0.0000038506  -0.0000175405  -0.0000017766   0.0000038151
       -0.0000078918  -0.0000046602  -0.0000115370  -0.0000304014  -0.0000364094
        0.0000031572  -0.0000195393  -0.0000025531   0.0000008308  -0.0000102135
        0.0000084606  -0.0000006626   0.0000085539   0.0000025881   0.0000015174
       -0.0000054067  -0.0000059980   0.0000004767  -0.0000088950   0.0000076126
        0.0000661832   0.0000270140  -0.0001639927  -0.0000196086   0.0000139457
        0.0000034699   0.0000347661   0.0000057705  -0.0000222889  -0.0000185701
        0.0000296592  -0.0000077136  -0.0000090765   0.0000055600  -0.0000192063
        0.0001400158  -0.0005116320  -0.0001854165  -0.0008656881   0.0012550026
        0.0010933348
        0.0105007465   0.0493196691  -0.0568461518  -0.0300208254  -0.0925573010
        0.1341320475  -0.0060731121   0.0252976541  -0.0502611306  -0.0093393420
       -0.0079896159   0.0022386509   0.0010686556   0.0012765218   0.0068416718
        0.0005787972  -0.0008854065   0.0005880782   0.0002762395   0.0003687551
       -0.0002954006   0.0001077771  -0.0000525780  -0.0000727697   0.0000145201
        0.0000116901   0.0000152994   0.0000006258  -0.0000127979  -0.0000043204
        0.0000261157   0.0000019465   0.0000122202  -0.0000336746   0.0000043646
       -0.0000095913   0.0000097077  -0.0000072232  -0.0000020937  -0.0000012369
       -0.0000000454   0.0000022301   0.0000022726   0.0000005743  -0.0000009899
        0.0000024818   0.0000030224  -0.0000007210  -0.0000002487  -0.0000006020
       -0.0000001026  -0.0000001449  -0.0000038712   0.0000000242  -0.0000001656
        0.0000005698   0.0000008661   0.0000012107   0.0000025195   0.0000018187
        0.0000012167  -0.0000017318   0.0000003144   0.0000012330  -0.0000047540
       -0.0000046158   0.0000033754   0.0000063946   0.0000073095  -0.0000018534
       -0.0000058106  -0.0000029226   0.0000066153   0.0000026531   0.0000078553
       -0.0000098341   0.0000092668   0.0000022705  -0.0000082891  -0.0000120481
       -0.0000009782   0.0000066344  -0.0000004483   0.0000042233   0.0000004899
       -0.0000011489   0.0000004431   0.0000036255   0.0000001273   0.0000092566
       -0.0000167437  -0.0000182824  -0.0000125315  -0.0002251393   0.0002534417
       -0.0003646659   0.0000116930  -0.0000115431  -0.0000993858  -0.0000038697
       -0.0000005032  -0.0000024368  -0.0000022501  -0.0000105740   0.0000002612
       -0.0000014041  -0.0000001994  -0.0000064126  -0.0000077358   0.0000058439
       -0.0000029167  -0.0000043956   0.0000355695   0.0000070362  -0.0002488647
        0.0003828952   0.0002479226  -0.0001764889  -0.0000747091  -0.0000158826
        0.0000069344  -0.0001174465  -0.0002500035   0.0000692596   0.0000785882
       -0.0000359773  -0.0000065446  -0.0000758014   0.0001014348  -0.0000999165
       -0.0000147435  -0.0001021190   0.0000475166   0.0001171101   0.0000469072
       -0.0025688153   0.0091502547  -0.0071006597   0.0164062691   0.0002683725
        0.0002847472   0.0007725085   0.0035355687  -0.0000779590   0.0215708332
        0.0053059590  -0.0367514360  -0.0033386101   0.0052038347   0.0000860690
        0.0000031625  -0.0000004876  -0.0000022950   0.0000011746   0.0000011090
        0.0000006913   0.0000003772   0.0000008199   0.0000004073  -0.0000024183
        0.0000016751  -0.0000008530  -0.0000025667   0.0000002951   0.0000014130
        0.0000006069  -0.0000004689   0.0000003501  -0.0000008517  -0.0000004228
        0.0000000573  -0.0000017770   0.0000009803  -0.0000004954  -0.0000012080
        0.0000004237   0.0000005618   0.0000007955   0.0000003677   0.0000008590
        0.0000007952   0.0000010347  -0.0000005500   0.0000001227   0.0000003805
       -0.0000002052  -0.0000000762  -0.0000003943  -0.0000007978   0.0000004567
        0.0000036441  -0.0000036632   0.0000007433   0.0000074230   0.0000007667
       -0.0000163829  -0.0000038705  -0.0000060181  -0.0000082583   0.0000086814
        0.0000008422  -0.0000000862   0.0000001859  -0.0000012259  -0.0000014684
        0.0000002561  -0.0000006460  -0.0000011350   0.0000018724  -0.0000009653
       -0.0000032664   0.0000009335  -0.0000046975  -0.0000008078   0.0000043927
        0.0000017123   0.0000004370   0.0000017587  -0.0000001182  -0.0000015714
        0.0000051318  -0.0000001803   0.0000016656   0.0000034688   0.0000025220
       -0.0000176920  -0.0000310135   0.0000273214   0.0000354443   0.0000004772
        0.0000356842  -0.0000027619   0.0000069745   0.0000132142   0.0000180763
       -0.0000125027   0.0000028538   0.0000087509  -0.0000050030   0.0000123363
       -0.0000593934   0.0000297662  -0.0001568995   0.0007412634   0.0011881295
        0.0077632341
        0.0545109999   0.0501375990  -0.0116417402  -0.1931255406   0.0796098106
       -0.0060731121   0.6419625558  -0.0090745916  -0.0309797941  -0.2997806332
       -0.0089684654   0.0165252574  -0.0347895548   0.0138879324  -0.0003067810
        0.0025749239   0.0016998389   0.0007904351  -0.0018347834   0.0026172123
       -0.0007631909   0.0000904170   0.0001009209   0.0000683819  -0.0000840412
       -0.0000211641   0.0000002550  -0.0000554537  -0.0000128144  -0.0000383730
        0.0001597161  -0.0000007828   0.0000454078  -0.0001657871   0.0000004367
       -0.0000516406   0.0000417625  -0.0000229803  -0.0000091496  -0.0000052266
        0.0000005036   0.0000119291   0.0000096631   0.0000029542  -0.0000032822
        0.0000089728   0.0000115013  -0.0000015741   0.0000022960   0.0000046126
        0.0000015057   0.0000037553  -0.0000094298   0.0000012115   0.0000030046
       -0.0000002478   0.0000048039   0.0000065261   0.0000293382   0.0000152959
       -0.0000172655  -0.0000158887  -0.0000042810   0.0000061833   0.0000138397
       -0.0000139668   0.0000535616  -0.0000139555   0.0000318185  -0.0000087645
       -0.0000070701  -0.0000039165   0.0000568653  -0.0000192882  -0.0000086050
       -0.0001457414   0.0001903992  -0.0001198349   0.0000804227  -0.0000762541
       -0.0000001054   0.0000187406  -0.0000135231   0.0000238725   0.0000073977
       -0.0000155081  -0.0000009642  -0.0000160107   0.0000087308   0.0000332674
       -0.0000241381   0.0000723505   0.0000446540  -0.0010376606  -0.0015452131
       -0.0007760158   0.0000131060   0.0000573099  -0.0000478438  -0.0000348007
       -0.0000761045  -0.0000325932  -0.0000151818   0.0000320797  -0.0000255556
        0.0000070272  -0.0000281225   0.0000048430   0.0000002991   0.0000233232
        0.0000162412   0.0000484694  -0.0000042191   0.0000318718  -0.0001492619
       -0.0055386234   0.0005984810   0.0006001793   0.0006796905   0.0001605191
       -0.0001474904   0.0006899709   0.0000330044  -0.0002846898  -0.0000649533
        0.0000557445  -0.0000923215   0.0000493711  -0.0001407604   0.0001228082
        0.0000333354   0.0001770598  -0.0002963610  -0.0005329879   0.0002156258
       -0.0133353464  -0.0810296854   0.0158208219  -0.0556550801   0.0210160282
       -0.0009360416   0.0003895443  -0.0024709400   0.0007917168  -0.0235271845
        0.0225632592  -0.0023035115  -0.0758450406  -0.0826490681   0.0183070584
        0.0000214299  -0.0000315567  -0.0000266184  -0.0000114802   0.0000016465
       -0.0000047661  -0.0000003249   0.0000014473  -0.0000052663  -0.0000088217
        0.0000038131  -0.0000000924  -0.0000115771  -0.0000011774   0.0000053277
        0.0000000041  -0.0000044695   0.0000012635  -0.0000051481  -0.0000034860
        0.0000003418  -0.0000102692   0.0000043678  -0.0000039185  -0.0000045249
        0.0000002497  -0.0000000219   0.0000026105   0.0000022870   0.0000052874
        0.0000068923   0.0000013341  -0.0000018796   0.0000062252  -0.0000051632
       -0.0000009356  -0.0000030468  -0.0000131319  -0.0000048432  -0.0000042131
        0.0000182674  -0.0000160284   0.0000006423  -0.0000497547  -0.0000117621
       -0.0000025203  -0.0000938425   0.0001469293  -0.0000069911   0.0000435490
       -0.0000197808   0.0000200054  -0.0000392144  -0.0000089288  -0.0000229047
       -0.0000068527  -0.0000099509  -0.0000417459   0.0000039309  -0.0000195328
        0.0000104270   0.0000049393  -0.0000475666   0.0000049394   0.0000082763
       -0.0000019348  -0.0000023740   0.0000080183   0.0000005256  -0.0000055374
        0.0000104730   0.0000005703   0.0000120538   0.0000082740   0.0000463565
        0.0001008417   0.0003002558   0.0003223724   0.0000456187  -0.0000169795
        0.0000125800   0.0000299143  -0.0000153981   0.0000060524   0.0000279357
        0.0000035326   0.0000077293   0.0000159725  -0.0000357163   0.0000545828
       -0.0000654439  -0.0019086110   0.0003496593  -0.0004044269   0.0004802238
       -0.0003042006
       -0.0088882078  -0.0633704556   0.0118268081   0.1565986783  -0.2345912746
        0.0252976541  -0.0090745916   0.6565302748  -0.0985599582  -0.0698603634
       -0.0954059636   0.0116464411   0.0224356854   0.0031618913  -0.0013674184
        0.0017900695  -0.0029459335  -0.0001872235   0.0014364944  -0.0009197806
        0.0007692405  -0.0001441117  -0.0003100871  -0.0000078799   0.0000814613
        0.0000386631   0.0000406718   0.0000631456   0.0000400872   0.0000455739
       -0.0002829212  -0.0000245090  -0.0001084421   0.0003059596  -0.0000256368
        0.0000934411  -0.0000685560   0.0000563092   0.0000197461   0.0000040662
       -0.0000037549  -0.0000148357  -0.0000100138  -0.0000040796   0.0000023933
       -0.0000072534  -0.0000101246   0.0000091523  -0.0000101359  -0.0000078982
       -0.0000036563  -0.0000037234   0.0000077953  -0.0000035795   0.0000028704
        0.0000056522  -0.0000020496   0.0000017063   0.0000090030  -0.0000054395
       -0.0000147574   0.0000074538  -0.0000034481   0.0000009615   0.0000242876
        0.0000259477   0.0000120467  -0.0000225729  -0.0000521658  -0.0000093074
        0.0000081765   0.0000270252  -0.0000319592  -0.0001150943  -0.0000351653
        0.0000031222   0.0000689928   0.0000181950   0.0000112839   0.0000324002
       -0.0000064947  -0.0000312295   0.0000045783  -0.0000136853   0.0000145713
        0.0000416112   0.0000070261   0.0000149003  -0.0000336752  -0.0000618934
        0.0000530992  -0.0000611267  -0.0000288001   0.0008986621  -0.0004060199
        0.0005729011  -0.0000157107   0.0003860896   0.0000357831  -0.0000158053
       -0.0001008566   0.0000058849  -0.0000090787   0.0000098950   0.0000203612
       -0.0000039761   0.0000035133  -0.0000032628  -0.0000094192   0.0000295267
       -0.0000142094   0.0000221371  -0.0001343389   0.0000123670   0.0006695913
        0.0012740044  -0.0003134509   0.0005722180  -0.0011814860  -0.0001740854