$hessian                                                                        
        0.6433139686  -0.0237031058  -0.0515800746  -0.1160769694  -0.0264998300
        0.0125103461   0.0450976722  -0.0066571846  -0.0055880399  -0.0217110512
       -0.0340378689   0.0054992037  -0.0072625722   0.0045332850  -0.0008808750
        0.0067739234  -0.0038481961  -0.0007351841  -0.0083596484   0.0027259186
       -0.0013770533   0.0065426984   0.0000674840   0.0014963438  -0.0030086176
        0.0025159983   0.0001912625   0.0014521105   0.0009627291   0.0003700848
       -0.0005293905   0.0003338799   0.0000862878  -0.0008338700  -0.0000578433
       -0.0001010185   0.0001777840  -0.0000740191   0.0000590050  -0.0000573127
        0.0000165801   0.0000286732  -0.0000127841  -0.0000556302   0.0000266472
       -0.0000905138  -0.0001069455   0.0000163378   0.0000208234   0.0000129361
       -0.0000234658  -0.0000035786  -0.0000154672   0.0000372063   0.0000216885
        0.0000429133  -0.0001035045  -0.0000796658   0.0001145822  -0.0000417140
        0.0000052835   0.0000492736  -0.0000478775   0.0000161252   0.0000236692
       -0.0000813801   0.0001598244  -0.0000015776   0.0001374656  -0.0001209970
       -0.0001158168  -0.0001122068  -0.0000443166   0.0000291794  -0.0000151752
        0.0001191683   0.0000174044  -0.0000417393  -0.0000237069  -0.0000765741
        0.0000003936  -0.0000280153  -0.0000797691  -0.0000474522  -0.0000125947
        0.0000929189  -0.0000741208   0.0020068856  -0.0008914791  -0.0001278037
       -0.0021961754  -0.0026046776  -0.0008021392   0.0025508369   0.0018863637
        0.0012651346   0.0002594904  -0.0007797233   0.0001461651   0.0001960016
        0.0004578402   0.0002317673   0.0001781341  -0.0002296328   0.0001657342
       -0.0000974020   0.0001263409  -0.0000597333   0.0000617336  -0.0001543711
       -0.0001161633  -0.0004501353   0.0002698533  -0.0003364860  -0.0020639444
       -0.0019602180  -0.0004955992   0.0012774619   0.0004377229   0.0008957131
       -0.0003096951   0.0013157273  -0.0001134684  -0.0005112093  -0.0006745530
        0.0001933913  -0.0002564257   0.0007516777  -0.0005680081   0.0006954320
       -0.0001264477   0.0005192537  -0.0002541895  -0.0004748263  -0.0002691968
       -0.0583341917   0.0675350423  -0.0011730082  -0.3035108511  -0.0833669059
        0.0366522129  -0.1582223694   0.1275640474  -0.0046594594  -0.0120749467
       -0.0279698443   0.0051629518  -0.0018788239   0.0040080798   0.0010545813
        0.0000586460  -0.0000811042   0.0000713780  -0.0000773530  -0.0000160646
        0.0000502769  -0.0000686834   0.0000997719  -0.0000536495  -0.0000635725
        0.0000082865  -0.0000003053  -0.0000413154  -0.0000355781  -0.0000609634
       -0.0000262748  -0.0000545019   0.0000016058   0.0000189614   0.0000089750
       -0.0000249394   0.0000180053  -0.0001200955   0.0001124731   0.0000507287
       -0.0000611921  -0.0000683907  -0.0000148223  -0.0000465703   0.0000437062
        0.0000046411   0.0000359004   0.0000285972  -0.0000377739  -0.0000129119
        0.0000079246   0.0001041821   0.0000220148  -0.0000448905   0.0000178419
        0.0000157492  -0.0000093128   0.0000981332  -0.0000081143   0.0000199083
       -0.0000237574   0.0000524421  -0.0000890486  -0.0000389707   0.0000844328
       -0.0000217150   0.0001077925   0.0000838333   0.0000172717  -0.0001037924
        0.0000117755  -0.0000665021   0.0000202657   0.0000607063  -0.0000491600
        0.0000578992  -0.0001204632   0.0000629258   0.0000124528  -0.0000497701
        0.0000730784  -0.0000419682   0.0000057836   0.0000438475   0.0000034792
        0.0000734542  -0.0000713331   0.0000374723   0.0000507156   0.0000971402
        0.0001204875  -0.0002254960  -0.0000823651  -0.0000738640   0.0001284101
        0.0000503823   0.0000387598  -0.0001693467  -0.0001302457  -0.0000109989
        0.0000025675   0.0001430425   0.0000758387  -0.0001512793   0.0000436766
       -0.0017376229   0.0035317196   0.0008533358  -0.0109958997  -0.0044529904
        0.0018780350
       -0.0237031058   0.6469118429  -0.0730285186  -0.1057515625  -0.2919390848
        0.0481582363   0.0541035785  -0.0661160010   0.0039437290  -0.0321845929
       -0.0167750365   0.0043059890   0.0045168892  -0.0033556281   0.0004601569
       -0.0041586226   0.0022932258  -0.0001043791   0.0038264608  -0.0017957587
        0.0008480794  -0.0027354971  -0.0000399343  -0.0006909074   0.0012445097
       -0.0010137467  -0.0001128790  -0.0006147867  -0.0003505940  -0.0001176663
        0.0002588010  -0.0000600463  -0.0000356802   0.0001943417  -0.0000062717
       -0.0000035320  -0.0000828568  -0.0000004430  -0.0000417923   0.0000330841
       -0.0000027342  -0.0000191914   0.0000073187   0.0000465396  -0.0000231611
        0.0000683697   0.0000834138  -0.0000167363  -0.0000091174  -0.0000106777
        0.0000173183   0.0000145469   0.0000144025  -0.0000181689  -0.0000168726
       -0.0000411653   0.0000807850   0.0000588011  -0.0000831206   0.0000414757
        0.0000006308  -0.0000364811   0.0000338260  -0.0000275816  -0.0000169409
        0.0000477933  -0.0001098985  -0.0000060890  -0.0000773929   0.0000919850
        0.0000557713   0.0000613546   0.0000420132   0.0000144121   0.0000124914
       -0.0000410278  -0.0000536324   0.0000334060  -0.0000383925   0.0000478447
       -0.0000101368   0.0000564184   0.0000695356   0.0000513385   0.0000200497
       -0.0000664215   0.0000512065  -0.0007532261   0.0003133023   0.0000789715
        0.0009024642   0.0010881869   0.0003316062  -0.0012169719  -0.0003821150
       -0.0007474848  -0.0001166361   0.0000697917  -0.0000838798  -0.0000360849
       -0.0001158999  -0.0000395343  -0.0000579129   0.0000669976  -0.0000787433
        0.0000589233   0.0000084872   0.0000828909  -0.0000365303  -0.0000542326
        0.0000105134   0.0001410468  -0.0000611388   0.0001169714   0.0008196911
        0.0009203755   0.0003242008   0.0000635868  -0.0004612016   0.0001001347
        0.0001657303   0.0006809454  -0.0000689822  -0.0005165181  -0.0006563789
        0.0001994864  -0.0000766669   0.0006931928  -0.0004480055   0.0003528614
       -0.0000590005   0.0003497172  -0.0001739603   0.0002244979  -0.0000982508
        0.0075069543   0.0389122307  -0.0059312236  -0.0043797735  -0.1022677117
        0.0069345168   0.1276217946  -0.1860208104   0.0077289655  -0.0043911475
       -0.0072472730   0.0008380613   0.0036089468  -0.0025443155   0.0012641125
       -0.0000587345   0.0000528690  -0.0000344765   0.0000486364   0.0000190260
       -0.0000232998   0.0000535647  -0.0000679364   0.0000290919   0.0000392941
       -0.0000017351  -0.0000069618   0.0000216873   0.0000294977   0.0000511342
        0.0000228909   0.0000375299  -0.0000069214  -0.0000213254  -0.0000108339
        0.0000179021  -0.0000110629   0.0000987862  -0.0000875157  -0.0000436605
        0.0000499863   0.0000528251   0.0000100699   0.0000254455  -0.0000286104
       -0.0000122038  -0.0000251435  -0.0000203270   0.0000230872   0.0000138717
       -0.0000045588  -0.0000812921  -0.0000204214   0.0000304741  -0.0000120811
       -0.0000048916  -0.0000101401  -0.0000780899   0.0000210809  -0.0000118275
        0.0000255068   0.0000165628   0.0000216576   0.0000113304  -0.0000719909
        0.0000213088  -0.0000888731  -0.0000608823  -0.0000227989   0.0000747692
       -0.0000052580   0.0000272429  -0.0000047729   0.0000020979   0.0000353396
       -0.0000470073   0.0000940092  -0.0000153053  -0.0000188516   0.0000432107
       -0.0000358341   0.0000248613   0.0000065294  -0.0000296078  -0.0000031339
       -0.0000481107   0.0000470562  -0.0000331579  -0.0000436702  -0.0000685902
        0.0000406275  -0.0002973939  -0.0000595687  -0.0000127011  -0.0001195070
       -0.0000214446   0.0000300053   0.0000788715   0.0000231009  -0.0000199762
        0.0000209846  -0.0000806984  -0.0000987246   0.0001372622  -0.0000217825
        0.0038301986  -0.0026743521   0.0014186444  -0.0281613359  -0.0081706054
        0.0041034043
       -0.0515800746  -0.0730285186   0.1299343981   0.0235390839   0.0374856453
       -0.0557120146  -0.0129341067   0.0105975782   0.0011817601   0.0061302268
        0.0047991949  -0.0076172006   0.0001153212  -0.0000368169  -0.0002611314
       -0.0003033223   0.0002909694   0.0001052179   0.0005153719  -0.0002374562
        0.0000483689  -0.0005573904  -0.0000114785  -0.0000856094   0.0002189989
       -0.0003080213  -0.0000426846  -0.0000344089  -0.0000846083  -0.0000173601
       -0.0003097450  -0.0001488771  -0.0000954974   0.0005071782   0.0001272903
        0.0001637772   0.0000146543  -0.0000061126  -0.0000287700   0.0000139005
       -0.0000002983  -0.0000025385   0.0000092696   0.0000053081  -0.0000058255
        0.0000028631  -0.0000008629  -0.0000063003   0.0000034753  -0.0000008980
        0.0000000083  -0.0000017484  -0.0000074113  -0.0000034860  -0.0000000731
        0.0000050856  -0.0000040012   0.0000055866  -0.0000115145  -0.0000059989
        0.0000040354   0.0000028559   0.0000000328   0.0000165703  -0.0000220245
        0.0000028628   0.0000309036   0.0000409085  -0.0000076062  -0.0000343752
       -0.0000078005   0.0000028793  -0.0000062829   0.0000141948   0.0000011043
       -0.0000132606  -0.0000126822   0.0000152671  -0.0000127951  -0.0000005622
        0.0000031337  -0.0000244344   0.0000072160  -0.0000044308  -0.0000071805
        0.0000043503  -0.0000021773  -0.0001446120   0.0001281698   0.0000010966
        0.0001520541   0.0002697824   0.0001025786  -0.0001515189  -0.0002017168
       -0.0000772691   0.0000106715   0.0001060128  -0.0000061174  -0.0000204210
       -0.0000545053  -0.0000349561  -0.0000324008   0.0000402561  -0.0000228092
        0.0000076919  -0.0000361040   0.0000071751  -0.0000014281   0.0000106216
        0.0000131784   0.0000280598  -0.0000227477   0.0000417251   0.0001495317
        0.0002733631   0.0000676817  -0.0003306720  -0.0000192325  -0.0001534703
        0.0001545045  -0.0002065174   0.0002454555   0.0000371330   0.0000431115
       -0.0000294642   0.0001643518  -0.0000786143   0.0001588672  -0.0001769347
        0.0000576590  -0.0001544705   0.0000888164   0.0001761948   0.0000105100
        0.0053452904  -0.0125206317   0.0022798852   0.0255899361   0.0161073976
       -0.0520970774  -0.0045397461   0.0078184438  -0.0340478092   0.0021944669
        0.0046490997   0.0001016503   0.0008124217   0.0012113753   0.0077924890
        0.0000070510   0.0000233396   0.0000110225  -0.0000097916   0.0000135343
        0.0000028960  -0.0000073709   0.0000057089  -0.0000006018  -0.0000028063
       -0.0000043042   0.0000005398  -0.0000008504   0.0000016080  -0.0000019132
       -0.0000031092  -0.0000005451   0.0000010623  -0.0000017212  -0.0000029459
        0.0000008380  -0.0000059174  -0.0000073794   0.0000053203  -0.0000018340
        0.0000003556   0.0000001743   0.0000003170  -0.0000013345   0.0000019525
       -0.0000001551   0.0000014313  -0.0000003077  -0.0000002351   0.0000009097
       -0.0000003513   0.0000050670   0.0000044636   0.0000001171  -0.0000059622
       -0.0000152881   0.0000123548   0.0000082149  -0.0000050131  -0.0000022631
       -0.0000094665  -0.0000135756  -0.0000224202   0.0000139934   0.0000124014
       -0.0000052658   0.0000061034   0.0000048192   0.0000007179  -0.0000053028
       -0.0000202909  -0.0000056341   0.0000087224  -0.0000389859  -0.0000160242
        0.0000075523  -0.0000074136  -0.0000033230   0.0000042716  -0.0000016355
        0.0000003836   0.0000008728   0.0000013261   0.0000010564   0.0000008680
        0.0000014746  -0.0000007809   0.0000072038   0.0000042598  -0.0000032506
       -0.0000313581   0.0001237016   0.0000289947   0.0000050564   0.0000237203
        0.0000001157  -0.0000207333  -0.0000028518   0.0000021206   0.0000038197
       -0.0000165331   0.0000029892   0.0000159948  -0.0000135677   0.0000174326
        0.0004325950   0.0010570230   0.0080758952   0.0049334726   0.0016655165
        0.0001411251
       -0.1160769694  -0.1057515625   0.0235390839   0.6643801815  -0.0070838013
       -0.0663174574  -0.2015816139   0.1601322185  -0.0035867981  -0.0531502765
        0.0125377823   0.0048424428  -0.0019404463  -0.0038422366   0.0018748604
       -0.0027809124   0.0017682407  -0.0001815421   0.0019803853  -0.0004028879
        0.0001109781  -0.0013378268   0.0000608354  -0.0003385618   0.0005188301
       -0.0003202125   0.0000963113  -0.0003206335  -0.0000475346  -0.0000438649
        0.0000360854  -0.0000702636   0.0000127748   0.0001821753  -0.0000577732
       -0.0000310454  -0.0001623512   0.0001696881   0.0000550448  -0.0000334446
       -0.0000284064  -0.0000059269  -0.0000085597  -0.0000274309   0.0000226972
       -0.0000224172  -0.0000214936   0.0000262696  -0.0000154104  -0.0000070669
       -0.0000054371  -0.0000454579   0.0000054775  -0.0000092811  -0.0000097028
        0.0000394937  -0.0000115832  -0.0000047119   0.0000448379  -0.0000154742
       -0.0000004978   0.0000104239  -0.0000083116  -0.0000190982   0.0000117482
        0.0000022581  -0.0000315414  -0.0000258673  -0.0000393366   0.0000369982
        0.0000086464   0.0000117622   0.0000594826  -0.0000183039   0.0000007270
        0.0000189251  -0.0000352017  -0.0000103801  -0.0000038438  -0.0000398746
       -0.0000210957   0.0000782749   0.0000087713  -0.0000046956  -0.0000536013
       -0.0000162365  -0.0000200455  -0.0002814019   0.0000245229  -0.0000507750
        0.0004153367   0.0003216999   0.0000823856  -0.0008164648  -0.0004530398
       -0.0004263962  -0.0001500682   0.0002675844  -0.0000149096   0.0000061057
       -0.0001476048  -0.0000448957  -0.0000304075   0.0000994330  -0.0000138225
        0.0000106546  -0.0000357339   0.0000142799  -0.0000164224   0.0001184601
       -0.0000097478   0.0000927610  -0.0000876671   0.0000653791   0.0006040071
        0.0003667148   0.0000500468  -0.0000778703  -0.0002888408  -0.0000710068
        0.0001465905   0.0001594504  -0.0002752544  -0.0000027625  -0.0001293007
        0.0001865620  -0.0001084389   0.0000829926  -0.0000485276   0.0001166433
        0.0000184885   0.0001082391  -0.0000196445   0.0000474241  -0.0000118770
        0.0004093695   0.0113262086  -0.0020609833  -0.0109132919  -0.0331504662
        0.0053613590   0.0049452396   0.0189678569  -0.0028192884  -0.2842362968
       -0.0476534594   0.0376783523   0.0051813950  -0.0054061808   0.0006462055
        0.0000106666  -0.0000236867  -0.0000266769   0.0000274620  -0.0000417117
       -0.0000186114  -0.0000045837  -0.0000070912   0.0000091992   0.0000142789
       -0.0000175926   0.0000162361   0.0000228869  -0.0000138368  -0.0000242309
       -0.0000052543   0.0000079144   0.0000149384   0.0000221526   0.0000271050
       -0.0000066793   0.0000056918  -0.0000358775   0.0000204450   0.0000240398
       -0.0000195789  -0.0000153809  -0.0000005782   0.0000178965  -0.0000125575
        0.0000248206  -0.0000010236   0.0000094782   0.0000058866  -0.0000226202
        0.0000035859   0.0000039709  -0.0000051627   0.0000025004   0.0000051663
        0.0000105094   0.0000233529   0.0000247644   0.0000184179   0.0000123964
       -0.0000596030   0.0000311505  -0.0000621336  -0.0000376986  -0.0000018723
        0.0000000011  -0.0000031253   0.0000158197   0.0000184314   0.0000056294
        0.0000522304   0.0000265250   0.0000262214   0.0000581682   0.0000418000
       -0.0000070766  -0.0000022434  -0.0000102530   0.0000142151  -0.0000188873
       -0.0000247749   0.0000062831  -0.0000320792   0.0000059525   0.0000126412
       -0.0000023772   0.0000078719   0.0000041264   0.0000109363   0.0000017596
       -0.0001300683   0.0000128265   0.0001333641  -0.0000345186   0.0000417098
       -0.0000734483  -0.0000356917  -0.0000812513  -0.0000649127  -0.0000034812
       -0.0000388601   0.0000134909   0.0000131001  -0.0000255754   0.0000015845
        0.0007067250   0.0003425736   0.0001510494  -0.0056261045  -0.0017064827
        0.0015359983
       -0.0264998300  -0.2919390848   0.0374856453  -0.0070838013   0.6326241387
       -0.0747488873   0.0813479343  -0.2264997700   0.0152827912   0.0650969957
        0.0277209882  -0.0097328089  -0.0123242340   0.0081798306   0.0006193530
        0.0099206366  -0.0050386887  -0.0001000618  -0.0094509118   0.0045374675
       -0.0021279565   0.0072826017  -0.0000764230   0.0017396590  -0.0032113575
        0.0026017714   0.0003317861   0.0015756567   0.0010753594   0.0004094381
       -0.0006351730   0.0002689283   0.0000206702  -0.0007378131  -0.0000413174
       -0.0000874412   0.0001517207  -0.0001035768   0.0000401595  -0.0000368835
        0.0000030926   0.0000103276   0.0000014312  -0.0000254095   0.0000103455
       -0.0000357657  -0.0000474691   0.0000049380   0.0000128159   0.0000052189
       -0.0000145809  -0.0000133263   0.0000026165   0.0000231119   0.0000056751
        0.0000149005  -0.0000444624  -0.0000209590   0.0000454006  -0.0000139437
       -0.0000078698   0.0000255669  -0.0000147973   0.0000179810   0.0000376463
       -0.0000492093   0.0001259660  -0.0000246654   0.0000652096  -0.0000753998
       -0.0000972542  -0.0000701639  -0.0000418881  -0.0000233835  -0.0000143369
        0.0000430584   0.0000173235  -0.0000528142  -0.0000170226   0.0000032543
       -0.0000141010  -0.0000183621  -0.0000269047  -0.0000197795   0.0000059973
        0.0001023579  -0.0000659158   0.0021009184  -0.0009588031  -0.0001035800
       -0.0022782981  -0.0027038263  -0.0008468385   0.0025209545   0.0012507894
        0.0013382495   0.0002588296  -0.0003959563   0.0001319915   0.0000534928
        0.0003071903   0.0000980029   0.0001392212  -0.0001932462   0.0001370339
       -0.0000809306   0.0000579059  -0.0001316712   0.0000473954  -0.0000501183
        0.0000034546  -0.0002682896   0.0001035136  -0.0002575641  -0.0025104328
       -0.0023675275  -0.0006302212   0.0004995778   0.0008364541  -0.0001061562
       -0.0004423237  -0.0010202223   0.0002404002   0.0007790013   0.0008762554
       -0.0001601185   0.0001376020  -0.0008411709   0.0005444083  -0.0004079835
        0.0001812869  -0.0004876375   0.0002389123  -0.0002288827  -0.0001351512
        0.0161562427  -0.0497879269   0.0052311845  -0.0873302495   0.0031663241
        0.0097744841  -0.0047297277  -0.0243354080   0.0041540863  -0.0473225713
       -0.0529493565   0.0102545199   0.0176676802  -0.0249166351   0.0016475210
        0.0000101671  -0.0000579474   0.0000351612  -0.0000161204   0.0000052338
        0.0000130453  -0.0000217432   0.0000460741  -0.0000303847  -0.0000245914
       -0.0000015464  -0.0000120352  -0.0000186645  -0.0000137175  -0.0000294765
       -0.0000098453  -0.0000268953   0.0000007834   0.0000112408  -0.0000004625
       -0.0000120303   0.0000075265  -0.0000533290   0.0000469497   0.0000229242
       -0.0000280935  -0.0000328314  -0.0000028817  -0.0000210354   0.0000172884
        0.0000066747   0.0000142876   0.0000093632  -0.0000130414  -0.0000074563
        0.0000003731   0.0000460231   0.0000080659  -0.0000257200   0.0000133319
        0.0000023792  -0.0000146719   0.0000562064  -0.0000258560   0.0000053212
       -0.0000078106  -0.0000589603   0.0000470297   0.0000271808   0.0000550453
        0.0000007696   0.0000525736   0.0000341990   0.0000040607  -0.0000204300
       -0.0000050703  -0.0000404104  -0.0000655915  -0.0000517859  -0.0000524714
        0.0000273716  -0.0000604679   0.0000546288   0.0000033987  -0.0000277377
        0.0000346879  -0.0000154606  -0.0000060805   0.0000204342   0.0000025248
        0.0000217165  -0.0000254167   0.0000197931   0.0000196054   0.0000572935
        0.0001616912   0.0001566450  -0.0000785960  -0.0000329652   0.0000404240
       -0.0000433587  -0.0000330375  -0.0000255117   0.0000140982  -0.0000269139
       -0.0000206330   0.0000529175   0.0000355072  -0.0000807566  -0.0000235247
        0.0002236524  -0.0003022898  -0.0005231803  -0.0010255850   0.0011194027
        0.0009613303
        0.0125103461   0.0481582363  -0.0557120146  -0.0663174574  -0.0747488873
        0.1339313367   0.0071787756   0.0079851311  -0.0480562865  -0.0028753707
       -0.0070443960   0.0024348441   0.0021325147   0.0011498772   0.0061202610
        0.0004559427  -0.0011132709   0.0004800057   0.0004554037   0.0002436266
       -0.0005795414   0.0001421136  -0.0000673830  -0.0000615896  -0.0000435497
       -0.0000405927   0.0000978767   0.0000573707   0.0000079902   0.0000339529
       -0.0002081077  -0.0000478737  -0.0000625985   0.0002105956   0.0000596223
        0.0000721326   0.0000104477  -0.0000198413  -0.0000157941   0.0000103983
        0.0000020451  -0.0000031807   0.0000039094   0.0000100210  -0.0000055654
        0.0000091390   0.0000087493  -0.0000057582  -0.0000005832   0.0000012638
        0.0000034967   0.0000151773   0.0000007706  -0.0000012167  -0.0000009337
       -0.0000113032   0.0000074765   0.0000023424  -0.0000107647   0.0000046258
       -0.0000008200  -0.0000039453   0.0000027194   0.0000049982  -0.0000023232
        0.0000072456   0.0000147758   0.0000117032  -0.0000066454  -0.0000163222
       -0.0000032765   0.0000032810  -0.0000037150   0.0000003077   0.0000024816
       -0.0000094264  -0.0000169551   0.0000079435  -0.0000008303   0.0000126758
        0.0000052837  -0.0000153186   0.0000107841   0.0000079901   0.0000081116
        0.0000029679   0.0000076599   0.0000291175   0.0000176992  -0.0000144030
       -0.0000408396  -0.0000225258  -0.0000339191  -0.0000810148   0.0002236761
        0.0001492258  -0.0000536426   0.0000251586  -0.0000152427   0.0000035813
       -0.0000117783   0.0000141642  -0.0000185534   0.0000267326  -0.0000400031
        0.0000202343  -0.0000117578   0.0000321175   0.0000089865  -0.0000085233
        0.0000022165   0.0000066673   0.0000131741   0.0000112236  -0.0002651564
        0.0003909109  -0.0005764673   0.0005660321   0.0000869547   0.0004836384
       -0.0002124994   0.0005572810  -0.0002142893  -0.0002517269  -0.0002186593
       -0.0000379216  -0.0001787885   0.0003707912  -0.0003313581   0.0004157448
       -0.0001108573   0.0003595967  -0.0002563873  -0.0002320534   0.0000359268
       -0.0028221469   0.0052867441  -0.0057803602   0.0132959980   0.0030396122
       -0.0007913428   0.0002039158   0.0014414775   0.0008203440   0.0378655241
        0.0089983463  -0.0408058750  -0.0034060664   0.0048297489   0.0008518840
       -0.0000035258   0.0000129505  -0.0000033993   0.0000045360   0.0000150422
       -0.0000131287   0.0000012809  -0.0000038911   0.0000008424   0.0000028819
       -0.0000041416  -0.0000041311   0.0000002692   0.0000044831   0.0000059684
        0.0000019834   0.0000034773  -0.0000015701  -0.0000046852  -0.0000033679
        0.0000025876  -0.0000021827   0.0000087943  -0.0000075555  -0.0000064248
        0.0000068386   0.0000071322   0.0000000571   0.0000000144  -0.0000005848
       -0.0000052500  -0.0000017173  -0.0000024192   0.0000016220   0.0000042276
       -0.0000003519  -0.0000068802  -0.0000008119   0.0000033998  -0.0000010314
       -0.0000068188   0.0000022862  -0.0000059517   0.0000064544  -0.0000018614
       -0.0000051540   0.0000068510  -0.0000022334  -0.0000057732  -0.0000039682
       -0.0000015653  -0.0000067139  -0.0000112790  -0.0000039045   0.0000083315
       -0.0000112449  -0.0000001287   0.0000056030  -0.0000077397   0.0000143453
       -0.0000112021   0.0000073051  -0.0000089656  -0.0000029395   0.0000058499
        0.0000003895  -0.0000023827   0.0000057577  -0.0000022416  -0.0000032796
       -0.0000067672   0.0000042282  -0.0000001435  -0.0000037365  -0.0000055759
        0.0000315169  -0.0002109923  -0.0000947101   0.0000319569  -0.0000146950
        0.0000645023   0.0000185456   0.0000121905   0.0000087329   0.0000052813
        0.0000021978  -0.0000011468   0.0000011729  -0.0000011041   0.0000031135
       -0.0000898537  -0.0000568297  -0.0001693562   0.0014894282   0.0010195592
        0.0073677242
        0.0450976722   0.0541035785  -0.0129341067  -0.2015816139   0.0813479343
        0.0071787756   0.6141006583  -0.0193616647  -0.0652563362  -0.2675231384
       -0.0317112284   0.0326217445  -0.0538479643   0.0221769038  -0.0004257863
        0.0220233575  -0.0093345663   0.0007470581  -0.0241674865   0.0115899398
       -0.0049427235   0.0180934071   0.0001075237   0.0041377241  -0.0080437427
        0.0065999659   0.0007167209   0.0039274431   0.0028593367   0.0011430913
       -0.0013262493   0.0009097145   0.0001534177  -0.0025941384  -0.0003068159
       -0.0004726044   0.0003076025  -0.0001916243   0.0001689292  -0.0001317384
        0.0000245017   0.0000443872  -0.0000472319  -0.0000980158   0.0000616837
       -0.0001908325  -0.0002179151   0.0000430014   0.0000363739  -0.0000066167
       -0.0000278907   0.0000995362   0.0000607916   0.0000901808   0.0000395739
        0.0000392048  -0.0002014248  -0.0001860001   0.0002250627  -0.0000697378
        0.0000044846   0.0001620442  -0.0000820731  -0.0000288866   0.0001096729
       -0.0001558850   0.0001753201  -0.0001321760   0.0002292933  -0.0000450883
       -0.0001994663  -0.0002101840  -0.0000625992  -0.0000266184  -0.0000498535
        0.0002274527   0.0001809774  -0.0002032935  -0.0001492372  -0.0000651672
       -0.0000122821   0.0000317693  -0.0002123949  -0.0000765165   0.0000465476
        0.0002255986  -0.0001612436   0.0053776954  -0.0026527815  -0.0003614914
       -0.0056648620  -0.0067411225  -0.0021473784   0.0058621990   0.0022716080
        0.0028293681   0.0005809863  -0.0015300082   0.0003317865   0.0002460359
        0.0008354504   0.0003078190   0.0003745058  -0.0005711178   0.0004155687
       -0.0002331467   0.0003685386  -0.0002377749   0.0001224482  -0.0001933659
       -0.0002021765  -0.0008295345   0.0003971333  -0.0005896998  -0.0060271414
       -0.0081008595  -0.0014477902   0.0028804625   0.0023533389   0.0016551639
       -0.0012404344   0.0017896319   0.0003893712  -0.0003630647  -0.0003793314
        0.0002237707  -0.0003714109   0.0004677499  -0.0006195054   0.0007957216
       -0.0001096035   0.0004231850  -0.0005882574  -0.0017310883  -0.0003093792
       -0.0088684919  -0.0659736418   0.0139417588  -0.0449398091   0.0167667448
        0.0027031202   0.0006861735  -0.0021829763   0.0009421948  -0.0238354286
        0.0217698063   0.0006707602  -0.0685766931  -0.0748851626   0.0183030459
        0.0000844130  -0.0001950196   0.0001810710  -0.0001984898  -0.0000267640
        0.0000964299  -0.0001434881   0.0002010982  -0.0001228594  -0.0001158980
       -0.0000077334  -0.0000309657  -0.0000867838  -0.0000608841  -0.0000897288
       -0.0000480627  -0.0001124508  -0.0000119464   0.0000372805   0.0000317442
       -0.0000416351   0.0000425875  -0.0002241063   0.0002205077   0.0000942251
       -0.0000991561  -0.0001123982  -0.0000466865  -0.0000938676   0.0000965104
       -0.0000206352   0.0000736112   0.0000504093  -0.0000856801  -0.0000014097
        0.0000137228   0.0001893943   0.0000469879  -0.0000798865   0.0000365927
        0.0000446756  -0.0000061575   0.0001903069  -0.0000334880   0.0000121346
       -0.0001038075  -0.0000655356   0.0000775159  -0.0000496354   0.0002330365
        0.0000002928   0.0001981671   0.0001300013   0.0000232284  -0.0001944934
        0.0000320561  -0.0001527997  -0.0001489294   0.0000017340  -0.0001907367
        0.0000982572  -0.0002107591   0.0001186496  -0.0000259087  -0.0000793604
        0.0001613806  -0.0000801697   0.0000375862   0.0000678305  -0.0000033846
        0.0001314609  -0.0001305102   0.0000610708   0.0001099759   0.0002137030
        0.0005930506   0.0006172315   0.0006582563  -0.0001073837   0.0002180507
        0.0000373427   0.0000712868  -0.0002357784  -0.0001643024   0.0000263467
        0.0000389539   0.0002489438   0.0001574101  -0.0002751392   0.0000634103
        0.0001696947  -0.0013533453   0.0001106232  -0.0002638520   0.0002991695
       -0.0005938191
       -0.0066571846  -0.0661160010   0.0105975782   0.1601322185  -0.2264997700
        0.0079851311  -0.0193616647   0.6603304020  -0.0837924777  -0.0683176223
       -0.0947258585   0.0135549518   0.0198194557   0.0062507588  -0.0019722493
        0.0033599944  -0.0035600193  -0.0003727112  -0.0001595577   0.0004307351
        0.0010987308   0.0013871995  -0.0003091737   0.0002790583  -0.0007949674
        0.0007565557   0.0000095091   0.0005067710   0.0003812761   0.0001752971
       -0.0006045647  -0.0000317540  -0.0000649084   0.0001970700   0.0000494624
        0.0000786006  -0.0000197532   0.0000596247   0.0000224641  -0.0000247424
       -0.0000167019  -0.0000048185  -0.0000073901  -0.0000250166   0.0000178137
       -0.0000368196  -0.0000425024   0.0000196014   0.0000079651  -0.0000120412
       -0.0000079348  -0.0000033363   0.0000043100   0.0000053747   0.0000008508
        0.0000293566  -0.0000409957  -0.0000213198   0.0000570900  -0.0000241018
       -0.0000112969   0.0000290934  -0.0000216391   0.0000007984   0.0000352989
       -0.0000118220   0.0000785797  -0.0000126808  -0.0000052536  -0.0000600030
       -0.0000614844  -0.0000245046  -0.0000533481  -0.0000630390  -0.0000263379
        0.0000322229  -0.0000022508  -0.0000422670  -0.0000021644   0.0000192153
       -0.0000134039  -0.0000389273   0.0000101922  -0.0000132651  -0.0000097478
        0.0000795645  -0.0000352227   0.0006001756  -0.0003744867  -0.0000805896
       -0.0005802382  -0.0007493936  -0.0002139482  -0.0003712848   0.0004049480
       -0.0003271671  -0.0000130171  -0.0001191208  -0.0000686878   0.0000847237
        0.0000561223   0.0001191838   0.0000283679  -0.0000177204   0.0000286493
       -0.0000237720   0.0000443413   0.0000212226  -0.0000128628  -0.0000353221
       -0.0000749031  -0.0001492121   0.0000632233  -0.0000873063   0.0003178886
       -0.0012063768   0.0007606421   0.0016556470  -0.0012482131   0.0004337741