78
 energy: -140.090027287301 gnorm: 0.000068819075 xtb: 6.7.1 (edcfbbe)
O           -6.06318134462695       -4.13243494164936       -0.32232657425481
S           -5.17217921050641       -2.99367921612431       -0.33417667702422
O           -5.29452154699953       -2.08116879341077       -1.45068333833071
C           -5.34151949010294       -2.07017439850410        1.19579294461571
C           -5.69038068124389       -2.73967751561999        2.35211428965766
C           -5.74814037306002       -2.03078755114298        3.54180391164310
C           -5.43977141664323       -0.67851320464843        3.55857091290757
C           -5.08648847524958       -0.01839231620660        2.39072334571025
C           -5.04019129607533       -0.72199420404980        1.19729482526043
C           -3.46850022386880       -3.58503637669881       -0.27364278407779
C           -3.19389599043222       -4.94135495690204       -0.31899648540345
C           -1.86546108182963       -5.35310269491967       -0.26411619859871
C           -0.85118912054391       -4.42629099297083       -0.15509760580836
C           -1.13814923531069       -3.05169841068795       -0.09749009332368
C           -0.10038153724863       -2.07181335420703        0.03450137344872
N           -0.39535981926621       -0.79107536318398        0.15853711242014
C            0.54026249168872        0.13212291073406        0.28377342328298
C            0.20573087059240        1.51763838499705        0.42308634570287
C            1.21338492884965        2.49560499396277        0.50573331092312
C            0.89476670921450        3.82900509581557        0.64111925161375
C           -0.43648576073849        4.22950779371068        0.69860804623239
C           -1.42538433052941        3.26250428130575        0.62074234022024
S           -3.15810324342132        3.75181750668829        0.67565822817249
O           -3.22762996306009        5.18867873678940        0.82983554955931
O           -3.83618394340100        2.96248182370679        1.68232350257713
C           -3.80160157008990        3.30116679367661       -0.94019437424672
C           -4.91756758784904        2.49418506546976       -1.03701183130412
C           -5.39055177435675        2.14622225820463       -2.29290981392231
C           -4.74221691392923        2.61190687138105       -3.42603281531703
C           -3.62604729971476        3.42810516171288       -3.31382481810643
C           -3.14728855188993        3.77568260740519       -2.06106890869885
C           -1.13754641656994        1.92767015096896        0.48159761734334
N            1.85883049762769       -0.24590633546569        0.27912783979955
C            2.12613088786079       -1.53218643743658        0.16035892991868
C            3.53560337616217       -1.94413792907344        0.16263197490204
C            3.89551497575755       -3.25449462206197       -0.15659829469061
C            5.22493714236516       -3.63518700120684       -0.15683187631503
C            6.21192918383664       -2.71345413122515        0.16408977501798
C            5.84444801672358       -1.42010037060083        0.48525932991099
S            7.10191550157347       -0.19863318578253        0.91765011989614
O            8.40214228419612       -0.81064176724988        0.75863186538807
O            6.78132520768043        0.33198785396975        2.22445542008726
C            6.88894152794419        1.09248152712322       -0.30950931179087
C            7.37645695618965        0.87932276203637       -1.58483127658763
C            7.17843450512678        1.85345521556176       -2.54993387720036
C            6.49338352547415        3.01587770642665       -2.22831619006203
C            6.00947787167184        3.21573078883919       -0.94450114635751
C            6.20778270169224        2.24641115633551        0.02606114174061
C            4.52713721584393       -1.01872222399482        0.48651734380882
N            1.21057172303284       -2.47552500533686        0.03701674851636
C           -2.47990965951380       -2.64112622306434       -0.16347724733710
H           -5.92292862521726       -3.79174902078761        2.30212726523249
H           -6.02779037429126       -2.53549521447448        4.45378181418754
H           -5.47579586287424       -0.13171777640244        4.48872352136036
H           -4.83701050131003        1.03273193161988        2.40458241942643
H           -4.79006896268512       -0.24042889648921        0.26490131252663
H           -4.00944834954303       -5.64120439471877       -0.40007720651056
H           -1.63307272174202       -6.40612258809816       -0.30450561044717
H            0.18094008370324       -4.73587971078653       -0.10514755394989
H            2.24098987569043        2.17118788139675        0.45852391822476
H            1.67742384108579        4.56903078196201        0.70431652786388
H           -0.72271298628674        5.26298955561170        0.80838324258941
H           -5.39863381933392        2.15605152653437       -0.13274788132293
H           -6.25760527627437        1.51001787542877       -2.38236616886278
H           -5.11064704840467        2.33807024785275       -4.40299518987867
H           -3.12836805501240        3.79174887894981       -4.19954819466821
H           -2.28280952575010        4.41028798476157       -1.94385728983204
H           -1.92814521819326        1.19618685306283        0.43073107710205
H            3.11804070607599       -3.95963927132413       -0.40525576541630
H            5.49606912007092       -4.64928734899150       -0.40591179004130
H            7.25833037179803       -2.97533000922536        0.17586084471315
H            7.91332174879979       -0.03161055045627       -1.79750643386491
H            7.55849122835268        1.70535472188233       -3.54896452840384
H            6.33904039323320        3.77247156144443       -2.98268958422536
H            5.48167376873183        4.12387620823782       -0.69712435722691
H            5.86022638629291        2.37078116435917        1.04000996578724
H            4.26006783209890       -0.00763648576850        0.74789715875491
H           -2.71591499380415       -1.58972792577198       -0.13446636257805
