$hessian                                                                        
        0.5222392656   0.0019760750   0.0005404695  -0.0601676001   0.0004544682
       -0.0054659007  -0.0047698879  -0.0076591285   0.0266259545  -0.0018337727
        0.0009814826  -0.0148452587  -0.0021415941   0.0080404882  -0.0128620701
       -0.0000645295   0.0000305483  -0.0009824746  -0.0003535948  -0.0001197094
        0.0003118268   0.0000125225  -0.0004267072  -0.0000378300  -0.0000315621
        0.0003761309  -0.0001043826   0.0001470804  -0.0000199833   0.0000472604
       -0.0000255663   0.0000057722   0.0000093099   0.0000107549  -0.0000015505
        0.0000002872  -0.0000692344   0.0000048279  -0.0000030547   0.0000861192
       -0.0000047951  -0.0000001672  -0.0000409426  -0.0000103531   0.0000116823
        0.0000188264  -0.0000034132  -0.0000040554   0.0000009993  -0.0000035795
       -0.0000000368  -0.0000026205  -0.0000026606  -0.0000014837   0.0000204961
        0.0000002590   0.0000006274  -0.0000023019  -0.0000037514   0.0000007904
       -0.0000022028  -0.0000037138  -0.0000014016  -0.0000403190   0.0000242307
       -0.0000184120   0.0000646722  -0.0000217436   0.0000132171  -0.0000497630
       -0.0000303398   0.0000177627  -0.0001437217  -0.0001764895  -0.0000552830
        0.0000328529   0.0000297829  -0.0000005437  -0.0000173485  -0.0000184050
        0.0000117997  -0.0000030688   0.0000018215   0.0000057213  -0.0000057672
       -0.0000061448  -0.0000034352   0.0000036228   0.0000105549   0.0000009893
        0.0000049615   0.0000034445  -0.0000010967   0.0000007172   0.0000133856
       -0.0000005083  -0.0000091667  -0.0000180616   0.0000032797   0.0000174746
        0.0000381413  -0.0000066936  -0.0007424877   0.0002686605   0.0004447881
       -0.0002707425   0.0014820506   0.0001394899  -0.2512708324  -0.0193207962
        0.0773616889  -0.1020489436  -0.0805705174  -0.0647142713  -0.0955463952
        0.0975281023  -0.0080022070   0.0009562850   0.0002022375   0.0007305257
       -0.0050353282  -0.0010026681   0.0036495074   0.0008668059  -0.0006897559
        0.0004622611   0.0006371487   0.0002766384  -0.0009675630  -0.0009841377
       -0.0019776923  -0.0023777098   0.0002651836   0.0004071070   0.0003286378
        0.0001375272  -0.0002852127  -0.0000218795   0.0000180000   0.0000032840
        0.0000040202   0.0000050850   0.0000102243  -0.0000072008  -0.0000066372
        0.0000102790  -0.0000101268  -0.0000035050   0.0000007571  -0.0000023099
       -0.0000013287   0.0000018450   0.0000008696   0.0000002474   0.0000018209
       -0.0000035633   0.0000001800   0.0000031283  -0.0000012400   0.0000000325
        0.0000000418   0.0000001363  -0.0000038248   0.0000043288   0.0000000448
       -0.0000042670   0.0000001735  -0.0000026456   0.0000020921   0.0000018166
       -0.0000015166   0.0000012633   0.0000010088  -0.0000034879   0.0000005087
        0.0000018959  -0.0000010639  -0.0000042888   0.0000016433  -0.0000012272
        0.0000001827   0.0000035992  -0.0000034067  -0.0000165876   0.0000060604
       -0.0000005464  -0.0000000885   0.0000371402  -0.0000246906  -0.0000105939
       -0.0000092030   0.0000086190   0.0000117868   0.0000071906  -0.0000057323
        0.0000023452  -0.0000038636   0.0000037731   0.0000034973   0.0000025995
       -0.0000016868  -0.0000017339  -0.0000019954   0.0000029917   0.0000032195
       -0.0000048391   0.0000008909   0.0000015085   0.0000041329   0.0000002601
       -0.0000002307  -0.0000027993  -0.0000016558  -0.0000001869  -0.0000038359
       -0.0000004779   0.0000054776   0.0000029863   0.0000013031  -0.0000014769
       -0.0000039603   0.0000031858   0.0000024104   0.0000078534   0.0000032202
       -0.0000004988   0.0000028287  -0.0000013940  -0.0000847181   0.0001169259
       -0.0000394132   0.0002322459   0.0000178947  -0.0001560871
        0.0019760750   0.5165938318   0.0277784793  -0.0006988472  -0.0709462509
        0.0339830154  -0.0020792332  -0.0008988416   0.0056614670  -0.0025116998
        0.0018446515  -0.0188904958   0.0059116211  -0.0134285518   0.0242779813
        0.0000047682  -0.0007442633   0.0003850291   0.0004280836   0.0006862107
       -0.0003631141  -0.0000084111   0.0009082570   0.0001542340   0.0004107361
       -0.0008681157   0.0001641397  -0.0004486147   0.0000071994  -0.0000939597
        0.0001164978  -0.0000494767   0.0000042611  -0.0000677665   0.0000078271
        0.0000002061   0.0001550404  -0.0000225419   0.0000136027  -0.0002173875
        0.0000065860   0.0000091930   0.0000907993   0.0000402578  -0.0000361968
       -0.0000346988   0.0000033276   0.0000018282   0.0000084006   0.0000009749
       -0.0000008425   0.0000096687  -0.0000047789  -0.0000017199  -0.0000345907
       -0.0000046022  -0.0000002498   0.0000105343   0.0000023884   0.0000021027
        0.0000081980  -0.0000015401   0.0000012987   0.0000860058  -0.0000438697
        0.0000323505  -0.0001250250   0.0000162517  -0.0000045026   0.0001495711
        0.0000517167  -0.0000617454   0.0002405582   0.0002780069   0.0001642427
       -0.0001014401  -0.0000265936   0.0000138753   0.0000217035   0.0000283692
       -0.0000262749   0.0000089163  -0.0000056311  -0.0000016687   0.0000031643
        0.0000213484  -0.0000018146  -0.0000108829  -0.0000095035  -0.0000128540
       -0.0000146608  -0.0000027103   0.0000040985  -0.0000063721  -0.0000073653
       -0.0000031237  -0.0000015829   0.0000305212  -0.0000050344  -0.0000261143
       -0.0000785491  -0.0000044313   0.0012421989  -0.0007900352  -0.0007799347
       -0.0005359739  -0.0021260884   0.0001226280  -0.0191484231  -0.0460349300
        0.0065444156  -0.0803570630  -0.1543262619  -0.0900207558   0.0974443402
       -0.2284483107   0.0149098637   0.0003039864   0.0001695729   0.0005837064
       -0.0008147493   0.0003572144   0.0003175704   0.0002434398   0.0004431465
       -0.0006916172   0.0003968384   0.0004481938  -0.0005061230  -0.0019431937
       -0.0024619813  -0.0036266030  -0.0004549509   0.0008671416  -0.0013072992
        0.0001946009  -0.0010579390   0.0010087694   0.0000121385  -0.0000021273
        0.0000164998  -0.0000080467  -0.0000102737   0.0000045869   0.0000148339
       -0.0000147029   0.0000160478   0.0000046705  -0.0000006991   0.0000020258
       -0.0000011799   0.0000005717  -0.0000008697  -0.0000020016  -0.0000011993
        0.0000007183  -0.0000009157   0.0000041151   0.0000040552  -0.0000017249
        0.0000004166   0.0000007007   0.0000052659  -0.0000029880   0.0000001611
        0.0000061738   0.0000021116   0.0000017594  -0.0000034919  -0.0000026999
       -0.0000005743  -0.0000037236   0.0000008344  -0.0000002245  -0.0000030290
        0.0000004975   0.0000014488   0.0000057493   0.0000001663   0.0000000980
       -0.0000023675  -0.0000005901   0.0000011193   0.0000171753   0.0000068128
       -0.0000164362  -0.0000050280  -0.0000117087   0.0000328301   0.0000243718
        0.0000123824  -0.0000203586  -0.0000112652  -0.0000067686   0.0000087268
        0.0000047395   0.0000014669   0.0000011656  -0.0000072898  -0.0000154700
        0.0000068630   0.0000040098   0.0000044206  -0.0000029441   0.0000065805
        0.0000002206  -0.0000010220  -0.0000066015  -0.0000151001  -0.0000001761
        0.0000051733   0.0000018316  -0.0000010717   0.0000073334  -0.0000023749
        0.0000014539  -0.0000113667  -0.0000116998  -0.0000015832   0.0000100987
       -0.0000019789   0.0000029016   0.0000096223  -0.0000183935  -0.0000116348
        0.0000197396  -0.0000053645  -0.0000009064   0.0001864925  -0.0001687300
        0.0000111131  -0.0001002021  -0.0001672418   0.0002455285
        0.0005404695   0.0277784793   0.4497471067  -0.0015124445   0.0274261925
       -0.1699039501   0.0055365466   0.0048199944  -0.0177401248  -0.0045064278
       -0.0002167910  -0.0253865647  -0.0049650631   0.0106648274  -0.0067585838
       -0.0000234958  -0.0012727192  -0.0005923472  -0.0003497324   0.0001671442
        0.0001397531  -0.0002119173   0.0001774628  -0.0000048575   0.0001987338
       -0.0003173197  -0.0000230617  -0.0001956804  -0.0000000798  -0.0000739753
        0.0000499047  -0.0000127640  -0.0000010322  -0.0000396978  -0.0000019414
        0.0000097381   0.0000646206  -0.0000064072   0.0000023855  -0.0000465318
        0.0000143574  -0.0000184889   0.0000019631   0.0000067738   0.0000017197
        0.0000004097  -0.0000033683  -0.0000063430   0.0000024438   0.0000027307
       -0.0000040995   0.0000035661  -0.0000004702  -0.0000033013   0.0000007088
       -0.0000008338  -0.0000084496   0.0000064285  -0.0000021202   0.0000007055
        0.0000035458  -0.0000032263  -0.0000012891   0.0000089445  -0.0000179436
        0.0000242991  -0.0000575329   0.0000239796  -0.0000052769   0.0000478457
        0.0000210103   0.0000001286   0.0001266788   0.0001864948   0.0000481190
       -0.0000133872  -0.0000608711  -0.0000266080   0.0000110744   0.0000203748
       -0.0000031053  -0.0000012756  -0.0000046588   0.0000011528  -0.0000081327
       -0.0000036299  -0.0000024730  -0.0000006465  -0.0000098051  -0.0000017441
       -0.0000025594  -0.0000028437  -0.0000056094  -0.0000057189  -0.0000076161
       -0.0000051063   0.0000201206   0.0000270273  -0.0000068746  -0.0000122512
       -0.0000436105   0.0000042477  -0.0004581346   0.0002518038   0.0000777812
        0.0010926963  -0.0000061465   0.0000419262   0.0770393914   0.0064223995
       -0.0712960035  -0.0644606048  -0.0898382415  -0.1136804928  -0.0076924287
        0.0144749513  -0.0431258686  -0.0010217531  -0.0002553229   0.0007232475
        0.0024741456   0.0003837074  -0.0010604115  -0.0008611951   0.0000793759
        0.0003135502   0.0006551099   0.0007974110   0.0006610496  -0.0018283379
       -0.0025461112  -0.0025217806   0.0002318298   0.0011018704   0.0004254542
        0.0000183900  -0.0003265465  -0.0000469604   0.0000161081  -0.0000139380
       -0.0000443611  -0.0000054607  -0.0000154145   0.0000109707   0.0000019216
       -0.0000043667   0.0000032756  -0.0000007826  -0.0000005084  -0.0000011069
       -0.0000011470  -0.0000019970   0.0000014110   0.0000009447  -0.0000001180
       -0.0000014995   0.0000005627   0.0000030403   0.0000011965  -0.0000019292
       -0.0000007043   0.0000021729  -0.0000005091   0.0000003308  -0.0000020189
       -0.0000009258  -0.0000005897  -0.0000012352   0.0000001463  -0.0000002632
       -0.0000005491  -0.0000002344   0.0000017896  -0.0000005675  -0.0000010097
        0.0000023688  -0.0000020270  -0.0000006692   0.0000003088  -0.0000017700
        0.0000007589  -0.0000025684  -0.0000006994   0.0000003292  -0.0000049616
       -0.0000018944   0.0000015599  -0.0000047051   0.0000039703  -0.0000037718
        0.0000225702   0.0000147142  -0.0000110375   0.0000002077   0.0000094317
        0.0000012170   0.0000007373   0.0000002080  -0.0000002198   0.0000004306
        0.0000011092  -0.0000007302   0.0000016973   0.0000032848   0.0000001750
        0.0000014739   0.0000012939  -0.0000013572   0.0000023016   0.0000009895
       -0.0000008574   0.0000028007   0.0000063784   0.0000026034  -0.0000004402
        0.0000083463  -0.0000004746   0.0000016782   0.0000038176   0.0000008936
        0.0000032492   0.0000026141  -0.0000033782   0.0000023935   0.0000019919
        0.0000029702   0.0000067240   0.0000034414   0.0000228518   0.0000104579
        0.0000798309   0.0001208339   0.0000990343  -0.0000103008
       -0.0601676001  -0.0006988472  -0.0015124445   0.4636220292   0.0041060544
        0.0057870683  -0.1626516705  -0.0089735512   0.0375915413  -0.0889574507
       -0.0405091074  -0.0295380462  -0.0868297633   0.0467143135  -0.0079468700
        0.0054866253  -0.0030634082   0.0035820718   0.0018520668  -0.0022253332
       -0.0034079653  -0.0008287375   0.0003865696  -0.0007558136  -0.0003555718
       -0.0002917821   0.0006506894  -0.0000011071   0.0001112499   0.0000702194
       -0.0000308049   0.0000100921  -0.0000207046   0.0000052195  -0.0000143108
       -0.0000051905   0.0000267142  -0.0000293767   0.0000273526   0.0000247931
        0.0000087886   0.0000009803  -0.0000189201  -0.0000053139  -0.0000035557
        0.0000049432  -0.0000006420  -0.0000012342   0.0000026188  -0.0000032906
        0.0000004172   0.0000013606  -0.0000023564  -0.0000024188   0.0000083931
        0.0000010213  -0.0000010622   0.0000011169  -0.0000045789   0.0000014253
        0.0000002769  -0.0000049554  -0.0000007337  -0.0000185603   0.0000019875
        0.0000052296  -0.0000284519   0.0000128090  -0.0000233870   0.0000314200
       -0.0000415753  -0.0000147355   0.0000700608  -0.0000277760   0.0000761189
        0.0000442905  -0.0000126694  -0.0000496847  -0.0000142561   0.0000027187
       -0.0000035634  -0.0000093190   0.0000133449   0.0000100390  -0.0000190128
       -0.0000150522   0.0000042136  -0.0000051176   0.0000063191   0.0000072577
       -0.0000075635  -0.0000014799   0.0000008886  -0.0000143333   0.0000069177
        0.0000060140   0.0000103123   0.0000118144  -0.0000187548  -0.0000183667
        0.0000096203   0.0000174064  -0.0009049107   0.0002836018  -0.0050254745
       -0.0140216962   0.0206081969  -0.0044128304  -0.0016915364  -0.0081907706
        0.0265755066  -0.0015685432   0.0027943691  -0.0143993356  -0.0010794324
        0.0054697071  -0.0131771118  -0.0176360929  -0.0046329552   0.0034954788
       -0.0019999868  -0.0007738550   0.0033627769  -0.0190408313   0.0022067983
        0.0058478526  -0.0165933160  -0.0214134032  -0.0131996259  -0.0012650901
       -0.0013682003  -0.0024986206   0.0056942115   0.0104146797   0.0070326149
       -0.0008559158  -0.0008608729   0.0007557042   0.0002462314  -0.0007601566
       -0.0001926085   0.0000002293  -0.0000104631   0.0000077352  -0.0000006399
        0.0000093976  -0.0000043080  -0.0000000798  -0.0000009875   0.0000000164
       -0.0000007801   0.0000010648   0.0000018150   0.0000005905   0.0000007855
       -0.0000013738  -0.0000005980   0.0000022986  -0.0000007418  -0.0000003387
        0.0000004553   0.0000016732  -0.0000016480   0.0000019742   0.0000004384
       -0.0000015427  -0.0000007738  -0.0000010278   0.0000018389   0.0000001235
       -0.0000000833   0.0000006342  -0.0000014213  -0.0000012096  -0.0000006117
        0.0000007259  -0.0000010836  -0.0000025635   0.0000001236  -0.0000010294
       -0.0000003888   0.0000010748  -0.0000022656  -0.0000068105  -0.0000010329
        0.0000008190  -0.0000005022   0.0000394181  -0.0000181316   0.0000107006
        0.0000272388   0.0000157739   0.0000023106  -0.0000011168  -0.0000041081
       -0.0000005083   0.0000005078  -0.0000008204   0.0000004718   0.0000024213
       -0.0000025843   0.0000012399  -0.0000006666  -0.0000008148   0.0000013185
        0.0000009933  -0.0000021122  -0.0000031330   0.0000051748  -0.0000010634
        0.0000019825   0.0000031552  -0.0000020894   0.0000039479   0.0000036037
       -0.0000008027   0.0000018175   0.0000037738  -0.0000004080   0.0000043822
       -0.0000004524   0.0000031063  -0.0000003648   0.0000033299  -0.0000005962
        0.0000118235   0.0000074652  -0.0000081214  -0.0004789788   0.0008744569
       -0.0000703372  -0.0000425242  -0.0002280015   0.0013966397
        0.0004544682  -0.0709462509   0.0274261925   0.0041060544   0.4885212569
        0.0123789001  -0.0156767347  -0.0629868320   0.0044099058  -0.0388616019
       -0.1268683678  -0.0453188500   0.0503990148  -0.1537384879   0.0059215553
        0.0076964829  -0.0297952956  -0.0029160827  -0.0021109555  -0.0010412640
       -0.0032941597   0.0008058941  -0.0015632639  -0.0000051501  -0.0008105046
        0.0009768013   0.0001993448   0.0004674170   0.0000354706   0.0001907770
       -0.0001194177   0.0000341112   0.0000060799   0.0001016884   0.0000103970
       -0.0000320453  -0.0001687498   0.0000108356  -0.0000023696   0.0001108475
       -0.0000025611   0.0000042121  -0.0000179398  -0.0000271506   0.0000286077
        0.0000003006   0.0000032620  -0.0000009169  -0.0000084408  -0.0000061049
        0.0000002595  -0.0000106745  -0.0000010172   0.0000026426   0.0000035796
       -0.0000009689   0.0000024961  -0.0000123818  -0.0000021014  -0.0000036843
       -0.0000087399   0.0000023966   0.0000008885  -0.0000126768   0.0000271093
       -0.0000346829   0.0001071090  -0.0000437222   0.0000011181  -0.0001446010
        0.0000007200  -0.0000357513  -0.0001965514  -0.0003267545  -0.0001132852
        0.0000409269   0.0001108688  -0.0000020759  -0.0000314104  -0.0000474441
        0.0000047670  -0.0000130280   0.0000201828   0.0000194318   0.0000189740
        0.0000099812  -0.0000058529   0.0000070836   0.0000096880  -0.0000040324
        0.0000150632   0.0000145437   0.0000049800   0.0000155098   0.0000155321
       -0.0000059488  -0.0000018090  -0.0000202915   0.0000039045   0.0000188532
        0.0000377571  -0.0000242667   0.0004507491   0.0017771024  -0.0012487544
        0.0090196389  -0.0046584262   0.0042887505  -0.0012061189  -0.0013463466
        0.0040499037  -0.0011061974   0.0043237370  -0.0188062720   0.0027388770
       -0.0113598710   0.0262487228  -0.0195386624  -0.0037719253   0.0058418300
       -0.0081155107  -0.0010031875   0.0039047330   0.0247972722  -0.0001877116
       -0.0089864937  -0.0052090228  -0.0046573160  -0.0020365787   0.0022537815
        0.0043514209   0.0012800526  -0.0095016777  -0.0253600627  -0.0139566788
        0.0004917214   0.0005213750   0.0011148610   0.0004455666  -0.0007528093
        0.0000477164   0.0000187340   0.0000215833  -0.0000152731  -0.0000054671
        0.0000026508  -0.0000069122  -0.0000015037   0.0000040768  -0.0000008507
        0.0000008129   0.0000022650   0.0000005615   0.0000005467   0.0000040475
       -0.0000014769   0.0000032856  -0.0000008001   0.0000013424   0.0000034913
       -0.0000011991   0.0000001739  -0.0000024122   0.0000029598   0.0000002358
       -0.0000038600   0.0000029552   0.0000016969   0.0000021104   0.0000050252
        0.0000007471   0.0000017701   0.0000041204   0.0000009863   0.0000024874
        0.0000002603   0.0000011038  -0.0000016033   0.0000008818   0.0000027898
        0.0000022618   0.0000034384   0.0000017217  -0.0000135304  -0.0000031491
        0.0000075658   0.0000423819  -0.0000444616   0.0000203306   0.0000048808
       -0.0000650008  -0.0000192186   0.0000085913  -0.0000168793  -0.0000105458
        0.0000014798  -0.0000080978   0.0000031950   0.0000061502  -0.0000026707
        0.0000019622  -0.0000037365  -0.0000062706   0.0000026823   0.0000037821
       -0.0000103736   0.0000028948   0.0000064276  -0.0000072003   0.0000008281
       -0.0000017230  -0.0000102329  -0.0000034149  -0.0000029042  -0.0000116782
       -0.0000029032   0.0000061058  -0.0000034705   0.0000008218  -0.0000040882
       -0.0000140287  -0.0000007527   0.0000031226  -0.0000024693   0.0000041773
       -0.0000307870  -0.0000145271   0.0000122867  -0.0002947241   0.0001099843
       -0.0001856130  -0.0014355490  -0.0002407536  -0.0003698439
       -0.0054659007   0.0339830154  -0.1699039501   0.0057870683   0.0123789001
        0.4636161908   0.0398562692   0.0018272390  -0.0755660410  -0.0290642441
       -0.0464453386  -0.0965491308  -0.0069867484   0.0030316514  -0.0588883570
        0.0066515232  -0.0098564409   0.0006358823  -0.0032179958  -0.0037817373
        0.0028054886  -0.0005838717  -0.0002739208  -0.0000665832   0.0005305901
        0.0004894364  -0.0008773586   0.0000933047  -0.0001564582  -0.0000630344
        0.0000104698   0.0000055904   0.0000132541  -0.0000160580  -0.0000070874
        0.0000322506  -0.0000409968   0.0000382134  -0.0000509199   0.0000562431
        0.0000013842  -0.0000008623  -0.0000199057  -0.0000107881   0.0000063247
        0.0000068605  -0.0000016933   0.0000014461  -0.0000050599   0.0000002671
       -0.0000030769  -0.0000041977   0.0000020331  -0.0000015906   0.0000026035
        0.0000009267  -0.0000016081  -0.0000026129  -0.0000035127  -0.0000040372
       -0.0000033418  -0.0000001050  -0.0000014326  -0.0000174323   0.0000094022
       -0.0000069703   0.0000713148   0.0000036573   0.0000204008  -0.0000859270
        0.0000130966   0.0000797029  -0.0001942993  -0.0000561008  -0.0001587688
        0.0000432251  -0.0000169747   0.0000568495   0.0000232974   0.0000174494
        0.0000185589   0.0000281007  -0.0000204683  -0.0000283872  -0.0000054508
       -0.0000073305  -0.0000066970   0.0000050137   0.0000002591  -0.0000029544
        0.0000052164  -0.0000024248  -0.0000085006  -0.0000001388  -0.0000016775
       -0.0000048387  -0.0000232760  -0.0000330550   0.0000297428   0.0000145592
        0.0000909919   0.0000197931  -0.0051026285  -0.0008795040   0.0030539365
       -0.0074314165   0.0119422108  -0.0003481870   0.0030882774   0.0045083567
       -0.0141271158  -0.0026556429   0.0019152407  -0.0197387472  -0.0020614446
        0.0045234683  -0.0065609980  -0.0138510906  -0.0018569053   0.0044634569
        0.0267470941   0.0035465220  -0.0141120751   0.0006372756  -0.0007813031
        0.0002529239   0.0033158040   0.0062872910   0.0043688418  -0.0132109634
       -0.0205650665  -0.0199683839   0.0011363223  -0.0003412337   0.0006216882
        0.0011786768   0.0001890977  -0.0014948878   0.0001368730  -0.0007942327
        0.0000271652   0.0000017695   0.0000034175  -0.0000019868  -0.0000039675
        0.0000039854  -0.0000053474  -0.0000013823   0.0000011592   0.0000006434
        0.0000017409  -0.0000005039   0.0000009079   0.0000025711   0.0000004904
        0.0000010827   0.0000023599  -0.0000009208   0.0000028003   0.0000018322
        0.0000004692   0.0000008387  -0.0000019272   0.0000008107  -0.0000005049
       -0.0000020946  -0.0000004866   0.0000017682   0.0000013367   0.0000014921
        0.0000034404   0.0000004163   0.0000040570   0.0000010801  -0.0000000820
       -0.0000004865  -0.0000012906  -0.0000008476  -0.0000002779   0.0000013698
        0.0000015207  -0.0000014277   0.0000006258   0.0000035652  -0.0000038119
        0.0000099325   0.0000011282  -0.0000022244  -0.0000202619  -0.0000134120
        0.0000003127  -0.0000100168   0.0000053835   0.0000080620   0.0000030958
       -0.0000029753   0.0000016227  -0.0000006247   0.0000005616   0.0000031049
       -0.0000019067  -0.0000002090   0.0000007585   0.0000011935  -0.0000027850
        0.0000006854   0.0000022918   0.0000008981   0.0000037448   0.0000003933
       -0.0000025503   0.0000009981   0.0000021614   0.0000001934   0.0000000273
        0.0000029988   0.0000011706   0.0000028723   0.0000037292  -0.0000005343
        0.0000034449   0.0000007870  -0.0000034449   0.0000010799   0.0000045388
       -0.0000020642  -0.0000054670  -0.0000022457  -0.0004187295   0.0006047275
       -0.0001660665   0.0010552195   0.0004559429  -0.0014138301
       -0.0047698879  -0.0020792332   0.0055365466  -0.1626516705  -0.0156767347
        0.0398562692   0.4525762576  -0.0024523054   0.0304846575  -0.0222110836
       -0.0079731416   0.0030109499  -0.0218970423   0.0093700934   0.0050009999
       -0.0006932785  -0.0011598968  -0.0000612243   0.0000446515   0.0001889988
       -0.0005822145  -0.0000723954  -0.0001871575  -0.0002470900  -0.0000176682
        0.0000701588   0.0000904062  -0.0001039538   0.0000301632   0.0000310447
        0.0000185250  -0.0000096614  -0.0000024802  -0.0000284694  -0.0000105718
        0.0000063880   0.0000129620   0.0000015217   0.0000003986   0.0000325137
       -0.0000171433   0.0000128767  -0.0000287644   0.0000147478  -0.0000062391
        0.0000232593  -0.0000122999   0.0000001022   0.0000025629  -0.0000015071
        0.0000004417   0.0000010457  -0.0000029061  -0.0000006901   0.0000160097
       -0.0000038310   0.0000018192   0.0000017773  -0.0000046999   0.0000023678
        0.0000005912  -0.0000032364  -0.0000002148  -0.0000335107   0.0000182905
       -0.0000081916  -0.0000193848   0.0000088063  -0.0000072151   0.0000364750
       -0.0000345465   0.0000304053  -0.0000309543  -0.0000643195   0.0000328184
        0.0000202072   0.0000043227  -0.0000223584  -0.0000181642   0.0000062742
        0.0000097271  -0.0000003953   0.0000004547   0.0000014531  -0.0000161990
       -0.0000109768  -0.0000012608  -0.0000009704   0.0000088960   0.0000031061
        0.0000024897  -0.0000019713  -0.0000031641  -0.0000068372   0.0000123763
        0.0000024186   0.0000024545  -0.0000031073  -0.0000094467   0.0000025544
        0.0000239631   0.0000022416  -0.0001373636   0.0008178757  -0.0008751789
        0.0000853276   0.0008591351   0.0012605217   0.0005718497  -0.0000677247
        0.0001749985   0.0005893536   0.0002453958  -0.0008514272   0.0005430508
        0.0001287034  -0.0007286330  -0.1032678929  -0.0823919035  -0.0657365043
       -0.0427614318   0.0027787322  -0.0097509709  -0.0946160824   0.0986095670
       -0.0066761921  -0.0019621649  -0.0025636800  -0.0015992228   0.0003860065
        0.0005461603   0.0007933504   0.0006526239   0.0010250440   0.0005101809
       -0.0002484152  -0.0002244061   0.0000588327  -0.0000232763  -0.0000280174
        0.0000254837   0.0000008330   0.0000065236  -0.0000030947  -0.0000037359
        0.0000113739  -0.0000070292  -0.0000047788   0.0000001449   0.0000004865
        0.0000024478  -0.0000006921   0.0000009578   0.0000027889  -0.0000001846
        0.0000018429   0.0000024125   0.0000021593   0.0000012805   0.0000025058
       -0.0000013937   0.0000011731  -0.0000045328   0.0000029423   0.0000024926
       -0.0000035573  -0.0000015052   0.0000003973   0.0000010552   0.0000009858
        0.0000027987   0.0000007751   0.0000011142  -0.0000022189   0.0000006993
        0.0000008780   0.0000023850  -0.0000035854   0.0000001107   0.0000016479
       -0.0000002733   0.0000026455  -0.0000026507   0.0000056889   0.0000017383
       -0.0000042193   0.0000035097   0.0000165561  -0.0000270113  -0.0000026004
        0.0000067874   0.0000142248   0.0000143960   0.0000095890  -0.0000083630
        0.0000025694  -0.0000009801   0.0000023887   0.0000017959   0.0000048248
       -0.0000041893   0.0000001651  -0.0000019747  -0.0000018295   0.0000041053
       -0.0000028293   0.0000004643   0.0000003822   0.0000072578  -0.0000006542
        0.0000000688   0.0000000604  -0.0000028464   0.0000016189   0.0000002660
       -0.0000011509   0.0000055854   0.0000050343   0.0000005954   0.0000035020
       -0.0000044234  -0.0000005979   0.0000035915   0.0000054769   0.0000006455
        0.0000131728   0.0000005665  -0.0000081234   0.0000010395   0.0001330927
       -0.0000254301  -0.0000569368   0.0000091528   0.0002947402
       -0.0076591285  -0.0008988416   0.0048199944  -0.0089735512  -0.0629868320
        0.0018272390  -0.0024523054   0.5250937059   0.0042336691  -0.0215320883
       -0.0064427522   0.0038629426   0.0239046110  -0.0015519543  -0.0067233198
        0.0006402596  -0.0008608462  -0.0005540468  -0.0001986696   0.0004224486
        0.0005435871  -0.0001381266   0.0009327987   0.0002343358   0.0007408145
       -0.0008919066  -0.0000819948  -0.0006228015  -0.0000363209  -0.0001646336
        0.0001597905  -0.0000594525   0.0000125939  -0.0001173817  -0.0000060311
        0.0000249709   0.0001888940  -0.0000131037   0.0000014305  -0.0002272917
        0.0000055704   0.0000036442   0.0000850630   0.0000445607  -0.0000390499
       -0.0000297781   0.0000020299   0.0000003607   0.0000097054   0.0000016420
       -0.0000018135   0.0000109960  -0.0000054076  -0.0000032181  -0.0000301373
       -0.0000038140  -0.0000017009   0.0000119905   0.0000031544   0.0000028285
        0.0000095415  -0.0000020953   0.0000006353   0.0000811198  -0.0000463800
        0.0000366506  -0.0001288605   0.0000272926  -0.0000004219   0.0001656926
        0.0000622926  -0.0000210658   0.0002289987   0.0003487080   0.0001368124
       -0.0001060044  -0.0000236548   0.0000184301   0.0000294872   0.0000675964
       -0.0000123065   0.0000145743  -0.0000065692  -0.0000052183  -0.0000042113
        0.0000167219  -0.0000023643  -0.0000135912  -0.0000070291  -0.0000072936
       -0.0000191033  -0.0000035949   0.0000089816  -0.0000119438  -0.0000036403
        0.0000025022  -0.0000029703   0.0000248744   0.0000040038  -0.0000256133
       -0.0000611466   0.0000138407  -0.0001655816  -0.0011389832   0.0011645657
        0.0007482894  -0.0020979853  -0.0008502471  -0.0005298337  -0.0001378273
        0.0018969227   0.0003677851   0.0003229000  -0.0004702246  -0.0008194806
        0.0004019860   0.0001207377  -0.0823433997  -0.1541589656  -0.0873397071
        0.0028423485  -0.0655705993   0.0675258956   0.0990353639  -0.2277489331
        0.0113605500  -0.0033143408  -0.0031246222  -0.0018873487   0.0000319938
        0.0004474193   0.0005926129  -0.0014367497   0.0006324110   0.0003669480
        0.0011437153  -0.0006693672  -0.0004961523   0.0000090790  -0.0000095292
       -0.0000142418  -0.0000064302  -0.0000135575   0.0000051950   0.0000189441
       -0.0000130170   0.0000152593   0.0000036366  -0.0000012574   0.0000007064
       -0.0000021299  -0.0000003216  -0.0000013307  -0.0000025500  -0.0000013745
       -0.0000005094  -0.0000020845   0.0000043611   0.0000023064  -0.0000027312
       -0.0000002530   0.0000007523   0.0000038089  -0.0000026138  -0.0000001420
        0.0000055324   0.0000020469   0.0000001088  -0.0000034884  -0.0000030481
       -0.0000020725  -0.0000031545  -0.0000000945  -0.0000015008  -0.0000031349
        0.0000010985   0.0000016502   0.0000045247   0.0000003380  -0.0000010766
       -0.0000026634   0.0000002445  -0.0000004117   0.0000197511   0.0000075104
       -0.0000169516  -0.0000286322   0.0000040077   0.0000204481   0.0000289936
       -0.0000188699  -0.0000293021  -0.0000100809  -0.0000143069   0.0000080104
        0.0000057908   0.0000009189   0.0000023453  -0.0000070736  -0.0000158823
        0.0000088163   0.0000050403   0.0000030165  -0.0000026939   0.0000080118