$hessian                                                                        
        0.6407101206  -0.0062770429   0.0439872224  -0.2640380313  -0.1186026444
        0.0261058443  -0.0685113380   0.0382560957  -0.0207847119  -0.0069843831
       -0.0295838434   0.0110087809   0.0259587646   0.0141663729  -0.0039462006
       -0.0947968103   0.0063599792  -0.0055326094  -0.0012743845   0.0057219004
       -0.0028614982  -0.0010266519  -0.0001449741  -0.0000820045   0.0034002581
       -0.0012916842   0.0005912128  -0.0046076165  -0.0024115449   0.0006545739
        0.0002048534   0.0045077189  -0.0020537869  -0.0029078708  -0.0048916148
        0.0024584350  -0.0015713023   0.0089931903  -0.0028544326  -0.0018847755
       -0.0008684715  -0.0003430702   0.0003203094  -0.0005420441   0.0001785280
        0.0000603049   0.0001818309  -0.0003528486  -0.0005764731  -0.0001351988
        0.0000210103   0.0000987731   0.0000074163   0.0003149718   0.0001658620
        0.0004536305  -0.0000508539   0.0011602412  -0.0008693221  -0.0002828276
       -0.0002174390   0.0000686680   0.0003100450  -0.0002428706   0.0002823234
       -0.0002174978  -0.0013931107   0.0005004077   0.0001816024   0.0008456740
       -0.0003645529   0.0005177910  -0.0006783270   0.0002578067   0.0005270028
        0.0004985199  -0.0001622073  -0.0001203388  -0.0007929920   0.0005422610
       -0.0002899968   0.0008921098   0.0000612018  -0.0005888309  -0.0001224282
        0.0014637816  -0.0006249864  -0.0015712354  -0.0006765339   0.0006723258
        0.0004105925   0.0010331980  -0.0003310780  -0.0016908124  -0.0000589513
        0.0000834017   0.0008405193  -0.0005030838   0.0004656038  -0.0000096275
        0.0000577341  -0.0002696332   0.0011927511  -0.0003788754   0.0001011721
       -0.0003648301  -0.0001971850   0.0001812018   0.0000856324  -0.0001599446
        0.0000528640  -0.0002880263  -0.0000464301   0.0000324544   0.0006854076
       -0.0002045633   0.0000646028  -0.0000084349   0.0007992384  -0.0003214153
        0.0007194156  -0.0012383201   0.0003784574  -0.2098354018   0.1117650849
       -0.0558856532  -0.0041314264  -0.0029287565   0.0013998033  -0.0031119312
        0.0025934619  -0.0019436202  -0.0052455411  -0.0255561748   0.0095139011
       -0.0000889665   0.0001604053  -0.0000302184   0.0000314046  -0.0000021126
        0.0000246107  -0.0000255288   0.0000004845   0.0000935181   0.0000580111
       -0.0000033309   0.0000090424  -0.0000069395  -0.0000164106  -0.0000213205
       -0.0000418826   0.0000914821   0.0000465371   0.0000217120   0.0000019934
       -0.0000703467  -0.0001297945   0.0000320393  -0.0001048484  -0.0000026183
       -0.0000433525  -0.0000180624  -0.0000977466  -0.0001085913  -0.0000308161
       -0.0000224782  -0.0000471094  -0.0000060477  -0.0000226497  -0.0000531759
       -0.0000301664   0.0000069138  -0.0000577300   0.0000232365  -0.0000303575
        0.0000796655   0.0000288399   0.0000144886  -0.0000490909  -0.0000764656
       -0.0000531274  -0.0000043929   0.0000564817   0.0000290261   0.0000246997
        0.0000667208   0.0000102861   0.0000238373  -0.0000195727  -0.0000157770
       -0.0000462348   0.0000179045  -0.0000000135   0.0000375861  -0.0000239406
       -0.0062770429   0.5767606544  -0.1778967764  -0.0388997173  -0.1246241188
        0.0250680602  -0.0184962686   0.0462308043  -0.0191322271  -0.0192751878
       -0.0283275009   0.0064193145   0.0606236780  -0.0484980797   0.0242116123
       -0.0640492402  -0.2841642616   0.0887026895   0.0038333191   0.0102278451
       -0.0012842193  -0.0015369761  -0.0011210365   0.0002463292   0.0029322729
       -0.0013930429   0.0003147693  -0.0042669901  -0.0025802359   0.0007587762
        0.0007985203   0.0040009705  -0.0019565284   0.0006343948  -0.0040306928
        0.0025929344   0.0021527907   0.0025099819  -0.0000006415  -0.0030472184
       -0.0007323493  -0.0003240075   0.0001771848  -0.0006974704   0.0000183225
        0.0005510312   0.0003248740  -0.0004640981  -0.0014514400  -0.0000587758
        0.0001944434   0.0004649512   0.0000646635   0.0003877847  -0.0000638581
        0.0002053145   0.0000338401   0.0027088340  -0.0006998999  -0.0002615251
       -0.0006643381  -0.0000598092   0.0007790271  -0.0006870682   0.0004498006
       -0.0006578241  -0.0009401424  -0.0001149916   0.0001005969  -0.0000248284
        0.0002643296  -0.0002219372   0.0003499069   0.0006733818  -0.0003752002
       -0.0014133770   0.0003604863   0.0000356712  -0.0000374836  -0.0004697352
        0.0004908250   0.0000484284   0.0001139049   0.0001827841   0.0012441399
        0.0011582948  -0.0008788155  -0.0014211571  -0.0009057196   0.0008781706
        0.0006832167   0.0007112913   0.0000310531  -0.0011604857  -0.0004347265
        0.0001635420   0.0004994211  -0.0000331198   0.0006110003  -0.0001780890
        0.0002712918   0.0001072682   0.0003265900  -0.0011341310  -0.0001045814
       -0.0007539717   0.0005895124  -0.0001997055  -0.0001521314  -0.0010453596
        0.0005505679   0.0002509496   0.0006002692  -0.0002436755   0.0004722655
        0.0001720082  -0.0000968755   0.0004315683   0.0008160945  -0.0003640152
        0.0006730987  -0.0012967974   0.0001853957   0.1115294651  -0.1172443507
        0.0402271086  -0.0255349369  -0.0139319221   0.0037508379   0.0029132503
        0.0000568079   0.0029720867  -0.0037773691  -0.0124704761   0.0043689842
       -0.0001616377   0.0000759994   0.0001153699   0.0000306105  -0.0000415473
        0.0000640622  -0.0000466777  -0.0000132453   0.0001476493   0.0001625850
       -0.0002183124   0.0000148139  -0.0000468300   0.0000236257  -0.0001194205
       -0.0000385546   0.0001186903   0.0000401401   0.0000206036  -0.0000475880
       -0.0000684686  -0.0000956973   0.0000447075   0.0000995276  -0.0000756275
       -0.0000615799   0.0000261680  -0.0000195528  -0.0002071737  -0.0000114453
        0.0000222105   0.0000194077  -0.0000111170  -0.0000434280   0.0000655236
       -0.0000377782  -0.0000749745  -0.0000861865  -0.0000435580   0.0000226607
        0.0000998344  -0.0000790051   0.0000042147   0.0000021533  -0.0000859331
        0.0000722456  -0.0000432054  -0.0000673177   0.0001100249  -0.0000786959
        0.0000540253   0.0000293886  -0.0000510339   0.0000039464  -0.0000406058
       -0.0001286859   0.0000428815  -0.0000209172   0.0000333341  -0.0000056833
        0.0439872224  -0.1778967764   0.1859295413  -0.0032092581   0.0192441975
       -0.0545279185   0.0015330574  -0.0141573422   0.0066409006   0.0073544932
        0.0062884269  -0.0078226192  -0.0219614859   0.0207000553  -0.0081605676
        0.0220056608   0.0935168353  -0.0798695588  -0.0019148723  -0.0007643773
        0.0073567858   0.0005653371   0.0006257333  -0.0002884393  -0.0007022528
        0.0000318194  -0.0006516259   0.0012144312   0.0008628373  -0.0002101853
       -0.0002504261  -0.0013900590   0.0003077682  -0.0005871124   0.0012325872
       -0.0008812195  -0.0008524180  -0.0004689539  -0.0003122337   0.0008559971
        0.0003636467  -0.0000287608   0.0001363520   0.0002339597   0.0001839758
       -0.0003157932  -0.0002158681   0.0002092977   0.0007571795   0.0000337662
        0.0001485261  -0.0003667023  -0.0000447567  -0.0004475853   0.0000811294
        0.0000246280   0.0000505831  -0.0009768033   0.0002376798   0.0001017747
        0.0001963936   0.0000119681  -0.0002435215   0.0002067804  -0.0001529108
        0.0002154009   0.0005649136  -0.0000755243   0.0000438976  -0.0001695726
        0.0000750273  -0.0001366921   0.0000026621  -0.0002331500   0.0000470895
        0.0002064274  -0.0000993498  -0.0001454645   0.0001688838   0.0000082987
       -0.0000250758  -0.0001988517   0.0000043901   0.0000757838  -0.0004466421
       -0.0007097918   0.0004315931   0.0007749308   0.0004233956  -0.0003335288
       -0.0004797563  -0.0005993856   0.0000814309   0.0008230188   0.0003700130
       -0.0001430584  -0.0004633124   0.0006132145  -0.0003245957   0.0001126524
       -0.0008723228   0.0002409705  -0.0003214919  -0.0002414468  -0.0005194054
        0.0004187420   0.0002396427  -0.0001514719   0.0001526314   0.0000430089
       -0.0000608535   0.0002500317   0.0000897658  -0.0000386461  -0.0005535571
        0.0000536256   0.0000051153  -0.0001026800  -0.0005205992   0.0002424041
       -0.0004378337   0.0006614518  -0.0001237932  -0.0558423004   0.0402683508
       -0.0533390936   0.0089646675   0.0050980011  -0.0005380621  -0.0021257854
        0.0029580279   0.0067981013   0.0010593334   0.0036581622  -0.0001049719
        0.0000396042   0.0000755512   0.0001735563  -0.0000120199   0.0000342692
        0.0000071580   0.0000077713   0.0000414391   0.0000318936  -0.0000422935
        0.0000667686  -0.0000696422   0.0000182217   0.0000017168   0.0000440906
        0.0000143647  -0.0000452237  -0.0000183982  -0.0000059275  -0.0000065110
        0.0000157692  -0.0000222934   0.0000174269  -0.0000724569   0.0000340017
        0.0000373786   0.0000055162   0.0000080140   0.0000589523   0.0000056024
       -0.0000020433  -0.0000013365   0.0000082996   0.0000197673  -0.0000134022
        0.0000155967   0.0000109040   0.0000517803   0.0000240607  -0.0000155939
       -0.0000338121   0.0000292629   0.0000020774   0.0000161591   0.0000564169
       -0.0000765001   0.0000636487   0.0000525794  -0.0000848126   0.0000636531
        0.0000099466  -0.0000122804   0.0000159328   0.0000002074  -0.0000006963
        0.0000403760  -0.0000158218   0.0000057134  -0.0000146694   0.0000143712
       -0.2640380313  -0.0388997173  -0.0032092581   0.6123296614   0.0110464622
        0.0377316422  -0.2455910049   0.0526485751  -0.0341898199   0.0100587105
        0.0749149338  -0.0281417422  -0.0399017154   0.0083441479  -0.0057556192
        0.0082793531  -0.0763167165   0.0300475643  -0.0066352133   0.0002495541
       -0.0005081620   0.0005055769  -0.0020265504   0.0010254271  -0.0072012284
        0.0037524053  -0.0017159469   0.0100910244   0.0036555891  -0.0008581410
       -0.0009786330  -0.0082270698   0.0039037366   0.0079996447   0.0108254162
       -0.0046100529   0.0076938841  -0.0220176530   0.0071054844   0.0019980622
        0.0012286839   0.0007849305  -0.0011683152   0.0003160376  -0.0010873863
        0.0013166201   0.0006043318  -0.0006407901  -0.0015161320  -0.0006871466
       -0.0001586786   0.0013959313   0.0000618078   0.0008635062  -0.0013959131
       -0.0011890445   0.0010110198   0.0005965933   0.0010957214   0.0004283523
       -0.0000733027  -0.0002219053  -0.0000168145  -0.0000904534  -0.0001674081
       -0.0001947029  -0.0001854714   0.0001865599  -0.0001146449   0.0003558623
       -0.0004450380   0.0002594958  -0.0003653559  -0.0001183373   0.0002958156
        0.0002365556   0.0000493061   0.0001347268   0.0000133784   0.0002773452
       -0.0001480347   0.0001621270  -0.0001403368  -0.0002422456  -0.0008666534
       -0.0037254715   0.0020556698   0.0035143288   0.0018413042  -0.0020800226
       -0.0015348032  -0.0024656097   0.0008854493   0.0040166515   0.0003300514
       -0.0003222605  -0.0016867109   0.0011704440  -0.0008192233   0.0002889026
       -0.0000125427   0.0006809478  -0.0022486032  -0.0003746867  -0.0006980985
        0.0013055245   0.0009887714  -0.0007838635   0.0000338347  -0.0004411656
        0.0001941502   0.0013561035   0.0006440849  -0.0003011804  -0.0022161278
        0.0007414787  -0.0001344929   0.0000563293  -0.0021194220   0.0009208879
       -0.0021196170   0.0029703551  -0.0011143469  -0.0249216207  -0.0082793149
        0.0011360049  -0.0457196517  -0.0226700859   0.0058920570  -0.0244371850
        0.0125015287  -0.0066883907   0.0012422786  -0.0005192199  -0.0001937038
        0.0002949574   0.0001320759  -0.0000165008  -0.0000556495  -0.0000109995
       -0.0000419769   0.0001301477  -0.0000297557  -0.0002485974  -0.0001133578
        0.0000255793  -0.0000083891  -0.0000593099   0.0000756656  -0.0000266476
        0.0000379584   0.0000025707  -0.0000176998  -0.0000185204   0.0001187313
        0.0000332635  -0.0002857940   0.0001684843  -0.0000620240   0.0000162101
       -0.0000135197  -0.0000441591   0.0000625170   0.0001783026  -0.0000249646
        0.0000000709  -0.0000039403  -0.0000686584   0.0000016213  -0.0000434792
       -0.0000176540  -0.0000388406   0.0000254462   0.0000343940  -0.0000127700
       -0.0000529456  -0.0000283678  -0.0000222341  -0.0000047039   0.0000535635
        0.0000079359   0.0000319865  -0.0000326428   0.0000080627   0.0000076787
       -0.0000382829   0.0000240832  -0.0000093476  -0.0000047601   0.0000139496
        0.0000241025  -0.0000470635   0.0000537668  -0.0000023856  -0.0000220776
       -0.1186026444  -0.1246241188   0.0192441975   0.0110464622   0.5988887719
       -0.1788066450   0.1321439969  -0.1466688903   0.0481653568   0.0212247326
       -0.0408729106   0.0171946183   0.0014892533   0.0084443507  -0.0052404897
       -0.0256987709  -0.0252035198   0.0085203972   0.0022985452  -0.0063915496
        0.0025200532   0.0010274073   0.0027416556  -0.0010994618   0.0018526284
       -0.0013505826   0.0007499321  -0.0014482191   0.0006686309  -0.0003190502
       -0.0003534833  -0.0009993945   0.0002385362  -0.0026934977  -0.0011683641
        0.0002605207  -0.0054220354  -0.0021456017   0.0020719400   0.0014700534
        0.0005262848   0.0002455917   0.0005007973   0.0007393573   0.0005676020
       -0.0012205932  -0.0008173380   0.0012878524   0.0022578175   0.0010518405
        0.0000613873  -0.0011196751   0.0001671087  -0.0012340435   0.0005765144
        0.0003307707  -0.0003421862  -0.0019681935   0.0001678423  -0.0000014228
        0.0001792476   0.0001326824  -0.0003410601   0.0001728069  -0.0001302024
        0.0003436536   0.0040596839  -0.0017578368  -0.0002303270  -0.0029682088
        0.0018972646  -0.0022431225   0.0029663514  -0.0000531123  -0.0023103957
       -0.0032551237   0.0007965207   0.0002227701   0.0024232646  -0.0024396910
        0.0016733366  -0.0029738033   0.0001491028   0.0025464189   0.0009918296
        0.0007831307  -0.0007389921  -0.0005596683  -0.0001913989   0.0000806132
        0.0003715778   0.0002604225   0.0001430463  -0.0003523072  -0.0002443349
        0.0001739522   0.0000663134  -0.0004434626   0.0003733380   0.0001661132
        0.0005554300  -0.0004157080  -0.0003316131   0.0002113745   0.0003215583
       -0.0009373496   0.0002486963   0.0000187870   0.0000105741  -0.0006803632
        0.0002681575  -0.0001471486   0.0002098524  -0.0000607262   0.0005179218
        0.0000603742  -0.0000563943   0.0001972640   0.0005139464  -0.0002196796
        0.0005921795  -0.0010082259   0.0002366509   0.0139494936   0.0054373692
       -0.0006800075  -0.0224964282  -0.2702360093   0.0852718509  -0.0090927230
        0.0061410280  -0.0025420220  -0.0009927794  -0.0038921869   0.0044365370
        0.0000044372   0.0000433062  -0.0001199132   0.0000092250   0.0000307684
       -0.0000194725  -0.0000230622  -0.0000274968   0.0000980448  -0.0000393227
        0.0000613674  -0.0000632754  -0.0000075104  -0.0000559609  -0.0000539344
        0.0000554337  -0.0001470265  -0.0000583917  -0.0000015467  -0.0000332954
        0.0000052396   0.0001323900  -0.0000699758  -0.0001194099  -0.0000285373
        0.0000888331   0.0000408374  -0.0001744804  -0.0000268013  -0.0000921040
        0.0000570363   0.0001817010   0.0000673908   0.0000380941   0.0002607795
        0.0000563375   0.0000358387  -0.0000627541  -0.0000341370   0.0000223938
       -0.0000007296  -0.0000553846   0.0000090320  -0.0000367080  -0.0000162934
       -0.0000054989   0.0000258346   0.0000222690  -0.0000021711   0.0000308105
       -0.0000226766   0.0000089184  -0.0000231281  -0.0000045485  -0.0000004668
       -0.0000252610   0.0000031086  -0.0000087668  -0.0000189771   0.0000093918
        0.0261058443   0.0250680602  -0.0545279185   0.0377316422  -0.1788066450
        0.1806173912  -0.0660104989   0.0430845829  -0.0639419290  -0.0062509257
        0.0200616021  -0.0079654144  -0.0039199786  -0.0037165829  -0.0032916937
        0.0104624797   0.0039729737   0.0004718848  -0.0011474852   0.0016566265
       -0.0009743323  -0.0003493145  -0.0006699702   0.0003555574  -0.0008045303
        0.0004430772  -0.0001671113   0.0008132871  -0.0001620544   0.0001513113
        0.0001544646  -0.0000402423  -0.0001124765   0.0013742191   0.0010478551
        0.0000206301   0.0010532431   0.0018334583   0.0050767284  -0.0002740770
        0.0002153749   0.0001974209  -0.0000433381  -0.0004754833  -0.0002907008
        0.0002922353   0.0002597967  -0.0003235060  -0.0007795108  -0.0002914834
       -0.0004260796   0.0004745210  -0.0000285845   0.0006571387   0.0000407144
        0.0000036242  -0.0000422466   0.0007802733   0.0000257358  -0.0000482077
       -0.0000771432  -0.0000637626   0.0001391346  -0.0000714689   0.0000293342
       -0.0001179519  -0.0015412148   0.0006866222   0.0001828253   0.0011309911
       -0.0007582534   0.0008871860  -0.0011377073  -0.0000073087   0.0010609385
        0.0017754792  -0.0003233851   0.0000021452  -0.0010376834   0.0011020034
       -0.0007370979   0.0012486120  -0.0001236454  -0.0010876785  -0.0003869248
       -0.0002219136   0.0001226935  -0.0001427384  -0.0003902801  -0.0010990103
       -0.0003634230  -0.0002929967  -0.0001420464   0.0003168206   0.0001731120
       -0.0001673651  -0.0000786923   0.0001604128  -0.0001408424   0.0000569269
       -0.0003892365  -0.0002389234   0.0000972889  -0.0001339305  -0.0001803622
        0.0003077148  -0.0003609189  -0.0000073235  -0.0000910776   0.0005371757
       -0.0002511993  -0.0000821658  -0.0001345252   0.0000507042  -0.0001127607
       -0.0000501816   0.0000090142  -0.0000768613  -0.0001070351   0.0000310069
       -0.0000804509   0.0003967539  -0.0000627401  -0.0072342054  -0.0021752700
        0.0016517227   0.0069611952   0.0853587242  -0.0627586541   0.0010379175
       -0.0006626715   0.0017396699   0.0000231986   0.0043836911   0.0056498057
        0.0000257028  -0.0000021947   0.0000651467   0.0000071141  -0.0000253097
       -0.0000434483   0.0000071368   0.0000240969  -0.0000212501   0.0000105041
       -0.0000191734   0.0000004688  -0.0000045330   0.0000175727   0.0000206375
       -0.0000468286   0.0000999268   0.0000387184  -0.0000160626   0.0000204277
        0.0000177961  -0.0000942310  -0.0000517052   0.0000077752  -0.0000133771
       -0.0000455722  -0.0000303282   0.0000758502   0.0000179543  -0.0000316801
       -0.0000206542  -0.0000617476  -0.0000270876  -0.0000225141  -0.0001091851
       -0.0000319042   0.0000014341   0.0000451794   0.0000004898  -0.0000071740
       -0.0000006525   0.0000568282   0.0000049235   0.0000355108   0.0000143074
       -0.0000126348   0.0000022172  -0.0000044890  -0.0000217630  -0.0000162397
        0.0000068631  -0.0000061722  -0.0000184652   0.0000006760  -0.0000031620
       -0.0000084182  -0.0000063738  -0.0000084512  -0.0000184587  -0.0000052436
       -0.0685113380  -0.0184962686   0.0015330574  -0.2455910049   0.1321439969
       -0.0660104989   0.6658099635   0.0337553443   0.0365433647  -0.0863936110
       -0.0710954174   0.0226216259   0.0063855930  -0.0230872362   0.0093912857
       -0.0034706732   0.0210456593  -0.0082117191  -0.0013831576  -0.0065605762
        0.0023067958   0.0005823077   0.0004240466  -0.0001858803   0.0027159852
       -0.0018422065   0.0008945346  -0.0039430417  -0.0002625576  -0.0000737639
        0.0008146599   0.0028819835  -0.0015536281  -0.0082773431  -0.0008731111
       -0.0004354919   0.0011639990   0.0306415685  -0.0112316817   0.0004697049
        0.0007926086  -0.0004910035   0.0009460795   0.0004916623   0.0009598927
       -0.0010576541  -0.0006683536   0.0007990768   0.0015863595   0.0006562948
        0.0002789676  -0.0006736921   0.0002790968  -0.0008420651  -0.0007245299
        0.0012752554  -0.0007110680  -0.0013149933  -0.0003987719  -0.0003237095
        0.0000987573   0.0001236108  -0.0000353630   0.0001342111   0.0000072979
        0.0002299281   0.0021062545  -0.0010658282   0.0001609364  -0.0018695127
        0.0013864237  -0.0013090935   0.0017991193   0.0003292760  -0.0012769198
       -0.0024102791   0.0005614034  -0.0001647098   0.0012773831  -0.0015415713
        0.0009306717  -0.0015949812   0.0002031600   0.0013722083   0.0014841813
        0.0012295396  -0.0010345954  -0.0009120915  -0.0008583779   0.0008613547
        0.0008123267   0.0010541567  -0.0001198643  -0.0015240769  -0.0003628435
        0.0003631384   0.0004022283  -0.0006823073   0.0004754527  -0.0003385511
        0.0003469507  -0.0003292792   0.0005510471   0.0002805711   0.0004345733
       -0.0011124755  -0.0001321547   0.0002355628  -0.0002402347  -0.0002316166
        0.0000762699  -0.0005785803  -0.0000284915   0.0000175607   0.0010148369
       -0.0000293190  -0.0000785393   0.0002288948   0.0009997500  -0.0004239723
        0.0014029709  -0.0017155577   0.0003494557  -0.0048750489  -0.0024588076
       -0.0000179058   0.0005349177   0.0010968934   0.0002508271  -0.2554623071
       -0.1002894365   0.0136224771   0.0003417363   0.0005088648  -0.0001805028
       -0.0000255366  -0.0000090600  -0.0000661329   0.0000601979  -0.0000655888
        0.0000389728   0.0000244954   0.0001012955   0.0001141154   0.0000750009
        0.0000044541  -0.0000164322   0.0000619017  -0.0000925103   0.0000947951
        0.0000286743  -0.0001050050  -0.0000266387  -0.0000276620  -0.0000391037
       -0.0000111676  -0.0005191634   0.0004412131   0.0001969032  -0.0000472841
        0.0000297211   0.0000431969  -0.0000183649  -0.0002840562   0.0000763890
        0.0000500298   0.0000855866   0.0000793744   0.0000294802   0.0001563658
        0.0000391915  -0.0000146358   0.0001093480  -0.0001856607  -0.0000372484
        0.0000061543  -0.0000222559   0.0000263287   0.0000053153  -0.0000836344
       -0.0000172945  -0.0000459737  -0.0000191080  -0.0000069963  -0.0000115371
       -0.0000113582   0.0000022517  -0.0000289630   0.0000191922  -0.0000030965
       -0.0000374267   0.0000330908  -0.0000454177  -0.0000548336   0.0000394046
        0.0382560957   0.0462308043  -0.0141573422   0.0526485751  -0.1466688903
        0.0430845829   0.0337553443   0.5664534521  -0.1596912485  -0.0353748406
       -0.2665938515   0.0759775671  -0.0467916392  -0.0214440131   0.0049629006
        0.0122055323  -0.0315189594   0.0119804499  -0.0086905769   0.0060487142
       -0.0012862471  -0.0005919344  -0.0029562538   0.0015297113  -0.0061362050
        0.0028854764  -0.0015240637   0.0085540864   0.0016499375  -0.0002900304
       -0.0007977524  -0.0064836736   0.0036958961   0.0123985859   0.0096275762
       -0.0016904739   0.0224633185  -0.0493655500   0.0185013211  -0.0039348271
       -0.0003645935   0.0000737854  -0.0005209654  -0.0005700499  -0.0006264953
        0.0015218308   0.0006931378  -0.0010581041  -0.0031583689  -0.0007051752
       -0.0000693708   0.0015745557  -0.0001705802   0.0013294122  -0.0009916162
       -0.0008783667  -0.0001771906   0.0038427808   0.0004089750   0.0000179457
       -0.0007872381  -0.0003695459   0.0010217209  -0.0007480749   0.0002979300
       -0.0009200213  -0.0027771236   0.0006411260   0.0001715486   0.0014773759
       -0.0009013245   0.0008928028  -0.0011628307   0.0004516256   0.0009023904
        0.0004427987  -0.0000456971  -0.0000640962  -0.0010565144   0.0008320649
       -0.0004200049   0.0014744942  -0.0001166741  -0.0011593423   0.0003804736
       -0.0014631841   0.0001026667   0.0004841002  -0.0003974208  -0.0003570949
       -0.0010577517  -0.0004114953   0.0011281578   0.0024724432   0.0002502155
       -0.0002971061  -0.0010315818   0.0007219987  -0.0005994546   0.0000563484
       -0.0000494664   0.0004636058  -0.0005732303  -0.0013615541  -0.0004095882
        0.0006258625   0.0010629316  -0.0005658461  -0.0000264672  -0.0008882124
        0.0004844083   0.0010919812   0.0008061395  -0.0003621679  -0.0011193847
        0.0004963276  -0.0000826953   0.0002618477  -0.0007236247   0.0003344329
       -0.0010023764   0.0009255542  -0.0005892109  -0.0025643045   0.0006694191
        0.0021424895   0.0231231128  -0.0179747027   0.0080207844  -0.0995221815
       -0.0880236310   0.0098674079   0.0004130495  -0.0002145496  -0.0000111571
        0.0003028878   0.0002354739   0.0000709789  -0.0000498617  -0.0000360680
       -0.0000779021   0.0000377940  -0.0000708042  -0.0003137789  -0.0001936240
        0.0000244031  -0.0000228905  -0.0000577532   0.0001326335  -0.0000483643
       -0.0000252396   0.0001523959   0.0000461846  -0.0000302970  -0.0000544969
        0.0000215307   0.0008854283  -0.0003102444   0.0003610063  -0.0000970933
       -0.0000961558   0.0000068187   0.0000178732  -0.0000650580  -0.0000372824
       -0.0000072201  -0.0000579558  -0.0000610297  -0.0000680653  -0.0000721571
       -0.0000589401   0.0000329302  -0.0000338094  -0.0000448910  -0.0000573832
       -0.0000296687  -0.0000112543   0.0000373606   0.0000191587  -0.0000390889
        0.0000873865  -0.0000598654  -0.0000383272   0.0000822810  -0.0000638567
        0.0000134540   0.0000383309  -0.0000515820  -0.0000079598  -0.0000378410
       -0.0000902655  -0.0000020053  -0.0000047016   0.0000355565  -0.0000338947
       -0.0207847119  -0.0191322271   0.0066409006  -0.0341898199   0.0481653568
       -0.0639419290   0.0365433647  -0.1596912485   0.1705615384   0.0081551346
        0.0735662132  -0.0681818416   0.0181211837   0.0070056689  -0.0012928455
       -0.0044379798   0.0128576076  -0.0079772970   0.0030954203  -0.0017078454
        0.0053050183   0.0002844747   0.0021187927  -0.0003127517   0.0032097709
       -0.0019283348   0.0005842694  -0.0042842025  -0.0009933875  -0.0000269614
        0.0005190325   0.0037175982  -0.0006513531  -0.0062902244  -0.0026744425
        0.0034895209  -0.0066711629   0.0213923215  -0.0107970446   0.0008688059
       -0.0006282289  -0.0007712284   0.0005901321   0.0001274682   0.0007210789
       -0.0009586009  -0.0005155648   0.0007652727   0.0014895060   0.0006186646
        0.0000156505  -0.0008182336   0.0000331619  -0.0006217004   0.0008018901
        0.0004012501  -0.0009181110  -0.0013592770  -0.0002765506  -0.0001445904
        0.0002073149   0.0001572821  -0.0002529213   0.0002277626  -0.0000484488
        0.0003682229   0.0015837964  -0.0004960281  -0.0001774995  -0.0008905245
        0.0006254074  -0.0007685705   0.0009052902  -0.0001886188  -0.0009028306
       -0.0007428920   0.0001192183   0.0000713598   0.0008631444  -0.0007972025
        0.0006340591  -0.0010682026   0.0000981539   0.0009272398   0.0007316869
        0.0021167683  -0.0015020489  -0.0024229798  -0.0022449960   0.0007771774
        0.0001225037   0.0011265960  -0.0006114272  -0.0008822787   0.0001491038
       -0.0001420894   0.0003315663   0.0000281845   0.0000800140  -0.0002266631
       -0.0005555715   0.0000815080   0.0011588043   0.0000166950   0.0000757457
       -0.0007379402  -0.0004332751   0.0003587086   0.0000358283   0.0002134169
       -0.0001240374  -0.0007526485  -0.0003738976   0.0001744143   0.0011470052
       -0.0004469101   0.0000837064  -0.0000613518   0.0011731132  -0.0005149019
        0.0009578009  -0.0013671883   0.0006498020  -0.0000760118   0.0020755776
        0.0059309280  -0.0083345187   0.0066683288  -0.0026780721   0.0138287259
        0.0101413960  -0.0350917694  -0.0001056043   0.0000489751  -0.0002302824
       -0.0001157781  -0.0000560991   0.0000225243   0.0000418976  -0.0000283845
       -0.0000839597  -0.0000056022  -0.0000092696  -0.0000558635   0.0000762617
        0.0000061177   0.0000288774   0.0000276493  -0.0000569044   0.0001025286
        0.0000037404  -0.0000716745  -0.0000013174  -0.0000100930  -0.0000258562
        0.0000046665   0.0003716755  -0.0002250271   0.0002722931  -0.0000256860
        0.0000447719   0.0000184188  -0.0000371556  -0.0000042578  -0.0001085749
       -0.0000141141   0.0000507662   0.0000121686   0.0000086301   0.0000822781
        0.0000408915  -0.0000031411  -0.0000088004  -0.0000186413   0.0000228781
        0.0000117591   0.0000321682  -0.0000190877  -0.0000040827  -0.0000005733
       -0.0000302298   0.0000147640   0.0000160992  -0.0000027868   0.0000027150
        0.0000058795  -0.0000072431   0.0000086385   0.0000048911   0.0000256783
        0.0000049307   0.0000226033   0.0000083901   0.0000012612   0.0000228893
       -0.0069843831  -0.0192751878   0.0073544932   0.0100587105   0.0212247326
       -0.0062509257  -0.0863936110  -0.0353748406   0.0081551346   0.5471546720
        0.0465245449   0.0162396186  -0.2139737112  -0.0814531103   0.0241155037
       -0.0536888128   0.0290056333  -0.0145657634  -0.0124617974  -0.0365320435
        0.0138517384   0.0033233223   0.0070427046  -0.0030772206  -0.0037040960
       -0.0009905438   0.0005754472   0.0081630454   0.0049299847  -0.0017086079
       -0.0029250235  -0.0144537198   0.0060914448   0.0171288693   0.0281386241
       -0.0092391303  -0.1604154336   0.0575837409  -0.0389353963  -0.0330764118
        0.0151933520  -0.0093765417  -0.0006079622   0.0006201387   0.0019632467
       -0.0011118301  -0.0013854014  -0.0002708941   0.0011432523   0.0008834582
        0.0002780226  -0.0004581937  -0.0003520671  -0.0010815662   0.0008083834
        0.0014212181  -0.0014452142  -0.0012190690   0.0012702224   0.0005407044
        0.0000592227  -0.0000450309  -0.0002115702   0.0000711680  -0.0001812612
        0.0000922962   0.0041668953  -0.0020798452  -0.0003904062  -0.0032656458
        0.0019510048  -0.0026052832   0.0031715290  -0.0000985897  -0.0024257306
       -0.0041714047   0.0011519620   0.0003931551   0.0029078304  -0.0027056800
        0.0019472534  -0.0034057907   0.0001552451   0.0027951018   0.0017103409
       -0.0016931041   0.0000972506   0.0011480839  -0.0005736678   0.0003713612