82
 energy: -118.477315406780 gnorm: 0.000037769282 xtb: 6.7.1 (edcfbbe)
C          -10.02033525443139       -0.33991153415581        1.23330393772668
C           -9.14212400196267       -0.00839305139666        0.01188083408722
C          -10.02674022824157        0.32033586194290       -1.20566934258632
C           -8.29300987059638        1.20745255532769        0.33388716844341
C           -8.91256978380860        2.40825888929940        0.65236263563895
C           -8.19349831524182        3.55578454749461        0.93355796904345
C           -6.81157260122100        3.51507029263512        0.88613866412427
C           -6.16998359898216        2.33468777866989        0.57433217832259
C           -6.89437292062366        1.16850381217638        0.30786092133552
N           -6.21981556993977       -0.00434710824561        0.00716393950020
C           -4.79688117673170       -0.00284769630796        0.00694973251212
C           -4.09986128014723       -0.08250206675924        1.20861030656720
C           -2.71983688343632       -0.07881551892291        1.21124893280729
C           -2.01527271125258        0.00014806376958        0.00695232803581
C           -0.60417566362829        0.00171388032475        0.00719902138850
C            0.60403061663612        0.00311124840150        0.00795790285204
C            2.01513349558687        0.00411960164038        0.00889592869366
C            2.72067956653851       -0.07687136289906       -1.19468093524082
C            4.10072450099954       -0.07902736099934       -1.19097116387284
C            4.79665329164389        0.00413896908701        0.01105245404541
N            6.21969576645115        0.00352696400616        0.01235238566161
C            6.89211545605646       -1.17193253912191        0.30726848246498
C            6.16550509267758       -2.33782232125430        0.56889354829445
C            6.80495427214198       -3.52102317864506        0.87433915934884
C            8.18684582489640       -3.56480412139944        0.92015988124611
C            8.90804875573743       -2.41723030046301        0.64461596989649
C            8.29067727037759       -1.21355245841720        0.33285028109330
C            9.14190246784534        0.00272312014435        0.01799998833107
C           10.02701239699396       -0.32080394790215       -1.20057863346731
C           10.01977556102504        0.32633922886887        1.24179938630996
C            8.29256168636020        1.21907191394581       -0.30160472854688
C            8.91180109085034        2.42214647422078       -0.61197979317307
C            8.19230941567101        3.56987748013383       -0.89132530267370
C            6.81023271869397        3.52691632398677       -0.85080173587246
C            6.16894864312019        2.34439275495712       -0.54656577952035
C            6.89388310155312        1.17832529344777       -0.28114784716070
C            4.09887147741721        0.08771738521400        1.21195867777061
C            2.71882129037055        0.08555925943151        1.21352975069533
C           -2.71998409778148        0.07743074099169       -1.19735180952153
C           -4.10002933718008        0.07815467297337       -1.19471499052642
C           -6.89207128727840       -1.17881208995513       -0.29243073388984
C           -6.16535985676625       -2.34273386338370       -0.56243939284559
C           -6.80471030470037       -3.52462730520032       -0.87311283157010
C           -8.18667614520586       -3.56925015694275       -0.91551131267457
C           -8.90796803069277       -2.42395307590766       -0.63094422900458
C           -8.29067783279800       -1.22161303574659       -0.31384272440083
H           -9.39095601388509       -0.58172069938378        2.08833628179412
H          -10.66244382103976       -1.19226886750956        1.02910688580229
H          -10.65009690242846        0.50468537027249        1.49901269663605
H          -10.66986502192380        1.17133673849005       -0.99907025463013
H          -10.65583512007546       -0.52583225944213       -1.46791496251003
H           -9.40187950062739        0.56298692844524       -2.06378219283804
H           -9.99071149050697        2.45688430011189        0.68230177448879
H           -8.70856684457636        4.47243947647137        1.17955841677331
H           -6.22898903381144        4.40170881456319        1.09021068344567
H           -5.09175096045573        2.31360760079224        0.53196656570392
H           -4.64991418687534       -0.14374292674736        2.13638768732673
H           -2.17622991681133       -0.14014788901390        2.14246289762635
H            2.17784589298390       -0.14107209751347       -2.12615271748330
H            4.65160637298206       -0.14206953825563       -2.11813381658040
H            5.08726801233261       -2.31408348192831        0.52791778722071
H            6.22076693340243       -4.40746014519381        1.07467595507831
H            8.70022882093930       -4.48377618302175        1.16099702073884
H            9.98610879630849       -2.46811694259399        0.67375939844378
H           10.65563173831574        0.52674196063202       -1.45948262184990
H            9.40258499729960       -0.56065729310347       -2.05978928908879
H           10.67064770078863       -1.17214419980460       -0.99698509715819
H            9.39024383773835        0.56753193402480        2.09688626100357
H           10.64589210079791       -0.52166341590773        1.50528170763045
H           10.66542100434737        1.17694408538458        1.04147122116317
H            9.98999327295303        2.47248043610947       -0.63676581578129
H            8.70715061973391        4.48832570974786       -1.13103527818695
H            6.22730908193482        4.41347482312888       -1.05424810160361
H            5.09055280455109        2.32135433046854       -0.50956127494218
H            4.64830744596978        0.15079264716155        2.13997833917988
H            2.17457109083997        0.14985306629210        2.14416792328743
H           -2.17653547354544        0.13970566743719       -2.12859398709942
H           -4.65022115706183        0.13817240269167       -2.12249071105722
H           -5.08705375854344       -2.31871023047886       -0.52383207390088
H           -6.22034280908727       -4.40941474321234       -1.08009847749498
H           -8.70001073793961       -4.48717473341271       -1.16041008299371
H           -9.98606646238092       -2.47561081096063       -0.65696580128646
