$hessian                                                                        
        0.0713700463   0.0172613798  -0.0402139735  -0.0508116262  -0.0214020707
        0.0206122230  -0.0096139442  -0.0203428786   0.0365921267  -0.0040414500
        0.0006356902   0.0022256547   0.0031058274   0.0009805434  -0.0015421319
       -0.0031853210   0.0002051087   0.0012606635   0.0022918478  -0.0000028941
       -0.0002855444   0.0003876820   0.0004577827   0.0004164384   0.0000758164
       -0.0006048024  -0.0000705211   0.0005807068   0.0002481048  -0.0003081065
       -0.0005377943   0.0002847268   0.0002953436  -0.0001910653  -0.0004884841
       -0.0000145167  -0.0005193818   0.0008437506   0.0003734405   0.0007307373
        0.0000371066  -0.0004081257  -0.0008014468  -0.0007923805   0.0004040287
       -0.0001419713   0.0003187039   0.0000818861  -0.0005465331  -0.0002292543
        0.0002000564   0.0006522268  -0.0002593797  -0.0003402656   0.0001305189
        0.0007466356  -0.0001511330   0.0001995787  -0.0007838600  -0.0005614296
        0.0004742182  -0.0016819465   0.0021939565  -0.0042426221   0.0027957112
        0.0020362246  -0.0009762440   0.0147853028  -0.0235195628  -0.0037930407
        0.0024085263  -0.0004325847   0.0014206602  -0.0011008393   0.0007931751
       -0.0020476541   0.0017647811  -0.0005943406   0.0009080082   0.0001084811
       -0.0007568231  -0.0029240368   0.0048893968   0.0019585078  -0.0003180931
        0.0005089047  -0.0012992225   0.0001081420  -0.0005546627   0.0004614133
       -0.0007663270   0.0006382659  -0.0001398451   0.0009409237   0.0004729039
       -0.0003738961  -0.0003307127  -0.0008707568   0.0003266176   0.0006200060
        0.0012797764  -0.0006023218   0.0016568303  -0.0020003136   0.0010633955
       -0.0007418431   0.0000144605   0.0002407314   0.0004026528  -0.0000818643
       -0.0000552544  -0.0002303997  -0.0001149724  -0.0000358359   0.0001690091
        0.0001491816   0.0000683101  -0.0002748371  -0.0002301193  -0.0001075496
        0.0001466483   0.0003723003   0.0000969295   0.0001223144  -0.0003076402
        0.0000997393  -0.0000931264   0.0000133881  -0.0001017081  -0.0000201237
        0.0000224556   0.0000189482  -0.0001256136   0.0000400556  -0.0001197463
        0.0001351609  -0.0001180296   0.0001418864  -0.0000296639   0.0002241311
       -0.0000335862   0.0001395744   0.0000607023   0.0001423868  -0.0001378241
        0.0001159108  -0.0001485145   0.0000660152  -0.0001033349   0.0000678447
        0.0000319018  -0.0000189624   0.0000192243   0.0000376751  -0.0001067185
        0.0000502123  -0.0002317164   0.0000086465  -0.0001759327   0.0002974245
        0.0001707147  -0.0000358307   0.0006838150  -0.0007625218   0.0003880872
        0.0001988737  -0.0004229940  -0.0000595656   0.0000132100   0.0000772728
       -0.0000075301   0.0000039471   0.0000256178  -0.0000193755  -0.0000025834
        0.0000010140  -0.0000070904  -0.0000013864  -0.0000052062   0.0000114816
        0.0000024980   0.0000064003   0.0000009056  -0.0000000947   0.0000036417
        0.0000141255   0.0000162639  -0.0000168772   0.0000262475   0.0000254653
       -0.0000902032   0.0000100700  -0.0003544434  -0.0003487054   0.0004588148
       -0.0005540604   0.0002701296   0.0004754671   0.0004382211   0.0008853240
       -0.0008507749   0.0002071624  -0.0004475392  -0.0006640557  -0.0002397871
        0.0002606398   0.0003245624  -0.0000501488  -0.0000977789  -0.0001480771
       -0.0000265920  -0.0000505128  -0.0000253713   0.0000329930  -0.0000586476
        0.0000073313   0.0000372189   0.0001626542   0.0002322559  -0.0000227370
        0.0000118561   0.0000397133   0.0000366053  -0.0000184067  -0.0000115186
        0.0000157347  -0.0000126776  -0.0000176841   0.0000398582  -0.0000305475
        0.0000229336   0.0000223521   0.0000295286   0.0000013739   0.0000144689
       -0.0000281914   0.0000112843  -0.0000061263  -0.0000062750   0.0000014063
        0.0000000531   0.0000063103  -0.0000005429  -0.0000126519  -0.0000063582
       -0.0000321895  -0.0000061505   0.0000016704  -0.0000040152  -0.0000182445
        0.0000087160  -0.0000005236  -0.0000214760  -0.0000146985   0.0000091927
        0.0172613798   0.1658681810  -0.2333077050  -0.0313359882  -0.1415013721
        0.1760519309  -0.0024490769  -0.0047968676   0.0188884127  -0.0050191962
        0.0016334943  -0.0015883605   0.0033329632   0.0015415939  -0.0055712147
       -0.0048473431  -0.0000953243   0.0015796291  -0.0007621693   0.0000443856
        0.0000778092   0.0006723763   0.0019362616  -0.0006193646   0.0000975912
       -0.0010121554  -0.0001184953   0.0008973427   0.0003978064  -0.0004519692
       -0.0007144743  -0.0001107291   0.0003846542  -0.0000700546   0.0001334188
        0.0000413799  -0.0010027617  -0.0000095324   0.0006862171   0.0001587957
       -0.0001557331  -0.0001103338  -0.0013659136   0.0002768209   0.0004894032
       -0.0001341664  -0.0002991637  -0.0001183368  -0.0008389151   0.0002942258
        0.0004193995   0.0011625792  -0.0005310975  -0.0005795946  -0.0000441265
        0.0014858394  -0.0002200834   0.0012230560  -0.0021345538   0.0000203971
        0.0082177453  -0.0012451527   0.0018923227  -0.0055260564   0.0009761936
        0.0077428336   0.0206770857  -0.0211316967   0.0370622838  -0.0025977566
       -0.0008867758  -0.0014451511  -0.0001807845   0.0008509618  -0.0010639830
        0.0013833906  -0.0005917809   0.0003820195  -0.0008238487  -0.0009967356
        0.0006444178   0.0025866485  -0.0014338000  -0.0006163737   0.0002406013
       -0.0002223107   0.0004712423  -0.0000347360   0.0002779501  -0.0003241401
        0.0004609592  -0.0004609623   0.0000902541  -0.0005158413   0.0000082645
        0.0001998259   0.0001512578   0.0003099615  -0.0000513099  -0.0004313539
       -0.0003484470  -0.0000611875  -0.0004814150   0.0009201764  -0.0004502416
       -0.0001429405  -0.0002235680  -0.0001747739   0.0004400921  -0.0001435128
       -0.0001346204  -0.0004268543  -0.0002435317  -0.0000323344   0.0002122307
        0.0001193791  -0.0000807409  -0.0004515799  -0.0000265760   0.0000115169
        0.0000168342   0.0000635000   0.0000841047   0.0000254837   0.0000399756
       -0.0001004215   0.0001158895   0.0001600223   0.0001532208   0.0000318812
       -0.0001824637   0.0001095314   0.0002640855  -0.0000239195   0.0002516552
       -0.0003961421   0.0003292943  -0.0004100054   0.0002092863  -0.0003750237
        0.0002061016  -0.0003249066   0.0000587972  -0.0003606234   0.0003753001
       -0.0003322828   0.0003675665  -0.0001561169   0.0003757740  -0.0001929931
       -0.0001361688  -0.0000060741  -0.0001136104   0.0000071642   0.0002830745
       -0.0000237782   0.0000936663  -0.0000034029   0.0000932422   0.0005782674
        0.0004689860   0.0001352551  -0.0007368096  -0.0000415361  -0.0007391061
        0.0001399226   0.0000348661  -0.0000063558  -0.0000128378   0.0002261352
        0.0000037330   0.0000985213  -0.0001374028   0.0000558888  -0.0001169727
       -0.0002284926  -0.0002048679  -0.0002278277  -0.0000158994  -0.0000309887
       -0.0001756729   0.0000604776   0.0000950593  -0.0001244605   0.0002750658
       -0.0000016856   0.0000608843   0.0002017587   0.0001554972  -0.0000590299
       -0.0002380274   0.0000785592  -0.0003623105  -0.0000196793  -0.0000472653
        0.0003772161  -0.0001928664   0.0000296388   0.0011494429   0.0003618183
       -0.0000700862  -0.0001791903   0.0004393380   0.0004172903   0.0000976414
        0.0001796506  -0.0001004059  -0.0000916975   0.0000178858   0.0001304988
       -0.0000766728  -0.0000553849   0.0000681521   0.0000453465  -0.0000413267
        0.0000430515   0.0000763097  -0.0001279013  -0.0002005419  -0.0000278387
       -0.0000576318  -0.0000296195   0.0000046809  -0.0000237747  -0.0000377632
       -0.0000416030   0.0000135426   0.0000037977   0.0001295845  -0.0000129993
        0.0000888309   0.0000569661   0.0000816012  -0.0000179184   0.0000223730
        0.0000289471   0.0000026324   0.0000298102   0.0000066273   0.0000216466
        0.0000485552   0.0000017175   0.0000449500   0.0000173912   0.0000149410
        0.0000173202   0.0000308441  -0.0000540389   0.0000186692   0.0000327047
        0.0000220752  -0.0000249054   0.0001314627  -0.0000492793   0.0000214134
       -0.0402139735  -0.2333077050   0.3811118899   0.0243864590   0.1741618647
       -0.3021016424   0.0234531739   0.0273591223  -0.0420018603   0.0045575173
       -0.0034877523   0.0014773306  -0.0052858738  -0.0032416861   0.0074183992
        0.0086207327   0.0000190532  -0.0021792330  -0.0008002156  -0.0001518753
        0.0002593641  -0.0013915129  -0.0025011510   0.0001111710  -0.0000505796
        0.0016383633   0.0002224067  -0.0015949402  -0.0006795548   0.0008539683
        0.0013350483  -0.0000595907  -0.0007315090   0.0001922787   0.0002004987
        0.0000706011   0.0016262916  -0.0006231035  -0.0012523188  -0.0006795614
        0.0001655255   0.0004764839   0.0023476424   0.0002333916  -0.0009868075
        0.0002216511   0.0001678085   0.0001092701   0.0015119650  -0.0001939825
       -0.0006816637  -0.0019664304   0.0008191546   0.0010155714   0.0000623347
       -0.0022928579   0.0004237554  -0.0016000835   0.0029576295   0.0005526800
       -0.0095828274   0.0034251935  -0.0036364004   0.0088665755   0.0017972916
       -0.0069391518  -0.0124918845   0.0313806135  -0.0332587278   0.0002260703
       -0.0005224419   0.0007223195   0.0013006538  -0.0015039676   0.0012868291
        0.0003416545  -0.0006225461  -0.0000885232   0.0023896575   0.0014911880
        0.0003938115  -0.0042014578   0.0044752598  -0.0020613383   0.0002206837
        0.0003122572   0.0001496320  -0.0002814803  -0.0005799402   0.0004029331
       -0.0002277784   0.0004499687  -0.0002278923  -0.0000370087  -0.0002751687
        0.0000552348   0.0000326940   0.0004573875  -0.0002692577  -0.0004735623
       -0.0008809582   0.0007517520  -0.0021249580   0.0016434777  -0.0007794296
        0.0021040606   0.0004159816  -0.0002648677  -0.0014586363   0.0005558374
        0.0002562034   0.0010329309   0.0006115610   0.0001500410  -0.0006919361
       -0.0003228289   0.0000217154   0.0012217973   0.0002104854   0.0000536999
       -0.0002737945  -0.0004651049  -0.0002379223  -0.0001420643   0.0002125247
       -0.0000036183  -0.0000950487  -0.0002091984  -0.0000429857  -0.0000179828
        0.0001911772  -0.0000861065  -0.0002169161  -0.0000114957  -0.0001944512
        0.0003164063  -0.0002683124   0.0003287672  -0.0002194312   0.0002001007
       -0.0002111315   0.0002085402  -0.0001749368   0.0002557747  -0.0002943479
        0.0002724034  -0.0002640367   0.0001064409  -0.0003175421   0.0001517918
        0.0001113751   0.0000171309   0.0001070522  -0.0000577925  -0.0002214155
       -0.0000316106   0.0002123878   0.0000158399   0.0001081675  -0.0013692346
       -0.0011566763  -0.0001736945   0.0013110316  -0.0002886172   0.0006844454
       -0.0004584998   0.0003919976   0.0000255924   0.0000242294  -0.0002841155
       -0.0000657083  -0.0001310995   0.0001745246  -0.0000675348   0.0001554166
        0.0003063430   0.0002758826   0.0002883709   0.0000174584   0.0000041639
        0.0002256474  -0.0000872714  -0.0001164680   0.0001550235  -0.0003769181
       -0.0000073507  -0.0001254114  -0.0002560780  -0.0002344032   0.0000221065
        0.0002452042  -0.0001472827   0.0003794668  -0.0003584737  -0.0002896144
        0.0000492287  -0.0001716850  -0.0001725842  -0.0008009710  -0.0010962350
       -0.0000280666   0.0000644387  -0.0002261532   0.0002258755   0.0000974015
       -0.0002517153  -0.0003425058   0.0001571393   0.0000670498  -0.0000475636
        0.0001219244   0.0001583483  -0.0000938625  -0.0001152719   0.0001381919
       -0.0000882634  -0.0001735129  -0.0000060404  -0.0000103632   0.0000741202
        0.0000607124   0.0000110307  -0.0000691147   0.0000672012   0.0000775064
        0.0000260459  -0.0000032096   0.0000284814  -0.0001338309  -0.0000032570
       -0.0001456917  -0.0000410851  -0.0000894850   0.0000023995  -0.0000298194
        0.0000189864  -0.0000168901  -0.0000388509  -0.0000121823  -0.0000413717
       -0.0000526985  -0.0000193641  -0.0000478248  -0.0000088461  -0.0000113203
        0.0000322248  -0.0000384173   0.0000744772  -0.0000261460  -0.0000058511
       -0.0000353702   0.0000320048  -0.0000940210   0.0000706975  -0.0000025480
       -0.0508116262  -0.0313359882   0.0243864590   0.4569108685  -0.0423288307
       -0.0645260770  -0.1689115713   0.0074278168   0.0595555096  -0.0586308018
        0.0108645702   0.0042696416   0.0050263916   0.0031654193  -0.0121659097
       -0.0033061619  -0.0013820351   0.0048281671  -0.0015169133  -0.0000595390
        0.0003211128  -0.0009666497   0.0011440137  -0.0008542983   0.0001258205
       -0.0000487298   0.0000133018  -0.0006882101   0.0000122087   0.0003895757
        0.0007738324  -0.0003831902  -0.0004058757   0.0001046709   0.0007366681
        0.0001827467   0.0005224185  -0.0010295054  -0.0003966318  -0.0005681694
       -0.0000354009   0.0003661567   0.0008179117   0.0009137269  -0.0005561330
       -0.0000580216  -0.0005166761  -0.0000629014   0.0008437948   0.0002994716
       -0.0003111617  -0.0008701085   0.0000723495   0.0004225478   0.0001187735
       -0.0002309699   0.0000016464  -0.0002897975  -0.0007588371   0.0010254701
        0.0115522577  -0.0000040384  -0.0031844354  -0.0127120596  -0.0153104523
        0.0303513146  -0.1262024400   0.0437929173  -0.0217025496  -0.0541728095
        0.0086927968  -0.0038987642   0.0022250512  -0.0097377281   0.0063517203
        0.0018595513   0.0013594509  -0.0021061898   0.0086065225  -0.0043050826
        0.0031310152  -0.0034256208   0.0219058725  -0.0257257655   0.0014890211
        0.0016820284   0.0008311678  -0.0005483396  -0.0021157471   0.0008780559
       -0.0001899575   0.0008109300  -0.0008287631  -0.0007389418  -0.0000644213
        0.0002170680  -0.0001203152   0.0013459006  -0.0006443352  -0.0021646793
       -0.0022727230   0.0016094408  -0.0055076809   0.0047510868  -0.0022972655
        0.0049948267   0.0006736214  -0.0009651146  -0.0022815358   0.0012900147
        0.0001220375   0.0012454621   0.0009919166   0.0003198518  -0.0012187576
       -0.0003411618  -0.0001588044   0.0017789265   0.0001020888  -0.0000553053
       -0.0003533760  -0.0005989134  -0.0001894909  -0.0001705006   0.0004222426
       -0.0001818618   0.0001728611   0.0000503969   0.0002874364   0.0000133246
       -0.0001079437   0.0000205331   0.0002450017  -0.0000898523   0.0002167760
       -0.0003425368   0.0002572751  -0.0003577535   0.0001024511  -0.0004878145
        0.0000919403  -0.0003623403  -0.0001498655  -0.0003773002   0.0003367466
       -0.0002986460   0.0003581937  -0.0001657104   0.0002860274  -0.0001872614
       -0.0001269112   0.0000307991  -0.0000674644  -0.0000742713   0.0002989589
       -0.0001190201   0.0005259885  -0.0000007817   0.0003474332  -0.0014812321
       -0.0018846894  -0.0000555259  -0.0001305375  -0.0001396678   0.0008510272
       -0.0010177214   0.0001397623   0.0003206934  -0.0000273922   0.0002854799
        0.0000149780  -0.0000021179  -0.0000583053   0.0000322528  -0.0000396968
       -0.0000518822  -0.0000240739  -0.0000762798  -0.0000139720  -0.0000387332
       -0.0000563956   0.0000171189   0.0000560267  -0.0000335150   0.0000532976
       -0.0000057395  -0.0000034770   0.0000388868  -0.0000206606  -0.0000453120
       -0.0002374751  -0.0000708261   0.0001766461   0.0010013441  -0.0002158676
        0.0006966209   0.0006877412  -0.0009781180  -0.0001148261   0.0005024682
       -0.0000112702  -0.0011514088   0.0005747359   0.0002825770   0.0002886148
       -0.0006218886   0.0010437932  -0.0000166950   0.0000768831   0.0002754285
        0.0000056101   0.0001051364   0.0000013306  -0.0000482901   0.0001018004
       -0.0000109373  -0.0000921684  -0.0001880146  -0.0003305303   0.0000485645
       -0.0000483094   0.0000414217  -0.0000662516   0.0000300861   0.0000603666
       -0.0000405498   0.0000215742   0.0000939790   0.0001003606   0.0000321151
       -0.0000437785  -0.0000037582   0.0000553667  -0.0000054602  -0.0000188573
        0.0000758100  -0.0000275695   0.0000067174   0.0000132412   0.0000013313
        0.0000134256  -0.0000094775   0.0000209122   0.0000343290   0.0000176133
        0.0000764772   0.0000207854  -0.0000125843   0.0000136644   0.0000652420
       -0.0000261779   0.0000068600   0.0001139065   0.0000762876   0.0000760845
       -0.0214020707  -0.1415013721   0.1741618647  -0.0423288307   0.2817946271
       -0.2207934890  -0.0111134419  -0.0480817548   0.0087019213   0.0172190665
       -0.0002566379  -0.0033449733  -0.0010145946   0.0010440784   0.0090059797
        0.0047945165   0.0004559391  -0.0021930213   0.0025716976  -0.0008687293
       -0.0008618583  -0.0015404614  -0.0035148611   0.0016152935  -0.0004065491
        0.0017972483   0.0001624454  -0.0015357690  -0.0007012249   0.0007399957
        0.0012223004  -0.0000289194  -0.0006337669   0.0001851855   0.0001399377
       -0.0002133503   0.0021098766  -0.0007287910  -0.0010726837  -0.0010755302
        0.0001864608   0.0004356814   0.0025045536   0.0003242535  -0.0009120030
        0.0003028496   0.0000891487   0.0000966101   0.0014696623  -0.0001232915
       -0.0007412770  -0.0019344633   0.0009054706   0.0008881329  -0.0001060032
       -0.0023420945   0.0002467765  -0.0022620818   0.0036665896   0.0000764966
       -0.0095470487   0.0041325527   0.0011549039  -0.0010749596   0.0024806099
       -0.0041670364   0.0423467859  -0.0811152569   0.0199863411   0.0061013119
        0.0074182061  -0.0026114731  -0.0036028798   0.0002476846   0.0022313635
       -0.0004268915   0.0012787609  -0.0005137158  -0.0033063954  -0.0015330523
        0.0021835875   0.0199338789  -0.0197958253   0.0183795204   0.0007288259
       -0.0005637940  -0.0002135562   0.0002063390   0.0000225812   0.0001715413
       -0.0001712588   0.0002246987   0.0001062003   0.0001897550  -0.0000618737
       -0.0002021576  -0.0000697247  -0.0001672075  -0.0000602619   0.0003571560
        0.0000788687   0.0001091404   0.0012216362  -0.0014260460   0.0003151781
       -0.0004022739   0.0001280965   0.0002456072  -0.0002031607   0.0000895673
        0.0001514842   0.0002633649   0.0001680011   0.0000301152  -0.0001483178
        0.0000274910   0.0000965292   0.0002727780  -0.0002417307  -0.0001381761
        0.0000598559   0.0001314374  -0.0000062136   0.0000147244  -0.0000922311
        0.0000922970  -0.0001475043  -0.0001462973  -0.0001919361  -0.0000409387
        0.0001707771  -0.0000761255  -0.0002424885   0.0000345170  -0.0002290912
        0.0003574336  -0.0002795853   0.0003723260  -0.0001662712   0.0003511847
       -0.0001653620   0.0002803568  -0.0000267213   0.0003219939  -0.0003229449
        0.0003069740  -0.0003221461   0.0001452003  -0.0003163041   0.0001783932
        0.0001174985  -0.0000011816   0.0001026945   0.0000147530  -0.0002916674
        0.0000457852  -0.0001294687   0.0000146900  -0.0000999606  -0.0003668705
       -0.0003285962  -0.0001402214   0.0014539235  -0.0016802746  -0.0003443304
        0.0007595191  -0.0000195303  -0.0000623589   0.0000584043  -0.0003216582
        0.0000149277  -0.0000919592   0.0001268461  -0.0000629349   0.0001363384
        0.0002219976   0.0002122545   0.0002441400   0.0000201019   0.0000593073
        0.0001817176  -0.0000724567  -0.0001061742   0.0001273222  -0.0002656971
        0.0000087333  -0.0000745860  -0.0001850172  -0.0001367729   0.0000345240
        0.0003070755  -0.0000107029  -0.0000132504  -0.0002571540   0.0003567759
       -0.0006138499  -0.0009931842  -0.0002637315  -0.0018675374  -0.0003165434
       -0.0005254530  -0.0004793635  -0.0003095730  -0.0006573940   0.0005143817
        0.0004507385  -0.0008681558   0.0001097579   0.0000013475  -0.0001874121
        0.0000663532   0.0000230131  -0.0000463553  -0.0000351282   0.0000071380
       -0.0000239338  -0.0000333720   0.0001268939   0.0002396297   0.0000083364
        0.0000585723   0.0000532555   0.0000123040   0.0000159746   0.0000217295
        0.0000528913  -0.0000211336   0.0000030671  -0.0000983247   0.0000035963
       -0.0000778455  -0.0000421906  -0.0000847884   0.0000134212  -0.0000080726
       -0.0000365521  -0.0000005559  -0.0000282320  -0.0000103090  -0.0000163219
       -0.0000457989   0.0000052630  -0.0000430413  -0.0000171776  -0.0000160948
       -0.0000258609  -0.0000323356   0.0000478319  -0.0000177869  -0.0000399765
       -0.0000170131   0.0000145098  -0.0001409279   0.0000151839  -0.0000228332
        0.0206122230   0.1760519309  -0.3021016424  -0.0645260770  -0.2207934890
        0.4636742947   0.0753850769   0.0038747408  -0.0928376545  -0.0096573238
        0.0020454416   0.0076158161   0.0037148134   0.0061494973  -0.0112934639
       -0.0097292691  -0.0007306161   0.0053633082   0.0016771815  -0.0000589139
       -0.0003560379   0.0021205077   0.0030210273  -0.0000192720   0.0002325851
       -0.0023262595  -0.0001841563   0.0024863925   0.0009127177  -0.0013389534
       -0.0021236368   0.0002723377   0.0011165671  -0.0004248241  -0.0006985626
       -0.0000330668  -0.0025807330   0.0014335387   0.0019169394   0.0014142260
       -0.0001307836  -0.0009468670  -0.0035563871  -0.0010009120   0.0016367475
       -0.0004305829   0.0001061396  -0.0000262922  -0.0022780224   0.0000526369
        0.0009640062   0.0028789129  -0.0010670731  -0.0015034891   0.0002615707
        0.0031055397  -0.0006397918   0.0023370538  -0.0037967187  -0.0011229879
        0.0075521761  -0.0019546697  -0.0010284326   0.0195438505   0.0036002195
       -0.0141707315  -0.0355850687   0.0164534650  -0.0583661502  -0.0037268745
       -0.0010110321   0.0056839042   0.0022014021   0.0016662788   0.0036102146
       -0.0033877356   0.0032510865  -0.0010997952  -0.0001027182   0.0022452092
        0.0019055303  -0.0088436129   0.0132314287  -0.0040532694  -0.0012560825
        0.0002979726  -0.0010099585   0.0003250100   0.0006830568  -0.0002633045
       -0.0000896849  -0.0002323757   0.0003636570   0.0007051487   0.0004102187
       -0.0002992733  -0.0001790673  -0.0013190043   0.0005486385   0.0013296073
        0.0022111057  -0.0017374914   0.0044386473  -0.0045390016   0.0017171795
       -0.0034807692  -0.0004597071   0.0005870082   0.0021286335  -0.0009013895
       -0.0002734486  -0.0013232236  -0.0009074554  -0.0002814005   0.0010864357
        0.0004261696   0.0000807743  -0.0017048138  -0.0002449017  -0.0000313923
        0.0004116719   0.0006837867   0.0002788722   0.0002091428  -0.0003932418
        0.0001109637  -0.0000309070   0.0001381453  -0.0001231855  -0.0000104519
       -0.0000751946   0.0000529793   0.0000137950   0.0000608837   0.0000063241
       -0.0000378535   0.0000557376  -0.0000438539   0.0000999382   0.0001487891
        0.0000960206   0.0000650439   0.0002244735   0.0000406378   0.0000252391
       -0.0000385195  -0.0000163471   0.0000161555   0.0000691962  -0.0000116843
       -0.0000075777  -0.0000289048  -0.0000369358   0.0000873768   0.0000051270
        0.0000861210  -0.0004531085  -0.0000134336  -0.0002884513   0.0017211687
        0.0016173751   0.0002013138  -0.0018318258   0.0001902797  -0.0005831825
       -0.0003615445  -0.0006383794   0.0001785751  -0.0000439840   0.0002136305
        0.0000168796   0.0001242986  -0.0001286961   0.0000493647  -0.0001303369
       -0.0002542312  -0.0002339938  -0.0002487742  -0.0000248097   0.0000070016
       -0.0001759825   0.0000853535   0.0001205180  -0.0001288120   0.0003195878
        0.0000416189   0.0001243051   0.0001962195   0.0002375601  -0.0000021960
       -0.0002573259   0.0001620646   0.0008414938   0.0001957501  -0.0005035441
       -0.0002406377  -0.0001627086   0.0013933441   0.0016969554   0.0000987858
       -0.0018701010   0.0007406982  -0.0003615668  -0.0008573239  -0.0002246326
       -0.0006548986  -0.0004761945  -0.0001610399  -0.0001889950  -0.0001379180
       -0.0001126929  -0.0001919445   0.0000656963   0.0001324723  -0.0001733180
        0.0000794251   0.0001828290   0.0001943596   0.0002676691  -0.0000870967
       -0.0000260097  -0.0000212119   0.0001013752  -0.0000799452  -0.0000896256
        0.0000010746  -0.0000174429  -0.0000773389   0.0000848652  -0.0000042920
        0.0001404151   0.0000463799   0.0000479673   0.0000057147   0.0000419509
       -0.0000726328   0.0000331609   0.0000326567   0.0000005614   0.0000368258
        0.0000396576   0.0000217276   0.0000275685  -0.0000112806  -0.0000024257
       -0.0000811376   0.0000245151  -0.0000600119   0.0000150132  -0.0000245369
        0.0000410560  -0.0000237188   0.0000152649  -0.0000887581  -0.0000421618
       -0.0096139442  -0.0024490769   0.0234531739  -0.1689115713  -0.0111134419
        0.0753850769   0.5549459914  -0.0649655543  -0.0372999051  -0.1822202765
        0.0525668138  -0.0904227182  -0.0632295399   0.0045963434   0.0160348729
        0.0060511686   0.0039069634  -0.0144706036  -0.0016666491  -0.0002284022
        0.0005114798   0.0008591611  -0.0015475677  -0.0004801543  -0.0004485710
        0.0007632094   0.0001762264   0.0003950173  -0.0002396498  -0.0003069793
       -0.0004842369  -0.0001345839   0.0001509660   0.0002396980   0.0000066031
       -0.0001466946  -0.0001451640  -0.0003241367   0.0001838369  -0.0006685280
       -0.0000316596   0.0002126465  -0.0001742505   0.0004053284   0.0002318677
        0.0002123394  -0.0001867557  -0.0001285951  -0.0003818741   0.0002640800
        0.0001652595   0.0004039817   0.0001938061  -0.0002109830  -0.0002518123
       -0.0004824166   0.0001903353   0.0010399063   0.0014833328  -0.0001766674
       -0.0063938094  -0.0045024230   0.0267755748  -0.0727278303   0.0026782096
        0.0200711374  -0.0578736397   0.0225957601  -0.0052815656   0.0118085103
        0.0029471726  -0.0043965013  -0.0048266039   0.0060486768  -0.0045361326
        0.0002037018  -0.0017809557   0.0019611244  -0.0074531202   0.0032751068
       -0.0013432772   0.0035809965  -0.0168904611   0.0111775831  -0.0012325610
       -0.0020060302   0.0011799343   0.0003856107   0.0027934935  -0.0015075023
        0.0012477272  -0.0016704606   0.0009413909  -0.0005231988  -0.0004242487
        0.0003058203   0.0005685757  -0.0003863002   0.0003366431   0.0013061225
        0.0009203776  -0.0013275056   0.0036882151  -0.0025877353   0.0014201787
       -0.0041783413  -0.0008308613   0.0006115594   0.0020969118  -0.0012920188
       -0.0001782876  -0.0012400159  -0.0010538886  -0.0002848197   0.0011752250
        0.0002034068   0.0000269272  -0.0017388165   0.0002935071   0.0002735693
        0.0001123506   0.0000834005   0.0000764986   0.0000096851  -0.0000254197
       -0.0000011362   0.0000058328   0.0000226765  -0.0000304677   0.0000356649
       -0.0000306607   0.0000001477   0.0000546665   0.0000163402   0.0000745808
       -0.0000601737   0.0000535426  -0.0000479930   0.0000431752  -0.0000236047
        0.0000645560  -0.0000146950   0.0000746724  -0.0000133022   0.0000346457
       -0.0000522130   0.0000338654  -0.0000267841   0.0000457461  -0.0000147752
       -0.0000096153   0.0000014049  -0.0000286080   0.0000094190  -0.0000066172
        0.0000345493  -0.0001597840  -0.0000104018  -0.0000584994   0.0014214477
        0.0019176906   0.0001035800   0.0011987454   0.0009016323  -0.0015417632
       -0.0033835980   0.0009946507   0.0028789333  -0.0000885480  -0.0004896208
        0.0001381980   0.0000181671  -0.0000560163   0.0000316545   0.0000370640
       -0.0000006729   0.0000108303   0.0000336444   0.0000075784   0.0000150765
        0.0000352835  -0.0000085936  -0.0000106011   0.0000130192   0.0000052918
        0.0000128583  -0.0000245392   0.0000668966   0.0000196892  -0.0002873568
        0.0004527398   0.0001849157  -0.0042313091  -0.0000230056   0.0028907347
        0.0003881155   0.0054224000  -0.0237345804   0.0004425399  -0.0000481582
        0.0000058013  -0.0001759387   0.0004281216   0.0002215992   0.0006868116
       -0.0003146523  -0.0003507131   0.0000233271  -0.0000022308  -0.0000202924
        0.0000164100  -0.0000438683   0.0000459892   0.0000181564  -0.0000343123
        0.0000115820   0.0000307137  -0.0000727464  -0.0000673797  -0.0000205074
        0.0000099714  -0.0000966136   0.0000357284  -0.0000369631  -0.0000649760
        0.0000314068   0.0000055212  -0.0000690967  -0.0000724917  -0.0000210148
        0.0000195390  -0.0000280862  -0.0000298473  -0.0000158590   0.0000086857
        0.0000036344   0.0000257711   0.0000342324   0.0000305477   0.0000295368
        0.0000051510   0.0000526523  -0.0000052518   0.0000211960  -0.0000061855
       -0.0000170704   0.0000215012  -0.0000305050   0.0000250247  -0.0000310864
       -0.0000288076  -0.0000105794  -0.0000367786  -0.0000145565  -0.0000342451
       -0.0203428786  -0.0047968676   0.0273591223   0.0074278168  -0.0480817548
        0.0038747408  -0.0649655543   0.1752639371  -0.1465995355   0.0449966359
       -0.0709669068   0.0436349454   0.0159180347   0.0012281173  -0.0101980117
        0.0004758675  -0.0081713924   0.0048354878   0.0019154524  -0.0003673056
       -0.0007276068  -0.0007301548  -0.0009854975   0.0006666772  -0.0001551171
        0.0004411413   0.0000069561  -0.0004867847  -0.0001893748   0.0002399895
        0.0004208908  -0.0000830507  -0.0002106000   0.0000684926   0.0001617942
       -0.0001028847   0.0008388616  -0.0004255335  -0.0002944635  -0.0005725627
        0.0000437113   0.0001825356   0.0007199991   0.0003704611  -0.0002381780
        0.0001366311  -0.0001602776  -0.0000676651   0.0004178674   0.0000623820
       -0.0002026926  -0.0004707278   0.0001918970   0.0001934623  -0.0001636706
       -0.0005161489   0.0000247585  -0.0006254726   0.0008178927   0.0002433538