 Entering Gaussian System
 *********************************************
 Gaussian 98:
 frequency output generated by the xtb code
 *********************************************
                         Standard orientation:
 --------------------------------------------------------------------
  Center     Atomic     Atomic              Coordinates (Angstroms)
  Number     Number      Type              X           Y           Z
 --------------------------------------------------------------------
    1          6             0       -2.910976   -4.161497   -0.000247
    2          6             0       -2.604505   -3.538848    1.197199
    3          6             0       -1.991899   -2.299493    1.197706
    4          6             0       -1.678260   -1.671566   -0.000140
    5          6             0       -1.033564   -0.336006   -0.000098
    6          6             0       -1.839303    0.795608    0.000070
    7          6             0       -3.309091    0.616193    0.000280
    8          6             0       -4.003620    0.511825   -1.198522
    9          6             0       -5.370983    0.305074   -1.197257
   10          6             0       -6.056810    0.200166    0.000757
   11          6             0       -5.370917    0.307403    1.198528
   12          6             0       -4.003559    0.514192    1.199321
   13          6             0       -1.253886    2.066743    0.000029
   14          6             0       -2.054932    3.247128    0.000050
   15          6             0       -1.495024    4.477176   -0.000061
   16          6             0       -0.079516    4.636437   -0.000207
   17          6             0        0.521237    5.896214   -0.000342
   18          6             0        1.897804    6.024818   -0.000495
   19          6             0        2.704988    4.903012   -0.000518
   20          6             0        2.144525    3.624743   -0.000387
   21          6             0        2.942558    2.449737   -0.000331
   22          6             0        2.406784    1.200385   -0.000187
   23          6             0        3.366798    0.071037    0.000069
   24          6             0        3.866422   -0.424263   -1.197725
   25          6             0        4.821393   -1.423999   -1.196768
   26          6             0        5.297095   -1.929328    0.000688
   27          6             0        4.820584   -1.424038    1.197839
   28          6             0        3.865588   -0.424327    1.198185
   29          6             0        0.980567    1.019627   -0.000164
   30          6             0        0.358547   -0.238692   -0.000186
   31          6             0        1.072952   -1.537185   -0.000256
   32          6             0        1.349577   -2.183916    1.197280
   33          6             0        1.917821   -3.443609    1.196606
   34          6             0        2.204167   -4.076008   -0.000377
   35          6             0        1.918466   -3.443207   -1.197300
   36          6             0        1.350248   -2.183500   -1.197859
   37          6             0        0.159247    2.183186   -0.000123
   38          6             0        0.737254    3.477950   -0.000232
   39          6             0       -1.990660   -2.300006   -1.198043
   40          6             0       -2.603295   -3.539346   -1.197642
   41          1             0       -3.389982   -5.129621   -0.000289
   42          1             0       -2.844534   -4.020223    2.134125
   43          1             0       -1.753734   -1.811917    2.132026
   44          1             0       -3.465956    0.595691   -2.132110
   45          1             0       -5.903080    0.224475   -2.134030
   46          1             0       -7.124382    0.036153    0.000945
   47          1             0       -5.902966    0.228606    2.135482
   48          1             0       -3.465843    0.599883    2.132716
   49          1             0       -3.128852    3.127459    0.000136
   50          1             0       -2.110340    5.365719   -0.000055
   51          1             0       -0.106028    6.776256   -0.000321
   52          1             0        2.345026    7.008445   -0.000594
   53          1             0        3.780735    5.005268   -0.000625
   54          1             0        4.018329    2.564019   -0.000366
   55          1             0        3.499333   -0.022601   -2.131459
   56          1             0        5.199001   -1.807119   -2.133629
   57          1             0        6.042827   -2.710573    0.000927
   58          1             0        5.197577   -1.807170    2.134941
   59          1             0        3.497877   -0.022687    2.131683
   60          1             0        1.120359   -1.691869    2.131607
   61          1             0        2.133344   -3.935938    2.133698
   62          1             0        2.645338   -5.061799   -0.000424
   63          1             0        2.134495   -3.935220   -2.134441
   64          1             0        1.121576   -1.691121   -2.132145
   65          1             0       -1.751534   -1.812831   -2.132325
   66          1             0       -2.842405   -4.021096   -2.134610
 --------------------------------------------------------------------
     1 basis functions        1 primitive gaussians
     1 alpha electrons        1 beta electrons
 
 Harmonic frequencies (cm**-1), IR intensities (km*mol⁻¹),
 Raman scattering activities (A**4/amu), Raman depolarization ratios,
 reduced masses (AMU), force constants (mDyne/A) and normal coordinates:
                      1                      2                      3
                        a                      a                      a 
 Frequencies --   -36.1793               -20.5577                -5.3034
 Red. masses --     9.7675                 9.8871                10.8471
 Frc consts  --     0.0000                 0.0000                 0.0000
 IR Inten    --     0.0098                 0.0307                 0.0095
 Raman Activ --     0.0000                 0.0000                 0.0000
 Depolar     --     0.0000                 0.0000                 0.0000
 Atom AN      X      Y      Z        X      Y      Z        X      Y      Z
   1   6    -0.00  -0.00  -0.00     0.00  -0.00  -0.02     0.00  -0.00  -0.01
   2   6    -0.22   0.10  -0.00    -0.02   0.04  -0.04     0.03  -0.01  -0.01
   3   6    -0.22   0.11   0.00    -0.02   0.04  -0.07     0.03  -0.01  -0.01
   4   6    -0.00  -0.00   0.01     0.00  -0.00  -0.08     0.00  -0.00  -0.02
   5   6    -0.00  -0.00   0.01    -0.00  -0.00  -0.10    -0.00  -0.00  -0.01
   6   6    -0.00  -0.00   0.04    -0.00  -0.00  -0.07     0.00  -0.00   0.02
   7   6     0.00  -0.00   0.05    -0.00   0.00  -0.04     0.00  -0.00   0.06
   8   6     0.03  -0.23   0.05     0.01  -0.31  -0.02    -0.03  -0.03   0.08
   9   6     0.03  -0.22   0.06     0.01  -0.31   0.03    -0.03  -0.03   0.12
  10   6    -0.00   0.00   0.06    -0.00   0.00   0.05     0.00   0.00   0.14
  11   6    -0.03   0.22   0.06    -0.01   0.31   0.03     0.03   0.03   0.12
  12   6    -0.03   0.23   0.05    -0.01   0.31  -0.02     0.03   0.03   0.08
  13   6    -0.00  -0.00   0.04    -0.00  -0.00  -0.03     0.00  -0.00   0.00
  14   6     0.00   0.00   0.05    -0.00   0.00  -0.03     0.00  -0.00  -0.00
  15   6     0.00   0.00   0.04    -0.00   0.00  -0.00     0.00  -0.00  -0.03
  16   6     0.00  -0.00   0.02     0.00   0.00   0.04     0.00  -0.00  -0.06
  17   6     0.00  -0.00   0.01     0.00   0.00   0.08     0.00  -0.00  -0.09
  18   6     0.00  -0.00  -0.02     0.00  -0.00   0.12     0.00  -0.00  -0.12
  19   6     0.00  -0.00  -0.05     0.00  -0.00   0.13    -0.00  -0.00  -0.10
  20   6    -0.00  -0.00  -0.04    -0.00  -0.00   0.09    -0.00  -0.00  -0.07
  21   6    -0.00  -0.00  -0.06    -0.00  -0.00   0.10     0.00  -0.00  -0.03
  22   6    -0.00  -0.00  -0.04    -0.00  -0.00   0.03    -0.00  -0.00   0.00
  23   6    -0.00  -0.00  -0.03    -0.00  -0.00   0.01    -0.00  -0.00   0.11
  24   6     0.14   0.13  -0.03    -0.16  -0.13  -0.00     0.05  -0.10   0.17
  25   6     0.14   0.12  -0.02    -0.16  -0.12  -0.02     0.05  -0.10   0.29
  26   6    -0.00   0.00  -0.01     0.00   0.00  -0.03    -0.00   0.00   0.35
  27   6    -0.14  -0.12  -0.02     0.16   0.12  -0.02    -0.05   0.10   0.29
  28   6    -0.14  -0.13  -0.03     0.16   0.13  -0.00    -0.05   0.10   0.17
  29   6    -0.00  -0.00  -0.01    -0.00  -0.00  -0.02    -0.00  -0.00  -0.02
  30   6    -0.00  -0.00  -0.01    -0.00  -0.00  -0.06    -0.00  -0.00  -0.04
  31   6    -0.00  -0.00  -0.02    -0.00   0.00  -0.04     0.00   0.00  -0.12
  32   6    -0.18  -0.09  -0.03     0.15   0.10  -0.02     0.06  -0.07  -0.17
  33   6    -0.18  -0.09  -0.03     0.15   0.10   0.02     0.06  -0.06  -0.27
  34   6     0.00   0.00  -0.04     0.00   0.00   0.04     0.00   0.00  -0.32
  35   6     0.18   0.09  -0.03    -0.15  -0.10   0.02    -0.06   0.06  -0.27
  36   6     0.18   0.09  -0.03    -0.15  -0.10  -0.02    -0.06   0.07  -0.17
  37   6    -0.00  -0.00   0.01    -0.00  -0.00  -0.01    -0.00  -0.00  -0.02
  38   6     0.00  -0.00  -0.00    -0.00  -0.00   0.04     0.00  -0.00  -0.05
  39   6     0.22  -0.11   0.00     0.02  -0.04  -0.07    -0.03   0.01  -0.01
  40   6     0.22  -0.10  -0.00     0.02  -0.04  -0.04    -0.03   0.01  -0.01
  41   1    -0.00  -0.00  -0.00     0.00  -0.00   0.00     0.00  -0.00  -0.00
  42   1    -0.11   0.05  -0.00    -0.01   0.02  -0.01     0.02  -0.01  -0.00
  43   1    -0.12   0.05   0.00    -0.01   0.02  -0.02     0.02  -0.01  -0.00
  44   1     0.02  -0.12   0.01     0.00  -0.16  -0.01    -0.02  -0.02   0.02
  45   1     0.02  -0.12   0.02     0.00  -0.16   0.01    -0.02  -0.02   0.04
  46   1    -0.00   0.00   0.02    -0.00   0.00   0.03     0.00   0.00   0.05
  47   1    -0.02   0.12   0.02    -0.00   0.16   0.01     0.02   0.02   0.04
  48   1    -0.02   0.12   0.01    -0.00   0.16  -0.01     0.02   0.02   0.02
  49   1     0.00   0.00   0.02    -0.00   0.00  -0.02     0.00   0.00   0.01
  50   1     0.00   0.00   0.02     0.00   0.00  -0.00     0.00  -0.00  -0.01
  51   1     0.00  -0.00   0.01     0.00   0.00   0.02     0.00  -0.00  -0.03
  52   1     0.00  -0.00  -0.01     0.00  -0.00   0.04     0.00  -0.00  -0.04
  53   1    -0.00  -0.00  -0.02     0.00  -0.00   0.05    -0.00  -0.00  -0.03
  54   1    -0.00  -0.00  -0.02    -0.00  -0.00   0.04     0.00  -0.00  -0.00
  55   1     0.07   0.07  -0.01    -0.08  -0.07   0.00     0.03  -0.05   0.04
  56   1     0.07   0.06  -0.00    -0.08  -0.06  -0.01     0.02  -0.05   0.10
  57   1    -0.00   0.00  -0.00     0.00   0.00  -0.01    -0.00   0.00   0.13
  58   1    -0.07  -0.06  -0.00     0.08   0.06  -0.01    -0.02   0.05   0.10
  59   1    -0.07  -0.07  -0.01     0.08   0.07   0.00    -0.03   0.05   0.04
  60   1    -0.10  -0.05  -0.01     0.07   0.05  -0.01     0.03  -0.03  -0.04
  61   1    -0.09  -0.05  -0.01     0.08   0.05   0.01     0.03  -0.03  -0.09
  62   1     0.00   0.00  -0.01     0.00   0.00   0.02     0.00   0.00  -0.11
  63   1     0.09   0.05  -0.01    -0.08  -0.05   0.01    -0.03   0.03  -0.09
  64   1     0.10   0.05  -0.01    -0.07  -0.05  -0.01    -0.03   0.03  -0.04
  65   1     0.12  -0.05   0.00     0.01  -0.02  -0.02    -0.02   0.01  -0.00
  66   1     0.11  -0.05  -0.00     0.01  -0.02  -0.01    -0.02   0.01  -0.00
                      4                      5                      6
                        a                      a                      a 
 Frequencies --    22.7576                38.6869                42.1906
 Red. masses --    10.8172                10.7480                10.7779
 Frc consts  --     0.0000                 0.0000                 0.0000
 IR Inten    --     0.0007                 0.0032                 0.0072
 Raman Activ --     0.0000                 0.0000                 0.0000
 Depolar     --     0.0000                 0.0000                 0.0000
 Atom AN      X      Y      Z        X      Y      Z        X      Y      Z
   1   6    -0.00   0.00  -0.37     0.46  -0.22   0.00     0.10   0.05   0.00
   2   6    -0.02  -0.11  -0.31     0.34  -0.17   0.00     0.09   0.06   0.00
   3   6    -0.02  -0.11  -0.19     0.14  -0.07   0.00     0.06   0.07  -0.00
   4   6    -0.00   0.00  -0.12     0.05  -0.02   0.00     0.05   0.08  -0.00
   5   6    -0.00   0.00  -0.02    -0.02   0.01   0.00     0.04   0.08  -0.00
   6   6    -0.00   0.00   0.02    -0.02   0.01  -0.00     0.04   0.08  -0.00
   7   6     0.00   0.00   0.08    -0.02   0.04  -0.00     0.05   0.00  -0.00
   8   6    -0.07   0.01   0.12    -0.03   0.09  -0.00     0.06  -0.09   0.00
   9   6    -0.07   0.01   0.20    -0.05   0.20  -0.00     0.09  -0.30   0.00
  10   6     0.00  -0.00   0.24    -0.06   0.26  -0.00     0.11  -0.41   0.01
  11   6     0.07  -0.01   0.20    -0.05   0.20   0.00     0.09  -0.30   0.00
  12   6     0.07  -0.01   0.12    -0.03   0.09   0.00     0.06  -0.09   0.00
  13   6     0.00  -0.00   0.02    -0.02   0.01  -0.00     0.03   0.08  -0.00
  14   6     0.00   0.00   0.04    -0.02   0.01  -0.00     0.03   0.08  -0.01
  15   6     0.00  -0.00   0.01    -0.02   0.01  -0.00     0.04   0.08  -0.01
  16   6    -0.00  -0.00  -0.04    -0.02   0.01  -0.00     0.04   0.08  -0.00
  17   6    -0.00  -0.00  -0.09    -0.02   0.01  -0.00     0.04   0.08   0.00
  18   6    -0.00  -0.00  -0.13    -0.02   0.01  -0.00     0.04   0.07   0.00
  19   6    -0.00  -0.00  -0.12    -0.02   0.01  -0.00     0.04   0.07   0.01
  20   6    -0.00  -0.00  -0.08    -0.02   0.01   0.00     0.04   0.07   0.00
  21   6    -0.00  -0.00  -0.06    -0.02   0.01   0.00     0.04   0.07   0.00
  22   6    -0.00  -0.00  -0.01    -0.02   0.01   0.00     0.03   0.08   0.00
  23   6     0.00   0.00   0.01    -0.04  -0.00   0.00    -0.01   0.04   0.00
  24   6     0.02  -0.01   0.02    -0.05  -0.02  -0.00    -0.05  -0.00   0.00
  25   6     0.02  -0.01   0.04    -0.09  -0.06  -0.00    -0.15  -0.10  -0.00
  26   6     0.00   0.00   0.05    -0.12  -0.08  -0.00    -0.21  -0.15  -0.00
  27   6    -0.02   0.01   0.04    -0.09  -0.06   0.00    -0.15  -0.10   0.00
  28   6    -0.02   0.01   0.02    -0.05  -0.02   0.00    -0.06  -0.01   0.00
  29   6    -0.00  -0.00   0.00    -0.02   0.01   0.00     0.03   0.08  -0.00
  30   6    -0.00  -0.00   0.00    -0.02   0.02   0.00     0.04   0.08  -0.00
  31   6    -0.00  -0.00   0.06    -0.03   0.01   0.00    -0.01   0.05  -0.00
  32   6    -0.03   0.06   0.10    -0.05  -0.00  -0.00    -0.07   0.03  -0.00
  33   6    -0.03   0.06   0.18    -0.11  -0.03  -0.00    -0.20  -0.03  -0.00
  34   6     0.00  -0.00   0.22    -0.14  -0.04  -0.00    -0.28  -0.07   0.00
  35   6     0.03  -0.06   0.18    -0.11  -0.03   0.00    -0.20  -0.03   0.00
  36   6     0.03  -0.06   0.10    -0.05  -0.00   0.00    -0.06   0.03  -0.00
  37   6    -0.00  -0.00  -0.01    -0.02   0.01   0.00     0.03   0.08  -0.00
  38   6    -0.00  -0.00  -0.04    -0.02   0.01   0.00     0.04   0.08  -0.00
  39   6     0.02   0.11  -0.19     0.14  -0.07   0.00     0.06   0.07  -0.00
  40   6     0.02   0.11  -0.31     0.34  -0.17   0.00     0.08   0.06   0.00
  41   1    -0.00   0.00  -0.14     0.18  -0.09   0.00     0.04   0.01   0.00
  42   1    -0.01  -0.06  -0.10     0.12  -0.06   0.00     0.03   0.02   0.00
  43   1    -0.01  -0.06  -0.04     0.02  -0.01   0.00     0.02   0.02  -0.00
  44   1    -0.04   0.00   0.03    -0.01   0.01  -0.00     0.01  -0.00  -0.00
  45   1    -0.04   0.00   0.07    -0.02   0.07  -0.00     0.03  -0.11   0.00
  46   1     0.00  -0.00   0.09    -0.02   0.10  -0.00     0.04  -0.17   0.00
  47   1     0.04  -0.00   0.07    -0.02   0.07   0.00     0.03  -0.11   0.00
  48   1     0.04  -0.00   0.03    -0.01   0.01   0.00     0.02  -0.00  -0.00
  49   1     0.00   0.00   0.02    -0.01   0.00  -0.00     0.01   0.02  -0.00
  50   1     0.00  -0.00   0.00    -0.01   0.00  -0.00     0.01   0.02  -0.00
  51   1    -0.00  -0.00  -0.03    -0.01   0.00  -0.00     0.01   0.02  -0.00
  52   1    -0.00  -0.00  -0.05    -0.01   0.00  -0.00     0.01   0.02   0.00
  53   1    -0.00  -0.00  -0.04    -0.01   0.00   0.00     0.01   0.02   0.00
  54   1    -0.00  -0.00  -0.02    -0.01   0.00   0.00     0.01   0.02   0.00
  55   1     0.01  -0.01   0.00    -0.01  -0.00   0.00    -0.00   0.01   0.00
  56   1     0.01  -0.01   0.01    -0.03  -0.02  -0.00    -0.05  -0.04  -0.00
  57   1     0.00   0.00   0.02    -0.04  -0.03  -0.00    -0.08  -0.07  -0.00
  58   1    -0.01   0.01   0.01    -0.03  -0.02  -0.00    -0.06  -0.04  -0.00
  59   1    -0.01   0.01   0.00    -0.01  -0.00   0.00    -0.01   0.01   0.00
  60   1    -0.02   0.03   0.02    -0.01   0.00   0.00    -0.01   0.01  -0.00
  61   1    -0.02   0.03   0.06    -0.04  -0.01  -0.00    -0.07  -0.02   0.00
  62   1     0.00  -0.00   0.08    -0.06  -0.02  -0.00    -0.11  -0.03   0.00
  63   1     0.02  -0.03   0.06    -0.04  -0.01   0.00    -0.07  -0.02   0.00
  64   1     0.02  -0.03   0.02    -0.01   0.00   0.00    -0.00   0.01  -0.00
  65   1     0.01   0.06  -0.04     0.02  -0.01   0.00     0.01   0.02  -0.00
  66   1     0.01   0.06  -0.10     0.12  -0.06   0.00     0.03   0.02   0.00
                      7                      8                      9
                        a                      a                      a 
 Frequencies --    42.3817                45.8810                53.3809
 Red. masses --    10.5134                 9.8279                10.5402
 Frc consts  --     0.0000                 0.0000                 0.0000
 IR Inten    --     0.0358                 0.0499                 0.1948
 Raman Activ --     0.0000                 0.0000                 0.0000
 Depolar     --     0.0000                 0.0000                 0.0000
 Atom AN      X      Y      Z        X      Y      Z        X      Y      Z
   1   6    -0.00  -0.00   0.08     0.00  -0.00   0.02     0.00   0.00  -0.11
   2   6     0.08   0.02   0.05    -0.30   0.17   0.01    -0.11  -0.04  -0.07
   3   6     0.08   0.02  -0.01    -0.29   0.17  -0.02    -0.10  -0.04   0.03
   4   6    -0.00  -0.00  -0.05     0.00  -0.00  -0.03     0.00   0.00   0.08
   5   6    -0.00  -0.00  -0.11    -0.00   0.00  -0.05     0.00   0.00   0.15
   6   6    -0.00  -0.00  -0.18    -0.00   0.00  -0.03     0.00   0.00   0.11
   7   6    -0.00  -0.00  -0.07    -0.00   0.00   0.01     0.00  -0.00   0.07
   8   6    -0.14   0.02   0.01    -0.06   0.20   0.03     0.04   0.01   0.04
   9   6    -0.14   0.02   0.17    -0.06   0.20   0.06     0.04   0.01   0.00
  10   6    -0.00   0.01   0.25    -0.00   0.00   0.07     0.00  -0.00  -0.02
  11   6     0.14  -0.01   0.17     0.06  -0.20   0.06    -0.04  -0.01   0.00
  12   6     0.13  -0.01   0.01     0.06  -0.20   0.03    -0.04  -0.01   0.04
  13   6    -0.00  -0.00  -0.23    -0.00   0.00  -0.04     0.00   0.00   0.05
  14   6    -0.00  -0.00  -0.35    -0.00   0.00  -0.02    -0.00  -0.00  -0.12
  15   6    -0.00  -0.00  -0.31    -0.00   0.00  -0.01    -0.00  -0.00  -0.26
  16   6    -0.00  -0.00  -0.12    -0.00   0.00   0.01    -0.00   0.00  -0.18
  17   6    -0.00  -0.00   0.01    -0.00   0.00   0.05    -0.00   0.00  -0.32
  18   6    -0.00  -0.00   0.22    -0.00   0.00   0.08    -0.00   0.00  -0.21
  19   6    -0.00  -0.00   0.29    -0.00   0.00   0.06    -0.00   0.00   0.03
  20   6    -0.00  -0.00   0.15    -0.00   0.00   0.01     0.00   0.00   0.13
  21   6    -0.00  -0.00   0.18    -0.00   0.00   0.00     0.00   0.00   0.27
  22   6    -0.00  -0.00   0.06    -0.00   0.00  -0.04     0.00   0.00   0.24
  23   6     0.00  -0.00   0.04    -0.00   0.00  -0.02     0.00   0.00   0.15
  24   6     0.05   0.09   0.02    -0.09  -0.12  -0.01    -0.12   0.07   0.06
  25   6     0.05   0.09  -0.01    -0.09  -0.12   0.02    -0.12   0.07  -0.10
  26   6     0.00   0.00  -0.03    -0.00  -0.00   0.04    -0.00  -0.00  -0.18
  27   6    -0.05  -0.08  -0.01     0.09   0.12   0.02     0.12  -0.07  -0.10
  28   6    -0.05  -0.09   0.02     0.09   0.12  -0.01     0.12  -0.07   0.07
  29   6    -0.00  -0.00  -0.06    -0.00   0.00  -0.07     0.00   0.00   0.19
  30   6    -0.00  -0.00  -0.08    -0.00   0.00  -0.08     0.00   0.00   0.17
  31   6     0.00  -0.00  -0.04    -0.00   0.00  -0.06     0.00   0.00   0.09
  32   6    -0.08  -0.01  -0.03     0.03   0.05  -0.04     0.06  -0.08   0.03
  33   6    -0.08  -0.01   0.00     0.03   0.05   0.00     0.06  -0.08  -0.09
  34   6     0.01   0.00   0.02    -0.00  -0.00   0.02    -0.00  -0.00  -0.15
  35   6     0.09   0.01   0.01    -0.03  -0.05   0.00    -0.06   0.08  -0.09
  36   6     0.09   0.01  -0.03    -0.03  -0.05  -0.04    -0.06   0.08   0.03
  37   6    -0.00  -0.00  -0.12    -0.00   0.00  -0.05     0.00   0.00   0.11
  38   6    -0.00  -0.00  -0.04    -0.00   0.00  -0.02    -0.00   0.00   0.03
  39   6    -0.08  -0.02  -0.01     0.29  -0.17  -0.02     0.10   0.04   0.03
  40   6    -0.08  -0.02   0.05     0.30  -0.17   0.01     0.11   0.04  -0.07
  41   1    -0.00  -0.00   0.04     0.00  -0.00   0.01     0.00   0.00  -0.05
  42   1     0.04   0.01   0.02    -0.16   0.09   0.00    -0.06  -0.02  -0.03
  43   1     0.04   0.01  -0.01    -0.15   0.08  -0.01    -0.05  -0.02   0.02
  44   1    -0.07   0.01  -0.02    -0.03   0.10   0.00     0.02   0.00   0.02
  45   1    -0.07   0.01   0.07    -0.03   0.11   0.02     0.02   0.00  -0.00
  46   1    -0.00   0.00   0.11    -0.00   0.00   0.03     0.00  -0.00  -0.02
  47   1     0.07  -0.01   0.07     0.03  -0.10   0.02    -0.02  -0.00  -0.00
  48   1     0.07  -0.01  -0.01     0.03  -0.10   0.00    -0.02  -0.00   0.02
  49   1    -0.00  -0.00  -0.13    -0.00  -0.00  -0.01    -0.00  -0.00  -0.05
  50   1    -0.00  -0.00  -0.12    -0.00   0.00   0.00    -0.00  -0.00  -0.12
  51   1    -0.00  -0.00  -0.02    -0.00   0.00   0.02    -0.00  -0.00  -0.15
  52   1    -0.00  -0.00   0.10    -0.00   0.00   0.03    -0.00   0.00  -0.09
  53   1    -0.00  -0.00   0.13    -0.00   0.00   0.02    -0.00   0.00   0.03
  54   1    -0.00  -0.00   0.08    -0.00   0.00   0.01     0.00   0.00   0.09
  55   1     0.03   0.04   0.01    -0.05  -0.06  -0.01    -0.06   0.04   0.04
  56   1     0.03   0.05  -0.01    -0.05  -0.06   0.01    -0.06   0.04  -0.05
  57   1     0.00   0.00  -0.01    -0.00  -0.00   0.02    -0.00  -0.00  -0.09
  58   1    -0.03  -0.04  -0.01     0.05   0.06   0.01     0.06  -0.04  -0.05
  59   1    -0.03  -0.04   0.01     0.05   0.06  -0.01     0.06  -0.04   0.04
  60   1    -0.04  -0.00  -0.01     0.01   0.03  -0.02     0.03  -0.04   0.02
  61   1    -0.04  -0.01   0.00     0.02   0.03   0.01     0.03  -0.04  -0.04
  62   1     0.00   0.00   0.01    -0.00  -0.00   0.02    -0.00  -0.00  -0.07
  63   1     0.05   0.01   0.00    -0.02  -0.03   0.01    -0.03   0.04  -0.04
  64   1     0.04   0.00  -0.01    -0.01  -0.03  -0.02    -0.03   0.04   0.02
  65   1    -0.04  -0.01  -0.01     0.15  -0.08  -0.01     0.05   0.02   0.02
  66   1    -0.04  -0.01   0.02     0.16  -0.09   0.00     0.06   0.02  -0.03
                     10                     11                     12
                        a                      a                      a 
 Frequencies --    71.3693                74.9356                92.4656
 Red. masses --    10.6867                10.6390                10.3913
 Frc consts  --     0.0000                 0.0000                 0.0000
 IR Inten    --     0.0240                 0.0081                 0.0009
 Raman Activ --     0.0000                 0.0000                 0.0000
 Depolar     --     0.0000                 0.0000                 0.0000
 Atom AN      X      Y      Z        X      Y      Z        X      Y      Z
   1   6    -0.21   0.11  -0.00    -0.01  -0.00  -0.00     0.00   0.00  -0.13
   2   6    -0.10   0.06  -0.00    -0.01  -0.01  -0.00    -0.03  -0.14  -0.05
   3   6     0.08  -0.03   0.00     0.00  -0.01  -0.00    -0.04  -0.13   0.12
   4   6     0.15  -0.07   0.00     0.01  -0.01   0.00    -0.00   0.00   0.20
   5   6     0.17  -0.08   0.00     0.02  -0.02   0.00    -0.00   0.00   0.23
   6   6     0.11  -0.12   0.00     0.01  -0.02   0.00    -0.00   0.00   0.12
   7   6     0.12  -0.11   0.00     0.01  -0.02   0.00    -0.00   0.00   0.09
   8   6     0.11  -0.04  -0.00     0.01  -0.01  -0.00     0.06  -0.02   0.06
   9   6     0.08   0.14  -0.00     0.01   0.01  -0.00     0.06  -0.03  -0.02
  10   6     0.07   0.24  -0.00     0.01   0.02  -0.00    -0.00  -0.00  -0.05
  11   6     0.08   0.14   0.00     0.01   0.01   0.00    -0.06   0.03  -0.02
  12   6     0.11  -0.04   0.00     0.01  -0.01   0.00    -0.06   0.02   0.06
  13   6     0.04  -0.09  -0.00     0.01  -0.02  -0.00    -0.00   0.00  -0.06
  14   6    -0.03  -0.14  -0.00     0.01  -0.02  -0.00    -0.00   0.00  -0.20
  15   6    -0.11  -0.11   0.00     0.00  -0.02  -0.00     0.00   0.00  -0.21
  16   6    -0.12  -0.03   0.00     0.00  -0.01  -0.00     0.00   0.00  -0.07
  17   6    -0.20   0.01   0.00    -0.00  -0.01   0.00     0.00   0.00   0.14
  18   6    -0.21   0.09   0.00    -0.00  -0.01   0.00     0.00   0.00   0.28
  19   6    -0.14   0.14   0.00     0.00  -0.01   0.00     0.00  -0.00   0.13
  20   6    -0.05   0.11  -0.00     0.00  -0.01   0.00     0.00  -0.00  -0.07
  21   6     0.01   0.15  -0.00     0.00  -0.01  -0.00     0.00  -0.00  -0.19
  22   6     0.08   0.12  -0.00     0.01  -0.01  -0.00    -0.00  -0.00  -0.18
  23   6     0.08   0.12  -0.00     0.04   0.02  -0.00    -0.00  -0.00  -0.14
  24   6     0.02   0.06  -0.00     0.09   0.07  -0.00    -0.05  -0.17  -0.10
  25   6    -0.11  -0.06  -0.00     0.24   0.21  -0.00    -0.06  -0.17   0.01
  26   6    -0.19  -0.14   0.00     0.33   0.29   0.00    -0.00  -0.00   0.06
  27   6    -0.11  -0.06   0.00     0.24   0.21   0.00     0.06   0.17   0.01
  28   6     0.02   0.06   0.00     0.09   0.07   0.00     0.05   0.17  -0.10
  29   6     0.09   0.03  -0.00     0.01  -0.01   0.00    -0.00  -0.00  -0.06
  30   6     0.16  -0.01  -0.00     0.02  -0.01   0.00    -0.00  -0.00   0.12
  31   6     0.16  -0.02   0.00    -0.01  -0.03   0.00    -0.00   0.00   0.10
  32   6     0.10  -0.05  -0.00    -0.09  -0.06   0.00    -0.09  -0.10   0.06
  33   6    -0.04  -0.11  -0.00    -0.29  -0.15   0.00    -0.10  -0.11  -0.01
  34   6    -0.12  -0.15   0.00    -0.41  -0.21  -0.00     0.00   0.00  -0.05
  35   6    -0.04  -0.11   0.00    -0.29  -0.15  -0.00     0.10   0.11  -0.01
  36   6     0.10  -0.05   0.00    -0.09  -0.06  -0.00     0.09   0.10   0.06
  37   6     0.03  -0.01  -0.00     0.01  -0.01  -0.00    -0.00   0.00  -0.09
  38   6    -0.04   0.02  -0.00     0.00  -0.01  -0.00     0.00  -0.00  -0.10
  39   6     0.08  -0.03   0.00     0.00  -0.01   0.00     0.04   0.13   0.12
  40   6    -0.10   0.06  -0.00    -0.01  -0.01   0.00     0.03   0.14  -0.05
  41   1    -0.11   0.05  -0.00    -0.01   0.00  -0.00     0.00   0.00  -0.07
  42   1    -0.05   0.03  -0.00    -0.00  -0.00  -0.00    -0.02  -0.07  -0.03
  43   1     0.04  -0.02   0.00     0.00  -0.00  -0.00    -0.02  -0.07   0.05
  44   1     0.03  -0.03   0.00     0.00  -0.00   0.00     0.03  -0.01   0.02
  45   1     0.02   0.06  -0.00     0.00   0.01  -0.00     0.03  -0.01  -0.01
  46   1     0.01   0.12  -0.00     0.00   0.01  -0.00    -0.00  -0.00  -0.03
  47   1     0.02   0.06   0.00     0.00   0.01   0.00    -0.03   0.01  -0.01
  48   1     0.03  -0.03  -0.00     0.00  -0.00   0.00    -0.03   0.01   0.02
  49   1    -0.01  -0.06  -0.00     0.00  -0.01  -0.00    -0.00   0.00  -0.08
  50   1    -0.05  -0.04   0.00    -0.00  -0.01  -0.00     0.00   0.00  -0.08
  51   1    -0.07  -0.01   0.00    -0.00  -0.00   0.00     0.00   0.00   0.06
  52   1    -0.08   0.03   0.00    -0.00  -0.00   0.00     0.00   0.00   0.14
  53   1    -0.04   0.06   0.00     0.00  -0.00   0.00     0.00  -0.00   0.06
  54   1     0.00   0.06  -0.00     0.00  -0.00  -0.00     0.00  -0.00  -0.07
  55   1     0.02   0.03   0.00     0.01   0.01  -0.00    -0.02  -0.09  -0.04
  56   1    -0.05  -0.03   0.00     0.08   0.08  -0.00    -0.03  -0.09   0.01
  57   1    -0.09  -0.07   0.00     0.13   0.12   0.00    -0.00  -0.00   0.04
  58   1    -0.05  -0.03   0.00     0.08   0.08   0.00     0.03   0.09   0.01
  59   1     0.02   0.03  -0.00     0.01   0.01   0.00     0.02   0.09  -0.04
  60   1     0.04  -0.01   0.00    -0.00  -0.01   0.00    -0.04  -0.05   0.03
  61   1    -0.03  -0.04  -0.00    -0.11  -0.05   0.00    -0.05  -0.06  -0.01
  62   1    -0.07  -0.06   0.00    -0.17  -0.08  -0.00     0.00   0.00  -0.03
  63   1    -0.03  -0.04   0.00    -0.11  -0.05  -0.00     0.05   0.06  -0.01
  64   1     0.04  -0.01  -0.00    -0.00  -0.01  -0.00     0.04   0.05   0.03
  65   1     0.04  -0.02   0.00     0.00  -0.00   0.00     0.02   0.07   0.05
  66   1    -0.05   0.03  -0.00    -0.00  -0.00   0.00     0.02   0.07  -0.03
                     13                     14                     15
                        a                      a                      a 
 Frequencies --    98.0216               126.1185               172.0475
 Red. masses --     9.9147                10.4883                10.3813
 Frc consts  --     0.0000                 0.0000                 0.0000
 IR Inten    --     0.0000                 0.0285                 0.0044
 Raman Activ --     0.0000                 0.0000                 0.0000
 Depolar     --     0.0000                 0.0000                 0.0000
 Atom AN      X      Y      Z        X      Y      Z        X      Y      Z
   1   6    -0.00   0.00   0.06    -0.00  -0.00  -0.01    -0.00   0.00  -0.00
   2   6     0.09   0.03   0.03    -0.03   0.01  -0.00     0.01  -0.01  -0.00
   3   6     0.08   0.03  -0.05    -0.03   0.01   0.00     0.01  -0.00   0.00
   4   6     0.00  -0.00  -0.09    -0.00  -0.00   0.01     0.00   0.00   0.00
   5   6     0.00   0.00  -0.11     0.00  -0.00   0.01     0.00   0.00  -0.00
   6   6    -0.00  -0.00  -0.05    -0.00  -0.00  -0.24    -0.00  -0.00   0.11
   7   6     0.00  -0.00  -0.04    -0.00   0.00  -0.26    -0.00  -0.00   0.17
   8   6    -0.02   0.00  -0.03    -0.15  -0.02  -0.17     0.09   0.01   0.12
   9   6    -0.02   0.00   0.00    -0.15  -0.02   0.02     0.09   0.01  -0.00
  10   6     0.00   0.00   0.01     0.00  -0.00   0.11    -0.00   0.00  -0.05
  11   6     0.02  -0.00   0.00     0.15   0.02   0.02    -0.09  -0.01  -0.00
  12   6     0.02  -0.00  -0.03     0.15   0.02  -0.17    -0.09  -0.01   0.12
  13   6    -0.00  -0.00   0.04    -0.00  -0.00  -0.15    -0.00  -0.00  -0.08
  14   6     0.00  -0.00   0.13    -0.00  -0.00  -0.12    -0.00  -0.00  -0.21
  15   6    -0.00  -0.00   0.12     0.00   0.00   0.13    -0.00  -0.00  -0.09
  16   6    -0.00  -0.00   0.04     0.00   0.00   0.15     0.00   0.00   0.04
  17   6    -0.00  -0.00  -0.08     0.00   0.00   0.22     0.00   0.00   0.33
  18   6    -0.00   0.00  -0.15    -0.00   0.00  -0.00     0.00  -0.00   0.11
  19   6    -0.00   0.00  -0.06    -0.00  -0.00  -0.23    -0.00  -0.00  -0.29
  20   6    -0.00   0.00   0.05    -0.00  -0.00  -0.15    -0.00  -0.00  -0.25
  21   6    -0.00   0.00   0.13    -0.00  -0.00  -0.17    -0.00  -0.00  -0.09
  22   6     0.00   0.00   0.08    -0.00   0.00   0.08     0.00  -0.00   0.17
  23   6     0.00   0.00   0.07     0.00   0.00   0.09     0.00   0.00   0.29
  24   6    -0.20  -0.13   0.04    -0.05   0.02   0.05    -0.10   0.11   0.20
  25   6    -0.21  -0.14  -0.01    -0.06   0.02  -0.01    -0.11   0.11  -0.00
  26   6    -0.00  -0.00  -0.04    -0.00  -0.00  -0.04     0.00  -0.00  -0.10
  27   6     0.21   0.14  -0.01     0.06  -0.02  -0.01     0.11  -0.11  -0.00
  28   6     0.20   0.13   0.04     0.05  -0.02   0.05     0.10  -0.11   0.20
  29   6     0.00   0.00  -0.00     0.00   0.00   0.14     0.00   0.00  -0.01
  30   6     0.00   0.00  -0.07     0.00  -0.00   0.24    -0.00   0.00  -0.12
  31   6    -0.00  -0.00  -0.05     0.00   0.00   0.26     0.00   0.00  -0.16
  32   6    -0.28  -0.09  -0.04     0.06  -0.14   0.17    -0.04   0.07  -0.11
  33   6    -0.31  -0.10   0.00     0.06  -0.14  -0.02    -0.04   0.07  -0.00
  34   6     0.00   0.00   0.02    -0.00  -0.00  -0.11    -0.00   0.00   0.05
  35   6     0.31   0.10   0.00    -0.06   0.14  -0.02     0.04  -0.07  -0.00
  36   6     0.28   0.09  -0.04    -0.06   0.14   0.17     0.04  -0.07  -0.11
  37   6    -0.00  -0.00   0.04    -0.00   0.00   0.01    -0.00   0.00  -0.10
  38   6    -0.00   0.00   0.05    -0.00   0.00   0.01    -0.00  -0.00  -0.13
  39   6    -0.08  -0.03  -0.05     0.03  -0.01   0.00    -0.01   0.00   0.00
  40   6    -0.09  -0.03   0.03     0.03  -0.01  -0.00    -0.01   0.01  -0.00
  41   1    -0.00   0.00   0.03     0.00  -0.00  -0.00    -0.00   0.00  -0.00
  42   1     0.05   0.01   0.02    -0.02   0.01  -0.00     0.01  -0.00  -0.00
  43   1     0.04   0.02  -0.02    -0.01   0.00   0.00     0.00  -0.00   0.00
  44   1    -0.01   0.00  -0.01    -0.08  -0.01  -0.07     0.05   0.01   0.05
  45   1    -0.01   0.00   0.00    -0.08  -0.01   0.03     0.05   0.01  -0.01
  46   1     0.00   0.00   0.01     0.00  -0.00   0.07    -0.00   0.00  -0.04
  47   1     0.01  -0.00   0.00     0.08   0.01   0.03    -0.05  -0.01  -0.01
  48   1     0.01  -0.00  -0.01     0.08   0.01  -0.07    -0.05  -0.01   0.05
  49   1     0.00  -0.00   0.05    -0.00  -0.00  -0.06    -0.00  -0.00  -0.10
  50   1    -0.00  -0.00   0.05     0.00   0.00   0.07    -0.00  -0.00  -0.03
  51   1    -0.00  -0.00  -0.04     0.00   0.00   0.12     0.00   0.00   0.19
  52   1    -0.00  -0.00  -0.08    -0.00   0.00  -0.00     0.00  -0.00   0.07
  53   1    -0.00   0.00  -0.02    -0.00  -0.00  -0.12    -0.00  -0.00  -0.14
  54   1    -0.00   0.00   0.05    -0.00  -0.00  -0.09    -0.00  -0.00  -0.02
  55   1    -0.10  -0.06   0.02    -0.03   0.01   0.02    -0.06   0.06   0.08
  56   1    -0.11  -0.07  -0.01    -0.03   0.01  -0.01    -0.06   0.06  -0.02
  57   1    -0.00  -0.00  -0.02    -0.00  -0.00  -0.03     0.00  -0.00  -0.07
  58   1     0.11   0.07  -0.01     0.03  -0.01  -0.01     0.06  -0.06  -0.02
  59   1     0.10   0.06   0.02     0.03  -0.01   0.02     0.06  -0.06   0.08
  60   1    -0.14  -0.04  -0.02     0.03  -0.07   0.07    -0.02   0.04  -0.04
  61   1    -0.16  -0.05   0.00     0.03  -0.07  -0.03    -0.02   0.04   0.01
  62   1     0.00   0.00   0.01    -0.00  -0.00  -0.07    -0.00   0.00   0.04
  63   1     0.16   0.05   0.00    -0.03   0.07  -0.03     0.02  -0.04   0.01
  64   1     0.14   0.04  -0.02    -0.03   0.07   0.07     0.02  -0.04  -0.04
  65   1    -0.04  -0.02  -0.02     0.01  -0.00   0.00    -0.00   0.00   0.00
  66   1    -0.05  -0.01   0.02     0.02  -0.01  -0.00    -0.01   0.00  -0.00
                     16                     17                     18
                        a                      a                      a 
 Frequencies --   187.7105               191.3104               199.1699
 Red. masses --    11.0481                10.5163                10.7298
 Frc consts  --     0.0000                 0.0000                 0.0000
 IR Inten    --     0.0454                 0.0128                 0.0107
 Raman Activ --     0.0000                 0.0000                 0.0000
 Depolar     --     0.0000                 0.0000                 0.0000
 Atom AN      X      Y      Z        X      Y      Z        X      Y      Z
   1   6    -0.05   0.12  -0.00    -0.00   0.00  -0.10    -0.22  -0.02  -0.00
   2   6     0.03   0.06   0.00    -0.08  -0.16   0.01    -0.03  -0.10  -0.01
   3   6     0.13   0.01   0.01    -0.08  -0.15   0.24     0.16  -0.19  -0.01
   4   6     0.12   0.00  -0.00     0.00  -0.00   0.34     0.14  -0.15  -0.00
   5   6     0.00   0.04  -0.00     0.00  -0.00   0.18     0.02  -0.06  -0.00
   6   6    -0.09  -0.03  -0.00    -0.00  -0.00  -0.11    -0.00  -0.06  -0.00
   7   6    -0.12  -0.10  -0.00    -0.00  -0.00  -0.15     0.01  -0.17   0.00
   8   6    -0.16  -0.11   0.02    -0.07  -0.02  -0.11     0.00  -0.20   0.00
   9   6    -0.18  -0.03   0.01    -0.07  -0.02  -0.01    -0.03  -0.02   0.00
  10   6    -0.21   0.05  -0.00    -0.00  -0.00   0.04    -0.06   0.15  -0.00
  11   6    -0.18  -0.03  -0.01     0.07   0.02  -0.01    -0.03  -0.02  -0.00
  12   6    -0.16  -0.11  -0.02     0.07   0.02  -0.11     0.00  -0.20  -0.00
  13   6    -0.03  -0.04   0.00    -0.00  -0.00  -0.17    -0.03  -0.02  -0.00
  14   6    -0.03  -0.04   0.00     0.00   0.00  -0.09     0.05   0.05   0.00
  15   6    -0.03  -0.04  -0.00     0.00   0.00   0.18     0.12   0.04   0.00
  16   6    -0.03  -0.03  -0.00     0.00   0.00   0.17     0.12   0.05  -0.00
  17   6    -0.04  -0.03  -0.00     0.00   0.00   0.04     0.21   0.02  -0.00
  18   6    -0.04  -0.04   0.00     0.00  -0.00  -0.20     0.22  -0.03   0.00
  19   6    -0.03  -0.04   0.00     0.00  -0.00  -0.08     0.16  -0.07   0.00
  20   6    -0.01  -0.04   0.00     0.00  -0.00   0.13     0.06  -0.03  -0.00
  21   6     0.04  -0.02  -0.00     0.00  -0.00   0.21     0.02  -0.03   0.00
  22   6     0.10  -0.05  -0.00    -0.00  -0.00  -0.00    -0.08   0.03   0.00
  23   6     0.17  -0.05  -0.00    -0.00  -0.00  -0.01    -0.17   0.00   0.00
  24   6     0.22  -0.09   0.02     0.01   0.00  -0.00    -0.20   0.05  -0.02
  25   6     0.16  -0.16   0.02     0.01   0.01   0.00    -0.13   0.12  -0.01
  26   6     0.10  -0.24   0.00     0.00   0.00   0.00    -0.09   0.19  -0.00
  27   6     0.16  -0.16  -0.02    -0.01  -0.01   0.00    -0.13   0.12   0.01
  28   6     0.22  -0.08  -0.02    -0.01  -0.00  -0.00    -0.20   0.05   0.02
  29   6     0.06   0.04   0.00    -0.00   0.00  -0.14    -0.06   0.06  -0.00
  30   6    -0.00   0.10   0.00    -0.00   0.00  -0.13     0.00   0.04   0.00
  31   6     0.03   0.17   0.00     0.00   0.00  -0.19     0.08   0.11   0.00
  32   6     0.03   0.22   0.02    -0.03   0.09  -0.14     0.06   0.13   0.01
  33   6    -0.08   0.18   0.01    -0.03   0.10  -0.01    -0.03   0.09   0.01
  34   6    -0.18   0.15  -0.00    -0.00   0.00   0.05    -0.11   0.07  -0.00
  35   6    -0.08   0.18  -0.01     0.03  -0.10  -0.01    -0.03   0.09  -0.01
  36   6     0.03   0.22  -0.02     0.03  -0.09  -0.14     0.06   0.13  -0.01
  37   6    -0.01  -0.01   0.00    -0.00   0.00  -0.05    -0.03   0.05  -0.00
  38   6    -0.02  -0.02   0.00     0.00   0.00   0.10     0.06   0.01  -0.00
  39   6     0.13   0.01  -0.01     0.08   0.15   0.24     0.16  -0.19   0.01
  40   6     0.03   0.06  -0.00     0.08   0.16   0.01    -0.03  -0.10   0.01
  41   1    -0.05   0.05  -0.00    -0.00   0.00  -0.08    -0.13   0.03  -0.00
  42   1     0.00   0.02   0.00    -0.04  -0.09  -0.02    -0.02  -0.02  -0.00
  43   1     0.05   0.00   0.00    -0.04  -0.09   0.10     0.07  -0.07   0.00
  44   1    -0.05  -0.05   0.00    -0.04  -0.01  -0.04     0.00  -0.08   0.00
  45   1    -0.05  -0.00   0.00    -0.04  -0.01   0.01    -0.01   0.01   0.00
  46   1    -0.06   0.04  -0.00    -0.00  -0.00   0.03    -0.03   0.11  -0.00
  47   1    -0.05  -0.00  -0.00     0.04   0.01   0.01    -0.01   0.01  -0.00
  48   1    -0.05  -0.05  -0.00     0.04   0.01  -0.04     0.00  -0.08   0.00
  49   1    -0.01  -0.01   0.00    -0.00   0.00  -0.05     0.01   0.04   0.00
  50   1    -0.01  -0.01  -0.00     0.00   0.00   0.09     0.04   0.01   0.00
  51   1    -0.01  -0.01  -0.00     0.00   0.00   0.01     0.07   0.02  -0.00
  52   1    -0.01  -0.01   0.00     0.00  -0.00  -0.13     0.07  -0.01   0.00
  53   1    -0.01  -0.01   0.00     0.00  -0.00  -0.05     0.05  -0.04   0.00
  54   1     0.01   0.01  -0.00     0.00  -0.00   0.10     0.01  -0.03   0.00
  55   1     0.08  -0.02   0.00     0.00   0.00  -0.00    -0.07   0.01  -0.00
  56   1     0.04  -0.05   0.00     0.01   0.00   0.00    -0.03   0.04  -0.00
  57   1     0.00  -0.09   0.00     0.00   0.00   0.00    -0.00   0.08  -0.00
  58   1     0.04  -0.05  -0.00    -0.01  -0.00   0.00    -0.03   0.04   0.00
  59   1     0.08  -0.02  -0.00    -0.00  -0.00  -0.00    -0.07   0.01   0.00
  60   1     0.02   0.08   0.00    -0.02   0.05  -0.06     0.03   0.05   0.00
  61   1    -0.03   0.04   0.00    -0.01   0.05   0.01    -0.01   0.02   0.00
  62   1    -0.09   0.03  -0.00    -0.00   0.00   0.04    -0.06   0.01  -0.00
  63   1    -0.03   0.04  -0.00     0.01  -0.05   0.01    -0.01   0.02  -0.00
  64   1     0.02   0.08  -0.00     0.02  -0.05  -0.06     0.03   0.05  -0.00
  65   1     0.05   0.00  -0.00     0.04   0.09   0.10     0.07  -0.07  -0.00
  66   1     0.00   0.02  -0.00     0.04   0.09  -0.02    -0.02  -0.02   0.00
                     19                     20                     21
                        a                      a                      a 
 Frequencies --   203.6697               206.1158               217.8143
 Red. masses --    10.2591                10.9266                10.8807
 Frc consts  --     0.0000                 0.0000                 0.0000
 IR Inten    --     0.7412                 0.0011                 0.0299
 Raman Activ --     0.0000                 0.0000                 0.0000
 Depolar     --     0.0000                 0.0000                 0.0000
 Atom AN      X      Y      Z        X      Y      Z        X      Y      Z
   1   6    -0.00   0.00   0.03     0.11   0.32  -0.00    -0.03   0.01  -0.00
   2   6     0.02   0.04   0.00     0.14   0.26   0.02     0.00  -0.00  -0.00
   3   6     0.02   0.03  -0.06     0.18   0.23   0.03     0.04  -0.02  -0.00
   4   6     0.00  -0.00  -0.08     0.13   0.15   0.00     0.03  -0.02   0.00
   5   6     0.00  -0.00  -0.01     0.07   0.10  -0.00     0.01  -0.01  -0.00
   6   6     0.00  -0.00   0.06    -0.03   0.02  -0.00     0.08   0.00  -0.00
   7   6     0.00  -0.00   0.02    -0.03  -0.14  -0.00     0.14   0.02   0.00
   8   6     0.01   0.00   0.02    -0.04  -0.17   0.01     0.22   0.03  -0.03
   9   6     0.01   0.01   0.01    -0.07  -0.02   0.01     0.23   0.03  -0.02
  10   6    -0.00   0.00   0.00    -0.10   0.12  -0.00     0.26   0.04  -0.00
  11   6    -0.01  -0.01   0.01    -0.07  -0.02  -0.01     0.23   0.03   0.02
  12   6    -0.01  -0.01   0.02    -0.04  -0.17  -0.01     0.22   0.03   0.03
  13   6    -0.00  -0.00   0.13    -0.06   0.02  -0.00     0.01   0.01  -0.00
  14   6     0.00   0.00  -0.35    -0.06   0.03   0.00    -0.07  -0.05   0.00
  15   6     0.00   0.00  -0.24    -0.03   0.01   0.00    -0.11  -0.04   0.00
  16   6     0.00   0.00   0.25    -0.03  -0.02  -0.00    -0.11  -0.02  -0.00
  17   6     0.00   0.00   0.14    -0.01  -0.03  -0.00    -0.13  -0.02  -0.00
  18   6     0.00  -0.00  -0.13    -0.01  -0.05   0.00    -0.13  -0.04   0.00
  19   6     0.00  -0.00  -0.19    -0.02  -0.06   0.00    -0.10  -0.02   0.00
  20   6     0.00  -0.00   0.16    -0.03  -0.05  -0.00    -0.05  -0.04  -0.00
  21   6     0.00  -0.00  -0.05    -0.01  -0.04   0.00    -0.04  -0.06  -0.00
  22   6    -0.00   0.00  -0.02    -0.03  -0.03   0.00    -0.02  -0.07   0.00
  23   6    -0.00  -0.00  -0.15    -0.13  -0.09   0.00    -0.12  -0.19   0.00
  24   6     0.05  -0.06  -0.11    -0.16  -0.11  -0.00    -0.15  -0.26   0.01
  25   6     0.05  -0.06   0.00    -0.04   0.01  -0.00     0.03  -0.09   0.01
  26   6    -0.00   0.00   0.05     0.08   0.13   0.00     0.22   0.07   0.00
  27   6    -0.05   0.06   0.00    -0.03   0.01   0.00     0.03  -0.09  -0.01
  28   6    -0.05   0.06  -0.11    -0.16  -0.11   0.00    -0.15  -0.26  -0.01
  29   6    -0.00   0.00   0.22    -0.01  -0.00  -0.00    -0.03   0.03  -0.00
  30   6     0.00   0.00   0.01     0.06  -0.02   0.00    -0.02   0.06   0.00
  31   6     0.00   0.00  -0.07    -0.01  -0.10   0.00    -0.06   0.10   0.00
  32   6    -0.02   0.03  -0.05    -0.02  -0.15  -0.01    -0.12   0.13   0.02
  33   6    -0.03   0.03   0.00     0.05  -0.12  -0.01    -0.08   0.16   0.02
  34   6    -0.00   0.00   0.03     0.13  -0.11  -0.00    -0.03   0.21   0.00
  35   6     0.03  -0.03   0.00     0.05  -0.12   0.01    -0.08   0.16  -0.02
  36   6     0.02  -0.03  -0.05    -0.02  -0.15   0.02    -0.12   0.13  -0.02
  37   6    -0.00   0.00   0.38    -0.05  -0.02  -0.00    -0.02   0.02  -0.00
  38   6     0.00   0.00   0.42    -0.04  -0.03  -0.00    -0.05   0.01  -0.00
  39   6    -0.02  -0.03  -0.06     0.18   0.23  -0.03     0.04  -0.02   0.00
  40   6    -0.02  -0.04   0.00     0.14   0.26  -0.02     0.00  -0.00   0.00
  41   1    -0.00   0.00   0.02     0.01   0.10  -0.00    -0.02   0.01  -0.00
  42   1     0.01   0.02   0.01     0.03   0.07   0.00    -0.00   0.00  -0.00
  43   1     0.01   0.02  -0.02     0.06   0.07   0.00     0.01  -0.01   0.00
  44   1     0.01   0.00   0.01    -0.01  -0.07  -0.00     0.07   0.01  -0.00
  45   1     0.00   0.01   0.00    -0.02   0.00   0.00     0.06   0.01  -0.00
  46   1    -0.00   0.00  -0.00    -0.04   0.09  -0.00     0.07   0.01  -0.00
  47   1    -0.00  -0.01   0.00    -0.02   0.00  -0.00     0.06   0.01   0.00
  48   1    -0.01  -0.00   0.01    -0.01  -0.07   0.00     0.07   0.01   0.00
  49   1    -0.00   0.00  -0.24    -0.02   0.01   0.00    -0.02  -0.03   0.00
  50   1     0.00   0.00  -0.19    -0.00   0.01   0.00    -0.03  -0.01   0.00
  51   1     0.00   0.00   0.02     0.00  -0.01  -0.00    -0.04  -0.01   0.00
  52   1     0.00  -0.00  -0.11     0.00  -0.02   0.00    -0.04  -0.01   0.00
  53   1     0.00  -0.00  -0.15    -0.01  -0.02   0.00    -0.03   0.01   0.00
  54   1     0.00  -0.00  -0.09    -0.00  -0.01   0.00    -0.01  -0.01   0.00
  55   1     0.03  -0.03  -0.04    -0.06  -0.05  -0.00    -0.06  -0.10  -0.00
  56   1     0.03  -0.04   0.01    -0.00   0.01  -0.00     0.02  -0.01   0.00
  57   1     0.00   0.00   0.04     0.07   0.08   0.00     0.13   0.08   0.00
  58   1    -0.03   0.04   0.01    -0.00   0.01   0.00     0.02  -0.01  -0.00
  59   1    -0.03   0.03  -0.04    -0.06  -0.05   0.00    -0.06  -0.10   0.00
  60   1    -0.01   0.02  -0.02    -0.01  -0.05  -0.00    -0.05   0.04   0.00
  61   1    -0.02   0.02   0.01     0.02  -0.03  -0.00    -0.02   0.04   0.00
  62   1    -0.00   0.00   0.02     0.06  -0.02  -0.00     0.01   0.07   0.00
  63   1     0.02  -0.02   0.01     0.02  -0.03   0.00    -0.02   0.04  -0.00
  64   1     0.01  -0.02  -0.02    -0.01  -0.05   0.00    -0.05   0.04  -0.00
  65   1    -0.01  -0.02  -0.02     0.06   0.07  -0.00     0.01  -0.01  -0.00
  66   1    -0.01  -0.02   0.01     0.03   0.07  -0.00    -0.00   0.00   0.00
                     22                     23                     24
                        a                      a                      a 
 Frequencies --   230.5361               245.6012               253.5874
 Red. masses --    10.1430                10.2789                10.4977
 Frc consts  --     0.0000                 0.0000                 0.0000
 IR Inten    --     0.1902                 0.1389                 0.0000
 Raman Activ --     0.0000                 0.0000                 0.0000
 Depolar     --     0.0000                 0.0000                 0.0000
 Atom AN      X      Y      Z        X      Y      Z        X      Y      Z
   1   6    -0.21   0.13  -0.00    -0.15   0.03  -0.00     0.00   0.00  -0.02
   2   6     0.05  -0.01   0.00     0.02  -0.05  -0.00    -0.02  -0.04   0.01
   3   6     0.29  -0.13   0.00     0.16  -0.11  -0.01    -0.02  -0.04   0.07
   4   6     0.19  -0.09  -0.00     0.10  -0.06  -0.00    -0.00   0.00   0.09
   5   6     0.01  -0.00  -0.00    -0.01   0.01  -0.00     0.00  -0.00   0.07
   6   6    -0.03  -0.00   0.00    -0.00   0.01  -0.00     0.00  -0.00   0.00
   7   6    -0.07   0.23  -0.00    -0.00  -0.02   0.00     0.00  -0.00  -0.20
   8   6    -0.12   0.36   0.01     0.00  -0.06   0.00    -0.09  -0.01  -0.15
   9   6    -0.07   0.05   0.01    -0.00  -0.01   0.00    -0.10  -0.01  -0.01
  10   6    -0.03  -0.31   0.00    -0.02   0.05  -0.00     0.00   0.00   0.06
  11   6    -0.07   0.05  -0.01    -0.00  -0.01  -0.00     0.10   0.01  -0.01
  12   6    -0.12   0.36  -0.01     0.00  -0.06  -0.00     0.09   0.01  -0.15
  13   6     0.00  -0.01   0.00     0.05  -0.01  -0.00    -0.00  -0.00   0.27
  14   6    -0.01  -0.02   0.00     0.06  -0.00  -0.00    -0.00  -0.00   0.19
  15   6    -0.02  -0.02  -0.00     0.04   0.01  -0.00    -0.00  -0.00  -0.14
  16   6    -0.02  -0.02  -0.00     0.04   0.03  -0.00    -0.00  -0.00  -0.16
  17   6    -0.03  -0.01  -0.00     0.00   0.05  -0.00     0.00  -0.00  -0.18
  18   6    -0.03  -0.01   0.00    -0.00   0.09  -0.00     0.00  -0.00   0.22
  19   6    -0.03  -0.01   0.00     0.01   0.10  -0.00     0.00  -0.00   0.11
  20   6    -0.01  -0.01  -0.00     0.04   0.08  -0.00    -0.00  -0.00  -0.15
  21   6    -0.01  -0.01  -0.00     0.04   0.07  -0.00    -0.00  -0.00  -0.38
  22   6    -0.01  -0.01   0.00     0.06   0.06   0.00    -0.00  -0.00   0.02
  23   6    -0.05  -0.04   0.00     0.10   0.08   0.00     0.00   0.00   0.11
  24   6    -0.07  -0.06  -0.00     0.09   0.07   0.00    -0.03   0.04   0.08
  25   6    -0.02  -0.00  -0.00     0.03   0.01   0.00    -0.05   0.03   0.01
  26   6     0.04   0.05  -0.00    -0.02  -0.05  -0.00    -0.00  -0.00  -0.03
  27   6    -0.02  -0.00   0.00     0.03   0.01  -0.00     0.05  -0.03   0.01
  28   6    -0.07  -0.06   0.00     0.09   0.07  -0.00     0.03  -0.04   0.08
  29   6    -0.00  -0.00   0.00     0.06  -0.00   0.00    -0.00  -0.00   0.22
  30   6     0.01  -0.01  -0.00    -0.02   0.02   0.00     0.00   0.00   0.01
  31   6     0.04  -0.01  -0.00    -0.27  -0.10   0.00    -0.00   0.00  -0.19
  32   6     0.07  -0.03  -0.01    -0.42  -0.15   0.00    -0.04   0.08  -0.14
  33   6     0.03  -0.05  -0.01    -0.10  -0.01   0.00    -0.05   0.09  -0.01
  34   6    -0.01  -0.07   0.00     0.27   0.17   0.00     0.00   0.00   0.05
  35   6     0.03  -0.05   0.01    -0.10  -0.01  -0.00     0.05  -0.09  -0.01
  36   6     0.07  -0.03   0.01    -0.42  -0.15  -0.00     0.04  -0.08  -0.14
  37   6    -0.01  -0.01   0.00     0.05   0.01  -0.00    -0.00  -0.00   0.29
  38   6    -0.01  -0.01  -0.00     0.04   0.03  -0.00    -0.00  -0.00   0.05
  39   6     0.29  -0.13  -0.00     0.16  -0.11   0.01     0.02   0.04   0.07
  40   6     0.05  -0.01  -0.00     0.02  -0.05   0.00     0.02   0.04   0.01
  41   1    -0.16   0.08  -0.00    -0.10   0.04  -0.00     0.00  -0.00  -0.02
  42   1     0.00   0.00   0.00    -0.00  -0.01  -0.00    -0.01  -0.02  -0.00
  43   1     0.12  -0.05   0.00     0.06  -0.05   0.00    -0.01  -0.02   0.03
  44   1    -0.04   0.15   0.00     0.00  -0.03  -0.00    -0.06  -0.01  -0.06
  45   1    -0.02  -0.00   0.00    -0.00  -0.00   0.00    -0.06  -0.01   0.01
  46   1     0.01  -0.22   0.00    -0.01   0.04  -0.00     0.00   0.00   0.04
  47   1    -0.02  -0.00  -0.00    -0.00  -0.00  -0.00     0.06   0.01   0.01
  48   1    -0.04   0.15  -0.00     0.00  -0.03   0.00     0.06   0.01  -0.06
  49   1    -0.00  -0.00   0.00     0.02  -0.00  -0.00    -0.00   0.00   0.08
  50   1    -0.01  -0.01  -0.00     0.01  -0.00   0.00    -0.00  -0.00  -0.09
  51   1    -0.01  -0.01  -0.00    -0.01   0.01   0.00     0.00  -0.00  -0.10
  52   1    -0.01  -0.00   0.00    -0.01   0.03  -0.00     0.00  -0.00   0.14
  53   1    -0.01   0.00   0.00     0.00   0.03  -0.00     0.00  -0.00   0.07
  54   1    -0.00  -0.00  -0.00     0.01   0.02  -0.00    -0.00  -0.00  -0.19
  55   1    -0.03  -0.02  -0.00     0.03   0.02   0.00    -0.02   0.02   0.03
  56   1    -0.00   0.00  -0.00     0.00  -0.00   0.00    -0.03   0.02  -0.01
  57   1     0.03   0.04  -0.00    -0.03  -0.03  -0.00    -0.00  -0.00  -0.02
  58   1    -0.00   0.00   0.00     0.00  -0.00  -0.00     0.03  -0.02  -0.01
  59   1    -0.03  -0.02   0.00     0.03   0.02  -0.00     0.02  -0.02   0.03
  60   1     0.03  -0.01  -0.00    -0.17  -0.06  -0.00    -0.02   0.05  -0.06
  61   1     0.01  -0.01  -0.00    -0.01   0.00  -0.00    -0.03   0.05   0.01
  62   1    -0.02  -0.03   0.00     0.21   0.11   0.00     0.00   0.00   0.04
  63   1     0.01  -0.01   0.00    -0.01   0.00   0.00     0.03  -0.05   0.01
  64   1     0.03  -0.01  -0.00    -0.17  -0.06   0.00     0.02  -0.05  -0.06
  65   1     0.12  -0.05  -0.00     0.06  -0.05  -0.00     0.01   0.02   0.03
  66   1     0.00   0.00  -0.00     0.00  -0.01   0.00     0.01   0.02  -0.00
                     25                     26                     27
                        a                      a                      a 
 Frequencies --   274.8549               292.0193               308.1995
 Red. masses --    10.8549                11.0268                 9.9383
 Frc consts  --     0.0000                 0.0000                 0.0000
 IR Inten    --     0.6679                 0.1891                 0.0553
 Raman Activ --     0.0000                 0.0000                 0.0000
 Depolar     --     0.0000                 0.0000                 0.0000
 Atom AN      X      Y      Z        X      Y      Z        X      Y      Z
   1   6    -0.03  -0.15   0.00     0.14  -0.01   0.00    -0.00   0.00  -0.00
   2   6    -0.06  -0.10  -0.02    -0.02   0.06   0.01    -0.00  -0.01   0.00
   3   6    -0.09  -0.08  -0.02    -0.10   0.09   0.01    -0.00  -0.01   0.01
   4   6    -0.03  -0.03   0.00     0.02   0.00   0.00    -0.00   0.00   0.01
   5   6     0.02   0.00   0.00     0.08  -0.05   0.00    -0.00   0.00   0.02
   6   6     0.01   0.03  -0.00     0.03  -0.11   0.00    -0.00  -0.00   0.07
   7   6    -0.04  -0.01  -0.00    -0.02  -0.01  -0.00     0.00  -0.00  -0.12
   8   6    -0.10  -0.07   0.03    -0.09   0.06   0.02    -0.05  -0.01  -0.10
   9   6    -0.12  -0.03   0.02    -0.09   0.01   0.02    -0.06  -0.00  -0.00
  10   6    -0.16   0.02   0.00    -0.11  -0.09   0.00     0.00   0.00   0.03
  11   6    -0.12  -0.03  -0.02    -0.09   0.01  -0.02     0.06   0.00  -0.00
  12   6    -0.10  -0.07  -0.03    -0.09   0.06  -0.02     0.05   0.01  -0.10
  13   6     0.06   0.05   0.00     0.16  -0.18   0.00    -0.00   0.00   0.30
  14   6     0.09   0.07   0.00     0.11  -0.26   0.00    -0.00   0.00   0.27
  15   6     0.05   0.10  -0.00     0.10  -0.28  -0.00    -0.00   0.00  -0.32
  16   6     0.04   0.16  -0.00     0.09  -0.23  -0.00    -0.00   0.00  -0.24
  17   6    -0.04   0.22  -0.00    -0.07  -0.17   0.00     0.00   0.00   0.28
  18   6    -0.05   0.27   0.00    -0.09  -0.00   0.00     0.00   0.00   0.10
  19   6    -0.02   0.27  -0.00     0.05   0.09  -0.00    -0.00  -0.00  -0.33
  20   6     0.07   0.20  -0.00     0.19   0.02  -0.00    -0.00  -0.00  -0.03
  21   6     0.06   0.14  -0.00     0.22   0.05   0.00    -0.00   0.00   0.42
  22   6     0.10   0.10   0.00     0.13   0.08   0.00    -0.00  -0.00   0.02
  23   6    -0.01  -0.07   0.00    -0.01   0.03   0.00     0.00  -0.00  -0.10
  24   6    -0.11  -0.26   0.02    -0.15   0.01  -0.03     0.03  -0.03  -0.08
  25   6     0.03  -0.14   0.02    -0.11   0.06  -0.02     0.04  -0.02  -0.00
  26   6     0.27   0.04   0.00    -0.03   0.19  -0.00    -0.00  -0.00   0.03
  27   6     0.03  -0.14  -0.02    -0.11   0.06   0.02    -0.04   0.02  -0.00
  28   6    -0.11  -0.26  -0.02    -0.15   0.01   0.03    -0.03   0.03  -0.08
  29   6     0.07   0.08   0.00     0.16  -0.03  -0.00    -0.00   0.00  -0.08
  30   6     0.05   0.04   0.00     0.08   0.02   0.00    -0.00  -0.00  -0.01
  31   6     0.06  -0.01  -0.00     0.00   0.04   0.00    -0.00  -0.00   0.01
  32   6     0.06  -0.06  -0.02    -0.08   0.07   0.03     0.00  -0.01   0.01
  33   6     0.04  -0.08  -0.01    -0.06   0.09   0.02     0.01  -0.00   0.00
  34   6     0.04  -0.10   0.00    -0.02   0.15   0.00     0.00  -0.00  -0.00
  35   6     0.04  -0.08   0.01    -0.06   0.09  -0.02    -0.01   0.00   0.00
  36   6     0.06  -0.06   0.02    -0.08   0.07  -0.03    -0.00   0.01   0.01
  37   6     0.08   0.11   0.00     0.16  -0.10  -0.00    -0.00   0.00   0.05
  38   6     0.06   0.15  -0.00     0.19  -0.12  -0.00    -0.00   0.00  -0.15
  39   6    -0.09  -0.08   0.02    -0.10   0.09  -0.01     0.00   0.01   0.01
  40   6    -0.06  -0.10   0.02    -0.02   0.06  -0.01     0.00   0.01   0.00
  41   1     0.01  -0.05   0.00     0.09  -0.03   0.00    -0.00   0.00  -0.00
  42   1    -0.02  -0.02  -0.00    -0.02   0.02   0.00    -0.00  -0.00   0.00
  43   1    -0.03  -0.03  -0.00    -0.05   0.04   0.00    -0.00  -0.00   0.00
  44   1    -0.04  -0.03   0.00    -0.04   0.03   0.00    -0.03  -0.01  -0.04
  45   1    -0.03  -0.01   0.00    -0.02   0.01   0.00    -0.03  -0.00   0.01
  46   1    -0.05   0.03   0.00    -0.03  -0.05   0.00     0.00   0.00   0.03
  47   1    -0.03  -0.01  -0.00    -0.02   0.01  -0.00     0.03   0.00   0.01
  48   1    -0.04  -0.03  -0.00    -0.04   0.03  -0.00     0.03   0.01  -0.04
  49   1     0.02   0.02   0.00     0.03  -0.09   0.00    -0.00   0.00   0.14
  50   1     0.00   0.02  -0.00     0.03  -0.08  -0.00    -0.00   0.00  -0.16
  51   1    -0.03   0.05  -0.00    -0.05  -0.07   0.00     0.00   0.00   0.21
  52   1    -0.02   0.08   0.00    -0.06   0.02   0.00     0.00  -0.00   0.09
  53   1    -0.01   0.10   0.00     0.01   0.07  -0.00    -0.00  -0.00  -0.17
  54   1     0.02   0.04  -0.00     0.06  -0.00   0.00    -0.00   0.00   0.23
  55   1    -0.05  -0.11  -0.00    -0.07  -0.00  -0.00     0.02  -0.02  -0.03
  56   1    -0.00  -0.04   0.00    -0.03   0.01  -0.00     0.03  -0.01   0.01
  57   1     0.15   0.08   0.00     0.02   0.09   0.00    -0.00  -0.00   0.02
  58   1    -0.00  -0.04  -0.00    -0.03   0.01   0.00    -0.03   0.01   0.01
  59   1    -0.05  -0.11   0.00    -0.07  -0.00   0.00    -0.02   0.02  -0.03
  60   1     0.02  -0.02  -0.00    -0.04   0.03   0.00     0.00  -0.00   0.00
  61   1     0.01  -0.02  -0.00    -0.02   0.02   0.00     0.00  -0.00  -0.00
  62   1     0.01  -0.03   0.00     0.01   0.05   0.00     0.00  -0.00  -0.00
  63   1     0.01  -0.02   0.00    -0.02   0.02  -0.00    -0.00   0.00  -0.00
  64   1     0.02  -0.02   0.00    -0.04   0.03  -0.00    -0.00   0.00   0.00
  65   1    -0.03  -0.03   0.00    -0.05   0.04  -0.00     0.00   0.00   0.00
  66   1    -0.02  -0.02   0.00    -0.02   0.02  -0.00     0.00   0.00   0.00
                     28                     29                     30
                        a                      a                      a 
 Frequencies --   362.8392               365.2895               369.0966
 Red. masses --     8.8612                 8.8834                 8.9253
 Frc consts  --     0.0000                 0.0000                 0.0000
 IR Inten    --     0.0064                 0.0080                 0.0330
 Raman Activ --     0.0000                 0.0000                 0.0000
 Depolar     --     0.0000                 0.0000                 0.0000
 Atom AN      X      Y      Z        X      Y      Z        X      Y      Z
   1   6    -0.00   0.00  -0.00    -0.00  -0.00   0.00     0.00  -0.00  -0.00
   2   6     0.21  -0.11   0.00    -0.09   0.05   0.00    -0.27   0.13  -0.00
   3   6    -0.21   0.10   0.00     0.10  -0.04  -0.01     0.28  -0.14   0.00
   4   6    -0.00  -0.00   0.00     0.00  -0.00  -0.01    -0.00   0.00   0.00
   5   6    -0.00  -0.00  -0.00     0.00   0.00   0.01    -0.00   0.00  -0.00
   6   6    -0.00  -0.00   0.01     0.00   0.00  -0.00    -0.00   0.00  -0.00
   7   6    -0.00  -0.00  -0.00    -0.00   0.00   0.00     0.00  -0.00   0.01
   8   6     0.02  -0.16  -0.00    -0.05   0.31  -0.00     0.04  -0.23   0.01
   9   6    -0.03   0.17  -0.00     0.05  -0.31   0.00    -0.03   0.22  -0.00
  10   6     0.00  -0.00   0.00    -0.00   0.00   0.00     0.00   0.00  -0.00
  11   6     0.03  -0.17  -0.00    -0.05   0.31   0.00     0.03  -0.22  -0.00
  12   6    -0.02   0.16  -0.00     0.05  -0.31   0.00    -0.04   0.23   0.01
  13   6    -0.00  -0.00   0.01    -0.00   0.00  -0.01     0.00   0.00  -0.01
  14   6     0.00   0.00   0.00    -0.00   0.00   0.00    -0.00   0.00  -0.00
  15   6     0.00   0.00  -0.01    -0.00   0.00  -0.00     0.00  -0.00   0.01
  16   6     0.00   0.00   0.01    -0.00   0.00  -0.01     0.00  -0.00  -0.01
  17   6    -0.00   0.00  -0.00     0.00   0.00   0.01    -0.00  -0.00   0.00
  18   6    -0.00   0.00  -0.00     0.00  -0.00   0.00    -0.00  -0.00  -0.00
  19   6    -0.00   0.00   0.01     0.00  -0.00  -0.01    -0.00   0.00  -0.00
  20   6     0.00   0.00   0.00    -0.00  -0.00   0.00     0.00  -0.00  -0.00
  21   6    -0.00   0.00  -0.00    -0.00  -0.00   0.02     0.00  -0.00   0.02
  22   6     0.00  -0.00  -0.01    -0.00  -0.00   0.02     0.00  -0.00   0.01
  23   6     0.00   0.00   0.01     0.00  -0.00  -0.01     0.00  -0.00  -0.01
  24   6     0.14   0.14   0.01     0.16   0.15  -0.01     0.13   0.13  -0.01
  25   6    -0.15  -0.14  -0.00    -0.15  -0.15  -0.00    -0.13  -0.13  -0.00
  26   6     0.00  -0.00  -0.00     0.00  -0.00   0.00    -0.00   0.00   0.00
  27   6     0.15   0.14  -0.00     0.15   0.15  -0.00     0.13   0.13  -0.00
  28   6    -0.14  -0.14   0.01    -0.16  -0.15  -0.01    -0.13  -0.13  -0.01
  29   6    -0.00  -0.00  -0.03    -0.00   0.00   0.02     0.00  -0.00   0.01
  30   6    -0.00  -0.00  -0.02     0.00   0.00   0.01    -0.00  -0.00   0.01
  31   6    -0.00  -0.00   0.01     0.00   0.00  -0.01    -0.00  -0.00  -0.01
  32   6    -0.22  -0.10   0.01    -0.14  -0.06  -0.01     0.00   0.00  -0.01
  33   6     0.22   0.09   0.00     0.13   0.06   0.00    -0.01   0.00   0.00
  34   6    -0.00  -0.00  -0.00    -0.00  -0.00   0.01    -0.00  -0.00   0.00
  35   6    -0.22  -0.09   0.00    -0.13  -0.06   0.00     0.01  -0.00   0.00
  36   6     0.22   0.10   0.01     0.14   0.06  -0.01    -0.00  -0.00  -0.01
  37   6    -0.00  -0.00  -0.01    -0.00   0.00   0.01     0.00  -0.00  -0.00
  38   6     0.00   0.00   0.01    -0.00   0.00  -0.01     0.00  -0.00  -0.02
  39   6     0.21  -0.10   0.00    -0.10   0.04  -0.01    -0.28   0.14   0.00
  40   6    -0.21   0.11   0.00     0.09  -0.05   0.00     0.27  -0.13  -0.00
  41   1    -0.00   0.00  -0.00    -0.00  -0.00   0.00     0.00  -0.00  -0.00
  42   1     0.14  -0.07   0.00    -0.06   0.03   0.00    -0.17   0.08  -0.00
  43   1    -0.13   0.06   0.00     0.06  -0.03  -0.00     0.17  -0.09   0.00
  44   1     0.01  -0.10  -0.00    -0.03   0.19   0.00     0.02  -0.14   0.00
  45   1    -0.02   0.11   0.00     0.03  -0.20   0.00    -0.02   0.14  -0.00
  46   1     0.00  -0.00   0.00    -0.00   0.00   0.00    -0.00   0.00  -0.00
  47   1     0.02  -0.11   0.00    -0.03   0.20   0.00     0.02  -0.14  -0.00
  48   1    -0.01   0.10  -0.00     0.03  -0.19   0.00    -0.02   0.14   0.00
  49   1     0.00   0.00  -0.00    -0.00  -0.00   0.01     0.00   0.00  -0.00
  50   1     0.00   0.00  -0.01    -0.00   0.00   0.00     0.00   0.00   0.01
  51   1    -0.00   0.00  -0.00     0.00   0.00   0.01    -0.00  -0.00   0.00
  52   1    -0.00   0.00  -0.01     0.00  -0.00   0.00    -0.00   0.00   0.00
  53   1    -0.00   0.00   0.00     0.00  -0.00  -0.00    -0.00   0.00   0.00
  54   1    -0.00   0.00   0.00    -0.00   0.00   0.00     0.00  -0.00   0.01
  55   1     0.09   0.09   0.00     0.10   0.09  -0.00     0.08   0.08  -0.00
  56   1    -0.09  -0.09  -0.00    -0.10  -0.10   0.00    -0.08  -0.08   0.00
  57   1     0.00  -0.00  -0.00    -0.00  -0.00   0.00    -0.00   0.00   0.00
  58   1     0.09   0.09  -0.00     0.10   0.10   0.00     0.08   0.08   0.00
  59   1    -0.09  -0.09   0.00    -0.10  -0.09  -0.00    -0.08  -0.08  -0.00
  60   1    -0.13  -0.06   0.00    -0.08  -0.04  -0.00     0.00   0.00  -0.00
  61   1     0.14   0.06   0.00     0.08   0.04   0.00    -0.00   0.00   0.00
  62   1    -0.00  -0.00  -0.00    -0.00  -0.00   0.00    -0.00  -0.00   0.00
  63   1    -0.14  -0.06   0.00    -0.08  -0.04   0.00     0.00  -0.00   0.00
  64   1     0.13   0.06   0.00     0.08   0.04  -0.00    -0.00  -0.00  -0.00
  65   1     0.13  -0.06   0.00    -0.06   0.03  -0.00    -0.17   0.09   0.00
  66   1    -0.14   0.07  -0.00     0.06  -0.03   0.00     0.17  -0.08  -0.00
                     31                     32                     33
                        a                      a                      a 
 Frequencies --   375.2602               387.5436               387.6354
 Red. masses --     9.0858                10.3642                10.8631
 Frc consts  --     0.0000                 0.0000                 0.0000
 IR Inten    --     0.0402                 0.0890                 0.0774
 Raman Activ --     0.0000                 0.0000                 0.0000
 Depolar     --     0.0000                 0.0000                 0.0000
 Atom AN      X      Y      Z        X      Y      Z        X      Y      Z
   1   6    -0.00   0.00   0.00    -0.16   0.10  -0.00    -0.03   0.02   0.02
   2   6    -0.11   0.06   0.00     0.10  -0.04   0.00     0.02   0.01   0.00
   3   6     0.13  -0.06   0.00     0.08  -0.03   0.01     0.02   0.01  -0.04
   4   6    -0.00   0.00   0.00    -0.22   0.10   0.01    -0.03   0.02  -0.04
   5   6    -0.00   0.00  -0.01    -0.22   0.09  -0.02    -0.03   0.02   0.11
   6   6    -0.00   0.00   0.00    -0.06   0.19  -0.00    -0.01   0.03   0.01
   7   6     0.00   0.00  -0.01    -0.05   0.21  -0.00    -0.01   0.03   0.02
   8   6     0.00  -0.02  -0.00     0.03  -0.07  -0.02     0.02  -0.03   0.01
   9   6    -0.01   0.02  -0.00     0.04  -0.10  -0.01     0.01   0.00   0.00
  10   6    -0.00   0.00   0.00     0.02   0.17   0.00     0.00   0.03  -0.00
  11   6     0.01  -0.02  -0.00     0.04  -0.09   0.01     0.00  -0.03   0.00
  12   6    -0.00   0.02  -0.00     0.04  -0.08   0.01    -0.00   0.01   0.02
  13   6     0.00   0.00   0.05     0.08   0.09   0.03     0.01   0.01  -0.19
  14   6     0.00  -0.00   0.03     0.05   0.04   0.02     0.01   0.01  -0.15
  15   6     0.00  -0.00  -0.05     0.11  -0.02  -0.04     0.02  -0.00   0.26
  16   6     0.00  -0.00   0.05     0.09  -0.17   0.03     0.01  -0.03  -0.19
  17   6    -0.00   0.00  -0.01    -0.17  -0.08   0.00    -0.03  -0.01  -0.02
  18   6    -0.00   0.00  -0.01    -0.21   0.09  -0.01    -0.03   0.01   0.06
  19   6    -0.00   0.00   0.01    -0.06   0.17   0.01    -0.01   0.03  -0.04
  20   6     0.00   0.00   0.02     0.18   0.04   0.02     0.03   0.01  -0.12
  21   6     0.00  -0.00  -0.06     0.06  -0.07  -0.03     0.01  -0.01   0.18
  22   6    -0.00  -0.00  -0.06    -0.04  -0.06  -0.04    -0.01  -0.01   0.25
  23   6    -0.00  -0.00   0.05    -0.03  -0.04   0.03    -0.00  -0.01  -0.16
  24   6    -0.19  -0.16   0.03     0.00   0.03   0.02    -0.01  -0.08  -0.14
  25   6     0.15   0.17  -0.00    -0.01   0.03  -0.01     0.09  -0.01  -0.00
  26   6     0.00  -0.00  -0.01    -0.05  -0.01  -0.01    -0.01  -0.00   0.05
  27   6    -0.15  -0.17  -0.00     0.02   0.03   0.01    -0.09   0.02   0.00
  28   6     0.19   0.16   0.03     0.00   0.01   0.03     0.01   0.09  -0.14
  29   6    -0.00  -0.00  -0.12    -0.04  -0.13  -0.08    -0.01  -0.02   0.51
  30   6    -0.00  -0.00  -0.05    -0.20  -0.07  -0.04    -0.03  -0.01   0.22
  31   6    -0.00  -0.00   0.03    -0.21  -0.09   0.02    -0.03  -0.01  -0.13
  32   6    -0.29  -0.14   0.02     0.10   0.02   0.01    -0.08   0.01  -0.12
  33   6     0.27   0.11   0.00     0.10   0.02  -0.01     0.05   0.09   0.00
  34   6    -0.00  -0.00  -0.00    -0.15  -0.09  -0.01    -0.02  -0.02   0.04
  35   6    -0.27  -0.11   0.00     0.11   0.04   0.01    -0.02  -0.08   0.00
  36   6     0.29   0.14   0.02     0.07   0.03   0.02     0.11  -0.00  -0.12
  37   6     0.00  -0.00  -0.01     0.10  -0.05  -0.02     0.02  -0.01   0.10
  38   6     0.00  -0.00   0.07     0.18  -0.09   0.05     0.03  -0.02  -0.29
  39   6    -0.13   0.06   0.00     0.08  -0.03   0.00     0.00  -0.02  -0.04
  40   6     0.11  -0.06   0.00     0.10  -0.04  -0.00     0.01  -0.02   0.00
  41   1     0.00   0.00  -0.00    -0.10   0.05  -0.00    -0.02   0.01   0.01
  42   1    -0.07   0.04   0.00     0.07  -0.04  -0.00     0.02   0.01   0.01
  43   1     0.07  -0.04   0.00     0.07  -0.03   0.00     0.02   0.01  -0.02
  44   1     0.00  -0.01  -0.00     0.02  -0.06  -0.00     0.01  -0.02   0.01
  45   1    -0.00   0.01   0.00     0.01  -0.07  -0.00     0.01  -0.00  -0.00
  46   1    -0.00   0.00   0.00    -0.00   0.10   0.00    -0.00   0.02  -0.00
  47   1     0.00  -0.01   0.00     0.01  -0.07   0.00    -0.00  -0.02  -0.00
  48   1    -0.00   0.01  -0.00     0.02  -0.07   0.00    -0.00   0.00   0.01
  49   1     0.00  -0.00  -0.00     0.01   0.01   0.00     0.00   0.00  -0.02
  50   1     0.00  -0.00  -0.05     0.06   0.01  -0.03     0.01   0.00   0.21
  51   1    -0.00  -0.00  -0.02    -0.10  -0.06  -0.01    -0.02  -0.01   0.06
  52   1    -0.00   0.00  -0.02    -0.09   0.04  -0.01    -0.01   0.01   0.08
  53   1    -0.00   0.00  -0.01    -0.02   0.11  -0.01    -0.00   0.02   0.04
  54   1     0.00  -0.00  -0.01     0.02  -0.06  -0.00     0.00  -0.01   0.02
  55   1    -0.12  -0.10   0.01     0.01   0.03   0.01     0.00  -0.06  -0.06
  56   1     0.10   0.11  -0.00     0.00   0.01  -0.00     0.06  -0.01   0.01
  57   1     0.00   0.00  -0.01    -0.02  -0.01  -0.01    -0.00  -0.00   0.03
  58   1    -0.10  -0.11  -0.00     0.02   0.01  -0.00    -0.06   0.01   0.01
  59   1     0.12   0.10   0.01     0.01   0.01   0.01     0.00   0.06  -0.06
  60   1    -0.17  -0.09   0.01     0.08   0.02   0.01    -0.05   0.02  -0.05
  61   1     0.17   0.07  -0.00     0.07   0.02  -0.00     0.04   0.06   0.01
  62   1    -0.00  -0.00  -0.01    -0.09  -0.05  -0.00    -0.02  -0.01   0.03
  63   1    -0.17  -0.07  -0.00     0.08   0.04  -0.00    -0.01  -0.05   0.01
  64   1     0.17   0.09   0.01     0.06   0.02   0.01     0.07  -0.01  -0.05
  65   1    -0.07   0.04   0.00     0.07  -0.03   0.00     0.01  -0.01  -0.02
  66   1     0.07  -0.04   0.00     0.07  -0.03  -0.00     0.01  -0.02   0.00
                     34                     35                     36
                        a                      a                      a 
 Frequencies --   446.0353               446.2368               452.0854
 Red. masses --    11.1954                10.8264                10.2977
 Frc consts  --     0.0000                 0.0000                 0.0000
 IR Inten    --     0.0612                 0.1202                 0.2861
 Raman Activ --     0.0000                 0.0000                 0.0000
 Depolar     --     0.0000                 0.0000                 0.0000
 Atom AN      X      Y      Z        X      Y      Z        X      Y      Z
   1   6     0.11   0.15   0.00    -0.01  -0.01   0.05    -0.04   0.08   0.00
   2   6     0.02   0.09   0.07     0.02   0.04   0.01     0.05  -0.00   0.02
   3   6     0.02   0.06   0.07     0.01   0.02  -0.14     0.01   0.01   0.02
   4   6    -0.00  -0.12  -0.01     0.00   0.01  -0.13    -0.12   0.02  -0.00
   5   6    -0.06  -0.18   0.03     0.01   0.02   0.36    -0.08  -0.02   0.00
   6   6    -0.01  -0.19   0.04     0.00   0.02   0.40    -0.04  -0.02   0.00
   7   6     0.01  -0.19  -0.01    -0.00   0.02  -0.14    -0.03   0.06  -0.00
   8   6     0.01   0.01  -0.03    -0.03   0.00  -0.14     0.01  -0.00  -0.02
   9   6    -0.00   0.08  -0.01    -0.05  -0.02   0.01     0.02  -0.02  -0.02
  10   6     0.05  -0.11   0.00    -0.00   0.01   0.05     0.04   0.04   0.00
  11   6     0.01   0.08   0.01     0.05   0.00   0.01     0.02  -0.02   0.02
  12   6     0.01   0.01   0.00     0.03  -0.00  -0.14     0.01  -0.00   0.02
  13   6     0.07  -0.21   0.03    -0.01   0.02   0.30     0.08  -0.11   0.00
  14   6     0.23  -0.14  -0.02    -0.02   0.01  -0.20     0.12  -0.10  -0.00
  15   6     0.18  -0.10   0.01    -0.02   0.01   0.10    -0.06  -0.01   0.00
  16   6     0.13   0.17   0.02    -0.01  -0.02   0.19    -0.06   0.08   0.00
  17   6     0.04   0.26   0.01    -0.00  -0.02   0.07     0.15   0.00   0.00
  18   6     0.05   0.27  -0.02    -0.00  -0.03  -0.20     0.17  -0.02  -0.00
  19   6    -0.07   0.16   0.02     0.01  -0.01   0.21     0.02  -0.09   0.00
  20   6    -0.05   0.10  -0.01     0.00  -0.01  -0.12    -0.23   0.05  -0.00
  21   6    -0.23  -0.06   0.00     0.02   0.01   0.04    -0.15   0.17   0.00
  22   6    -0.18  -0.11  -0.02     0.02   0.01  -0.16     0.11   0.08  -0.00
  23   6    -0.16  -0.12   0.00     0.01   0.01   0.05     0.34   0.30   0.00
  24   6     0.02  -0.00   0.03    -0.00   0.01   0.05    -0.02  -0.01  -0.02
  25   6     0.07   0.04   0.02    -0.02   0.01  -0.01    -0.14  -0.12  -0.01
  26   6    -0.06  -0.12  -0.00     0.00   0.01  -0.02     0.17   0.20   0.00
  27   6     0.07   0.04  -0.02     0.01  -0.01  -0.00    -0.14  -0.12   0.01
  28   6     0.02  -0.01  -0.02     0.00  -0.01   0.05    -0.02  -0.01   0.02
  29   6    -0.14  -0.13  -0.01     0.01   0.01  -0.16     0.10  -0.14  -0.00
  30   6    -0.11  -0.14   0.02     0.01   0.01   0.18    -0.07  -0.08   0.00
  31   6    -0.11  -0.10  -0.00     0.01   0.01  -0.05    -0.22  -0.14  -0.00
  32   6    -0.01   0.02   0.03     0.00   0.01  -0.05     0.00   0.02   0.02
  33   6     0.04   0.06   0.03    -0.01   0.01   0.01     0.08   0.06   0.02
  34   6    -0.11   0.04   0.00     0.01  -0.00   0.02    -0.15  -0.01  -0.00
  35   6     0.04   0.05  -0.03     0.01  -0.02   0.01     0.08   0.06  -0.02
  36   6    -0.01   0.02  -0.04    -0.00  -0.01  -0.04     0.00   0.02  -0.02
  37   6     0.02  -0.04  -0.01    -0.00   0.00  -0.06     0.06  -0.14   0.00
  38   6    -0.02   0.06  -0.03     0.00  -0.01  -0.27    -0.18  -0.02  -0.00
  39   6     0.02   0.05  -0.09    -0.02  -0.03  -0.12     0.01   0.01  -0.02
  40   6     0.02   0.08  -0.06    -0.02  -0.05   0.02     0.05  -0.00  -0.02
  41   1     0.04   0.04   0.00    -0.00  -0.00   0.03    -0.02   0.03   0.00
  42   1    -0.01   0.01   0.01     0.02   0.03   0.02     0.04  -0.02   0.00
  43   1     0.01   0.05  -0.00     0.02   0.02  -0.05     0.03   0.00   0.00
  44   1    -0.00   0.04  -0.01    -0.04  -0.01  -0.05     0.01  -0.01  -0.00
  45   1    -0.01   0.06   0.00    -0.04  -0.01   0.02     0.00  -0.02  -0.00
  46   1     0.02  -0.05   0.00    -0.00   0.01   0.03     0.01   0.02   0.00
  47   1    -0.01   0.06   0.00     0.04   0.00   0.02     0.00  -0.02   0.00
  48   1     0.01   0.04  -0.00     0.04  -0.00  -0.05     0.01  -0.01   0.00
  49   1     0.06  -0.01  -0.02    -0.01   0.00  -0.17     0.04  -0.05  -0.00
  50   1     0.00  -0.06  -0.00     0.00   0.01  -0.01    -0.06  -0.03  -0.00
  51   1    -0.01   0.06   0.00     0.00  -0.01   0.04     0.07   0.02   0.00
  52   1     0.04   0.07  -0.01    -0.00  -0.01  -0.12     0.06  -0.01  -0.00
  53   1    -0.02   0.03   0.01     0.00  -0.00   0.15     0.01  -0.10   0.00
  54   1    -0.06  -0.05   0.01     0.01   0.00   0.11    -0.05   0.10   0.00
  55   1     0.03   0.02   0.00    -0.01   0.01   0.02    -0.07  -0.06  -0.00
  56   1     0.05   0.05   0.00    -0.02   0.00  -0.01    -0.11  -0.11  -0.00
  57   1    -0.03  -0.05  -0.00     0.00   0.00  -0.01     0.09   0.09   0.00
  58   1     0.05   0.05  -0.00     0.01  -0.01  -0.01    -0.11  -0.11   0.00
  59   1     0.03   0.02  -0.00     0.00  -0.01   0.02    -0.07  -0.06   0.00
  60   1     0.02   0.03   0.00    -0.00   0.01  -0.02     0.03   0.03   0.00
  61   1     0.04   0.02   0.00    -0.01   0.01   0.01     0.08   0.03   0.00
  62   1    -0.05   0.00   0.00     0.00  -0.00   0.01    -0.07  -0.01  -0.00
  63   1     0.05   0.02  -0.00     0.00  -0.01   0.01     0.08   0.03  -0.00
  64   1     0.02   0.03  -0.00    -0.00  -0.02  -0.02     0.03   0.03  -0.00
  65   1     0.01   0.04  -0.01    -0.02  -0.03  -0.05     0.03   0.00  -0.00
  66   1    -0.02   0.00  -0.00    -0.01  -0.03   0.02     0.04  -0.02  -0.00
                     37                     38                     39
                        a                      a                      a 
 Frequencies --   475.2649               479.0303               494.5989
 Red. masses --    10.5077                10.1824                10.7444
 Frc consts  --     0.0000                 0.0000                 0.0000
 IR Inten    --     1.3268                 0.1099                 0.5332
 Raman Activ --     0.0000                 0.0000                 0.0000
 Depolar     --     0.0000                 0.0000                 0.0000
 Atom AN      X      Y      Z        X      Y      Z        X      Y      Z
   1   6     0.03  -0.01   0.00     0.00  -0.00  -0.02    -0.16   0.15  -0.00
   2   6    -0.02   0.01  -0.00    -0.01  -0.01  -0.01     0.14  -0.05   0.03
   3   6     0.00  -0.00  -0.00     0.00  -0.01   0.04    -0.03   0.03   0.03
   4   6     0.05  -0.02  -0.00     0.00   0.00   0.04    -0.32   0.10  -0.00
   5   6     0.02  -0.02   0.00     0.00   0.00  -0.13    -0.07  -0.05  -0.00
   6   6     0.11   0.05  -0.00    -0.00  -0.00  -0.01     0.00  -0.04  -0.00
   7   6     0.02   0.42  -0.00     0.00  -0.00   0.01    -0.00  -0.01   0.00
   8   6    -0.03   0.02   0.05     0.00   0.01   0.01     0.00  -0.00  -0.00
   9   6    -0.02  -0.18   0.05     0.00  -0.00  -0.00     0.00   0.01  -0.00
  10   6    -0.15   0.22  -0.00     0.00  -0.00  -0.00     0.01  -0.01   0.00
  11   6    -0.02  -0.18  -0.05    -0.00   0.00  -0.00     0.00   0.01   0.00
  12   6    -0.03   0.02  -0.05    -0.00  -0.01   0.01     0.00  -0.00   0.00
  13   6     0.29  -0.06   0.00    -0.00   0.00   0.20     0.03  -0.08   0.00
  14   6     0.20  -0.17  -0.00    -0.00   0.00  -0.27    -0.17  -0.28   0.00
  15   6    -0.12  -0.03   0.00     0.00  -0.00   0.27    -0.21  -0.25  -0.00
  16   6    -0.14   0.19   0.00     0.00  -0.00   0.08    -0.15   0.01   0.00
  17   6    -0.04   0.16  -0.00    -0.00  -0.00  -0.32     0.12  -0.09   0.00
  18   6     0.00  -0.09   0.00     0.00   0.00   0.29     0.17  -0.03  -0.00
  19   6    -0.05  -0.13   0.00     0.00   0.00  -0.15     0.34   0.10   0.00
  20   6    -0.10  -0.08  -0.00     0.00   0.00  -0.38     0.12   0.18  -0.00
  21   6    -0.11  -0.10   0.00     0.00   0.00   0.22    -0.04   0.07  -0.00
  22   6     0.02  -0.15  -0.00    -0.00   0.00  -0.04    -0.10   0.08   0.00
  23   6    -0.06  -0.16   0.00    -0.00  -0.00  -0.01    -0.10   0.02  -0.00
  24   6    -0.02   0.01  -0.05     0.01  -0.00  -0.01     0.01  -0.02   0.06
  25   6     0.02   0.07  -0.04     0.00  -0.01  -0.00     0.04  -0.01   0.05
  26   6    -0.14   0.01  -0.00    -0.00  -0.00  -0.00     0.05  -0.10   0.00
  27   6     0.02   0.07   0.04    -0.00   0.01  -0.00     0.04  -0.01  -0.05
  28   6    -0.02   0.01   0.05    -0.01   0.00  -0.01     0.01  -0.02  -0.06
  29   6     0.08  -0.03  -0.00    -0.00   0.00  -0.19    -0.10   0.10   0.00
  30   6     0.03   0.01   0.00     0.00   0.00  -0.24    -0.06   0.05  -0.00
  31   6     0.10   0.04   0.00     0.00   0.00   0.09     0.10   0.11   0.00
  32   6     0.00   0.00   0.00     0.01  -0.01   0.09     0.02  -0.01  -0.04
  33   6    -0.04  -0.02   0.00     0.01  -0.03  -0.01    -0.04  -0.04  -0.03
  34   6     0.05   0.03   0.00     0.00  -0.00  -0.03     0.10  -0.04   0.00
  35   6    -0.04  -0.02  -0.00    -0.01   0.03  -0.01    -0.04  -0.04   0.03
  36   6     0.00   0.00  -0.00    -0.01   0.01   0.09     0.02  -0.01   0.04
  37   6     0.21   0.05   0.00    -0.00   0.00   0.32     0.02   0.15  -0.00
  38   6    -0.09   0.17  -0.00     0.00   0.00   0.02     0.06   0.16  -0.00
  39   6     0.00  -0.00   0.00    -0.00   0.01   0.04    -0.03   0.03  -0.03
  40   6    -0.02   0.01   0.00     0.01   0.01  -0.01     0.14  -0.05  -0.03
  41   1     0.01  -0.01   0.00     0.00  -0.00  -0.01    -0.06   0.05  -0.00
  42   1    -0.02   0.01  -0.00    -0.01  -0.01  -0.01     0.12  -0.07   0.00
  43   1    -0.01   0.00  -0.00    -0.00  -0.01   0.02     0.06  -0.01   0.00
  44   1    -0.02  -0.08   0.00     0.00   0.01   0.00     0.00   0.00  -0.00
  45   1     0.03  -0.15   0.00     0.00  -0.00  -0.00    -0.00   0.01  -0.00
  46   1    -0.05   0.10  -0.00     0.00  -0.00  -0.00     0.00  -0.01   0.00
  47   1     0.03  -0.15  -0.00    -0.00   0.00  -0.00    -0.00   0.01   0.00
  48   1    -0.02  -0.08  -0.00    -0.00  -0.01   0.00     0.00   0.00   0.00
  49   1     0.07  -0.12  -0.00    -0.00   0.00  -0.22    -0.04  -0.11  -0.00
  50   1    -0.10  -0.06   0.00     0.00   0.00   0.06    -0.09  -0.09  -0.00
  51   1     0.03   0.08  -0.00    -0.00  -0.00  -0.14     0.08   0.01   0.00
  52   1     0.04  -0.04   0.00    -0.00   0.00   0.23    -0.00   0.02  -0.00
[...]
  34   6    -0.03   0.07   0.00    -0.03   0.07   0.00    -0.00   0.00  -0.00
  35   6     0.00  -0.01  -0.02     0.00  -0.01  -0.01    -0.02   0.05   0.10
  36   6    -0.02   0.04  -0.07    -0.02   0.04  -0.07     0.02  -0.04   0.07
  37   6     0.00   0.00   0.00    -0.00  -0.00   0.00    -0.00   0.00  -0.00
  38   6    -0.00  -0.00   0.00    -0.00   0.00   0.00    -0.00   0.00   0.00
  39   6    -0.00  -0.01   0.02     0.02   0.04  -0.09     0.01   0.02  -0.03
  40   6     0.00   0.00   0.00    -0.00  -0.00  -0.00    -0.01  -0.03  -0.05
  41   1     0.03   0.06   0.00    -0.16  -0.31  -0.00    -0.00  -0.00  -0.00
  42   1    -0.00  -0.00   0.01     0.00   0.00  -0.01    -0.04  -0.09   0.17
  43   1     0.01   0.03   0.06    -0.08  -0.16  -0.31     0.03   0.06   0.12
  44   1     0.18   0.03  -0.32    -0.14  -0.02   0.24     0.02   0.00  -0.04
  45   1    -0.03  -0.00  -0.05     0.01   0.00   0.02    -0.03  -0.01  -0.06
  46   1     0.37   0.06  -0.00    -0.26  -0.04   0.00     0.00   0.00   0.00
  47   1    -0.03  -0.00   0.06     0.01   0.00  -0.02     0.03   0.01  -0.06
  48   1     0.18   0.03   0.32    -0.14  -0.02  -0.24    -0.02  -0.00  -0.04
  49   1     0.04   0.00  -0.00    -0.05  -0.01   0.00     0.00   0.00   0.00
  50   1     0.03  -0.04  -0.00    -0.03   0.04   0.00     0.00  -0.00  -0.00
  51   1    -0.00   0.01   0.00    -0.01   0.02   0.00    -0.00   0.00   0.00
  52   1     0.01   0.02  -0.00     0.00   0.01  -0.00     0.00   0.00  -0.00
  53   1     0.00   0.00  -0.00    -0.01  -0.00   0.00     0.00   0.00  -0.00
  54   1    -0.02  -0.00   0.00    -0.01  -0.00   0.00    -0.00  -0.00  -0.00
  55   1     0.09  -0.10   0.24     0.05  -0.06   0.14     0.08  -0.09   0.22
  56   1    -0.02   0.02   0.06    -0.01   0.01   0.03    -0.12   0.12   0.29
  57   1     0.19  -0.20   0.00     0.10  -0.11   0.00     0.00  -0.00  -0.00
  58   1    -0.02   0.02  -0.06    -0.01   0.01  -0.03     0.12  -0.12   0.29
  59   1     0.09  -0.10  -0.24     0.05  -0.06  -0.14    -0.08   0.09   0.21
  60   1     0.06  -0.13  -0.24     0.06  -0.13  -0.25     0.06  -0.12  -0.23
  61   1    -0.01   0.03  -0.06    -0.01   0.02  -0.03    -0.08   0.18  -0.33
  62   1     0.12  -0.27  -0.00     0.11  -0.25  -0.00     0.00  -0.00   0.00
  63   1    -0.01   0.03   0.06    -0.01   0.02   0.04     0.08  -0.18  -0.33
  64   1     0.06  -0.13   0.24     0.06  -0.13   0.25    -0.06   0.12  -0.23
  65   1     0.01   0.03  -0.06    -0.08  -0.16   0.31    -0.03  -0.06   0.12
  66   1    -0.00  -0.00  -0.01     0.00   0.00   0.01     0.04   0.09   0.17
                    184                    185                    186
                        a                      a                      a 
 Frequencies --  3082.8490              3084.3610              3084.5804
 Red. masses --     1.8809                 1.8807                 1.8794
 Frc consts  --     0.0000                 0.0000                 0.0000
 IR Inten    --    12.9640                56.5866                 0.0620
 Raman Activ --     0.0000                 0.0000                 0.0000
 Depolar     --     0.0000                 0.0000                 0.0000
 Atom AN      X      Y      Z        X      Y      Z        X      Y      Z
   1   6    -0.00  -0.00   0.00     0.00   0.01  -0.00    -0.00  -0.00  -0.00
   2   6     0.02   0.05  -0.09     0.00   0.00  -0.00    -0.01  -0.02   0.03
   3   6    -0.02  -0.04  -0.07     0.00   0.00   0.00     0.01   0.02   0.04
   4   6    -0.00  -0.00   0.00     0.00   0.00  -0.00    -0.00  -0.00  -0.00
   5   6     0.00   0.00  -0.00    -0.00   0.00   0.00     0.00   0.00   0.00
   6   6     0.00   0.00   0.00    -0.00   0.00   0.00     0.00   0.00   0.00
   7   6    -0.00  -0.00  -0.00     0.00   0.00  -0.00    -0.00  -0.00  -0.00
   8   6    -0.04  -0.01   0.06     0.01   0.00  -0.01    -0.05  -0.01   0.08
   9   6     0.05   0.01   0.08     0.00   0.00   0.00     0.05   0.01   0.08
  10   6    -0.00  -0.00  -0.00     0.01   0.00  -0.00    -0.00  -0.00  -0.00
  11   6    -0.05  -0.01   0.08     0.00   0.00  -0.00    -0.05  -0.01   0.08
  12   6     0.04   0.01   0.06     0.01   0.00   0.01     0.05   0.01   0.08
  13   6    -0.00  -0.00   0.00    -0.00  -0.00   0.00     0.00   0.00   0.00
  14   6    -0.00  -0.00  -0.00    -0.22  -0.03   0.00     0.00   0.00  -0.00
  15   6    -0.00   0.00  -0.00    -0.07   0.11   0.00     0.00  -0.00  -0.00
  16   6     0.00   0.00   0.00     0.00   0.00  -0.00    -0.00  -0.00   0.00
  17   6    -0.00   0.00  -0.00     0.02  -0.02  -0.00    -0.00   0.00  -0.00
  18   6    -0.00  -0.00   0.00    -0.04  -0.08   0.00     0.00   0.00  -0.00
  19   6    -0.00  -0.00  -0.00    -0.07  -0.01   0.00     0.00   0.00   0.00
  20   6    -0.00   0.00   0.00    -0.00   0.00  -0.00     0.00  -0.00  -0.00
  21   6    -0.00  -0.00  -0.00    -0.00  -0.00   0.00     0.00   0.00   0.00
  22   6    -0.00   0.00   0.00    -0.00   0.00  -0.00     0.00  -0.00  -0.00
  23   6     0.00  -0.00  -0.00     0.00  -0.00   0.00    -0.00  -0.00   0.00
  24   6     0.02  -0.02   0.05     0.00  -0.00   0.00    -0.02   0.03  -0.06
  25   6    -0.02   0.03   0.06    -0.00   0.00   0.00     0.03  -0.03  -0.07
  26   6     0.00  -0.00  -0.00    -0.00   0.00   0.00     0.00  -0.00   0.00
  27   6     0.02  -0.03   0.06    -0.00   0.00  -0.00    -0.03   0.03  -0.07
  28   6    -0.02   0.02   0.05     0.00  -0.00  -0.00     0.02  -0.03  -0.06
  29   6    -0.00  -0.00  -0.00    -0.00  -0.00   0.00     0.00   0.00   0.00
  30   6     0.00   0.00  -0.00     0.00  -0.00  -0.00    -0.00   0.00  -0.00
  31   6     0.00  -0.00  -0.00     0.00   0.00   0.00     0.00  -0.00   0.00
  32   6     0.00  -0.00  -0.01    -0.00   0.00   0.00     0.01  -0.03  -0.05
  33   6    -0.00   0.00  -0.00    -0.00   0.00  -0.00    -0.01   0.03  -0.06
  34   6     0.00  -0.00   0.00    -0.00   0.00   0.00     0.00  -0.00   0.00
  35   6     0.00  -0.00  -0.00    -0.00   0.00   0.00     0.01  -0.03  -0.06
  36   6    -0.00   0.00  -0.01    -0.00   0.00  -0.00    -0.01   0.03  -0.05
  37   6     0.00   0.00   0.00     0.00   0.00  -0.00    -0.00  -0.00   0.00
  38   6     0.00  -0.00  -0.00     0.00  -0.00  -0.00    -0.00   0.00   0.00
  39   6     0.02   0.04  -0.07     0.00   0.00  -0.00    -0.01  -0.02   0.04
  40   6    -0.02  -0.05  -0.09     0.00   0.00   0.00     0.01   0.02   0.03
  41   1     0.00   0.00  -0.00    -0.01  -0.02  -0.00     0.00   0.00   0.00
  42   1    -0.08  -0.15   0.30    -0.00  -0.00   0.00     0.03   0.06  -0.12
  43   1     0.06   0.13   0.25    -0.00  -0.01  -0.01    -0.03  -0.06  -0.12
  44   1     0.13   0.02  -0.22    -0.03  -0.00   0.05     0.16   0.02  -0.28
  45   1    -0.16  -0.02  -0.28    -0.00  -0.00  -0.01    -0.16  -0.02  -0.28
  46   1     0.00   0.00   0.00    -0.04  -0.01   0.00     0.00   0.00   0.00
  47   1     0.16   0.02  -0.28    -0.00  -0.00   0.00     0.16   0.02  -0.28
  48   1    -0.13  -0.02  -0.22    -0.03  -0.00  -0.05    -0.16  -0.02  -0.28
  49   1     0.00   0.00   0.00     0.75   0.08  -0.00    -0.00  -0.00   0.00
  50   1     0.00  -0.00   0.00     0.25  -0.35  -0.00    -0.00   0.00   0.00
  51   1     0.00  -0.00   0.00    -0.06   0.08   0.00     0.00  -0.00   0.00
  52   1     0.00   0.00   0.00     0.12   0.27  -0.00    -0.00  -0.00  -0.00
  53   1     0.00   0.00   0.00     0.23   0.02  -0.00    -0.00  -0.00  -0.00
  54   1     0.00   0.00   0.00     0.02   0.00  -0.00    -0.00  -0.00  -0.00
  55   1    -0.06   0.07  -0.16    -0.00   0.00  -0.01     0.08  -0.09   0.20
  56   1     0.08  -0.08  -0.21     0.00  -0.00  -0.00    -0.09   0.09   0.23
  57   1    -0.00   0.00   0.00     0.00  -0.00  -0.00    -0.00   0.00  -0.00
  58   1    -0.08   0.08  -0.21     0.00  -0.00   0.00     0.09  -0.09   0.23
  59   1     0.06  -0.07  -0.16    -0.00   0.00   0.01    -0.08   0.09   0.20
  60   1    -0.01   0.01   0.02     0.00  -0.00  -0.00    -0.04   0.09   0.16
  61   1     0.00  -0.01   0.01     0.00  -0.00   0.00     0.05  -0.10   0.20
  62   1    -0.00   0.00  -0.00     0.00  -0.00  -0.00    -0.00   0.00  -0.00
  63   1    -0.00   0.01   0.01     0.00  -0.00  -0.00    -0.05   0.10   0.20
  64   1     0.01  -0.01   0.02     0.00  -0.00   0.00     0.04  -0.09   0.16
  65   1    -0.06  -0.13   0.25    -0.00  -0.01   0.01     0.03   0.06  -0.12
  66   1     0.08   0.15   0.30    -0.00  -0.00  -0.01    -0.03  -0.06  -0.12
                    187                    188                    189
                        a                      a                      a 
 Frequencies --  3086.5646              3086.8433              3090.8903
 Red. masses --     1.8773                 1.8977                 1.9235
 Frc consts  --     0.0000                 0.0000                 0.0000
 IR Inten    --   304.4123               119.8438                 3.0620
 Raman Activ --     0.0000                 0.0000                 0.0000
 Depolar     --     0.0000                 0.0000                 0.0000
 Atom AN      X      Y      Z        X      Y      Z        X      Y      Z
   1   6    -0.00  -0.00  -0.00    -0.01  -0.01  -0.00     0.04   0.08   0.00
   2   6    -0.02  -0.03   0.07    -0.00  -0.00   0.01     0.01   0.03  -0.06
   3   6     0.02   0.04   0.08     0.00   0.00   0.00    -0.01  -0.02  -0.03
   4   6    -0.00  -0.00  -0.00     0.00   0.00  -0.00    -0.00  -0.00   0.00
   5   6     0.00   0.00   0.00     0.00  -0.00  -0.00    -0.00  -0.00  -0.00
   6   6     0.00   0.00   0.00     0.00  -0.00  -0.00     0.00   0.00  -0.00
   7   6    -0.00  -0.00  -0.00    -0.00  -0.00   0.00     0.00   0.00  -0.00
   8   6    -0.03  -0.00   0.05    -0.00   0.00   0.00     0.01   0.00  -0.01
   9   6     0.03   0.00   0.05    -0.00  -0.00  -0.01    -0.01  -0.00  -0.02
  10   6    -0.00  -0.00  -0.00    -0.01  -0.00   0.00    -0.03  -0.01   0.00
  11   6    -0.03  -0.00   0.05    -0.00  -0.00   0.00    -0.01  -0.00   0.02
  12   6     0.03   0.00   0.05    -0.00   0.00  -0.00     0.01   0.00   0.01
  13   6     0.00   0.00   0.00     0.00   0.00  -0.00    -0.00   0.00  -0.00
  14   6    -0.00  -0.00  -0.00     0.09   0.01  -0.00     0.00   0.00  -0.00
  15   6    -0.00   0.00  -0.00     0.04  -0.06  -0.00     0.00  -0.00  -0.00
  16   6    -0.00   0.00   0.00     0.00  -0.00  -0.00     0.00  -0.00  -0.00
  17   6    -0.00   0.00  -0.00     0.07  -0.10  -0.00     0.00  -0.00  -0.00
  18   6     0.00   0.00  -0.00    -0.08  -0.17   0.00    -0.00  -0.00   0.00
  19   6     0.00   0.00  -0.00    -0.13  -0.01   0.00    -0.00  -0.00   0.00
  20   6     0.00  -0.00   0.00    -0.00   0.00   0.00    -0.00   0.00   0.00
  21   6    -0.00  -0.00  -0.00    -0.02  -0.00   0.00    -0.00   0.00  -0.00
  22   6    -0.00   0.00   0.00    -0.00   0.00   0.00     0.00  -0.00  -0.00
  23   6     0.00  -0.00  -0.00    -0.00   0.00  -0.00     0.00  -0.00   0.00
  24   6     0.02  -0.02   0.05    -0.00   0.00   0.00     0.01  -0.02   0.03
  25   6    -0.02   0.02   0.05     0.00  -0.00  -0.01    -0.03   0.03   0.07
  26   6    -0.00   0.00  -0.00     0.01  -0.01   0.00    -0.08   0.08  -0.00
  27   6     0.02  -0.02   0.05     0.00  -0.00   0.01    -0.03   0.03  -0.07
  28   6    -0.02   0.02   0.05    -0.00   0.00  -0.00     0.01  -0.02  -0.03
  29   6    -0.00  -0.00   0.00     0.00   0.00   0.00     0.00  -0.00  -0.00
  30   6     0.00   0.00   0.00    -0.00  -0.00   0.00    -0.00   0.00   0.00
  31   6     0.00   0.00  -0.00    -0.00   0.00  -0.00    -0.00   0.00   0.00
  32   6    -0.02   0.04   0.07    -0.00   0.00   0.00    -0.01   0.02   0.04
  33   6     0.02  -0.04   0.07     0.00  -0.00   0.00     0.02  -0.04   0.07
  34   6    -0.00   0.00  -0.00     0.00  -0.01  -0.00     0.05  -0.11  -0.00
  35   6    -0.02   0.04   0.07     0.00  -0.00  -0.00     0.02  -0.04  -0.07
  36   6     0.02  -0.04   0.07    -0.00   0.00  -0.00    -0.01   0.02  -0.04
  37   6    -0.00  -0.00   0.00    -0.00  -0.00   0.00    -0.00  -0.00   0.00
  38   6     0.00  -0.00   0.00     0.00   0.00  -0.00    -0.00   0.00  -0.00
  39   6    -0.02  -0.04   0.08     0.00   0.00  -0.00    -0.01  -0.02   0.03
  40   6     0.02   0.03   0.07    -0.00  -0.00  -0.01     0.01   0.03   0.06
  41   1     0.00   0.00   0.00     0.02   0.04   0.00    -0.13  -0.26  -0.00
  42   1     0.06   0.12  -0.22     0.00   0.01  -0.02    -0.05  -0.09   0.18
  43   1    -0.07  -0.14  -0.27    -0.00  -0.00  -0.01     0.03   0.05   0.10
  44   1     0.10   0.02  -0.18     0.00   0.00  -0.01    -0.02  -0.00   0.03
  45   1    -0.09  -0.01  -0.16     0.01   0.00   0.02     0.04   0.01   0.06
  46   1     0.00   0.00   0.00     0.04   0.01  -0.00     0.11   0.02  -0.00
  47   1     0.09   0.01  -0.16     0.01   0.00  -0.02     0.04   0.01  -0.06
  48   1    -0.10  -0.02  -0.18     0.00   0.00   0.01    -0.02  -0.00  -0.03
  49   1     0.00   0.00   0.00    -0.30  -0.03   0.00    -0.01  -0.00   0.00
  50   1     0.00  -0.00   0.00    -0.13   0.19   0.00    -0.00   0.01   0.00
  51   1     0.00  -0.00   0.00    -0.24   0.34   0.00    -0.01   0.01   0.00
  52   1    -0.00  -0.00   0.00     0.26   0.57  -0.00     0.01   0.01  -0.00
  53   1    -0.00  -0.00   0.00     0.44   0.04  -0.00     0.01   0.00  -0.00
  54   1     0.00   0.00   0.00     0.06   0.01  -0.00    -0.00  -0.00   0.00
  55   1    -0.06   0.07  -0.16    -0.00   0.00  -0.00    -0.04   0.05  -0.11
  56   1     0.06  -0.07  -0.16    -0.01   0.01   0.02     0.09  -0.09  -0.23
  57   1     0.00  -0.00   0.00    -0.03   0.03  -0.00     0.27  -0.28   0.00
  58   1    -0.06   0.07  -0.16    -0.01   0.01  -0.02     0.09  -0.09   0.23
  59   1     0.06  -0.07  -0.16    -0.00   0.00   0.00    -0.04   0.05   0.11
  60   1     0.06  -0.13  -0.24     0.00  -0.00  -0.00     0.03  -0.06  -0.12
  61   1    -0.05   0.12  -0.23    -0.00   0.01  -0.01    -0.06   0.13  -0.24
  62   1     0.00  -0.00   0.00    -0.01   0.03   0.00    -0.17   0.38   0.00
  63   1     0.05  -0.12  -0.23    -0.00   0.01   0.01    -0.06   0.13   0.24
  64   1    -0.06   0.13  -0.24     0.00  -0.00   0.00     0.03  -0.06   0.12
  65   1     0.07   0.14  -0.27    -0.00  -0.00   0.01     0.03   0.05  -0.10
  66   1    -0.06  -0.12  -0.22     0.00   0.01   0.02    -0.05  -0.09  -0.18
                    190                    191                    192
                        a                      a                      a 
 Frequencies --  3091.2402              3091.9240              3092.8975
 Red. masses --     1.9239                 1.9235                 1.9238
 Frc consts  --     0.0000                 0.0000                 0.0000
 IR Inten    --     8.7128               119.1528                84.8416
 Raman Activ --     0.0000                 0.0000                 0.0000
 Depolar     --     0.0000                 0.0000                 0.0000
 Atom AN      X      Y      Z        X      Y      Z        X      Y      Z
   1   6    -0.06  -0.12  -0.00    -0.03  -0.06  -0.00    -0.03  -0.06  -0.00
   2   6    -0.02  -0.04   0.09    -0.01  -0.02   0.04    -0.01  -0.02   0.04
   3   6     0.01   0.03   0.05     0.01   0.01   0.03     0.01   0.01   0.03
   4   6     0.00   0.00   0.00     0.00   0.00  -0.00     0.00   0.00  -0.00
   5   6     0.00   0.00  -0.00    -0.00   0.00   0.00     0.00  -0.00   0.00
   6   6    -0.00  -0.00   0.00     0.00  -0.00  -0.00    -0.00   0.00  -0.00
   7   6    -0.00  -0.00   0.00     0.00   0.00  -0.00     0.00   0.00  -0.00
   8   6    -0.02  -0.00   0.03     0.03   0.00  -0.05     0.01   0.00  -0.02
   9   6     0.03   0.00   0.05    -0.05  -0.01  -0.10    -0.02  -0.00  -0.04
  10   6     0.09   0.01  -0.00    -0.15  -0.02   0.00    -0.06  -0.01   0.00
  11   6     0.03   0.00  -0.05    -0.05  -0.01   0.10    -0.02  -0.00   0.04
  12   6    -0.02  -0.00  -0.03     0.03   0.00   0.05     0.01   0.00   0.02
  13   6     0.00   0.00   0.00    -0.00  -0.00  -0.00    -0.00  -0.00  -0.00
  14   6    -0.00  -0.00   0.00    -0.00  -0.00   0.00    -0.01  -0.00   0.00
  15   6     0.00  -0.00  -0.00    -0.00   0.00   0.00    -0.00   0.01   0.00
  16   6     0.00  -0.00   0.00    -0.00   0.00  -0.00    -0.00   0.00   0.00
  17   6     0.00  -0.00  -0.00    -0.00   0.00   0.00    -0.01   0.01   0.00
  18   6    -0.00  -0.00   0.00     0.00   0.00  -0.00     0.01   0.01  -0.00
  19   6    -0.00  -0.00   0.00     0.00   0.00  -0.00     0.01   0.00  -0.00
  20   6     0.00  -0.00   0.00     0.00  -0.00  -0.00     0.00  -0.00  -0.00
  21   6     0.00   0.00  -0.00     0.00   0.00  -0.00     0.00   0.00  -0.00
  22   6     0.00  -0.00   0.00     0.00  -0.00   0.00     0.00   0.00   0.00
  23   6     0.00  -0.00   0.00     0.00  -0.00   0.00    -0.00   0.00  -0.00
  24   6     0.01  -0.01   0.03     0.01  -0.01   0.02    -0.01   0.01  -0.03
  25   6    -0.02   0.02   0.06    -0.02   0.02   0.04     0.02  -0.03  -0.06
  26   6    -0.07   0.07  -0.00    -0.05   0.05  -0.00     0.07  -0.07   0.00
  27   6    -0.02   0.02  -0.06    -0.02   0.02  -0.04     0.02  -0.03   0.06
  28   6     0.01  -0.01  -0.03     0.01  -0.01  -0.02    -0.01   0.01   0.03
  29   6    -0.00   0.00  -0.00    -0.00   0.00  -0.00     0.00  -0.00  -0.00
  30   6    -0.00  -0.00   0.00     0.00  -0.00  -0.00    -0.00   0.00   0.00
  31   6    -0.00   0.00  -0.00     0.00  -0.00  -0.00    -0.00   0.00   0.00
  32   6    -0.00   0.01   0.01     0.00  -0.01  -0.02    -0.01   0.02   0.04
  33   6     0.01  -0.01   0.02    -0.01   0.02  -0.03     0.02  -0.04   0.08
  34   6     0.01  -0.03  -0.00    -0.02   0.05   0.00     0.05  -0.12  -0.00
  35   6     0.01  -0.01  -0.02    -0.01   0.02   0.03     0.02  -0.04  -0.08
  36   6    -0.00   0.01  -0.01     0.00  -0.01   0.02    -0.01   0.02  -0.04
  37   6    -0.00  -0.00  -0.00     0.00  -0.00   0.00     0.00   0.00  -0.00
  38   6     0.00   0.00   0.00    -0.00   0.00  -0.00     0.00  -0.00   0.00
  39   6     0.01   0.03  -0.05     0.01   0.01  -0.03     0.01   0.01  -0.03
  40   6    -0.02  -0.04  -0.09    -0.01  -0.02  -0.04    -0.01  -0.02  -0.04
  41   1     0.20   0.40   0.00     0.09   0.19   0.00     0.10   0.19   0.00
  42   1     0.07   0.14  -0.28     0.04   0.07  -0.14     0.04   0.07  -0.14
  43   1    -0.04  -0.09  -0.16    -0.02  -0.04  -0.09    -0.02  -0.05  -0.09
  44   1     0.05   0.01  -0.09    -0.10  -0.02   0.18    -0.04  -0.01   0.07
  45   1    -0.10  -0.02  -0.17     0.18   0.03   0.31     0.07   0.01   0.12
  46   1    -0.29  -0.04   0.00     0.51   0.08  -0.00     0.19   0.03  -0.00
  47   1    -0.10  -0.01   0.17     0.18   0.03  -0.31     0.07   0.01  -0.12
  48   1     0.05   0.01   0.09    -0.10  -0.02  -0.18    -0.04  -0.01  -0.07
  49   1     0.00   0.00  -0.00     0.01   0.00  -0.00     0.03   0.00  -0.00
  50   1    -0.00   0.00   0.00     0.01  -0.01  -0.00     0.02  -0.02  -0.00
  51   1    -0.00   0.00   0.00     0.01  -0.01  -0.00     0.02  -0.03  -0.00
  52   1     0.00   0.00  -0.00    -0.01  -0.01   0.00    -0.02  -0.05   0.00
  53   1     0.00   0.00  -0.00    -0.01  -0.00   0.00    -0.04  -0.00   0.00
  54   1    -0.00  -0.00   0.00    -0.00  -0.00   0.00    -0.01  -0.00   0.00
  55   1    -0.04   0.04  -0.09    -0.03   0.03  -0.07     0.04  -0.04   0.10
  56   1     0.07  -0.08  -0.19     0.05  -0.06  -0.14    -0.08   0.08   0.21
  57   1     0.22  -0.23   0.00     0.16  -0.16   0.00    -0.24   0.25  -0.00
  58   1     0.07  -0.08   0.19     0.05  -0.06   0.14    -0.08   0.08  -0.21
  59   1    -0.04   0.04   0.09    -0.03   0.03   0.07     0.04  -0.04  -0.10
  60   1     0.01  -0.02  -0.05    -0.01   0.03   0.05     0.03  -0.07  -0.14
  61   1    -0.02   0.04  -0.07     0.03  -0.06   0.11    -0.06   0.14  -0.27
  62   1    -0.05   0.11   0.00     0.08  -0.17  -0.00    -0.18   0.40   0.00
  63   1    -0.02   0.04   0.07     0.03  -0.06  -0.11    -0.06   0.14   0.27
  64   1     0.01  -0.02   0.05    -0.01   0.03  -0.05     0.03  -0.07   0.14
  65   1    -0.04  -0.08   0.16    -0.02  -0.04   0.09    -0.02  -0.05   0.09
  66   1     0.07   0.14   0.28     0.03   0.07   0.14     0.04   0.07   0.14
