$hessian                                                                        
        0.5147661734  -0.0157519939   0.0154494429  -0.0710118849  -0.0144534119
        0.0261300124   0.0029323967   0.0016361882  -0.0023612838  -0.0184535193
       -0.0167316118   0.0202247601  -0.0017666477  -0.0001627686   0.0011389088
        0.0008491909  -0.0003029467  -0.0004080538  -0.0002151483  -0.0005343521
       -0.0000200818  -0.0008929250  -0.0006207989  -0.0009564251  -0.0035674071
        0.0015987153   0.0007685899   0.0002264027  -0.0002969752   0.0001387215
        0.0000674891   0.0001049561  -0.0000327577   0.0000098088  -0.0000000169
        0.0000323966   0.0000050262   0.0000133631  -0.0000016438  -0.0000096796
       -0.0000170719  -0.0000140325   0.0000144851   0.0000145465   0.0000012821
        0.0000125744   0.0000062468   0.0000021597  -0.0001699275   0.0013086021
        0.0001810950   0.0003248464   0.0000947737  -0.0000569369  -0.0000157702
        0.0001199645  -0.0000310989   0.0001257078  -0.0005010672   0.0001995872
        0.0001129356   0.0000126913   0.0000357798  -0.0003524148  -0.0000348203
        0.0000153667   0.0001434890   0.0000697130   0.0001043485  -0.0000889103
       -0.0000148425  -0.0000037178   0.0000870888  -0.0000306329  -0.0000209376
       -0.0001427201   0.0000094539   0.0000002854   0.0002067850  -0.0000236196
        0.0000005746  -0.0001518124   0.0000184607   0.0000016577   0.0000951158
        0.0000412563   0.0000080007  -0.0001275852   0.0000153717   0.0000348651
        0.0002130744   0.0003930177  -0.0004643890  -0.0012098565   0.0002760545
       -0.0015886880  -0.0017492290   0.0006803373   0.0000810235   0.0046758342
        0.0020100713  -0.0042575732  -0.0660621127  -0.0679582612  -0.0233049061
       -0.1791336364   0.0223884358  -0.1177813282  -0.1776452085   0.0858695980
        0.0876866592   0.0001184076   0.0003474014   0.0001662209   0.0002437025
       -0.0002286910  -0.0000579741   0.0003969665  -0.0005869328  -0.0008535028
       -0.0005987320  -0.0001497370   0.0007371894   0.0000142841   0.0000034652
        0.0000744763  -0.0000139894  -0.0000369390   0.0001399386  -0.0002958392
       -0.0000227245  -0.0000342176  -0.0000044524  -0.0000127639  -0.0000025580
       -0.0000046589  -0.0000020388  -0.0000009017   0.0000002300   0.0000014802
       -0.0000013826  -0.0000008089   0.0000021677  -0.0000075055  -0.0000078663
        0.0000092384  -0.0000238049  -0.0000139654   0.0000813152   0.0000097446
        0.0000075098   0.0000517556   0.0000631613  -0.0000000771   0.0000141184
       -0.0001212895   0.0000022966  -0.0000094032   0.0000061814  -0.0000024329
        0.0000002775  -0.0000040216  -0.0000059132   0.0000037282  -0.0000019290
       -0.0000057106   0.0000206342  -0.0000029169   0.0000086065   0.0000093611
       -0.0000179470  -0.0019395860   0.0012576609  -0.0009986244
       -0.0157519939   0.4944445602   0.0429796053  -0.0166365138  -0.0864141319
        0.0472604588   0.0020116923   0.0033660262  -0.0048684493  -0.0088343322
       -0.0018945872   0.0053580731   0.0019202024  -0.0009491848  -0.0000606829
       -0.0005351257  -0.0000967846  -0.0005332211   0.0001268176   0.0001876680
        0.0000658308   0.0000864717  -0.0001276037  -0.0002150944  -0.0006130103
        0.0008534458   0.0002789533   0.0001498703  -0.0000621200   0.0000166311
        0.0000418011   0.0000290375   0.0000180038   0.0000037112   0.0000262496
        0.0000118259  -0.0000024577  -0.0000013336  -0.0000055713  -0.0000119940
       -0.0000143585  -0.0000032587  -0.0000041572   0.0000025715   0.0000136647
       -0.0000058521   0.0000012275  -0.0000047576   0.0024314731  -0.0017482597
        0.0007798346  -0.0001166199  -0.0010470385  -0.0003337158  -0.0002967145
        0.0000931570   0.0000435532  -0.0001182215  -0.0000505098  -0.0006335199
       -0.0004403788  -0.0004645904  -0.0000886363   0.0009176898   0.0000896798
       -0.0000448456  -0.0006649786   0.0001133499  -0.0000287796   0.0003257971
        0.0002259911   0.0000766659  -0.0002287340   0.0002110629   0.0000782037
        0.0003051233  -0.0000443089  -0.0000089283  -0.0002256081   0.0000380403
        0.0000083935   0.0001548056  -0.0000244383  -0.0000074056  -0.0002756565
       -0.0001340099  -0.0000739199   0.0002642338  -0.0003024512  -0.0000640576
       -0.0004609825   0.0002771780   0.0002250893   0.0010337886   0.0000472906
        0.0004809963  -0.0022020823  -0.0004674170   0.0004441224  -0.0033128187
       -0.0244280007   0.0178878026  -0.0681862871  -0.2386301012  -0.0670879933
        0.0218035772  -0.0473614202   0.0173757958   0.0864413207  -0.0968588415
       -0.0565335731   0.0000436858   0.0003073552  -0.0000878597   0.0005879173
        0.0006639826  -0.0010178737  -0.0003012856  -0.0003246242  -0.0019157722
        0.0004680727   0.0000966570   0.0000250388   0.0000181706  -0.0000177226
        0.0000016756   0.0000354370   0.0000377589   0.0000886384  -0.0000461376
        0.0000065233  -0.0000177914  -0.0000067180   0.0000042735   0.0000208313
       -0.0000054699   0.0000008854   0.0000021398  -0.0000021379   0.0000010469
        0.0000003120  -0.0000050707  -0.0000001849  -0.0000156120   0.0000022514
        0.0000037405  -0.0000327135   0.0000993523  -0.0002452177  -0.0000129540
       -0.0000043763   0.0000085636  -0.0000168439  -0.0000001285   0.0000168986
        0.0001400399   0.0000021663   0.0000051643  -0.0000012710  -0.0000035772
       -0.0000015171   0.0000007632  -0.0000010452  -0.0000059382  -0.0000029461
       -0.0000053051  -0.0000169692   0.0000049566   0.0000131008   0.0000148936
       -0.0000163352   0.0000172415   0.0005593861   0.0000464832
        0.0154494429   0.0429796053   0.4588575410   0.0249302630   0.0400844584
       -0.1162839356   0.0083464161   0.0113231793  -0.0258271201   0.0087744628
        0.0038144692  -0.0039942870  -0.0001455950   0.0005142016  -0.0002025262
       -0.0001984758   0.0001862034   0.0001104977   0.0000239123   0.0001906638
        0.0000741727   0.0003682270  -0.0000304654   0.0003048800  -0.0004012951
       -0.0011271207  -0.0011852471   0.0000349454   0.0003429410  -0.0001512068
       -0.0000063857   0.0000286962   0.0002246732   0.0000100388   0.0000264502
       -0.0000284702   0.0000088877   0.0000115823   0.0000280449   0.0000082399
        0.0000109151   0.0000027962  -0.0000056398  -0.0000080517   0.0000076033
       -0.0000279321  -0.0000459320  -0.0000290951  -0.0005698748  -0.0011973686
       -0.0014706277  -0.0003541037   0.0004429514   0.0002582957   0.0001776789
       -0.0000386617  -0.0000096895   0.0002232061   0.0002476526   0.0002997550
        0.0002834643   0.0003414263  -0.0000282134  -0.0009143837  -0.0000418687
        0.0001311557   0.0005857912  -0.0000412130  -0.0000071150  -0.0002984854
       -0.0002168376  -0.0000656642   0.0002097663  -0.0001986851  -0.0000646535
       -0.0002831101   0.0000459674   0.0000085587   0.0001917434  -0.0000313624
       -0.0000077505  -0.0001387993   0.0000218466   0.0000061590   0.0002373169
        0.0001330596   0.0000735827  -0.0002329136   0.0002961317   0.0000445105
        0.0003465333   0.0001406045  -0.0000566499  -0.0017412023  -0.0010590531
       -0.0014340458   0.0015783955  -0.0003079964   0.0004662817  -0.0011345637
        0.0085753086  -0.0024012094  -0.0239584708  -0.0680916605  -0.0637082070
       -0.1184284019   0.0179379652  -0.1414762667   0.0886153328  -0.0568780476
       -0.0979080398   0.0002739438   0.0003727114   0.0008347323   0.0001741731
        0.0013251494   0.0011139831  -0.0009203922  -0.0014748184  -0.0052181077
        0.0004434168   0.0002639661  -0.0001548582  -0.0000093725   0.0000214891
       -0.0001019618  -0.0000081786   0.0000179733  -0.0000316606   0.0000011970
       -0.0000171583   0.0000542320   0.0000153262  -0.0000005338  -0.0000133350
        0.0000073261  -0.0000003031   0.0000007751   0.0000025386   0.0000005888
        0.0000056896   0.0000011050  -0.0000050047   0.0000139697  -0.0000007784
       -0.0000126143   0.0000260587  -0.0000309544  -0.0000206417   0.0000829582
        0.0000135796  -0.0000057194  -0.0000744145   0.0000010155   0.0000088191
        0.0000061043   0.0000074294   0.0000082673  -0.0000056917  -0.0000003677
        0.0000025959  -0.0000025394  -0.0000005739   0.0000005175   0.0000041266
        0.0000006388  -0.0000002892   0.0000024583  -0.0000121738   0.0000130979
       -0.0000460836  -0.0015233303   0.0011199520  -0.0010549227
       -0.0710118849  -0.0166365138   0.0249302630   0.4768266087  -0.0259345696
       -0.0032147741  -0.0607074435  -0.0087885824  -0.0174872432  -0.1885672308
       -0.0046252853  -0.0065810756  -0.0251363602   0.0099254790  -0.0018030275
        0.0020750144   0.0034013939  -0.0003842446  -0.0007232462  -0.0014687358
        0.0000657821  -0.0001792412  -0.0014723854  -0.0000614685  -0.0194954172
       -0.0116545466  -0.0004807310  -0.0003930664   0.0035325916   0.0000496053
       -0.0002493391  -0.0001412196   0.0000824904   0.0000470582   0.0001583367
        0.0000526955   0.0000062781   0.0000021950   0.0000058075   0.0000114163
        0.0000170380   0.0000012377   0.0000044872  -0.0000036058   0.0000053245
        0.0000201261   0.0001392112  -0.0000765246   0.0078738813  -0.0093633116
       -0.0004345658  -0.0015282596  -0.0027910095  -0.0000305199  -0.0004562737
       -0.0000753380   0.0000116268  -0.0043859650  -0.0000527264   0.0001744968
       -0.0000816828   0.0018402593  -0.0000651645  -0.0004673175  -0.0004284563
        0.0000080302   0.0006648189  -0.0001679581   0.0000569410  -0.0003222967
       -0.0002417140  -0.0000426999   0.0002131947  -0.0002487448  -0.0001074857
       -0.0002500472   0.0000313083   0.0000028609   0.0001170449  -0.0000141172
       -0.0000088667  -0.0000593691   0.0000034552   0.0000030587   0.0002733030
        0.0001517299   0.0000942884  -0.0002264941   0.0003562098   0.0000836947
        0.0001730737  -0.0002184088  -0.0001895323   0.0013450706   0.0005079045
       -0.0001363153  -0.0149732620   0.0258431691   0.0005314596  -0.0877996412
        0.0506406501   0.0009648095  -0.0028613533  -0.0059644269   0.0070317404
        0.0050619348   0.0097610384  -0.0137638009  -0.0082849429  -0.0105847797
        0.0176852386  -0.0083756182  -0.0113485028  -0.0249801399   0.0012415005
        0.0037676915   0.0072297012   0.0020193020   0.0049747239   0.0104517399
        0.0005724287  -0.0011830665   0.0002018639  -0.0005048552  -0.0001063422
        0.0000252291   0.0002038074  -0.0000313228   0.0000335582  -0.0004420237
        0.0001744717  -0.0000130931   0.0000001403  -0.0000288400   0.0000076197
        0.0000115654   0.0000130110   0.0000075650   0.0000082252   0.0000065843
        0.0000009232   0.0000112047   0.0000089003  -0.0000137524   0.0000000524
       -0.0000336474   0.0000034582   0.0001732141  -0.0008811188  -0.0000022737
       -0.0000261354  -0.0000311647   0.0000367169  -0.0003669214   0.0001049686
       -0.0000691949  -0.0000202982   0.0000010369  -0.0000161237   0.0000197336
        0.0000130930  -0.0000062460   0.0000181754  -0.0000237241   0.0000018797
       -0.0000000191  -0.0000233490  -0.0000061471   0.0000957642  -0.0000525062
       -0.0000011531  -0.0011924190  -0.0007564311   0.0001344574
       -0.0144534119  -0.0864141319   0.0400844584  -0.0259345696   0.4517172655
       -0.0102897210  -0.0084512901  -0.0725879815  -0.0334697434   0.0013187197
       -0.0638359224   0.0010964345   0.0224427939   0.0014737456   0.0011339619
        0.0041273006  -0.0030027756   0.0005774895  -0.0004203883  -0.0020236404
        0.0001027250  -0.0028897143  -0.0032646202   0.0002929441  -0.0227705105
       -0.0039595662  -0.0010084536   0.0010030409   0.0042166781  -0.0002142938
       -0.0000356510  -0.0001847340   0.0000442191   0.0001298149   0.0001930830
        0.0001246987   0.0000069868   0.0000245858   0.0000073709   0.0000044430
        0.0000190952   0.0000087186   0.0000028225   0.0000146030  -0.0000010271
        0.0001408050   0.0001705326  -0.0001438331   0.0032753552  -0.0322481380
       -0.0000643322  -0.0046727257  -0.0005751095   0.0001344972   0.0009139553
       -0.0007046702  -0.0000014161  -0.0008905154   0.0030570706  -0.0000061635
        0.0027093541   0.0024838660   0.0002744535  -0.0058477484  -0.0002986473
        0.0000127090   0.0048092862  -0.0007278877  -0.0000086300  -0.0022952139
       -0.0014969011  -0.0002949127   0.0016003370  -0.0013905202  -0.0004933415
       -0.0021024668   0.0003540955   0.0000485479   0.0017753805  -0.0002051796
       -0.0000453098  -0.0010277617   0.0001292914   0.0000147252   0.0018575659
        0.0008275017   0.0004594552  -0.0017328450   0.0020985725   0.0003461016
        0.0033589082  -0.0027572158  -0.0002730085  -0.0059435754  -0.0023732785
       -0.0000598456   0.0182072299  -0.0035191322  -0.0001045596   0.0418036812
       -0.1573109785  -0.0006811107  -0.0090257967  -0.0171259381   0.0192712373
       -0.0006537060  -0.0034422586   0.0062642238   0.0023725175   0.0049145136
       -0.0066312491  -0.0014200029  -0.0013205930  -0.0021647587  -0.0037659901
       -0.0155453757  -0.0245396837   0.0020553504   0.0052997855   0.0104149218
        0.0005493288   0.0003498769  -0.0000902862   0.0013861857  -0.0002621855
       -0.0000532484   0.0000759973  -0.0000107128  -0.0000604170  -0.0011870850
       -0.0001049911   0.0000076487  -0.0000363554  -0.0000214195   0.0000387211
       -0.0000001517   0.0000306680   0.0000096092   0.0000003217   0.0000131470
        0.0000025747  -0.0000005042   0.0000260477  -0.0000341324  -0.0000380676
       -0.0000232181  -0.0000175238   0.0004174593  -0.0008971132   0.0000887539
       -0.0000923625   0.0001622819  -0.0000556781  -0.0000462496   0.0000705167
       -0.0000122030  -0.0000306799   0.0000337508  -0.0000393626   0.0000530639
        0.0000504858  -0.0000394986   0.0000351338  -0.0000703630   0.0000346131
       -0.0000372398   0.0000033928   0.0000458306  -0.0001065040   0.0000144179
       -0.0000269459  -0.0005240558  -0.0000436720  -0.0000169548
        0.0261300124   0.0472604588  -0.1162839356  -0.0032147741  -0.0102897210
        0.3978703434  -0.0221223060  -0.0454197415  -0.1348903453  -0.0033437337
        0.0011857619  -0.0496421489  -0.0013105877   0.0007651518  -0.0021225427
        0.0000683572   0.0006582444   0.0061268737  -0.0001178228  -0.0003172824
       -0.0004118473  -0.0000067194   0.0005062274   0.0055390697   0.0002150433
       -0.0014748381   0.0041042149  -0.0005169899   0.0005730369  -0.0027020451
       -0.0000481986  -0.0001109269  -0.0010174691  -0.0001075629  -0.0001735125
        0.0001209461  -0.0000473618  -0.0000519634  -0.0000669249  -0.0000031768
       -0.0000033664  -0.0000589158   0.0000368744   0.0000334790  -0.0000512222
        0.0001277163   0.0002344669   0.0000624864  -0.0001822509   0.0000068199
        0.0056131948  -0.0002148869   0.0005070472   0.0020813438   0.0002144096
       -0.0000760620  -0.0003687363  -0.0002588324   0.0004049683   0.0064179926
        0.0006644717   0.0007538613   0.0005006116  -0.0015038418   0.0000675286
        0.0002489965   0.0011722477  -0.0002157400   0.0000258493  -0.0005487059
       -0.0004032509  -0.0001486284   0.0003734351  -0.0003832804  -0.0001778837
       -0.0004284522   0.0000776959   0.0000206242   0.0002391124  -0.0000231794
       -0.0000046427  -0.0001234307   0.0000163414  -0.0000018167   0.0004470180
        0.0002479548   0.0001624760  -0.0004069196   0.0005525078   0.0001764284
        0.0008569340  -0.0008212119  -0.0004487245  -0.0012752324  -0.0004644463
       -0.0032302440   0.0012261113   0.0008987423  -0.0017599248  -0.0003657108
        0.0021058042  -0.0473860605   0.0000624793   0.0001077882   0.0021447190
        0.0038027353   0.0127932730  -0.0179021495   0.0073044075   0.0075162833
       -0.0119951387  -0.0038913191  -0.0043754385  -0.0080245626  -0.0004175804
       -0.0045779034  -0.0049551661  -0.0027413905  -0.0082394514  -0.0237710152
       -0.0000472681  -0.0001169112  -0.0026816620  -0.0000196538   0.0000084674
        0.0003613232   0.0000607316  -0.0000529154  -0.0013547349   0.0001079248
        0.0000501427  -0.0000434040  -0.0000251280  -0.0000281391  -0.0000392188
       -0.0000139312  -0.0000193902  -0.0000044367   0.0000006334   0.0000030682
       -0.0000095954   0.0000124130   0.0000255113  -0.0000171210   0.0000252894
        0.0000243394  -0.0000648848  -0.0000209810   0.0000692008   0.0000365456
       -0.0000099449  -0.0000000588  -0.0001918632   0.0000128242  -0.0000453587
       -0.0009848039  -0.0000177197  -0.0000009438   0.0000233468   0.0000209529
        0.0000165283   0.0000035151   0.0000127956  -0.0000228982  -0.0000068056
       -0.0000175344   0.0000102666  -0.0000216566   0.0000150998   0.0000397569
        0.0002043006   0.0001599180   0.0001872070   0.0009970759
        0.0029323967   0.0020116923   0.0083464161  -0.0607074435  -0.0084512901
       -0.0221223060   0.5277416995  -0.0100591570  -0.0070198405  -0.0173698221
       -0.0137370611  -0.0240829372  -0.0016095680  -0.0000227065  -0.0012200810
        0.0008738588  -0.0000755883   0.0008317878  -0.0002581549  -0.0006464779
        0.0000576988  -0.0008604284  -0.0002839057   0.0011322237  -0.0033038645
        0.0011684097  -0.0006423818   0.0001514658  -0.0002521738  -0.0001544203
        0.0000663915   0.0001596013  -0.0001129686  -0.0000130566  -0.0000241673
       -0.0000000489   0.0000205471   0.0000178323   0.0000099487   0.0000018368
        0.0000026997   0.0000176857   0.0000087037   0.0000110401  -0.0000147640
        0.0000269747  -0.0000001175  -0.0000420485  -0.0002025586   0.0008291033
        0.0002403913   0.0002290977   0.0002391284   0.0000100115   0.0001217717
        0.0001707520   0.0000434616  -0.0001807226  -0.0005950388  -0.0003900840
        0.0005655069   0.0003595944   0.0000462918  -0.0011690858  -0.0001042645
        0.0000252862   0.0008874638  -0.0000617629  -0.0001964640  -0.0004508959
       -0.0001978559  -0.0000441589   0.0003170858  -0.0002525201  -0.0000519911
       -0.0004329660   0.0000637481   0.0000081443   0.0004174878  -0.0000506605
       -0.0000153560  -0.0002523265   0.0000323848   0.0000047616   0.0003548970
        0.0001201912   0.0000910654  -0.0003269004   0.0003486601   0.0000156813
        0.0007759031  -0.0001060205   0.0006982544  -0.0014573848   0.0001978844
        0.0008249145  -0.0009262476   0.0006255549  -0.0001984549   0.0033421433
        0.0048332892   0.0069190654   0.0009148995   0.0003758959   0.0001752288
       -0.0003283567  -0.0001746643   0.0011230659  -0.0004182190  -0.0001784969
        0.0007591708  -0.2795179870   0.0057136714  -0.0476461700  -0.0690003093
        0.0746964706   0.0010081694  -0.0984568238  -0.0571882750   0.0818602431
       -0.0006247507  -0.0002452028  -0.0009599143   0.0000311278  -0.0000048014
       -0.0001161258  -0.0000001454  -0.0000371238  -0.0001883244  -0.0002360580
       -0.0000176363   0.0000432395  -0.0000049417   0.0000117439   0.0000259580
       -0.0000013140  -0.0000008264   0.0000011407  -0.0000019261  -0.0000012276
        0.0000042425  -0.0000051721  -0.0000028991   0.0000058708  -0.0000225664
       -0.0000143694   0.0000209047  -0.0000193685   0.0000707083  -0.0000346413
        0.0000033251   0.0000275989  -0.0000783108  -0.0000169462   0.0000258341
        0.0001663373  -0.0000151271  -0.0000152435  -0.0000213946   0.0000006119
        0.0000032769  -0.0000081922   0.0000044433  -0.0000059821   0.0000120970
       -0.0000039483   0.0000142062   0.0000160508   0.0000051869  -0.0000065746
        0.0000087440  -0.0015994394   0.0006831190   0.0008078256
        0.0016361882   0.0033660262   0.0113231793  -0.0087885824  -0.0725879815
       -0.0454197415  -0.0100591570   0.5044756644  -0.0348320120  -0.0072329160
       -0.0001970175  -0.0048886475   0.0010705875  -0.0008966856  -0.0002972052
       -0.0002989004   0.0000840311   0.0003331329  -0.0000235610  -0.0000049051
       -0.0000273311   0.0002226527  -0.0000607528   0.0001554953  -0.0006551518
        0.0002604460   0.0001877076  -0.0000467998  -0.0000969741   0.0000413759
        0.0000734533   0.0000421117  -0.0001734689  -0.0000112845  -0.0000119810
        0.0000252436  -0.0000020921   0.0000101874  -0.0000180867  -0.0000099830
       -0.0000090804   0.0000108688   0.0000008991   0.0000076852   0.0000099469
        0.0000116928   0.0000522587  -0.0000543611   0.0021587352  -0.0013029846
       -0.0000452027   0.0001021439  -0.0008495144   0.0003737170  -0.0003588315
        0.0000981944  -0.0000580705  -0.0000181785   0.0000894363   0.0010739340
       -0.0003369787  -0.0003101002   0.0000202233   0.0005909019   0.0000226710
        0.0000481063  -0.0005033384   0.0000876043   0.0000427220   0.0002808075
        0.0001617693   0.0000563913  -0.0002039759   0.0001867844   0.0000459544
        0.0003575193  -0.0000523430  -0.0000085795  -0.0003374184   0.0000584071
        0.0000011761   0.0002678221  -0.0000407685  -0.0000039688  -0.0002336709
       -0.0001120417  -0.0000395785   0.0002080890  -0.0002414460  -0.0000312170
       -0.0006234957   0.0002849902  -0.0002007959   0.0009628458   0.0000038714
       -0.0009482436  -0.0018133174  -0.0005224026  -0.0006077249   0.0004558820
       -0.0237891834  -0.0209816536  -0.0000702333   0.0010481884   0.0013709046
       -0.0002629151  -0.0008366619   0.0020282003  -0.0001797453  -0.0002439097
        0.0010054746   0.0055353257  -0.0430923330   0.0027699910   0.0750746982
       -0.2588401800   0.0002781264  -0.0578833213  -0.1060319237   0.0871567283
        0.0006839340  -0.0001851342   0.0003394910   0.0000181030  -0.0000333546
        0.0000245738   0.0000260769   0.0000131171  -0.0000367775  -0.0000198855
       -0.0000022076  -0.0000083298   0.0000001086   0.0000081617   0.0000371492
       -0.0000072562   0.0000028636   0.0000059298  -0.0000010112   0.0000051407
        0.0000038816  -0.0000067876  -0.0000019834  -0.0000097702  -0.0000051336
       -0.0000132440   0.0000136898   0.0000581139  -0.0002062319  -0.0000068000
       -0.0000026865  -0.0000093958   0.0000316279   0.0000295738  -0.0000083207
       -0.0002191374   0.0000020395  -0.0000063493   0.0000007789   0.0000040980
       -0.0000021954  -0.0000006242   0.0000002214  -0.0000036789  -0.0000060820
       -0.0000045037   0.0000077316  -0.0000032954   0.0000490414   0.0000007321
        0.0000456896   0.0001195578   0.0002251921   0.0000652937
       -0.0023612838  -0.0048684493  -0.0258271201  -0.0174872432  -0.0334697434
       -0.1348903453  -0.0070198405  -0.0348320120   0.4353928178  -0.0128473518
       -0.0043218234  -0.0079286902   0.0007442575  -0.0007655161  -0.0000403160
       -0.0003063751  -0.0002767724   0.0003126722  -0.0000299983   0.0000207670
        0.0000464823  -0.0001920940  -0.0000508886   0.0003178783   0.0000632381
        0.0013107781  -0.0008813119   0.0001313464  -0.0004030673  -0.0002080120
        0.0000313939   0.0000276992   0.0002739186   0.0000322466   0.0000546799
       -0.0000291571   0.0000005376   0.0000015651   0.0000041030  -0.0000167904
       -0.0000238388  -0.0000093204  -0.0000053438  -0.0000040056   0.0000244618
       -0.0000028853  -0.0000211622   0.0000252972   0.0007441970   0.0014515463
       -0.0012760022   0.0005015579  -0.0005458646   0.0002637088  -0.0002462811
        0.0000760050  -0.0000003677  -0.0000065598  -0.0006990844   0.0002368581
       -0.0005436763  -0.0005886310  -0.0000996926   0.0013410380   0.0000353827
        0.0001222545  -0.0008915649   0.0000849623  -0.0000314554   0.0004151777
        0.0003415400   0.0000981677  -0.0002762217   0.0002770668   0.0001134563
        0.0003262381  -0.0000570205  -0.0000134644  -0.0001470512   0.0000284984
       -0.0000006248   0.0000984544  -0.0000197588  -0.0000007771  -0.0003216912
       -0.0001982546  -0.0000974926   0.0003234343  -0.0004303419  -0.0001035122
       -0.0006519001   0.0002114089   0.0001588619   0.0018908644   0.0016832000
       -0.0012421567  -0.0027624776   0.0000932772   0.0004156656   0.0033088449
       -0.0125632515  -0.0040974148  -0.0008996455  -0.0021187220   0.0011122465
        0.0009756215   0.0009768459  -0.0032409463   0.0002258578   0.0006304519
       -0.0023204898  -0.0475292977   0.0028351319  -0.0501930372   0.0004393086
        0.0009130914  -0.0412562551   0.0820526749   0.0865936895  -0.1638357569
       -0.0002057990  -0.0002733465  -0.0003020751  -0.0000015529  -0.0000185363
       -0.0000638026   0.0000073995  -0.0000180348  -0.0000496228  -0.0000366853
        0.0000160750   0.0000190848  -0.0000047725   0.0000081930   0.0000144036
       -0.0000018398   0.0000066766   0.0000037257  -0.0000022665   0.0000011936
        0.0000029917  -0.0000041921   0.0000034755  -0.0000138400   0.0000038871
        0.0000309331  -0.0000435525   0.0000432529   0.0000044275   0.0000557588
       -0.0000077666   0.0000045904  -0.0000650481  -0.0000056227  -0.0000063438
        0.0000402910  -0.0000019159  -0.0000096268  -0.0000102862  -0.0000082194
       -0.0000096752  -0.0000009880  -0.0000031568   0.0000041235   0.0000013929
        0.0000040684  -0.0000042781   0.0000002570  -0.0000366142  -0.0000336725
       -0.0000320503   0.0011610796  -0.0010955534  -0.0008517719
       -0.0184535193  -0.0088343322   0.0087744628  -0.1885672308   0.0013187197
       -0.0033437337  -0.0173698221  -0.0072329160  -0.0128473518   0.5899390918
       -0.0064903393   0.0164872830  -0.1410842719   0.1304780930  -0.0077343755
       -0.0440506800   0.0211863686  -0.0020108022   0.0061452588   0.0089795528
       -0.0001999488  -0.0275524984  -0.0259284386   0.0002136086  -0.1466489468
       -0.1163718234   0.0019185386   0.0124929104   0.0062752477   0.0000720795
       -0.0016778627   0.0023966915  -0.0001546447   0.0001414310   0.0001149259
        0.0000205794   0.0002196068  -0.0000670360   0.0000124931   0.0000436627
        0.0000645145  -0.0000031255   0.0002197770  -0.0000593111  -0.0000217054
        0.0001593844   0.0001309192   0.0000013837   0.0013328083  -0.0034865110
        0.0002038407  -0.0031742484   0.0013559654   0.0000059541   0.0023827230
       -0.0000020087  -0.0000116831  -0.0009213146   0.0000146474  -0.0000265839
       -0.0028720632  -0.0035263506  -0.0002076316   0.0058097072   0.0028653234
       -0.0000598187  -0.0043559654   0.0006342672  -0.0000212523   0.0021143237
        0.0014220977   0.0003232355  -0.0014668018   0.0012851324   0.0004545822
        0.0017920976  -0.0003323508  -0.0000654293  -0.0013965564   0.0001676457
        0.0000496001   0.0007879410  -0.0001059815  -0.0000184208  -0.0016398048
       -0.0007535882  -0.0004452685   0.0015494702  -0.0019409784  -0.0003071553
       -0.0004810787   0.0006813575   0.0004195673   0.0020864563   0.0010334800
       -0.0000500491  -0.0024801619  -0.0000128016  -0.0005132305  -0.0159891325
        0.0077350334  -0.0011946828  -0.0004564117  -0.0006798786   0.0005278901
        0.0000254709   0.0004434016  -0.0006023164  -0.0015757406  -0.0004868482
        0.0006689780  -0.0016905294  -0.0002045902  -0.0016107492   0.0005394922
        0.0001021844   0.0006063179   0.0002847350   0.0003132015   0.0005129233
        0.0069892702  -0.0119011553   0.0007212972  -0.0058220674   0.0002626877
       -0.0003042621   0.0007506690   0.0001614434   0.0000412361  -0.0057515251
       -0.0002530310  -0.0002053784  -0.0000610979   0.0000086474  -0.0000699216
       -0.0000084425  -0.0000030067  -0.0000036607  -0.0000468322   0.0000244217
       -0.0000045407  -0.0000067267   0.0000000107   0.0000095277  -0.0000594256
        0.0000232907   0.0000458409   0.0000949619  -0.0002042360   0.0000530408
        0.0000676815  -0.0000996403  -0.0000374123   0.0000168585  -0.0000769922
        0.0000799281   0.0000158172  -0.0000450849   0.0000288497  -0.0000506383
       -0.0000438662   0.0000309576  -0.0000323648   0.0000513389  -0.0000317014
        0.0000399573  -0.0000311772  -0.0000462564   0.0000367967  -0.0000668228
        0.0000160541  -0.0003345988  -0.0002895139  -0.0001469572
       -0.0167316118  -0.0018945872   0.0038144692  -0.0046252853  -0.0638359224
        0.0011857619  -0.0137370611  -0.0001970175  -0.0043218234  -0.0064903393
        0.6474409970  -0.0228211887   0.0617680946  -0.2601944391   0.0103836625
        0.0793045541   0.0179657026   0.0013358791  -0.0002097145  -0.0493395087
        0.0018695697  -0.0558840578   0.0198901923  -0.0022705483  -0.0746952953
       -0.2096055456   0.0039278206  -0.0043048584  -0.0655488959   0.0028992476
        0.0042682670  -0.0019766666   0.0003053521  -0.0007729920  -0.0008010191
        0.0001539598  -0.0003402846   0.0002327696  -0.0001818419   0.0000620101
        0.0000679091   0.0000019641  -0.0003560416   0.0002420820   0.0001714314
       -0.0008184355  -0.0008899958  -0.0001136417   0.0010399255  -0.0007141038
       -0.0002753243  -0.0058633341   0.0036885670  -0.0001893534   0.0050880806
        0.0010398271  -0.0000591615  -0.0006100641  -0.0009137393  -0.0002027138
       -0.0033139133  -0.0057266008  -0.0003120587   0.0084247178   0.0046458841
       -0.0000425023  -0.0068516909   0.0012823698  -0.0000623430   0.0035674587
        0.0020883590   0.0005139843  -0.0026111269   0.0022155885   0.0007543045
        0.0036328600  -0.0006292536  -0.0001049512  -0.0034120353   0.0004354794
        0.0000953160   0.0020985253  -0.0002754902  -0.0000437510  -0.0029627631
       -0.0012384769  -0.0007167188   0.0026398594  -0.0030744527  -0.0005335949
       -0.0000755411   0.0003827980   0.0005625472   0.0019363701   0.0017649969
        0.0000402993  -0.0011738760  -0.0069925887  -0.0000241844   0.0265720306
       -0.0015339071   0.0015284144  -0.0006300170  -0.0010451433   0.0010485207