$hessian                                                                        
        0.0379856268  -0.1201174106  -0.0796421599  -0.0460529190   0.1114313557
        0.0733502664   0.0183453886   0.0113426039   0.0073754544  -0.0011024057
       -0.0058421950  -0.0022886891   0.0010992110   0.0003961330  -0.0002977551
       -0.0003619054  -0.0028834419   0.0011537814   0.0008287983   0.0002287247
        0.0002535771  -0.0009341518   0.0000889734  -0.0000763932  -0.0003404847
       -0.0000180446   0.0000009769   0.0004083690  -0.0003983808   0.0001890411
        0.0000788572   0.0002486212  -0.0001819856   0.0001525330  -0.0000199731
        0.0000091248  -0.0000674664   0.0000419350  -0.0000342071   0.0000045560
       -0.0000785027   0.0001363958  -0.0002907812  -0.0000440343   0.0000116774
        0.0000607504   0.0005878823  -0.0001823029   0.0001966964  -0.0001185093
        0.0002179632   0.0000878705   0.0001313299   0.0000042684  -0.0000154801
       -0.0000772426   0.0000306219  -0.0000296462   0.0000824353  -0.0001467469
       -0.0002337522  -0.0001745705  -0.0000459516   0.0002178123   0.0004315546
       -0.0000002745  -0.0007161635   0.0004795989  -0.0001142376   0.0023385773
        0.0030266796   0.0007622069  -0.0003328735  -0.0011270769  -0.0003856637
       -0.0000374413   0.0064374278   0.0025399317  -0.0051226256  -0.0045220390
       -0.0013057363  -0.0005874763  -0.0000319853  -0.0009065650  -0.0010272485
        0.0000273311  -0.0016401879   0.0006957558  -0.0000995960   0.0000063540
       -0.0003075204  -0.0000999502   0.0002969859   0.0000712401  -0.0000757161
       -0.0000071175   0.0000367394  -0.0001504107  -0.0000442560   0.0002959116
       -0.0000645054   0.0001954395   0.0000586664  -0.0000622811   0.0000516204
       -0.0000309796   0.0000363297  -0.0000179799  -0.0000911756  -0.0000316881
       -0.0000884071  -0.0002423077   0.0000133093  -0.0000498563   0.0002928471
        0.0001739491   0.0000705047   0.0001171325  -0.0002055277  -0.0001269476
        0.0000578162  -0.0000259593  -0.0000587946  -0.0000358646  -0.0000307167
       -0.0000132094  -0.0000157012   0.0000728458   0.0000876424  -0.0001873669
        0.0001552358   0.0000861135  -0.0002346224  -0.0000201594  -0.0001061969
        0.0003755174   0.0000350319  -0.0001049218  -0.0045550296   0.0011207148
        0.0013416029   0.0000531037   0.0001154658  -0.0000746304   0.0000027671
       -0.0000559405   0.0000468506  -0.0000018329  -0.0000193872   0.0000023084
       -0.0000114749   0.0000044794  -0.0000033524   0.0000006900   0.0000096756
        0.0000069736   0.0000021443   0.0000142531   0.0000213363  -0.0000221149
        0.0000290845  -0.0000549156  -0.0000167563   0.0000099279  -0.0000059414
       -0.0000009591  -0.0000046550  -0.0000009780   0.0000062347  -0.0000046220
       -0.0000093224   0.0000323866  -0.0000089558  -0.0000212819  -0.0000471136
        0.0000186183   0.0001076210  -0.0001006171   0.0000735119   0.0000011068
       -0.0000039539   0.0001370714  -0.0001603350  -0.0009309607  -0.0005388383
       -0.0001866137   0.0000583744  -0.0000461408   0.0000256132   0.0000745606
        0.0000318754  -0.0000513355  -0.0000042731  -0.0000728944  -0.0000398583
       -0.0000069664  -0.0000002891  -0.0000099114   0.0000157629  -0.0000010861
       -0.0000145505   0.0000190462   0.0000251919  -0.0000544978   0.0000056727
        0.0000524606   0.0000032954  -0.0000002109   0.0000296629   0.0000091328
        0.0000039925   0.0000078588   0.0000034570   0.0000284594  -0.0000072569
       -0.0000000744   0.0000259336  -0.0000308475   0.0000222865  -0.0000113560
       -0.0000103567   0.0000891018  -0.0000238226  -0.0000279525   0.0000435080
       -0.1201174106   0.8021736628   0.5177226738   0.1103101183  -0.7494801055
       -0.4760526562  -0.0033983871  -0.0742214508  -0.0525479285  -0.0025844501
        0.0329787617   0.0098787801  -0.0122779853  -0.0052877123   0.0009434270
        0.0036184774   0.0065169337   0.0012260348  -0.0051714139   0.0007324257
        0.0003675881   0.0018162412   0.0009702048   0.0003406949   0.0023773432
        0.0011882287   0.0002912640  -0.0016137331   0.0016589643  -0.0004576383
        0.0001377764  -0.0007467418   0.0006343296  -0.0005491951   0.0001609615
       -0.0001736261   0.0001964380  -0.0001708840   0.0001861191  -0.0002204546
        0.0002646411  -0.0004573200   0.0009150533  -0.0002011540   0.0000756240
        0.0001322284  -0.0024443981   0.0001777440  -0.0003994907   0.0007115089
       -0.0006156273  -0.0002937672  -0.0004801972   0.0001467994   0.0000638388
        0.0003359624  -0.0001153478  -0.0001090826  -0.0003292114   0.0004033531
        0.0004581080   0.0008262168   0.0000216497  -0.0033617863  -0.0039250207
       -0.0008190384   0.0068357119  -0.0017269852  -0.0003477645  -0.0105032162
       -0.0307333049  -0.0082682310   0.0050109581   0.0094834095   0.0024588226
        0.0039919965  -0.0314123007  -0.0113395854   0.0227254928   0.0415589840
        0.0148947396   0.0004760095  -0.0001426844   0.0030303528  -0.0003862562
       -0.0003167085   0.0003857156  -0.0004080909  -0.0001886477   0.0000303257
        0.0016129346  -0.0004990303  -0.0003684515  -0.0015266617   0.0005840093
        0.0001494737   0.0000047862  -0.0002523804   0.0002151461  -0.0002739988
        0.0001873562  -0.0001937060  -0.0000782617  -0.0000478439  -0.0001795138
        0.0000773702  -0.0000150336   0.0000248794   0.0001709606   0.0000220976
        0.0001617557   0.0003749444   0.0001081387   0.0001146611   0.0000692751
        0.0001941468  -0.0002035225  -0.0004062813   0.0001945899   0.0001746097
        0.0000026183   0.0001306039   0.0001179075  -0.0000046801   0.0000452574
        0.0000458584   0.0001536139  -0.0000966067  -0.0001284281   0.0001233860
       -0.0003205909  -0.0001893892   0.0002234957   0.0003998937   0.0001377328
       -0.0004045630   0.0003382146   0.0000376038   0.0026990480   0.0013977667
       -0.0013520659   0.0002364945   0.0000644058   0.0000659508   0.0000095080
        0.0000686218  -0.0001988499   0.0000292931   0.0000172989   0.0000778511
        0.0000845707  -0.0000512881   0.0000501875   0.0000747878  -0.0000312762
       -0.0000356259   0.0000087294   0.0000340625  -0.0001053177   0.0000899907
       -0.0002145048   0.0001560445   0.0000510656   0.0000071477  -0.0001106123
        0.0000206475   0.0000437959  -0.0000528165   0.0000448401   0.0000712833
        0.0000406114  -0.0000311224  -0.0000771611   0.0000812478   0.0000462443
        0.0000689430  -0.0001762165  -0.0001077855  -0.0000648329   0.0000413562
       -0.0000105283  -0.0007570194   0.0006898214  -0.0001683793   0.0005327493
       -0.0009687871  -0.0001977748   0.0000412342   0.0000852465  -0.0002391565
       -0.0000294880  -0.0001354431  -0.0000319493   0.0001361972   0.0000694671
       -0.0000315822   0.0000746972   0.0000003369  -0.0000920288  -0.0000046067
        0.0000227062  -0.0000705134  -0.0000493440   0.0001742860  -0.0000612412
       -0.0001197786   0.0001263341   0.0000060067  -0.0001006832  -0.0000150871
       -0.0000153144  -0.0000285965  -0.0000091793  -0.0000920979   0.0000135271
       -0.0000023132  -0.0000682895   0.0000357635  -0.0001501649   0.0000133324
        0.0000611113  -0.0001633158   0.0000131942   0.0001337930  -0.0001435441
       -0.0796421599   0.5177226738   0.3570614595   0.0730045928  -0.4770509795
       -0.3431028181  -0.0014378692  -0.0496179757  -0.0202480622  -0.0009990253
        0.0177157352   0.0066076865  -0.0069819081  -0.0032451533   0.0003987242
        0.0016157383   0.0047931116   0.0007314276  -0.0027242203   0.0001005947
        0.0002167615   0.0011997986   0.0005808486   0.0002184263   0.0012701158
        0.0005811562   0.0001511298  -0.0008595665   0.0009029609  -0.0002408767
        0.0001366335  -0.0003659385   0.0003092970  -0.0002664523   0.0000951731
       -0.0001167498   0.0000864831  -0.0000962116   0.0001061592  -0.0001394052
        0.0001228281  -0.0002136119   0.0004551993  -0.0001512385   0.0000690693
        0.0001053919  -0.0012655859   0.0000217478  -0.0001684020   0.0003646928
       -0.0003126231  -0.0001351328  -0.0002435618   0.0000942673   0.0000337369
        0.0001670617  -0.0000465754  -0.0000813201  -0.0001784058   0.0002062323
        0.0001873397   0.0004459026  -0.0000032288  -0.0019532761  -0.0022438326
       -0.0004465828   0.0039712825  -0.0010199014   0.0000089122  -0.0058826334
       -0.0176919498  -0.0049239105   0.0031257304   0.0054458708   0.0016715268
        0.0015116381  -0.0169973288  -0.0089599715   0.0131664623   0.0220293827
        0.0107453446  -0.0002367994  -0.0003859873   0.0023094921  -0.0004515573
        0.0002311252  -0.0010270382  -0.0001639232  -0.0003239999   0.0001788918
        0.0009235568  -0.0003880667  -0.0001656226  -0.0009959163   0.0003181349
        0.0002167629   0.0000198549  -0.0001383851   0.0000977966  -0.0002415560
        0.0001223289  -0.0001009104  -0.0000584335  -0.0000582247  -0.0000917519
        0.0000577446  -0.0000339366   0.0000254728   0.0001152042   0.0000158283
        0.0001194645   0.0002560279   0.0000609390   0.0000941272   0.0000710111
        0.0001496191  -0.0001586334  -0.0002413537   0.0001130723   0.0001142935
       -0.0000133566   0.0000774179   0.0000833374   0.0000008611   0.0000301826
        0.0000285569   0.0000965404  -0.0000720375  -0.0000849341   0.0000824734
       -0.0002152694  -0.0001182518  -0.0000031813   0.0002783505   0.0001074139
       -0.0002565302   0.0001510077   0.0001199321   0.0036810042   0.0001489470
       -0.0013337112   0.0000889622  -0.0000020716   0.0000329146   0.0000151366
        0.0000377854  -0.0001419092   0.0000300548  -0.0000097981   0.0000578969
        0.0000561198  -0.0000364035   0.0000335504   0.0000508549  -0.0000177751
       -0.0000183867  -0.0000026228   0.0000296976  -0.0000526776   0.0000280304
       -0.0001033403   0.0000949752   0.0000185975   0.0000017074  -0.0000490615
        0.0000099882   0.0000293666  -0.0000260974   0.0000343316   0.0000484512
        0.0000314953  -0.0000032296  -0.0000480151   0.0000568503   0.0000651318
        0.0000400841  -0.0001589864  -0.0000601528  -0.0001247285  -0.0000179386
       -0.0000668395  -0.0005491146   0.0007511752  -0.0009932732  -0.0002336955
       -0.0007731630  -0.0000101738  -0.0000577754   0.0000496315  -0.0001648530
        0.0000082536  -0.0001421922  -0.0000216893   0.0001033927   0.0000203078
       -0.0000147287   0.0000449276  -0.0000040386  -0.0000559007  -0.0000007647
        0.0000114664  -0.0000388809  -0.0000311474   0.0000992060  -0.0000294820
       -0.0000562143   0.0000743556   0.0000038326  -0.0000631290  -0.0000155903
       -0.0000154377  -0.0000179491  -0.0000132051  -0.0000645770   0.0000061728
       -0.0000029308  -0.0000451566   0.0000316045  -0.0000987113  -0.0000309026
        0.0000080677  -0.0001066785  -0.0000235834  -0.0000185650  -0.0001101072
       -0.0460529190   0.1103101183   0.0730045928   0.1176769657  -0.1255939234
       -0.0808584979  -0.0625391954   0.0111772937   0.0048797633  -0.0022523671
        0.0270948715   0.0131665487  -0.0011668180  -0.0000237821   0.0008435941
       -0.0022039813   0.0029578733   0.0004906790  -0.0014633865   0.0000492524
       -0.0000911238   0.0007735619  -0.0001928712   0.0000065053   0.0005624836
        0.0001691790  -0.0000269040  -0.0005189784   0.0004800583  -0.0002965041
       -0.0001207782  -0.0003028742   0.0002512559  -0.0002141828   0.0000416482
       -0.0000053663   0.0000867307  -0.0000519151   0.0000481440   0.0000035947
        0.0001115596  -0.0001661564   0.0003565782   0.0000601230  -0.0000141392
       -0.0000762805  -0.0007849376   0.0002649562  -0.0002817871   0.0001454385
       -0.0002871032  -0.0001254301  -0.0001845756  -0.0000166735   0.0000194786
        0.0001046872  -0.0000532652   0.0000484687  -0.0001091972   0.0001932317
        0.0003054506   0.0002315261   0.0000630584  -0.0000956169  -0.0004437902
       -0.0000530086   0.0007078112  -0.0006076821  -0.0003496729  -0.0070591332
       -0.0030587222  -0.0004140863   0.0011985602   0.0026082083   0.0005585094
       -0.0026862890  -0.0139230469  -0.0055819543   0.0081854306  -0.0080765230
       -0.0059667588  -0.0005787397  -0.0017272355   0.0006849962  -0.0006902357
       -0.0005132284  -0.0003049041  -0.0005975106   0.0001205604   0.0002773729
        0.0003343337   0.0002075795  -0.0001027699   0.0000433885  -0.0000544368
       -0.0000447332  -0.0000012859   0.0002767884   0.0000635257  -0.0002751199
        0.0000124952  -0.0001603018  -0.0000619889   0.0000829819  -0.0000436874
        0.0000263442  -0.0000524622  -0.0000011585   0.0000865706   0.0000402021
        0.0000835456   0.0002275149  -0.0000241962   0.0000311665  -0.0002992714
       -0.0001951698  -0.0000582561  -0.0001343420   0.0002132618   0.0001331371
       -0.0000771199   0.0000194892   0.0000650071   0.0000363560   0.0000348232
        0.0000205243   0.0000087978  -0.0000810839  -0.0000967613   0.0001846068
       -0.0001474226  -0.0000826594   0.0000469863   0.0000832510   0.0001390094
       -0.0001189538   0.0002360348   0.0000889220  -0.0010356320  -0.0010621027
        0.0011888293   0.0000027782  -0.0001013873   0.0000617963   0.0000066651
        0.0000540430  -0.0000516315  -0.0000017667   0.0000273769   0.0000012653
        0.0000161348  -0.0000042161   0.0000045008   0.0000012745  -0.0000119889
       -0.0000059114   0.0000085032  -0.0000245535  -0.0000306797   0.0000322522
       -0.0000307936   0.0000509376   0.0000257465  -0.0000158258  -0.0000019837
        0.0000043284   0.0000038004  -0.0000080071   0.0000011763   0.0000086671
        0.0000012875  -0.0000298177   0.0000161260   0.0000219537   0.0000434850
       -0.0000537991  -0.0000317831   0.0002376354   0.0000014441   0.0000790906
       -0.0000039609  -0.0001967984   0.0003124219  -0.0006241566   0.0006853428
       -0.0017858415   0.0000182551   0.0000079353  -0.0000196300   0.0000050527
        0.0000009126   0.0000271888   0.0000121599   0.0000360444   0.0000121257
        0.0000035155   0.0000011335  -0.0000023484  -0.0000188326  -0.0000057496
        0.0000016177  -0.0000259571  -0.0000310700   0.0000408127   0.0000074591
       -0.0000528549  -0.0000050598   0.0000072095  -0.0000294208   0.0000111600
        0.0000033456  -0.0000061724  -0.0000005147  -0.0000207321   0.0000107808
       -0.0000024023  -0.0000149403   0.0000242292  -0.0000291927   0.0000176179
       -0.0000038966  -0.0000891632   0.0000928986   0.0000325647  -0.0000324380
        0.1114313557  -0.7494801055  -0.4770509795  -0.1255939234   1.0172225946
        0.6095127248   0.0360644908  -0.1837099230  -0.0844341725   0.0183963272
       -0.0738125017  -0.0276074401   0.0145793527   0.0068672925  -0.0017383233
       -0.0064758208  -0.0080804206  -0.0021448036   0.0076577631  -0.0012451091
       -0.0005477237  -0.0025968697  -0.0012304442  -0.0004181315  -0.0038859891
       -0.0018892651  -0.0004905507   0.0025643821  -0.0026551235   0.0007109905
       -0.0002001420   0.0012200168  -0.0010233681   0.0008892734  -0.0002550710
        0.0002790244  -0.0003158009   0.0002873562  -0.0003068930   0.0003603767
       -0.0004267508   0.0007296027  -0.0014699942   0.0003176911  -0.0001150917
       -0.0001846450   0.0038193429  -0.0002936930   0.0006333090  -0.0011189751
        0.0009899536   0.0004692647   0.0007845888  -0.0002176434  -0.0001045360
       -0.0005223065   0.0001870519   0.0001542211   0.0005368343  -0.0006457665
       -0.0007419885  -0.0012931016  -0.0000394680   0.0047274689   0.0057655703
        0.0012866115  -0.0094686877   0.0022125952   0.0008408373   0.0207761575
        0.0482924958   0.0121019561  -0.0047443622  -0.0159135171  -0.0036546686
       -0.0146124917   0.0538542152   0.0167615514  -0.0482946539  -0.0975728776
       -0.0404744274   0.0012909885  -0.0007144565  -0.0050069158   0.0001084538
        0.0009271965  -0.0006248780   0.0012111070   0.0002342767  -0.0002278204
       -0.0031100862   0.0008585928   0.0006645144   0.0030168127  -0.0011322595
       -0.0002822243  -0.0000392532   0.0006878287  -0.0003387595   0.0004167495
       -0.0003771532   0.0002514803   0.0000986739   0.0001247030   0.0002514788
       -0.0001113939   0.0000084875  -0.0000397145  -0.0002572020   0.0000146085
       -0.0002177996  -0.0005150182  -0.0002236207  -0.0001889981  -0.0002554437
       -0.0004805091   0.0003877734   0.0006428394  -0.0002058985  -0.0002132798
       -0.0000643332  -0.0002128239  -0.0001725135   0.0000289553  -0.0000604939
       -0.0000696239  -0.0002486154   0.0001343945   0.0001874956  -0.0001152525
        0.0004975533   0.0002655341  -0.0001298793  -0.0006330006  -0.0003591179
        0.0004052042  -0.0007791175   0.0000730886  -0.0028798696  -0.0012739650
        0.0022631362  -0.0003834883  -0.0001927007  -0.0000835285  -0.0000085501
       -0.0001110938   0.0002957182  -0.0000460561  -0.0000234817  -0.0001218379
       -0.0001370034   0.0000823630  -0.0000798502  -0.0001196861   0.0000466801
        0.0000582218  -0.0000169044  -0.0000571709   0.0001730259  -0.0001243588
        0.0003057676  -0.0002240335  -0.0000753608  -0.0000107927   0.0001584840
       -0.0000317937  -0.0000731356   0.0000765140  -0.0000707988  -0.0001130788
       -0.0000692187   0.0000387009   0.0001133552  -0.0001441749  -0.0001313543
       -0.0000955078   0.0002299233   0.0000442757   0.0001700912  -0.0000656789
       -0.0001014957   0.0012575919  -0.0006949961   0.0000830989  -0.0003880259
        0.0014508800   0.0003250144  -0.0000976962  -0.0000855835   0.0003415451
        0.0000224258   0.0002098027   0.0000249669  -0.0002109198  -0.0000942198
        0.0000432420  -0.0001182452  -0.0000026038   0.0001410843  -0.0000068981
       -0.0000218033   0.0001151087   0.0000796573  -0.0002399943   0.0000883626
        0.0001635956  -0.0001793597   0.0000011878   0.0001523421   0.0000281701
        0.0000387099   0.0000449941   0.0000152125   0.0001501192  -0.0000240719
       -0.0000059343   0.0000975253  -0.0000739526   0.0002108978   0.0000662128
       -0.0000840058   0.0002354960   0.0001404207  -0.0001275308   0.0001704560
        0.0733502664  -0.4760526562  -0.3431028181  -0.0808584979   0.6095127248
        0.4558388506   0.0186293276  -0.0918326958  -0.0929820007   0.0057441265
       -0.0372162976  -0.0142370696   0.0091981117   0.0048231918  -0.0008028229
       -0.0022670591  -0.0059626252  -0.0012082197   0.0046001596  -0.0004873281
       -0.0002874707  -0.0020124025  -0.0008562145  -0.0003411060  -0.0014385269
       -0.0006879869  -0.0002053075   0.0010876137  -0.0011622931   0.0003235491
       -0.0001781113   0.0004836231  -0.0003973497   0.0003493632  -0.0001262454
        0.0001701994  -0.0001150933   0.0001349526  -0.0001362216   0.0001956793
       -0.0001655196   0.0002984485  -0.0005898634   0.0002374518  -0.0000814460
       -0.0001594386   0.0016036672  -0.0000212843   0.0002374624  -0.0004742502
        0.0003913379   0.0001755665   0.0003081137  -0.0001399496  -0.0000280962
       -0.0002211596   0.0000805818   0.0001126682   0.0002402548  -0.0002723959
       -0.0002235508  -0.0005900398   0.0000072877   0.0027402020   0.0033800186
        0.0006179697  -0.0056793447   0.0011289959   0.0002241684   0.0106306658
        0.0245274976   0.0096407296  -0.0027859009  -0.0084386818  -0.0031202573
       -0.0061069673   0.0247881301   0.0190453758  -0.0231978638  -0.0485534379
       -0.0232376751   0.0003313836   0.0010374842  -0.0048928938  -0.0012238153
       -0.0004257098  -0.0000871486   0.0004824009   0.0004662802   0.0000402590
       -0.0014052656   0.0004580449   0.0004128294   0.0014730147  -0.0005038735
       -0.0002198305   0.0000072005   0.0002077624  -0.0001701883   0.0003338759
       -0.0001614041   0.0001632040   0.0000966121   0.0000487809   0.0001383301
       -0.0000725120   0.0000432840  -0.0000361012  -0.0001739551  -0.0000291136
       -0.0001804032  -0.0003857201  -0.0000817223  -0.0001304755  -0.0000741623
       -0.0001994357   0.0001890142   0.0003385119  -0.0001867595  -0.0001551755
        0.0000207035  -0.0001187895  -0.0001257487  -0.0000114637  -0.0000441969
       -0.0000314794  -0.0001310436   0.0001032403   0.0001329537  -0.0001275294
        0.0003228652   0.0001728416  -0.0000926633  -0.0001711971  -0.0000922564
        0.0008567578  -0.0003894016  -0.0000771413  -0.0012491804  -0.0002961958
        0.0011474861  -0.0001897429  -0.0000303639  -0.0000488522   0.0000000070
       -0.0000402123   0.0001695659  -0.0000300036   0.0000238748  -0.0000729216
       -0.0000794307   0.0000584473  -0.0000390755  -0.0000777083   0.0000238759
        0.0000299650  -0.0000074452  -0.0000451512   0.0000800669  -0.0000388045
        0.0001344466  -0.0001224598  -0.0000263719  -0.0000148081   0.0000665518
       -0.0000224771  -0.0000514317   0.0000301264  -0.0000554016  -0.0000682435
       -0.0000501851  -0.0000060625   0.0000668781  -0.0000824740  -0.0001223523
       -0.0000494361   0.0001773355   0.0000354427   0.0001868296   0.0000509446
        0.0001648957   0.0010645881  -0.0021346302  -0.0008411460   0.0003224239
       -0.0003381117   0.0001072917   0.0000048568  -0.0001025364   0.0001864871
        0.0000211189   0.0001298913   0.0000153737  -0.0001253912  -0.0000612505
        0.0000248628  -0.0000653092  -0.0000156667   0.0000847685  -0.0000107981
       -0.0000252265   0.0000655634   0.0000450368  -0.0001349390   0.0000347665
        0.0000792126  -0.0000917167   0.0000034380   0.0000854784   0.0000213076
        0.0000326150   0.0000269015   0.0000167393   0.0000966095  -0.0000099137
       -0.0000066939   0.0000593286  -0.0000484434   0.0001082401   0.0000918715
       -0.0000254615   0.0001099212   0.0000899785   0.0000198616   0.0000729049
        0.0183453886  -0.0033983871  -0.0014378692  -0.0625391954   0.0360644908
        0.0186293276   0.4960399049   0.0075881106   0.0075444060  -0.1527809777
        0.0340672532   0.0212439007  -0.0360282789   0.0088647666   0.0018180928
       -0.0020287827  -0.0031007185  -0.0004409224   0.0062627357  -0.0019350773
        0.0009451030  -0.0067144916  -0.0029864780  -0.0004519878   0.0020688244
        0.0008379990   0.0000913554   0.0009339207  -0.0009160596   0.0007508693
        0.0003576577   0.0009765529  -0.0007430419   0.0007548329  -0.0000912614
       -0.0000244056  -0.0003306591   0.0002935831  -0.0003047789   0.0000529649
       -0.0005080318   0.0007784445  -0.0012512966  -0.0000439243   0.0001419933
        0.0001597713   0.0012711838  -0.0006990090   0.0008009784  -0.0004956996
        0.0008132242   0.0004672150   0.0006202215   0.0001376626  -0.0000918579
       -0.0004462433   0.0002411878  -0.0002434601   0.0004020176  -0.0007401370
       -0.0008789375  -0.0008085636  -0.0003158819   0.0015735973   0.0071899465
       -0.0000461988  -0.0060362540  -0.0018414808  -0.0000872227  -0.0013330009
        0.0465105472   0.0137387264  -0.0229875995  -0.0054200901  -0.0011137125
        0.0137322102  -0.0430117145  -0.0182245109  -0.1991548096  -0.0762102310
       -0.0396183051  -0.0514422575  -0.0002129017  -0.0029153038   0.0032102323
       -0.0099952315  -0.0000411880  -0.0046358359  -0.0002932172   0.0016050970
        0.0029705406  -0.0016578278  -0.0001502734   0.0001502344  -0.0001802364
       -0.0002037677   0.0000505767   0.0007424268  -0.0000193419  -0.0003333789
       -0.0002130849  -0.0001789760  -0.0001334428   0.0001958886  -0.0000118684
        0.0000174331  -0.0001446319  -0.0000432130   0.0000734326   0.0001884405
        0.0001722161   0.0003048991  -0.0002906371   0.0000847904  -0.0006349177
       -0.0005078102   0.0000597258  -0.0000083757   0.0003985583   0.0001951686
       -0.0002288899  -0.0000236709   0.0000490805   0.0001224440   0.0000981451
        0.0000389800  -0.0001248054  -0.0001783889  -0.0001580612   0.0004147809
       -0.0000242201  -0.0001752914  -0.0040898310   0.0040025434   0.0010260120
        0.0059516066   0.0050771125  -0.0010453144  -0.0003273950  -0.0002999541
       -0.0001734141   0.0001588570  -0.0000704806  -0.0001103701   0.0000305824
       -0.0001299448  -0.0000027851   0.0000324185  -0.0000547594   0.0000414330
        0.0000412235  -0.0000318564   0.0000258166   0.0000584419  -0.0000060300
       -0.0000085561   0.0000203564   0.0000734750   0.0000411293  -0.0000559449
        0.0000818831  -0.0000021463  -0.0000115281   0.0000511373  -0.0000408092
        0.0000114627   0.0000371342  -0.0000234076   0.0000478891   0.0000443274
        0.0000229769   0.0000462338  -0.0000465710  -0.0000313121  -0.0004068590
       -0.0000205740   0.0001714408   0.0002003758  -0.0002408745   0.0002426013
       -0.0001785828   0.0000754904  -0.0002416271  -0.0001229341   0.0001373500
       -0.0003874203   0.0000221714   0.0000104362   0.0002372627  -0.0000168100
        0.0000360427  -0.0000191440   0.0000061505   0.0000240614   0.0000026485
        0.0000049843  -0.0000000183  -0.0000002027  -0.0000043581  -0.0000126786
        0.0000162519  -0.0000171414   0.0000046112   0.0000635390  -0.0000432887
       -0.0000499919   0.0000417348   0.0000131683  -0.0000152142  -0.0000201404
        0.0000116583   0.0000008133   0.0000055203  -0.0000077370   0.0000063571
       -0.0000087078  -0.0000188051  -0.0000127979  -0.0000506211  -0.0002991639
        0.0000644462  -0.0002145479   0.0000197279  -0.0001097885  -0.0004919240
        0.0113426039  -0.0742214508  -0.0496179757   0.0111772937  -0.1837099230
       -0.0918326958   0.0075881106   0.4937197468   0.2037447830   0.0489608473
       -0.0228003382   0.0011399433  -0.0144792746   0.0032786414   0.0049159163
        0.0038362005   0.0060317654   0.0012120910  -0.0051661475   0.0007834064
        0.0003817281   0.0011345006  -0.0002954035   0.0002902086   0.0043752842
        0.0019119276   0.0005184396  -0.0025828448   0.0026439371  -0.0005834431
        0.0000797683  -0.0013269303   0.0010470688  -0.0009038030   0.0001693588
       -0.0001513980   0.0003388172  -0.0002511557   0.0002681101  -0.0002272495
        0.0004177866  -0.0007409187   0.0015387079  -0.0000623409   0.0000240570
        0.0000951731  -0.0037837480   0.0001942738  -0.0007394792   0.0010202405
       -0.0010623886  -0.0005118745  -0.0007599727   0.0000771521   0.0001157995
        0.0004843955  -0.0001667388  -0.0000786230  -0.0004717695   0.0006700869
        0.0009442160   0.0011280423   0.0000919760  -0.0032258435  -0.0028421092
       -0.0013325887   0.0031623791  -0.0024483743  -0.0011986116   0.0037126754
       -0.0958202538  -0.0322544131   0.0019690098   0.0223139149   0.0064882717
       -0.0123721030  -0.1080085319  -0.0467580847  -0.0629357017  -0.0433015760
       -0.0037970759  -0.0003894669   0.0080389148   0.0090785870   0.0022648312
       -0.0021049597  -0.0011452563  -0.0018272441  -0.0004573229  -0.0001666069
        0.0029465372  -0.0009448682  -0.0003990854  -0.0027678045   0.0010664630
        0.0003984293   0.0000751512  -0.0007657485   0.0002843691  -0.0000671469
        0.0004060492  -0.0000391955   0.0000680623  -0.0002383012  -0.0000912330
        0.0000233088   0.0000915662  -0.0000014263   0.0000436609  -0.0001155908
        0.0000291483   0.0000723579   0.0002627778   0.0000982554   0.0005005119
        0.0005767630  -0.0003878295  -0.0004699213  -0.0001684908   0.0000399360
        0.0002109537   0.0001316220   0.0000048190  -0.0001139450  -0.0000165169
        0.0000431814   0.0002359711  -0.0000015678   0.0000135248  -0.0002097515
       -0.0001722319  -0.0000917685  -0.0001841663   0.0010370135  -0.0002984840
        0.0028771603  -0.0002665685  -0.0007203868  -0.0006066038   0.0001859666
       -0.0006387637   0.0001783317  -0.0001370102   0.0001332720   0.0000775872
        0.0001713810  -0.0002621042   0.0000740097   0.0000823110   0.0000913181
        0.0001027766  -0.0000517488   0.0000677446   0.0000576105  -0.0000521849
       -0.0000570082  -0.0000123482   0.0000074437  -0.0001388297   0.0001940326
       -0.0002422304   0.0002290050   0.0000851493  -0.0000239945  -0.0001020381
        0.0000079512   0.0000240825  -0.0000599131  -0.0000074697   0.0000739305
        0.0000654793  -0.0001084704  -0.0000708183   0.0001257765  -0.0002449275
        0.0001411821  -0.0002319639  -0.0003534693  -0.0005885431   0.0000742045
       -0.0003149466  -0.0000152695   0.0025522899   0.0009523467   0.0003433450
       -0.0000417568  -0.0000283316  -0.0000664960   0.0002365668  -0.0002914624
        0.0000896526  -0.0001974280  -0.0000076982   0.0001065542   0.0000448169
       -0.0000043268   0.0000674830  -0.0000159177  -0.0000767453  -0.0000484578
        0.0000396581  -0.0000442010  -0.0000233699   0.0002426891  -0.0001787408
       -0.0001323977   0.0002048681   0.0000206603  -0.0000913776  -0.0000229999
        0.0000208536  -0.0000095895  -0.0000004189  -0.0000627779   0.0000209476
       -0.0000144432  -0.0000738150   0.0000217531  -0.0002419881   0.0003165119
        0.0000965602  -0.0001448114  -0.0001089899  -0.0000373928  -0.0001540554
        0.0073754544  -0.0525479285  -0.0202480622   0.0048797633  -0.0844341725
       -0.0929820007   0.0075444060   0.2037447830   0.1942619462   0.0232231689
        0.0142739393  -0.0365442527  -0.0050839702  -0.0021070747   0.0027777768
        0.0016314167   0.0032490576  -0.0002575938  -0.0022682216   0.0000322523
        0.0002598078   0.0000930454  -0.0003445679   0.0000699113   0.0022421768
        0.0009709884   0.0001981218  -0.0011419407   0.0011131399  -0.0002609882
        0.0000972268  -0.0005175784   0.0004499007  -0.0003885824   0.0000829853
       -0.0000918499   0.0001562651  -0.0000954122   0.0000738364  -0.0001053086
        0.0001384405  -0.0002645011   0.0006167074  -0.0000534231   0.0000273198