$hessian                                                                        
        0.0318927698   0.1158366682  -0.0220549004  -0.0407482113  -0.1071186159
        0.0199457222   0.0181882289  -0.0114964729   0.0024031215  -0.0043022853
        0.0037023723   0.0008635687  -0.0005512693   0.0002185731  -0.0007500687
       -0.0009158484   0.0005844538  -0.0017382081   0.0003437299   0.0002084275
       -0.0000563359  -0.0002497602  -0.0000163967   0.0002725974  -0.0000102927
        0.0000396422   0.0000538400   0.0003252509  -0.0002285796   0.0000122757
        0.0001226236   0.0002518160  -0.0000393331   0.0000766505   0.0000443870
       -0.0000602092  -0.0000433272   0.0000325081  -0.0000043315  -0.0000164986
       -0.0001075361   0.0000715047  -0.0002162148  -0.0001770880   0.0000131218
        0.0000498635   0.0002107560   0.0000123977   0.0002836706  -0.0000325547
        0.0002059023   0.0000656399   0.0000483748   0.0000844703  -0.0000267708
       -0.0000296695  -0.0000286722  -0.0000871314   0.0000730996  -0.0000735268
       -0.0002569042  -0.0000067261  -0.0000682840  -0.0002398115   0.0000650857
       -0.0000926130   0.0003520237  -0.0000117815  -0.0000668613   0.0001140676
       -0.0059568514  -0.0006345624  -0.0003667331   0.0010862551   0.0004562857
        0.0018248401  -0.0025034296  -0.0005779485  -0.0008206776   0.0057393546
       -0.0001577011   0.0008914094  -0.0000888863  -0.0004986473  -0.0006134595
        0.0015182981   0.0024487237   0.0008113068  -0.0001622393  -0.0001936935
       -0.0009532440   0.0000931602  -0.0001920912  -0.0001552962  -0.0000871616
        0.0000161949   0.0000322810  -0.0004179259  -0.0000106710  -0.0001959170
        0.0001050424   0.0000646000  -0.0000372471  -0.0000815798   0.0000931537
       -0.0000078764   0.0000534879  -0.0000101390   0.0000723984  -0.0000947448
       -0.0000400648   0.0002023374   0.0000956415  -0.0001741369   0.0003916650
        0.0003759303  -0.0000209870  -0.0002664298   0.0000570011  -0.0000212834
        0.0000226454   0.0000976788  -0.0001059689  -0.0000601880  -0.0000413036
        0.0000195656   0.0001281013   0.0000038567   0.0000087716   0.0000598655
       -0.0002538780   0.0000966257   0.0002253212  -0.0004728304   0.0000454457
       -0.0006239365  -0.0004057492  -0.0000009693  -0.0011288408   0.0006986841
       -0.0000890349   0.0000566522   0.0000503907   0.0000360544  -0.0000052714
       -0.0000518119  -0.0000114970   0.0000031845  -0.0000307366   0.0000008216
       -0.0000019234  -0.0000057240   0.0000004049   0.0000255025   0.0000060773
        0.0000055811   0.0000210626   0.0000123364   0.0000295830   0.0000742097
       -0.0000133403  -0.0000505687  -0.0000041417   0.0000809017  -0.0000117083
        0.0000019804  -0.0000091619  -0.0000152090   0.0000152360   0.0000086010
       -0.0000108626   0.0000100566   0.0000003860  -0.0000540333  -0.0000065757
       -0.0000160472   0.0000845885  -0.0000364024   0.0000270984   0.0000426849
       -0.0000036651  -0.0000621588  -0.0001478306  -0.0036889013  -0.0013164363
        0.0007606900   0.0000292191  -0.0001052390   0.0000396583   0.0000185910
        0.0000051702   0.0000315501   0.0000062390   0.0000008416  -0.0000077586
        0.0000038902  -0.0000006339   0.0000055299  -0.0000098804  -0.0000303144
        0.0000156326  -0.0000111603  -0.0000132807   0.0000540282   0.0000121956
       -0.0000268997  -0.0000167938  -0.0000084553  -0.0000038209  -0.0000047060
       -0.0000087451   0.0000021264   0.0000030291  -0.0000046786   0.0000187739
        0.0000032853   0.0000091818   0.0000538661  -0.0000252763  -0.0000379506
        0.0000112130  -0.0001226345  -0.0000419681  -0.0000407314  -0.0000608889
        0.1158366682   1.1046396668  -0.2074221691  -0.1062042687  -1.0248447740
        0.1913904044   0.0048948201  -0.1084510152   0.0190941052  -0.0272216469
        0.0542909802   0.0009702363  -0.0006734991   0.0012619098  -0.0037496034
        0.0006555509  -0.0001052618   0.0000594221   0.0004127234  -0.0002213673
        0.0000592006  -0.0020772832  -0.0008256781   0.0000272100   0.0022662629
        0.0007875276   0.0004871559  -0.0003138264   0.0002805025   0.0003910848
        0.0005227678   0.0001365423  -0.0000384339  -0.0000441666   0.0002320381
       -0.0001922217   0.0000022122   0.0000294845  -0.0000446262  -0.0002141986
       -0.0001164865   0.0001428179  -0.0000873286  -0.0004316310   0.0000070717
        0.0000211237  -0.0004171272  -0.0005251355   0.0002661284   0.0002235375
        0.0002294077   0.0000399132  -0.0001617076   0.0001677464  -0.0000562163
        0.0000223078  -0.0000497521  -0.0001672868   0.0000720717  -0.0001205129
       -0.0003803052   0.0001960153  -0.0001147571  -0.0003993090   0.0006136446
       -0.0000594263   0.0005834754   0.0001180366   0.0001436947  -0.0047829393
       -0.0409916352  -0.0020622304  -0.0071433632   0.0120244614   0.0019315904
        0.0137606603  -0.0401164419  -0.0058313918   0.0049487767   0.0434290390
        0.0052601714   0.0136632388  -0.0051139340  -0.0037243599  -0.0038159375
        0.0076823198   0.0021987224   0.0056935899   0.0007469202   0.0003106620
       -0.0015735855   0.0008226181   0.0000353324  -0.0034991904   0.0014341563
        0.0005377989  -0.0001080817  -0.0032036676  -0.0003075246  -0.0006610270
        0.0010320652   0.0002209106   0.0000961255  -0.0005624386   0.0003574927
       -0.0000510710   0.0004760803  -0.0000934257   0.0003992088  -0.0006926900
        0.0001110320   0.0006403369   0.0011235945  -0.0004973462   0.0022425450
        0.0022335497   0.0000983177  -0.0012311434  -0.0002682106  -0.0000260853
        0.0003430908   0.0005083875  -0.0004531640  -0.0003631684  -0.0002123252
        0.0000745296   0.0008181790   0.0002360749  -0.0001253084  -0.0001980124
       -0.0011644637   0.0005753553   0.0034428260  -0.0042363494  -0.0011950216
       -0.0075873113  -0.0019400014  -0.0009188735   0.0006391122  -0.0001785879
        0.0014743960   0.0001662169   0.0000966953  -0.0001356949   0.0000253032
       -0.0000770633  -0.0001696049   0.0000244605  -0.0001019883  -0.0000264110
       -0.0000433491  -0.0000016824  -0.0000111908   0.0000794819   0.0000045280
        0.0000183241   0.0000426894  -0.0001368406   0.0001584020   0.0003444767
       -0.0000423373   0.0002008369   0.0000335517   0.0001743740   0.0000105898
        0.0001085382  -0.0000599828  -0.0000411078   0.0000912846   0.0000150667
       -0.0000302837  -0.0000032513   0.0000806725  -0.0002026423   0.0000650920
        0.0000236703   0.0002031054  -0.0000292840   0.0000756127   0.0002129216
        0.0000725771  -0.0005603509  -0.0012885335  -0.0034010818   0.0003444780
        0.0021530899  -0.0002352733   0.0000829823   0.0003688790   0.0000540569
       -0.0001104693   0.0001098540  -0.0000271530   0.0000586425  -0.0000501056
        0.0000421863   0.0000350737   0.0000116868  -0.0000946502   0.0000920215
       -0.0001374155  -0.0002916811  -0.0003404876   0.0001365489   0.0000298224
       -0.0000571836  -0.0001255502  -0.0002083537   0.0000013171  -0.0000351203
       -0.0001008041  -0.0000532601   0.0000098517  -0.0000328710   0.0000346302
        0.0001005053   0.0001081268   0.0001273935  -0.0001778059  -0.0000226652
       -0.0000664146  -0.0001870325  -0.0001326164  -0.0000368352   0.0001194039
       -0.0220549004  -0.2074221691   0.0566190129   0.0200745216   0.1919364198
       -0.0654252316   0.0000488935   0.0158070036   0.0077648246   0.0031302746
       -0.0059099062   0.0021917450  -0.0003598018  -0.0000750328   0.0009849567
       -0.0001572592   0.0000020244  -0.0012081622  -0.0002424401   0.0002769935
        0.0000426964   0.0002511611   0.0001543079   0.0000479747  -0.0003767039
       -0.0001156490   0.0000452208   0.0000658081  -0.0000546436  -0.0000816025
       -0.0000691799  -0.0000210775   0.0000162943  -0.0000088183  -0.0000323548
        0.0000455383   0.0000022310  -0.0000076972   0.0000101468   0.0000326065
        0.0000288750  -0.0000195580   0.0000207631   0.0000769238  -0.0000008726
        0.0000136663   0.0000627297   0.0000399912  -0.0000996041  -0.0000429403
       -0.0000352418  -0.0000186847   0.0000429496  -0.0000186449   0.0000167604
        0.0000131332   0.0000170053   0.0000347558  -0.0000179836   0.0000276895
        0.0000784222  -0.0000262714   0.0000382207  -0.0000604340  -0.0001137915
        0.0000138985  -0.0000830124  -0.0000235817   0.0000896570   0.0001508823
        0.0046575433  -0.0019560449   0.0011594355  -0.0014713306  -0.0000567733
       -0.0012336179   0.0052947301   0.0006428829  -0.0006887074  -0.0044959145
        0.0006031871  -0.0014286302   0.0008163113   0.0004521599   0.0000683459
       -0.0016495636  -0.0009807859  -0.0004629320   0.0001082757   0.0001318645
        0.0002974194  -0.0001043070   0.0000729707   0.0003971554  -0.0000643086
       -0.0000306630   0.0000027463   0.0003088520  -0.0000014623   0.0000127056
       -0.0001057660   0.0000139658  -0.0000337264   0.0000424827  -0.0000046512
       -0.0000059199  -0.0000355976   0.0000154713  -0.0000159730   0.0000806190
       -0.0000472507  -0.0000043634  -0.0001257457   0.0000135126  -0.0001945662
       -0.0002377941  -0.0000555999   0.0000957381   0.0000703837  -0.0000039600
       -0.0000462206  -0.0000319854   0.0000367552   0.0000367003   0.0000120006
        0.0000083909  -0.0000650740  -0.0000293664   0.0000387734   0.0000414022
        0.0000916615  -0.0000403639  -0.0003708936   0.0004707484   0.0001424435
        0.0009058556   0.0002616020   0.0002473561  -0.0010392567   0.0006011672
       -0.0002647246   0.0000718435   0.0000517508   0.0000431568   0.0000022932
        0.0000003566   0.0000217411  -0.0000027270   0.0000198368   0.0000043029
        0.0000013602   0.0000032154   0.0000013867  -0.0000184428  -0.0000005833
       -0.0000020739  -0.0000096539   0.0000114727  -0.0000299762  -0.0000691020
        0.0000092318  -0.0000806165  -0.0000089151  -0.0000411273  -0.0000291737
       -0.0000107746   0.0000098454  -0.0000071248  -0.0000124098   0.0000000735
       -0.0000038600   0.0000064879  -0.0000089669   0.0000219554  -0.0000431299
        0.0000230894  -0.0000270241  -0.0000310393   0.0000694224  -0.0000064815
       -0.0000558908   0.0000490571   0.0004741576   0.0022051534   0.0006848420
       -0.0005170230  -0.0000363748   0.0000303336  -0.0000378125  -0.0000111585
        0.0000176693  -0.0000120673   0.0000033967  -0.0000107592   0.0000049397
       -0.0000081376  -0.0000119430  -0.0000102041   0.0000174790  -0.0000441964
        0.0000132453   0.0000576204   0.0000547439  -0.0000485851   0.0000016435
       -0.0000022921   0.0000138511   0.0000379601  -0.0000022305   0.0000056804
        0.0000186088   0.0000101033  -0.0000002884   0.0000013238   0.0000004860
       -0.0000122530  -0.0000277596  -0.0000197871   0.0000237123   0.0000339621
        0.0000416141   0.0000012375   0.0000688528   0.0000517816   0.0000121841
       -0.0407482113  -0.1062042687   0.0200745216   0.1123745643   0.1230232473
       -0.0205251892  -0.0630620631  -0.0115555790  -0.0001251990   0.0083456277
        0.0110333158  -0.0021819658  -0.0011386112   0.0009634500   0.0011069421
       -0.0007688587   0.0010602182   0.0001086445  -0.0007121723  -0.0002257773
        0.0001950256   0.0002710376  -0.0001306064  -0.0000957449   0.0002748104
        0.0001573051  -0.0000465952  -0.0004060108   0.0003046493   0.0000321541
       -0.0001419292  -0.0003095265   0.0000511130  -0.0001186171  -0.0000423076
        0.0000748984   0.0000571391  -0.0000467804   0.0000088794   0.0000062830
        0.0001390630  -0.0000877258   0.0002561038   0.0001814064  -0.0000200353
       -0.0000208029  -0.0004226603  -0.0000669927  -0.0003108345   0.0000960696
       -0.0001694616  -0.0000839554  -0.0000858507  -0.0000823765   0.0000252233
        0.0000686881   0.0000241983   0.0000894395  -0.0001003404   0.0000856487
        0.0002828178   0.0000417638   0.0000772573  -0.0000356499  -0.0003027032
        0.0000141647   0.0002401558  -0.0002765894  -0.0000925828  -0.0035904854
        0.0130822066   0.0002598286   0.0026206480  -0.0024866245  -0.0004840191
       -0.0075578950   0.0027672935   0.0005795398  -0.0013711074  -0.0297825976
        0.0011180455  -0.0015985393  -0.0003092658   0.0008355497  -0.0018082856
       -0.0025426604  -0.0009800061  -0.0014405761  -0.0001101992   0.0001669201
        0.0008679236   0.0000278541   0.0000820489   0.0004584659  -0.0000539979
       -0.0001128154  -0.0000422164   0.0006811215  -0.0000091768   0.0002683206
       -0.0001516082  -0.0000822775   0.0000502218   0.0001133206  -0.0001291659
        0.0000110296  -0.0000932687   0.0000182437  -0.0001065219   0.0001466401
        0.0000342792  -0.0002921395  -0.0001554695   0.0002105002  -0.0005575984
       -0.0005404066   0.0000804361   0.0003674660  -0.0000671244   0.0000289029
       -0.0000271837  -0.0001468389   0.0001435426   0.0000870476   0.0000567907
       -0.0000252503  -0.0002086284  -0.0000200410  -0.0000192927  -0.0000866522
        0.0003604105  -0.0001533886  -0.0002575804   0.0006361007  -0.0000575360
        0.0008970749   0.0005847640   0.0000635369  -0.0006865491   0.0000158867
       -0.0020998063   0.0000243261  -0.0000224720   0.0000042593   0.0000169999
        0.0000562039   0.0000083641   0.0000026475   0.0000305397   0.0000015198
        0.0000078547   0.0000047485   0.0000004625  -0.0000200224  -0.0000085667
       -0.0000066841  -0.0000117386  -0.0000068462  -0.0000333808  -0.0000070955
       -0.0000168264   0.0000279660   0.0000172945  -0.0000398028   0.0000045980
       -0.0000000213   0.0000119348   0.0000144663  -0.0000206473  -0.0000015593
        0.0000099105  -0.0000115077   0.0000052333   0.0000498380   0.0000173401
        0.0000331954  -0.0000971703   0.0001021124  -0.0000350110  -0.0000406449
       -0.0000184457   0.0000487004   0.0003279443  -0.0010507652   0.0005017380
        0.0017937064   0.0000279199   0.0000727123  -0.0000272017  -0.0000210275
       -0.0000105237  -0.0000394334  -0.0000098271  -0.0000052446   0.0000196525
       -0.0000012610  -0.0000045613  -0.0000076474   0.0000261451   0.0000138001
       -0.0000034262   0.0000479803   0.0000412817  -0.0000570321  -0.0000051397
        0.0000370053   0.0000296334   0.0000141035   0.0000072540   0.0000045033
        0.0000137275   0.0000014821  -0.0000030890   0.0000098435  -0.0000232473
       -0.0000076142  -0.0000066139  -0.0000581030   0.0000253178   0.0000410062
        0.0000044992   0.0001184069   0.0001430867  -0.0000160375   0.0000545566
       -0.1071186159  -1.0248447740   0.1919364198   0.1230232473   1.3622531549
       -0.2287145288  -0.0389607078  -0.2261288251   0.0243270784   0.0556292325
       -0.1251331958   0.0018151457  -0.0012121424  -0.0029925863   0.0062086101
       -0.0000645714   0.0003519066   0.0008448973  -0.0009648629   0.0001456733
        0.0000861206   0.0037230405   0.0013845688  -0.0000757959  -0.0040437460
       -0.0013976977  -0.0008049878   0.0006320045  -0.0005834984  -0.0006897300
       -0.0008021454  -0.0001038492   0.0000377584   0.0001300522  -0.0003591707
        0.0002852478  -0.0000249530  -0.0000305110   0.0000655784   0.0003387338
        0.0001536257  -0.0002028277   0.0000466293   0.0006451968   0.0000018768
       -0.0000124707   0.0009012446   0.0008823078  -0.0003772763  -0.0004262606
       -0.0003368525  -0.0000435788   0.0002817458  -0.0002287151   0.0000729890
       -0.0000511240   0.0000675146   0.0002485965  -0.0000499384   0.0001646637
        0.0005119812  -0.0003486803   0.0001587489   0.0003744121  -0.0009712386
        0.0001589451  -0.0007014959  -0.0003942264  -0.0005291704   0.0163435034
        0.0680911731   0.0035350044   0.0081379496  -0.0198548482  -0.0032477676
       -0.0267210321   0.0625595229   0.0084239338  -0.0228838392  -0.0960611313
       -0.0068216961  -0.0166013720   0.0066015117   0.0057044482   0.0062615688
       -0.0101605322  -0.0019679613  -0.0086147207  -0.0012988542  -0.0006187701
        0.0022345100  -0.0009269875  -0.0000471408   0.0055416208  -0.0023349144
       -0.0007869729   0.0001392199   0.0050251584   0.0004482728   0.0010792114
       -0.0016397852  -0.0003555165  -0.0001308045   0.0009280662  -0.0005874968
        0.0000840070  -0.0007488118   0.0001452871  -0.0006370678   0.0011188498
       -0.0001475029  -0.0010216768  -0.0017739663   0.0008069193  -0.0034832569
       -0.0034497935  -0.0001127601   0.0019395804   0.0004088883   0.0000469330
       -0.0005413671  -0.0008054055   0.0007023931   0.0005652293   0.0003409979
       -0.0001208675  -0.0013049775  -0.0003793157   0.0001873998   0.0003041773
        0.0018549328  -0.0009167884  -0.0047530163   0.0062463161   0.0017303585
        0.0105593187   0.0025802678   0.0009583532   0.0003939414   0.0002844598
       -0.0014558790  -0.0003144631  -0.0002004857   0.0001587972  -0.0000409981
        0.0001072652   0.0002384482  -0.0000453685   0.0001547057   0.0000329293
        0.0000466657   0.0000050982   0.0000202697  -0.0001292592  -0.0000148627
       -0.0000170619  -0.0000636118   0.0001746048  -0.0002167070  -0.0004874078
        0.0000490966  -0.0002857689  -0.0000273072  -0.0002615256  -0.0000148240
       -0.0001522308   0.0000739199   0.0000552401  -0.0001395066  -0.0000308580
        0.0000311037  -0.0000058317  -0.0001101976   0.0002778241  -0.0001779348
       -0.0000510012  -0.0002706417  -0.0001281174  -0.0000708756  -0.0002211248
       -0.0000591995   0.0009861084   0.0021768524   0.0027791139  -0.0000132692
       -0.0026750659   0.0004021025  -0.0001937837  -0.0006033158  -0.0000724441
        0.0001671707  -0.0001842400   0.0000420735  -0.0000958042   0.0000629642
       -0.0000586466  -0.0000689089  -0.0000182180   0.0001309437  -0.0001416065
        0.0002012794   0.0004171407   0.0004945843  -0.0001929116  -0.0000415838
        0.0000716878   0.0002038585   0.0003099385  -0.0000021270   0.0000589950
        0.0001603060   0.0000874699  -0.0000140736   0.0000503148  -0.0000508260
       -0.0001559390  -0.0001661476  -0.0001929041   0.0002530722   0.0001072087
        0.0000824097   0.0003081717   0.0003691907   0.0001375757  -0.0001704024
        0.0199457222   0.1913904044  -0.0654252316  -0.0205251892  -0.2287145288
        0.1054998591   0.0026303386   0.0328171984  -0.0420450674  -0.0015291972
        0.0087974881  -0.0031631637  -0.0001885961  -0.0000323369  -0.0027695031
       -0.0013418934   0.0007770606   0.0004007174   0.0000031503  -0.0003218014
        0.0000168898  -0.0001234086  -0.0001268120   0.0000880623   0.0002059829
        0.0000520248  -0.0000339566   0.0000054104   0.0000054550   0.0000236352
        0.0000555566   0.0000790255  -0.0000182603   0.0000379227   0.0000355808
       -0.0000493585  -0.0000167993   0.0000073717  -0.0000031409  -0.0000222605
       -0.0000432715   0.0000310413  -0.0000624148  -0.0000962851   0.0000057204
        0.0000235059   0.0000515325  -0.0000066322   0.0001183302  -0.0000101603
        0.0000542830   0.0000382277  -0.0000082601   0.0000402846  -0.0000160363
       -0.0000187110  -0.0000134343  -0.0000420856   0.0000523855  -0.0000409397
       -0.0001296566   0.0000007928  -0.0000434321  -0.0000433091  -0.0000929864
        0.0000161018   0.0005767902   0.0000733597  -0.0000537188  -0.0011420103
       -0.0048261121   0.0094193942  -0.0010421604   0.0017189812  -0.0010609253
        0.0010592726  -0.0065000936   0.0022557537  -0.0007223287   0.0052377737
        0.0006232456   0.0022481946  -0.0014481921  -0.0006778777   0.0008760767
        0.0021504585   0.0007966557   0.0010145228   0.0000480781  -0.0000919593
       -0.0004590582   0.0001046831  -0.0001189991  -0.0001631973  -0.0000234365
        0.0000345606  -0.0000033233  -0.0001479879   0.0000904974   0.0000518165
        0.0000900353  -0.0000271890   0.0000320696  -0.0000256399  -0.0000208238
        0.0000088972   0.0000211337  -0.0000074024  -0.0000100962  -0.0000508028
        0.0000517121  -0.0000413880   0.0000723791   0.0000256071   0.0000370329
        0.0001069817  -0.0000205756  -0.0000167349  -0.0001082038   0.0000156952
        0.0000358529   0.0000042838   0.0000026645  -0.0000261592  -0.0000006830
       -0.0000157808   0.0000412784   0.0000461174  -0.0000423445  -0.0000495739
       -0.0000031683   0.0000271670   0.0003378637  -0.0005811638  -0.0001735335
       -0.0011984670  -0.0001873687  -0.0006197928  -0.0007873311  -0.0001089060
       -0.0011019156  -0.0000277084  -0.0000160921  -0.0000825885  -0.0000023133
       -0.0000072221  -0.0000182638   0.0000044274  -0.0000227066  -0.0000029285
        0.0000054317  -0.0000044132  -0.0000011482   0.0000242694   0.0000029774
        0.0000006985   0.0000153894  -0.0000030018   0.0000214543   0.0000466704
       -0.0000127130   0.0000411500   0.0000061426   0.0000387726   0.0000107595
        0.0000103100  -0.0000008341   0.0000049499   0.0000182431   0.0000047420
        0.0000005339   0.0000030048   0.0000072685  -0.0000216347   0.0000655103
       -0.0000117805   0.0000040826   0.0000531013  -0.0000586860  -0.0000536340
        0.0001972343   0.0001796973  -0.0017527676   0.0001771898  -0.0002264249
       -0.0000602570   0.0000334013  -0.0000131127  -0.0000401662   0.0000037487
       -0.0000195187   0.0000101597  -0.0000114808   0.0000150838  -0.0000126590
        0.0000083304   0.0000172621   0.0000051116  -0.0000089468   0.0000366899
       -0.0000223814  -0.0000305488  -0.0000508986   0.0000297631  -0.0000055750
        0.0000060411  -0.0000175018  -0.0000427758   0.0000019131  -0.0000030361
       -0.0000223626  -0.0000153071   0.0000004323  -0.0000038037  -0.0000056597
        0.0000151046   0.0000332965   0.0000087090  -0.0000257896  -0.0000378260
       -0.0001156700   0.0001105969  -0.0001935006   0.0000012113  -0.0000146299
        0.0181882289   0.0048948201   0.0000488935  -0.0630620631  -0.0389607078
        0.0026303386   0.4720492325  -0.0104082870   0.0142134867  -0.1769789060
        0.0856874567  -0.0081909735  -0.0621369733  -0.0024985317  -0.0048959985
        0.0061233460   0.0142744632   0.0059182273  -0.0081492381   0.0000790322
        0.0019818663   0.0031981674   0.0017521862   0.0006766646   0.0033172150
        0.0016957584   0.0000396750  -0.0024108794   0.0018631757   0.0008466765
        0.0000059272  -0.0015014028   0.0001738377  -0.0007818474   0.0000402767
        0.0002100817   0.0003821237  -0.0002611059   0.0000043378  -0.0003294904
        0.0006763928  -0.0003474511   0.0013890538   0.0003176832  -0.0002579419
       -0.0000540068  -0.0029713764  -0.0010391273  -0.0010641865   0.0010671634
       -0.0002947118  -0.0004685676  -0.0006093286  -0.0002929323   0.0000609825
        0.0004542805   0.0000431336   0.0002106170  -0.0007357102   0.0003042385
        0.0011268131   0.0007943869   0.0005091985  -0.0063552131  -0.0066696492
       -0.0018669308   0.0118064784  -0.0060875111  -0.0038118989   0.0006095551
        0.0356123795  -0.0024960030  -0.0017604368   0.0055411427   0.0003145274
       -0.0129636934  -0.0407260174  -0.0030581322  -0.1366195471  -0.0397802234
        0.0001371963  -0.0457458133  -0.0034428968  -0.0017790035   0.0005899539
       -0.0022198842  -0.0000229198   0.0024978765   0.0012700259  -0.0001679659
       -0.0046694544   0.0019657759   0.0006024378   0.0035722264  -0.0014650696
       -0.0003578889  -0.0000073894   0.0005087927   0.0002534960  -0.0001794494
        0.0001581649   0.0002156902  -0.0001773150  -0.0002136743   0.0002495618
       -0.0000197478   0.0002048908  -0.0000755464   0.0001590792  -0.0001623724
       -0.0001533795   0.0002213174   0.0000553259  -0.0001635282  -0.0003481946
       -0.0002718984  -0.0002821973  -0.0003060240   0.0000335053  -0.0001436801
        0.0000168682   0.0002931681  -0.0002599194  -0.0001044426  -0.0001988138
        0.0001427754   0.0001986880  -0.0000187894   0.0000964383   0.0001729416
       -0.0002468760   0.0001172628  -0.0006953725  -0.0036386379  -0.0007827491
       -0.0004753452   0.0030990939   0.0015150681   0.0000065135   0.0001218950
       -0.0003498909   0.0000772868  -0.0001365769   0.0004907479  -0.0000425594
        0.0001376534   0.0000454216   0.0000023698   0.0000436388   0.0000500481
        0.0000270793  -0.0000049030   0.0000065433  -0.0000257048  -0.0000101509
       -0.0000309367  -0.0000392906   0.0000591899  -0.0000837070   0.0000270268
       -0.0001239130  -0.0000345824   0.0000430292  -0.0000438302  -0.0000306302
        0.0000095121   0.0000267733   0.0000201009  -0.0000314362  -0.0000099437
        0.0000397479  -0.0000082297  -0.0000687215   0.0000982697  -0.0002829603
        0.0000928471  -0.0004761171   0.0002412818   0.0002396667  -0.0004039801
       -0.0002631307   0.0000596460  -0.0000408543  -0.0002754064   0.0001157813
        0.0004245607   0.0001504017  -0.0000875564  -0.0000933966   0.0000066814
        0.0000343032  -0.0000335632   0.0000055476  -0.0000377893  -0.0000342373
       -0.0000399104  -0.0000436974  -0.0000027172   0.0000075640  -0.0000347229
        0.0000347151   0.0000347222   0.0000228437  -0.0000450835  -0.0000061310
        0.0000428402   0.0000335959   0.0000762810   0.0000050191   0.0000205082
        0.0000464425   0.0000210399   0.0000014911   0.0000328261   0.0000003154
       -0.0000324279  -0.0000450914   0.0000091904   0.0000672227  -0.0003305643
        0.0001972865  -0.0000791142   0.0005627552   0.0001212984  -0.0000659654
       -0.0114964729  -0.1084510152   0.0158070036  -0.0115555790  -0.2261288251
        0.0328171984  -0.0104082870   0.5868998351  -0.0330320826   0.0671125988
       -0.0333802459   0.0052975856   0.0010343505   0.0111728541  -0.0081222568
       -0.0018903027  -0.0022166172   0.0005963310   0.0016174869  -0.0003769979
        0.0001695565  -0.0034586093  -0.0013941960  -0.0003137640   0.0037017768
        0.0012987435   0.0007611485  -0.0008560553   0.0006579360   0.0007138477
        0.0005955980  -0.0003464455   0.0000117762  -0.0003047142   0.0002138353
       -0.0001340620   0.0001056094  -0.0000500605  -0.0000497584  -0.0003013458
        0.0000579683   0.0000553228   0.0003204159  -0.0002506743  -0.0000440806
       -0.0000284239  -0.0009392827  -0.0008477417   0.0000129121   0.0005253057
        0.0000931524  -0.0001340518  -0.0003273208  -0.0000019317   0.0000254506
        0.0001275358   0.0000153722  -0.0000329191  -0.0001097518   0.0000032855
       -0.0000479157   0.0003258279  -0.0000336769  -0.0000697557   0.0011317311
        0.0006001328  -0.0029478495  -0.0007214015   0.0005426396   0.0132969369
       -0.1340111517  -0.0060939962  -0.0071051386   0.0278456078   0.0062888764
        0.0002415363  -0.1173828627  -0.0155826513  -0.0501132428  -0.0112161438
        0.0068205372   0.0157582231   0.0042391760  -0.0053216431  -0.0039091781
        0.0070011557   0.0024022857   0.0058332795   0.0007524709   0.0008735932
       -0.0002858784  -0.0008248485  -0.0007459216  -0.0063311545   0.0026313388
        0.0007130062  -0.0000661948  -0.0050957623  -0.0004669971  -0.0013686868
        0.0014810728   0.0004326941  -0.0000077457  -0.0008962083   0.0006777108
       -0.0001418307   0.0007282778  -0.0001090864   0.0006926017  -0.0010645461
       -0.0000205903   0.0011859601   0.0016803548  -0.0009947419   0.0036359179
        0.0034894600   0.0002358520  -0.0020512923  -0.0000635563  -0.0000728323
        0.0003878351   0.0007889913  -0.0007263022  -0.0005952311  -0.0003187567
        0.0001014625   0.0013342940   0.0002476692  -0.0000748346  -0.0001498468
       -0.0020104654   0.0009678534   0.0029383128  -0.0029857233  -0.0007482334
       -0.0036087793  -0.0029538232  -0.0017278868  -0.0011927338   0.0002617100
        0.0002657750  -0.0000060088   0.0001064691  -0.0003666144   0.0001172539
       -0.0000595927  -0.0002173999   0.0000295055  -0.0000580291  -0.0000570190
       -0.0001217556   0.0000434765  -0.0000109582   0.0000220210  -0.0000007250
        0.0000358264   0.0000177243  -0.0002735773   0.0002143644   0.0004171124
        0.0000688140   0.0003063735   0.0000059267   0.0001331727   0.0000222153
        0.0001289358  -0.0001599930  -0.0000848852   0.0000596864  -0.0000076401
       -0.0000724197  -0.0000625705   0.0001715337  -0.0002558597  -0.0001978311
        0.0001182291   0.0001898081  -0.0000476965  -0.0000927656   0.0001794113
        0.0004181387   0.0008111849  -0.0027020624   0.0004976628  -0.0000562738
        0.0005157432  -0.0001806893  -0.0000399540   0.0004953952   0.0001368297
       -0.0001041555   0.0001785179   0.0000214415   0.0000517428  -0.0000346008
        0.0000969871  -0.0000057472   0.0000249760  -0.0001270884   0.0000517496
       -0.0001578104  -0.0004246910  -0.0003777944   0.0001922353   0.0000720423
       -0.0001478561  -0.0001817675  -0.0002518677   0.0000002693  -0.0000561011
       -0.0001163003  -0.0000393060  -0.0000010772  -0.0000511719   0.0001255043
        0.0001193847   0.0000613701   0.0002395270  -0.0002397360   0.0002923423
       -0.0001013305  -0.0002663307  -0.0001791903  -0.0004391077   0.0002314633
        0.0024031215   0.0190941052   0.0077648246  -0.0001251990   0.0243270784
       -0.0420450674   0.0142134867  -0.0330320826   0.0932103479  -0.0105430374
       -0.0049135486  -0.0456287160  -0.0006858238   0.0023356442   0.0059912601
       -0.0006494372  -0.0007295477  -0.0009514142   0.0006501401   0.0001390327
        0.0000567754  -0.0005270431  -0.0001617312   0.0000464169   0.0002908455
        0.0001983707  -0.0000207031  -0.0000662515   0.0000265260   0.0000354135
       -0.0000335889  -0.0000543797   0.0000111556  -0.0000257019  -0.0000236641
        0.0000273707   0.0000182296  -0.0000074973   0.0000051760   0.0000102262
        0.0000232948  -0.0000168403   0.0000415294   0.0000464284  -0.0000045789