      -----------------------------------------------------------      
     |                   =====================                   |     
     |                           x T B                           |     
     |                   =====================                   |     
     |                         S. Grimme                         |     
     |          Mulliken Center for Theoretical Chemistry        |     
     |                    University of Bonn                     |     
      -----------------------------------------------------------      

   * xtb version 6.7.1 (edcfbbe) compiled by 'albert@albert-system' on 2024-07-22

   xtb is free software: you can redistribute it and/or modify it under
   the terms of the GNU Lesser General Public License as published by
   the Free Software Foundation, either version 3 of the License, or
   (at your option) any later version.
   
   xtb is distributed in the hope that it will be useful,
   but WITHOUT ANY WARRANTY; without even the implied warranty of
   MERCHANTABILITY or FITNESS FOR A PARTICULAR PURPOSE.  See the
   GNU Lesser General Public License for more details.
   
   Cite this work as:
   * C. Bannwarth, E. Caldeweyher, S. Ehlert, A. Hansen, P. Pracht,
     J. Seibert, S. Spicher, S. Grimme, WIREs Comput. Mol. Sci., 2020, 11,
     e01493. DOI: 10.1002/wcms.1493
   
   for GFN2-xTB:
   * C. Bannwarth, S. Ehlert and S. Grimme., J. Chem. Theory Comput., 2019,
     15, 1652-1671. DOI: 10.1021/acs.jctc.8b01176
   for GFN1-xTB:
   * S. Grimme, C. Bannwarth, P. Shushkov, J. Chem. Theory Comput., 2017,
     13, 1989-2009. DOI: 10.1021/acs.jctc.7b00118
   for GFN0-xTB:
   * P. Pracht, E. Caldeweyher, S. Ehlert, S. Grimme, ChemRxiv, 2019, preprint.
     DOI: 10.26434/chemrxiv.8326202.v1
   for GFN-FF:
   * S. Spicher and S. Grimme, Angew. Chem. Int. Ed., 2020, 59, 15665-15673.
     DOI: 10.1002/anie.202004239
   
   for ALPB and GBSA implicit solvation:
   * S. Ehlert, M. Stahn, S. Spicher, S. Grimme, J. Chem. Theory Comput.,
     2021, 17, 4250-4261. DOI: 10.1021/acs.jctc.1c00471
   
   for ddCOSMO and CPCM-X implicit solvation:
   * M. Stahn, S. Ehlert, S. Grimme, J. Phys. Chem. A,
     2023, XX, XXXX-XXXX. DOI: 10.1021/acs.jpca.3c04382
   
   for DFT-D4:
   * E. Caldeweyher, C. Bannwarth and S. Grimme, J. Chem. Phys., 2017,
     147, 034112. DOI: 10.1063/1.4993215
   * E. Caldeweyher, S. Ehlert, A. Hansen, H. Neugebauer, S. Spicher,
     C. Bannwarth and S. Grimme, J. Chem. Phys., 2019, 150, 154122.
     DOI: 10.1063/1.5090222
   * E. Caldeweyher, J.-M. Mewes, S. Ehlert and S. Grimme, Phys. Chem. Chem. Phys.
     2020, 22, 8499-8512. DOI: 10.1039/D0CP00502A
   
   for sTDA-xTB:
   * S. Grimme and C. Bannwarth, J. Chem. Phys., 2016, 145, 054103.
     DOI: 10.1063/1.4959605
   
   in the mass-spec context:
   * V. Asgeirsson, C. Bauer and S. Grimme, Chem. Sci., 2017, 8, 4879.
     DOI: 10.1039/c7sc00601b
   * J. Koopman and S. Grimme, ACS Omega 2019, 4, 12, 15120-15133.
     DOI: 10.1021/acsomega.9b02011
   
   for metadynamics refer to:
   * S. Grimme, J. Chem. Theory Comput., 2019, 155, 2847-2862
     DOI: 10.1021/acs.jctc.9b00143
   
   for SPH calculations refer to:
   * S. Spicher and S. Grimme, J. Chem. Theory Comput., 2021, 17, 1701-1714
     DOI: 10.1021/acs.jctc.0c01306
   
   for ONIOM refer to:
   * C. Plett, A. Katbashev, S. Ehlert, S. Grimme, M. Bursch,
     Phys. Chem. Chem. Phys., 2023, 25, 17860-17868. DOI: 10.1039/D3CP02178E
   
   for DIPRO refer to:
   * J. Kohn, N. Gildemeister, S. Grimme, D. Fazzi, A. Hansen,
     J. Chem. Phys., 2023, just accepted.
   
   for PTB refer to:
   * S. Grimme, M. Mueller, A. Hansen, J. Chem. Phys., 2023, 158, 124111.
     DOI: 10.1063/5.0137838
   
   with help from (in alphabetical order)
   P. Atkinson, C. Bannwarth, F. Bohle, G. Brandenburg, E. Caldeweyher
   M. Checinski, S. Dohm, S. Ehlert, S. Ehrlich, I. Gerasimov, C. Hölzer
   A. Katbashev, J. Kohn, J. Koopman, C. Lavigne, S. Lehtola, F. März, M. Müller,
   F. Musil, H. Neugebauer, J. Pisarek, C. Plett, P. Pracht, F. Pultar,
   J. Seibert, P. Shushkov, S. Spicher, M. Stahn, M. Steiner, T. Strunk,
   J. Stückrath, T. Rose, and J. Unsleber
   
 * started run on 2025/09/14 at 11:28:38.884     
   ID    Z sym.   atoms
    1    7 N      1, 9, 24, 26, 32
    2    6 C      2-8, 10-23, 25, 27-31, 33-46
    3    1 H      47-75

           -------------------------------------------------
          |                Calculation Setup                |
           -------------------------------------------------

          program call               : xtb data2507/toluene/TPAPm/TPAPm.xyz --gfn 2 --gbsa toluene --ohess vtight --parallel 40 --molden --ceasefiles --namespace data2507/toluene/TPAPm/TPAPm_toluene_S0_preOpt
          calculation namespace      : data2507/toluene/TPAPm/TPAPm_toluene_S0_preOpt
          coordinate file            : data2507/toluene/TPAPm/TPAPm.xyz
          omp threads                :                    40


           -------------------------------------------------
          |                 G F N 2 - x T B                 |
           -------------------------------------------------

        Reference                      10.1021/acs.jctc.8b01176
      * Hamiltonian:
        H0-scaling (s, p, d)           1.850000    2.230000    2.230000
        zeta-weighting                 0.500000
      * Dispersion:
        s8                             2.700000
        a1                             0.520000
        a2                             5.000000
        s9                             5.000000
      * Repulsion:
        kExp                           1.500000    1.000000
        rExp                           1.000000
      * Coulomb:
        alpha                          2.000000
        third order                    shell-resolved
        anisotropic                    true
        a3                             3.000000
        a5                             4.000000
        cn-shift                       1.200000
        cn-exp                         4.000000
        max-rad                        5.000000

      * Solvation model:               GBSA
        Solvent                        toluene
        Parameter file                 internal GFN2-xTB/GBSA
        Dielectric constant                7.0000E+00
        Reference state                gsolv [1 M gas/solution]
        Free energy shift                  4.5239E-03 Eh       2.8388E+00 kcal/mol
        Temperature                        2.9815E+02 K
        Density                            8.6700E-01 kg/L
        Solvent mass                       9.2140E+01 g/mol
        Interaction kernel             Still
        Born radius scaling (c1)           1.5686E+00
        Born radii integrator          GBOBC
        Born offset                        0.0000E+00 a0       0.0000E+00 AA
        H-bond correction              false
        Ion screening                  false
        Surface tension                    1.0000E-05 Eh       1.5569E+01 dyn/cm
        Grid points                               230 per atom

          ...................................................
          :                      SETUP                      :
          :.................................................:
          :  # basis functions                 213          :
          :  # atomic orbitals                 213          :
          :  # shells                          121          :
          :  # electrons                       218          :
          :  max. iterations                   250          :
          :  Hamiltonian                  GFN2-xTB          :
          :  restarted?                      false          :
          :  GBSA solvation                   true          :
          :  PC potential                    false          :
          :  electronic temp.          300.0000000     K    :
          :  accuracy                    1.0000000          :
          :  -> integral cutoff          0.2500000E+02      :
          :  -> integral neglect         0.1000000E-07      :
          :  -> SCF convergence          0.1000000E-05 Eh   :
          :  -> wf. convergence          0.1000000E-03 e    :
          :  Broyden damping             0.4000000          :
          :  net charge                          0          :
          :  unpaired electrons                  0          :
          ...................................................

 iter      E             dE          RMSdq      gap      omega  full diag
   1   -119.1425714 -0.119143E+03  0.442E+00    1.79       0.0  T
   2   -119.1870097 -0.444382E-01  0.273E+00    2.11       1.0  T
   3   -119.0764167  0.110593E+00  0.144E+00    1.24       1.0  T
   4   -119.2053785 -0.128962E+00  0.390E-01    1.56       1.0  T
   5   -119.2120879 -0.670937E-02  0.136E-01    1.52       1.0  T
   6   -119.2127484 -0.660552E-03  0.487E-02    1.53       1.0  T
   7   -119.2128198 -0.713453E-04  0.197E-02    1.53       1.0  T
   8   -119.2128249 -0.514716E-05  0.592E-03    1.54       1.9  T
   9   -119.2128254 -0.492453E-06  0.264E-03    1.54       4.4  T
  10   -119.2128256 -0.165443E-06  0.936E-04    1.54      12.3  T
  11   -119.2128256 -0.621481E-07  0.289E-04    1.54      40.0  T

   *** convergence criteria satisfied after 11 iterations ***

         #    Occupation            Energy/Eh            Energy/eV
      -------------------------------------------------------------
         1        2.0000           -0.7017402             -19.0953
       ...           ...                  ...                  ...
       103        2.0000           -0.4055095             -11.0345
       104        2.0000           -0.4055091             -11.0345
       105        2.0000           -0.4042204             -10.9994
       106        2.0000           -0.4042048             -10.9990
       107        2.0000           -0.3895113             -10.5991
       108        2.0000           -0.3578817              -9.7385
       109        2.0000           -0.3576647              -9.7326 (HOMO)
       110                         -0.3009864              -8.1903 (LUMO)
       111                         -0.2962225              -8.0606
       112                         -0.2442813              -6.6472
       113                         -0.2433070              -6.6207
       114                         -0.2422865              -6.5930
       ...                                ...                  ...
       213                          1.0695523              29.1040
      -------------------------------------------------------------
                  HL-Gap            0.0566782 Eh            1.5423 eV
             Fermi-level           -0.3290651 Eh           -8.9543 eV

 SCC (total)                   0 d,  0 h,  0 min,  0.147 sec
 SCC setup                      ...        0 min,  0.007 sec (  5.004%)
 Dispersion                     ...        0 min,  0.003 sec (  1.859%)
 classical contributions        ...        0 min,  0.000 sec (  0.090%)
 integral evaluation            ...        0 min,  0.007 sec (  4.756%)
 iterations                     ...        0 min,  0.118 sec ( 80.064%)
 molecular gradient             ...        0 min,  0.011 sec (  7.396%)
 printout                       ...        0 min,  0.001 sec (  0.755%)

         :::::::::::::::::::::::::::::::::::::::::::::::::::::
         ::                     SUMMARY                     ::
         :::::::::::::::::::::::::::::::::::::::::::::::::::::
         :: total energy            -117.189735397811 Eh    ::
         :: total w/o Gsasa/hb      -117.139644901649 Eh    ::
         :: gradient norm              0.100526160371 Eh/a0 ::
         :: HOMO-LUMO gap              1.542293017948 eV    ::
         ::.................................................::
         :: SCC energy              -119.212841087230 Eh    ::
         :: -> isotropic ES            0.037594580735 Eh    ::
         :: -> anisotropic ES          0.014243277064 Eh    ::
         :: -> anisotropic XC          0.095967352605 Eh    ::
         :: -> dispersion             -0.098612109717 Eh    ::
         :: -> Gsolv                  -0.054053616967 Eh    ::
         ::    -> Gelec               -0.003963120805 Eh    ::
         ::    -> Gsasa               -0.054614376033 Eh    ::
         ::    -> Ghb                  0.000000000000 Eh    ::
         ::    -> Gshift               0.004523879872 Eh    ::
         :: repulsion energy           2.023105689419 Eh    ::
         :: add. restraining           0.000000000000 Eh    ::
         :: total charge               0.000000000000 e     ::
         :::::::::::::::::::::::::::::::::::::::::::::::::::::

      ----------------------------------------------------------- 
     |                   =====================                   |
     |                        A N C O P T                        |
     |                   =====================                   |
     |               Approximate Normal Coordinate               |
     |                Rational Function Optimizer                |
      ----------------------------------------------------------- 

Optimization log is written to '/dev/null'
      ----------------------------------------------------------- 
     |                   =====================                   |
     |                        A N C O P T                        |
     |                   =====================                   |
     |               Approximate Normal Coordinate               |
     |                Rational Function Optimizer                |
      ----------------------------------------------------------- 

          ...................................................
          :                      SETUP                      :
          :.................................................:
          :   optimization level         verytight          :
          :   max. optcycles                  1500          :
          :   ANC micro-cycles                  20          :
          :   degrees of freedom               219          :
          :.................................................:
          :   RF solver                   davidson          :
          :   write xtbopt.log                true          :
          :   linear?                        false          :
          :   energy convergence         0.1000000E-06 Eh   :
          :   grad. convergence          0.2000000E-03 Eh/α :
          :   maxmium RF displ.          1.0000000          :
          :   Hlow (freq-cutoff)         0.1000000E-01      :
          :   Hmax (freq-cutoff)         5.0000000          :
          :   S6 in model hess.         20.0000000          :
          ...................................................

generating ANC from exact Hessian ...
Using Lindh-Hessian (1995)
 Shifting diagonal of input Hessian by   9.929278199658222E-003
 Lowest  eigenvalues of input Hessian
    0.000000    0.000000    0.000000    0.000000    0.000000    0.000000
    0.010000    0.010022    0.010025    0.010184    0.010586    0.010612
    0.010664    0.011063    0.011078    0.011149    0.011168    0.011265
 Highest eigenvalues
    2.002022    2.002322    2.016976    2.017377    2.121758    2.552203
 

........................................................................
.............................. CYCLE    1 ..............................
........................................................................

 iter      E             dE          RMSdq      gap      omega  full diag
   1   -119.2128256 -0.119213E+03  0.158E-04    1.54       0.0  T
   2   -119.2128256 -0.443990E-09  0.101E-04    1.54     114.0  T
   3   -119.2128256 -0.368090E-09  0.649E-05    1.54     178.0  T
     SCC iter.                  ...        0 min,  0.030 sec
     gradient                   ...        0 min,  0.010 sec
 * total energy  :  -117.1897354 Eh     change       -0.1777792E-08 Eh
   gradient norm :     0.1005250 Eh/α   predicted     0.0000000E+00 (-100.00%)
   displ. norm   :     0.4339377 α      lambda       -0.2175993E-01
   maximum displ.:     0.1641483 α      in ANC's #114, #26, #38, ...

........................................................................
.............................. CYCLE    2 ..............................
........................................................................

 iter      E             dE          RMSdq      gap      omega  full diag
   1   -119.3267304 -0.119327E+03  0.158E-01    1.51       0.0  T
   2   -119.3270477 -0.317335E-03  0.109E-01    1.58       1.0  T
   3   -119.3271199 -0.722334E-04  0.582E-02    1.56       1.0  T
   4   -119.3271809 -0.609612E-04  0.179E-02    1.58       1.0  T
   5   -119.3271967 -0.157852E-04  0.666E-03    1.58       1.7  T
   6   -119.3271990 -0.234827E-05  0.184E-03    1.58       6.3  T
   7   -119.3271991 -0.302170E-07  0.978E-04    1.58      11.8  T
   8   -119.3271991 -0.319830E-07  0.431E-04    1.58      26.8  T
     SCC iter.                  ...        0 min,  0.069 sec
     gradient                   ...        0 min,  0.010 sec
 * total energy  :  -117.2053702 Eh     change       -0.1563483E-01 Eh
   gradient norm :     0.0436453 Eh/α   predicted    -0.1294877E-01 ( -17.18%)
   displ. norm   :     0.4996459 α      lambda       -0.9520802E-02
   maximum displ.:     0.1913768 α      in ANC's #26, #21, #20, ...

........................................................................
.............................. CYCLE    3 ..............................
........................................................................

 iter      E             dE          RMSdq      gap      omega  full diag
   1   -119.3867383 -0.119387E+03  0.129E-01    1.48       0.0  T
   2   -119.3871456 -0.407234E-03  0.996E-02    1.56       1.0  T
   3   -119.3873236 -0.177990E-03  0.528E-02    1.55       1.0  T
   4   -119.3873166  0.698976E-05  0.253E-02    1.56       1.0  T
   5   -119.3873417 -0.251668E-04  0.911E-03    1.56       1.3  T
   6   -119.3873466 -0.489021E-05  0.168E-03    1.56       6.9  T
   7   -119.3873466 -0.123024E-07  0.868E-04    1.56      13.3  T
   8   -119.3873467 -0.263687E-07  0.425E-04    1.56      27.1  T
     SCC iter.                  ...        0 min,  0.068 sec
     gradient                   ...        0 min,  0.010 sec
 * total energy  :  -117.2115939 Eh     change       -0.6223679E-02 Eh
   gradient norm :     0.0118620 Eh/α   predicted    -0.5953471E-02 (  -4.34%)
   displ. norm   :     0.4442225 α      lambda       -0.3056084E-02
   maximum displ.:     0.2303290 α      in ANC's #17, #21, #20, ...

........................................................................
.............................. CYCLE    4 ..............................
........................................................................

 iter      E             dE          RMSdq      gap      omega  full diag
   1   -119.4020991 -0.119402E+03  0.997E-02    1.52       0.0  T
   2   -119.4022145 -0.115438E-03  0.680E-02    1.57       1.0  T
   3   -119.4022253 -0.107574E-04  0.365E-02    1.56       1.0  T
   4   -119.4022655 -0.401541E-04  0.118E-02    1.57       1.0  T
   5   -119.4022728 -0.731709E-05  0.481E-03    1.57       2.4  T
   6   -119.4022742 -0.138274E-05  0.912E-04    1.57      12.7  T
   7   -119.4022742 -0.161222E-08  0.505E-04    1.57      22.9  T
   8   -119.4022742 -0.763438E-08  0.231E-04    1.57      50.1  T
     SCC iter.                  ...        0 min,  0.070 sec
     gradient                   ...        0 min,  0.010 sec
 * total energy  :  -117.2139415 Eh     change       -0.2347624E-02 Eh
   gradient norm :     0.0124884 Eh/α   predicted    -0.1829595E-02 ( -22.07%)
   displ. norm   :     0.5583475 α      lambda       -0.2550491E-02
   maximum displ.:     0.3680585 α      in ANC's #17, #21, #20, ...

........................................................................
.............................. CYCLE    5 ..............................
........................................................................

 iter      E             dE          RMSdq      gap      omega  full diag
   1   -119.4052130 -0.119405E+03  0.137E-01    1.55       0.0  T
   2   -119.4052770 -0.639486E-04  0.832E-02    1.60       1.0  T
   3   -119.4051649  0.112084E-03  0.425E-02    1.58       1.0  T
   4   -119.4053047 -0.139868E-03  0.808E-03    1.60       1.4  T
   5   -119.4053088 -0.401281E-05  0.415E-03    1.60       2.8  T
   6   -119.4053097 -0.978196E-06  0.968E-04    1.60      11.9  T
   7   -119.4053097 -0.333293E-08  0.473E-04    1.60      24.4  T
     SCC iter.                  ...        0 min,  0.060 sec
     gradient                   ...        0 min,  0.010 sec
 * total energy  :  -117.2158992 Eh     change       -0.1957628E-02 Eh
   gradient norm :     0.0104413 Eh/α   predicted    -0.1672808E-02 ( -14.55%)
   displ. norm   :     0.5093094 α      lambda       -0.1603630E-02
   maximum displ.:     0.3855410 α      in ANC's #17, #21, #20, ...

........................................................................
.............................. CYCLE    6 ..............................
........................................................................

 iter      E             dE          RMSdq      gap      omega  full diag
   1   -119.4057443 -0.119406E+03  0.134E-01    1.60       0.0  T
   2   -119.4057698 -0.255524E-04  0.784E-02    1.63       1.0  T
   3   -119.4057104  0.593958E-04  0.289E-02    1.62       1.0  T
   4   -119.4057785 -0.680136E-04  0.459E-03    1.64       2.5  T
   5   -119.4057796 -0.115535E-05  0.286E-03    1.63       4.0  T
   6   -119.4057801 -0.435173E-06  0.825E-04    1.63      14.0  T
   7   -119.4057801 -0.291567E-08  0.352E-04    1.63      32.8  T
     SCC iter.                  ...        0 min,  0.060 sec
     gradient                   ...        0 min,  0.010 sec
 * total energy  :  -117.2171263 Eh     change       -0.1227093E-02 Eh
   gradient norm :     0.0075423 Eh/α   predicted    -0.1009817E-02 ( -17.71%)
   displ. norm   :     0.3707845 α      lambda       -0.9072783E-03
   maximum displ.:     0.3030970 α      in ANC's #17, #21, #7, ...

........................................................................
.............................. CYCLE    7 ..............................
........................................................................

 iter      E             dE          RMSdq      gap      omega  full diag
   1   -119.4081010 -0.119408E+03  0.102E-01    1.64       0.0  T
   2   -119.4081093 -0.828746E-05  0.597E-02    1.66       1.0  T
   3   -119.4080958  0.134922E-04  0.152E-02    1.66       1.0  T
   4   -119.4081118 -0.160033E-04  0.218E-03    1.66       5.3  T
   5   -119.4081120 -0.150421E-06  0.162E-03    1.66       7.1  T
   6   -119.4081121 -0.134043E-06  0.538E-04    1.66      21.5  T
   7   -119.4081121 -0.140896E-08  0.189E-04    1.66      61.0  T
     SCC iter.                  ...        0 min,  0.061 sec
     gradient                   ...        0 min,  0.010 sec
 * total energy  :  -117.2178607 Eh     change       -0.7344388E-03 Eh
   gradient norm :     0.0060724 Eh/α   predicted    -0.5160217E-03 ( -29.74%)
   displ. norm   :     0.3291673 α      lambda       -0.7131285E-03
   maximum displ.:     0.2743684 α      in ANC's #17, #11, #7, ...

........................................................................
.............................. CYCLE    8 ..............................
........................................................................

 iter      E             dE          RMSdq      gap      omega  full diag
   1   -119.4110002 -0.119411E+03  0.914E-02    1.67       0.0  T
   2   -119.4110056 -0.547139E-05  0.533E-02    1.68       1.0  T
   3   -119.4109963  0.934023E-05  0.128E-02    1.68       1.0  T
   4   -119.4110077 -0.114068E-04  0.157E-03    1.68       7.4  T
   5   -119.4110077 -0.360468E-07  0.105E-03    1.68      11.0  T
   6   -119.4110078 -0.416602E-07  0.454E-04    1.68      25.4  T
   7   -119.4110078 -0.531995E-08  0.157E-04    1.68      73.3  T
     SCC iter.                  ...        0 min,  0.061 sec
     gradient                   ...        0 min,  0.010 sec
 * total energy  :  -117.2184507 Eh     change       -0.5900378E-03 Eh
   gradient norm :     0.0053523 Eh/α   predicted    -0.3952352E-03 ( -33.02%)
   displ. norm   :     0.3461141 α      lambda       -0.6159630E-03
   maximum displ.:     0.2820826 α      in ANC's #17, #11, #7, ...

........................................................................
.............................. CYCLE    9 ..............................
........................................................................

 iter      E             dE          RMSdq      gap      omega  full diag
   1   -119.4123105 -0.119412E+03  0.961E-02    1.68       0.0  T
   2   -119.4123164 -0.592758E-05  0.561E-02    1.69       1.0  T
   3   -119.4122989  0.175573E-04  0.155E-02    1.69       1.0  T
   4   -119.4123194 -0.204978E-04  0.209E-03    1.70       5.5  T
   5   -119.4123195 -0.163366E-06  0.146E-03    1.70       7.9  T
   6   -119.4123196 -0.945186E-07  0.489E-04    1.70      23.6  T
   7   -119.4123196 -0.219650E-08  0.194E-04    1.70      59.4  T
     SCC iter.                  ...        0 min,  0.060 sec
     gradient                   ...        0 min,  0.010 sec
 * total energy  :  -117.2189497 Eh     change       -0.4989989E-03 Eh
   gradient norm :     0.0042327 Eh/α   predicted    -0.3448764E-03 ( -30.89%)
   displ. norm   :     0.3562109 α      lambda       -0.4811077E-03
   maximum displ.:     0.2784724 α      in ANC's #17, #11, #20, ...

........................................................................
.............................. CYCLE   10 ..............................
........................................................................

 iter      E             dE          RMSdq      gap      omega  full diag
   1   -119.4112931 -0.119411E+03  0.958E-02    1.69       0.0  T
   2   -119.4113023 -0.918839E-05  0.561E-02    1.71       1.0  T
   3   -119.4112731  0.291672E-04  0.192E-02    1.70       1.0  T
   4   -119.4113070 -0.338354E-04  0.276E-03    1.71       4.2  T
   5   -119.4113073 -0.368132E-06  0.175E-03    1.71       6.6  T
   6   -119.4113075 -0.145255E-06  0.566E-04    1.71      20.4  T
   7   -119.4113075 -0.181377E-08  0.227E-04    1.71      50.8  T
     SCC iter.                  ...        0 min,  0.060 sec
     gradient                   ...        0 min,  0.010 sec
 * total energy  :  -117.2193184 Eh     change       -0.3687085E-03 Eh
   gradient norm :     0.0031332 Eh/α   predicted    -0.2710772E-03 ( -26.48%)
   displ. norm   :     0.3379770 α      lambda       -0.3150414E-03
   maximum displ.:     0.2517156 α      in ANC's #17, #20, #11, ...

........................................................................
.............................. CYCLE   11 ..............................
........................................................................

 iter      E             dE          RMSdq      gap      omega  full diag
   1   -119.4097831 -0.119410E+03  0.930E-02    1.70       0.0  T
   2   -119.4097911 -0.802584E-05  0.545E-02    1.72       1.0  T
   3   -119.4097621  0.290727E-04  0.187E-02    1.71       1.0  T
   4   -119.4097952 -0.331676E-04  0.312E-03    1.72       3.7  T
   5   -119.4097958 -0.572651E-06  0.170E-03    1.72       6.8  T
   6   -119.4097959 -0.122921E-06  0.561E-04    1.72      20.6  T
   7   -119.4097959 -0.164981E-08  0.214E-04    1.72      54.0  T
     SCC iter.                  ...        0 min,  0.063 sec
     gradient                   ...        0 min,  0.010 sec
 * total energy  :  -117.2195365 Eh     change       -0.2180481E-03 Eh
   gradient norm :     0.0031423 Eh/α   predicted    -0.1755222E-03 ( -19.50%)
   displ. norm   :     0.2811465 α      lambda       -0.1712603E-03
   maximum displ.:     0.1948283 α      in ANC's #17, #13, #2, ...

........................................................................
.............................. CYCLE   12 ..............................
........................................................................

 iter      E             dE          RMSdq      gap      omega  full diag
   1   -119.4089341 -0.119409E+03  0.761E-02    1.71       0.0  T
   2   -119.4089401 -0.602998E-05  0.445E-02    1.72       1.0  T
   3   -119.4089220  0.180971E-04  0.152E-02    1.72       1.0  T
   4   -119.4089429 -0.208272E-04  0.252E-03    1.72       4.6  T
   5   -119.4089432 -0.334034E-06  0.145E-03    1.72       8.0  T
   6   -119.4089433 -0.966781E-07  0.460E-04    1.72      25.1  T
   7   -119.4089433 -0.126096E-08  0.185E-04    1.72      62.5  T
     SCC iter.                  ...        0 min,  0.061 sec
     gradient                   ...        0 min,  0.010 sec
 * total energy  :  -117.2196484 Eh     change       -0.1119251E-03 Eh
   gradient norm :     0.0026175 Eh/α   predicted    -0.9239949E-04 ( -17.45%)
   displ. norm   :     0.1853315 α      lambda       -0.9708589E-04
   maximum displ.:     0.0987450 α      in ANC's #13, #17, #2, ...

........................................................................
.............................. CYCLE   13 ..............................
........................................................................

 iter      E             dE          RMSdq      gap      omega  full diag
   1   -119.4098222 -0.119410E+03  0.508E-02    1.72       0.0  T
   2   -119.4098236 -0.138310E-05  0.296E-02    1.73       1.0  T
   3   -119.4098194  0.419569E-05  0.755E-03    1.72       1.5  T
   4   -119.4098242 -0.479233E-05  0.142E-03    1.73       8.1  T
   5   -119.4098243 -0.107057E-06  0.767E-04    1.73      15.1  T
   6   -119.4098243 -0.204649E-07  0.250E-04    1.73      46.2  T
     SCC iter.                  ...        0 min,  0.052 sec
     gradient                   ...        0 min,  0.010 sec
 * total energy  :  -117.2197261 Eh     change       -0.7773196E-04 Eh
   gradient norm :     0.0021472 Eh/α   predicted    -0.5021478E-04 ( -35.40%)
   displ. norm   :     0.2055779 α      lambda       -0.1164874E-03
   maximum displ.:     0.1226359 α      in ANC's #13, #2, #8, ...

........................................................................
.............................. CYCLE   14 ..............................
........................................................................

 iter      E             dE          RMSdq      gap      omega  full diag
   1   -119.4112987 -0.119411E+03  0.524E-02    1.73       0.0  T
   2   -119.4112997 -0.959516E-06  0.306E-02    1.73       1.0  T
   3   -119.4112971  0.253153E-05  0.634E-03    1.73       1.8  T
   4   -119.4113001 -0.292239E-05  0.116E-03    1.73       9.9  T
   5   -119.4113001 -0.628110E-07  0.646E-04    1.73      17.9  T
   6   -119.4113001 -0.143268E-07  0.198E-04    1.73      58.3  T
     SCC iter.                  ...        0 min,  0.052 sec
     gradient                   ...        0 min,  0.010 sec
 * total energy  :  -117.2198229 Eh     change       -0.9674738E-04 Eh
   gradient norm :     0.0019110 Eh/α   predicted    -0.6070654E-04 ( -37.25%)
   displ. norm   :     0.3991952 α      lambda       -0.1334601E-03
   maximum displ.:     0.2350967 α      in ANC's #13, #2, #8, ...

........................................................................
.............................. CYCLE   15 ..............................
........................................................................

 iter      E             dE          RMSdq      gap      omega  full diag
   1   -119.4114867 -0.119411E+03  0.978E-02    1.73       0.0  T
   2   -119.4114894 -0.262405E-05  0.572E-02    1.74       1.0  T
   3   -119.4114814  0.796701E-05  0.112E-02    1.74       1.0  T
   4   -119.4114905 -0.909605E-05  0.190E-03    1.74       6.1  T
   5   -119.4114907 -0.172233E-06  0.104E-03    1.74      11.1  T
   6   -119.4114907 -0.373652E-07  0.345E-04    1.74      33.5  T
   7   -119.4114907 -0.505580E-09  0.124E-04    1.74      93.4  T
     SCC iter.                  ...        0 min,  0.061 sec
     gradient                   ...        0 min,  0.010 sec
 * total energy  :  -117.2199738 Eh     change       -0.1508722E-03 Eh
   gradient norm :     0.0029907 Eh/α   predicted    -0.7145730E-04 ( -52.64%)
   displ. norm   :     0.2461810 α      lambda       -0.1040215E-03
   maximum displ.:     0.1410888 α      in ANC's #13, #2, #8, ...

........................................................................
.............................. CYCLE   16 ..............................
........................................................................

 iter      E             dE          RMSdq      gap      omega  full diag
   1   -119.4110794 -0.119411E+03  0.590E-02    1.74       0.0  T
   2   -119.4110803 -0.894139E-06  0.346E-02    1.74       1.0  T
   3   -119.4110767  0.362609E-05  0.724E-03    1.74       1.6  T
   4   -119.4110807 -0.406908E-05  0.115E-03    1.74      10.0  T
   5   -119.4110808 -0.654139E-07  0.604E-04    1.74      19.1  T
   6   -119.4110808 -0.121766E-07  0.201E-04    1.74      57.6  T
     SCC iter.                  ...        0 min,  0.052 sec
     gradient                   ...        0 min,  0.010 sec
 * total energy  :  -117.2200643 Eh     change       -0.9057490E-04 Eh
   gradient norm :     0.0027936 Eh/α   predicted    -0.5516728E-04 ( -39.09%)
   displ. norm   :     0.3845243 α      lambda       -0.1471230E-03
   maximum displ.:     0.2154005 α      in ANC's #13, #2, #8, ...

........................................................................
.............................. CYCLE   17 ..............................
........................................................................

 iter      E             dE          RMSdq      gap      omega  full diag
   1   -119.4099450 -0.119410E+03  0.915E-02    1.74       0.0  T
   2   -119.4099469 -0.191349E-05  0.536E-02    1.75       1.0  T
   3   -119.4099408  0.607842E-05  0.953E-03    1.75       1.2  T
   4   -119.4099477 -0.692153E-05  0.158E-03    1.75       7.3  T
   5   -119.4099479 -0.119843E-06  0.921E-04    1.75      12.5  T
   6   -119.4099479 -0.306409E-07  0.303E-04    1.75      38.1  T
     SCC iter.                  ...        0 min,  0.052 sec
     gradient                   ...        0 min,  0.010 sec
 * total energy  :  -117.2201731 Eh     change       -0.1087538E-03 Eh
   gradient norm :     0.0021868 Eh/α   predicted    -0.8443845E-04 ( -22.36%)
   displ. norm   :     0.2898876 α      lambda       -0.7241679E-04
   maximum displ.:     0.1707615 α      in ANC's #2, #13, #8, ...

........................................................................
.............................. CYCLE   18 ..............................
........................................................................

 iter      E             dE          RMSdq      gap      omega  full diag
   1   -119.4095613 -0.119410E+03  0.669E-02    1.75       0.0  T
   2   -119.4095626 -0.134774E-05  0.392E-02    1.75       1.0  T
   3   -119.4095572  0.539483E-05  0.853E-03    1.75       1.4  T
   4   -119.4095633 -0.603793E-05  0.138E-03    1.76       8.4  T
   5   -119.4095634 -0.101603E-06  0.770E-04    1.75      15.0  T
   6   -119.4095634 -0.216688E-07  0.237E-04    1.75      48.7  T
     SCC iter.                  ...        0 min,  0.052 sec
     gradient                   ...        0 min,  0.010 sec
 * total energy  :  -117.2202217 Eh     change       -0.4864991E-04 Eh
   gradient norm :     0.0020049 Eh/α   predicted    -0.3925520E-04 ( -19.31%)
   displ. norm   :     0.1410177 α      lambda       -0.3156632E-04
   maximum displ.:     0.0934730 α      in ANC's #2, #13, #8, ...

........................................................................
.............................. CYCLE   19 ..............................
........................................................................

 iter      E             dE          RMSdq      gap      omega  full diag
   1   -119.4103762 -0.119410E+03  0.308E-02    1.76       0.0  T
   2   -119.4103765 -0.296346E-06  0.180E-02    1.76       1.0  T
   3   -119.4103762  0.307169E-06  0.254E-03    1.76       4.6  T
   4   -119.4103766 -0.415099E-06  0.503E-04    1.76      22.9  T
   5   -119.4103766 -0.190710E-08  0.358E-04    1.76      32.2  T
     SCC iter.                  ...        0 min,  0.043 sec
     gradient                   ...        0 min,  0.010 sec
 * total energy  :  -117.2202452 Eh     change       -0.2345061E-04 Eh
   gradient norm :     0.0012796 Eh/α   predicted    -0.1609874E-04 ( -31.35%)
   displ. norm   :     0.1289657 α      lambda       -0.2278452E-04
   maximum displ.:     0.0970610 α      in ANC's #2, #11, #7, ...

........................................................................
.............................. CYCLE   20 ..............................
........................................................................

 iter      E             dE          RMSdq      gap      omega  full diag
   1   -119.4118848 -0.119412E+03  0.272E-02    1.76       0.0  T
   2   -119.4118853 -0.502616E-06  0.156E-02    1.76       1.0  T
   3   -119.4118849  0.359188E-06  0.278E-03    1.76       4.2  T
   4   -119.4118855 -0.546562E-06  0.643E-04    1.76      18.0  T
   5   -119.4118855 -0.473429E-08  0.369E-04    1.76      31.3  T
     SCC iter.                  ...        0 min,  0.043 sec
     gradient                   ...        0 min,  0.010 sec
 * total energy  :  -117.2202715 Eh     change       -0.2635434E-04 Eh
   gradient norm :     0.0013758 Eh/α   predicted    -0.1147843E-04 ( -56.45%)
   displ. norm   :     0.1052033 α      lambda       -0.2105777E-04
   maximum displ.:     0.0813252 α      in ANC's #2, #11, #7, ...
 * RMSD in coord.:     0.5178006 α      energy gain  -0.3053615E-01 Eh

generating ANC from exact Hessian ...
Using Lindh-Hessian (1995)
 Shifting diagonal of input Hessian by   9.929886573824740E-003
 Lowest  eigenvalues of input Hessian
    0.000000    0.000000    0.000000    0.000000    0.000000    0.000000
    0.010000    0.010025    0.010035    0.010244    0.010630    0.010689
    0.010823    0.011258    0.011273    0.011439    0.011482    0.011539
 Highest eigenvalues
    2.145765    2.146152    2.175057    2.178966    2.259358    2.627917
 

........................................................................
.............................. CYCLE   21 ..............................
........................................................................

 iter      E             dE          RMSdq      gap      omega  full diag
   1   -119.4116777 -0.119412E+03  0.238E-02    1.76       0.0  T
   2   -119.4116781 -0.414699E-06  0.135E-02    1.76       1.0  T
   3   -119.4116781 -0.804349E-09  0.160E-03    1.76       7.2  T
   4   -119.4116782 -0.154702E-06  0.698E-04    1.76      16.5  T
   5   -119.4116782 -0.759466E-08  0.331E-04    1.76      34.9  T
     SCC iter.                  ...        0 min,  0.043 sec
     gradient                   ...        0 min,  0.010 sec
 * total energy  :  -117.2202973 Eh     change       -0.2574177E-04 Eh
   gradient norm :     0.0013730 Eh/α   predicted     0.0000000E+00 (-100.00%)
   displ. norm   :     0.0423168 α      lambda       -0.1200432E-04
   maximum displ.:     0.0290662 α      in ANC's #3, #1, #6, ...

........................................................................
.............................. CYCLE   22 ..............................
........................................................................

 iter      E             dE          RMSdq      gap      omega  full diag
   1   -119.4104585 -0.119410E+03  0.884E-03    1.76       0.0  T
   2   -119.4104586 -0.538713E-07  0.517E-03    1.76       2.2  T
   3   -119.4104584  0.151530E-06  0.160E-03    1.76       7.2  T
   4   -119.4104586 -0.175833E-06  0.316E-04    1.76      36.5  T
   5   -119.4104586 -0.481567E-08  0.147E-04    1.76      78.6  T
     SCC iter.                  ...        0 min,  0.043 sec
     gradient                   ...        0 min,  0.010 sec
 * total energy  :  -117.2203119 Eh     change       -0.1463562E-04 Eh
   gradient norm :     0.0004801 Eh/α   predicted    -0.6034918E-05 ( -58.77%)
   displ. norm   :     0.1062349 α      lambda       -0.2022729E-04
   maximum displ.:     0.0672966 α      in ANC's #3, #1, #6, ...

........................................................................
.............................. CYCLE   23 ..............................
........................................................................

 iter      E             dE          RMSdq      gap      omega  full diag
   1   -119.4096942 -0.119410E+03  0.222E-02    1.76       0.0  T
   2   -119.4096944 -0.249706E-06  0.128E-02    1.76       1.0  T
   3   -119.4096943  0.787343E-07  0.179E-03    1.76       6.5  T
   4   -119.4096945 -0.173105E-06  0.531E-04    1.76      21.8  T
   5   -119.4096945  0.589054E-09  0.302E-04    1.76      38.3  T
     SCC iter.                  ...        0 min,  0.043 sec
     gradient                   ...        0 min,  0.010 sec
 * total energy  :  -117.2203367 Eh     change       -0.2482698E-04 Eh
   gradient norm :     0.0013764 Eh/α   predicted    -0.1016493E-04 ( -59.06%)
   displ. norm   :     0.1655776 α      lambda       -0.2511265E-04
   maximum displ.:     0.1036454 α      in ANC's #3, #1, #6, ...

........................................................................
.............................. CYCLE   24 ..............................
........................................................................

 iter      E             dE          RMSdq      gap      omega  full diag
   1   -119.4097515 -0.119410E+03  0.341E-02    1.76       0.0  T
   2   -119.4097522 -0.635711E-06  0.197E-02    1.76       1.0  T
   3   -119.4097519  0.252824E-06  0.263E-03    1.76       4.4  T
   4   -119.4097524 -0.493982E-06  0.795E-04    1.76      14.5  T
   5   -119.4097524 -0.771848E-09  0.456E-04    1.76      25.3  T
     SCC iter.                  ...        0 min,  0.043 sec
     gradient                   ...        0 min,  0.010 sec
 * total energy  :  -117.2203677 Eh     change       -0.3096935E-04 Eh
   gradient norm :     0.0017411 Eh/α   predicted    -0.1280041E-04 ( -58.67%)
   displ. norm   :     0.1940999 α      lambda       -0.2670302E-04
   maximum displ.:     0.1231842 α      in ANC's #3, #1, #6, ...

........................................................................
.............................. CYCLE   25 ..............................
........................................................................

 iter      E             dE          RMSdq      gap      omega  full diag
   1   -119.4100134 -0.119410E+03  0.397E-02    1.76       0.0  T
   2   -119.4100143 -0.831630E-06  0.229E-02    1.76       1.0  T
   3   -119.4100139  0.352793E-06  0.308E-03    1.76       3.8  T
   4   -119.4100146 -0.662058E-06  0.100E-03    1.76      11.5  T
   5   -119.4100146 -0.360507E-08  0.603E-04    1.76      19.2  T
   6   -119.4100146 -0.186736E-07  0.151E-04    1.76      76.4  T
     SCC iter.                  ...        0 min,  0.055 sec
     gradient                   ...        0 min,  0.011 sec
 * total energy  :  -117.2204007 Eh     change       -0.3296118E-04 Eh
   gradient norm :     0.0015623 Eh/α   predicted    -0.1357592E-04 ( -58.81%)
   displ. norm   :     0.1993243 α      lambda       -0.2608416E-04
   maximum displ.:     0.1305068 α      in ANC's #3, #1, #6, ...

........................................................................
.............................. CYCLE   26 ..............................
........................................................................

 iter      E             dE          RMSdq      gap      omega  full diag
   1   -119.4107514 -0.119411E+03  0.386E-02    1.76       0.0  T
   2   -119.4107522 -0.794930E-06  0.223E-02    1.75       1.0  T
   3   -119.4107512  0.101157E-05  0.411E-03    1.76       2.8  T
   4   -119.4107526 -0.135342E-05  0.107E-03    1.75      10.8  T
   5   -119.4107526 -0.205697E-07  0.600E-04    1.75      19.2  T
   6   -119.4107526 -0.130537E-07  0.135E-04    1.75      85.5  T
     SCC iter.                  ...        0 min,  0.053 sec
     gradient                   ...        0 min,  0.010 sec
 * total energy  :  -117.2204334 Eh     change       -0.3276678E-04 Eh
   gradient norm :     0.0008600 Eh/α   predicted    -0.1327546E-04 ( -59.49%)
   displ. norm   :     0.1886195 α      lambda       -0.2298036E-04
   maximum displ.:     0.1281496 α      in ANC's #3, #1, #6, ...

........................................................................
.............................. CYCLE   27 ..............................
........................................................................

 iter      E             dE          RMSdq      gap      omega  full diag
   1   -119.4112855 -0.119411E+03  0.349E-02    1.75       0.0  T
   2   -119.4112861 -0.531179E-06  0.202E-02    1.75       1.0  T
   3   -119.4112854  0.634613E-06  0.333E-03    1.75       3.5  T
   4   -119.4112863 -0.868972E-06  0.915E-04    1.75      12.6  T
   5   -119.4112863 -0.132419E-07  0.484E-04    1.75      23.8  T
     SCC iter.                  ...        0 min,  0.043 sec
     gradient                   ...        0 min,  0.010 sec
 * total energy  :  -117.2204630 Eh     change       -0.2950818E-04 Eh
   gradient norm :     0.0005892 Eh/α   predicted    -0.1167640E-04 ( -60.43%)
   displ. norm   :     0.1780401 α      lambda       -0.2061398E-04
   maximum displ.:     0.1241647 α      in ANC's #3, #1, #6, ...

........................................................................
.............................. CYCLE   28 ..............................
........................................................................

 iter      E             dE          RMSdq      gap      omega  full diag
   1   -119.4114448 -0.119411E+03  0.318E-02    1.75       0.0  T
   2   -119.4114451 -0.361419E-06  0.184E-02    1.75       1.0  T
   3   -119.4114447  0.477443E-06  0.281E-03    1.75       4.1  T
   4   -119.4114453 -0.649973E-06  0.750E-04    1.75      15.4  T
   5   -119.4114453 -0.661221E-08  0.402E-04    1.75      28.7  T
     SCC iter.                  ...        0 min,  0.043 sec
     gradient                   ...        0 min,  0.010 sec
 * total energy  :  -117.2204899 Eh     change       -0.2696666E-04 Eh
   gradient norm :     0.0007823 Eh/α   predicted    -0.1045315E-04 ( -61.24%)
   displ. norm   :     0.1832799 α      lambda       -0.2168656E-04
   maximum displ.:     0.1284851 α      in ANC's #3, #1, #6, ...

........................................................................
.............................. CYCLE   29 ..............................
........................................................................

 iter      E             dE          RMSdq      gap      omega  full diag
   1   -119.4115523 -0.119412E+03  0.329E-02    1.75       0.0  T
   2   -119.4115526 -0.317330E-06  0.191E-02    1.75       1.0  T
   3   -119.4115524  0.172715E-06  0.197E-03    1.75       5.9  T
   4   -119.4115527 -0.315644E-06  0.668E-04    1.75      17.3  T
   5   -119.4115527 -0.176172E-08  0.362E-04    1.75      31.9  T
     SCC iter.                  ...        0 min,  0.044 sec
     gradient                   ...        0 min,  0.010 sec
 * total energy  :  -117.2205181 Eh     change       -0.2816723E-04 Eh
   gradient norm :     0.0010106 Eh/α   predicted    -0.1100810E-04 ( -60.92%)
   displ. norm   :     0.2195134 α      lambda       -0.2676189E-04
   maximum displ.:     0.1528718 α      in ANC's #3, #1, #11, ...

........................................................................
.............................. CYCLE   30 ..............................
........................................................................

 iter      E             dE          RMSdq      gap      omega  full diag
   1   -119.4115034 -0.119412E+03  0.390E-02    1.75       0.0  T
   2   -119.4115037 -0.312282E-06  0.227E-02    1.75       1.0  T
   3   -119.4115037  0.239069E-07  0.153E-03    1.75       7.6  T
   4   -119.4115039 -0.158144E-06  0.608E-04    1.75      19.0  T
   5   -119.4115039 -0.215323E-08  0.233E-04    1.75      49.6  T
     SCC iter.                  ...        0 min,  0.043 sec
     gradient                   ...        0 min,  0.010 sec
 * total energy  :  -117.2205534 Eh     change       -0.3535688E-04 Eh
   gradient norm :     0.0010499 Eh/α   predicted    -0.1367190E-04 ( -61.33%)
   displ. norm   :     0.2850883 α      lambda       -0.3322636E-04
   maximum displ.:     0.1973462 α      in ANC's #3, #1, #11, ...

........................................................................
.............................. CYCLE   31 ..............................
........................................................................

 iter      E             dE          RMSdq      gap      omega  full diag
   1   -119.4110551 -0.119411E+03  0.493E-02    1.75       0.0  T
   2   -119.4110554 -0.335876E-06  0.288E-02    1.75       1.0  T
   3   -119.4110554  0.948930E-09  0.169E-03    1.75       6.8  T
   4   -119.4110556 -0.144742E-06  0.636E-04    1.75      18.1  T
   5   -119.4110556  0.649550E-09  0.327E-04    1.75      35.3  T
     SCC iter.                  ...        0 min,  0.043 sec
     gradient                   ...        0 min,  0.010 sec
 * total energy  :  -117.2205979 Eh     change       -0.4446393E-04 Eh
   gradient norm :     0.0009654 Eh/α   predicted    -0.1721354E-04 ( -61.29%)
   displ. norm   :     0.3603610 α      lambda       -0.3849003E-04
   maximum displ.:     0.2497869 α      in ANC's #3, #1, #11, ...

........................................................................
.............................. CYCLE   32 ..............................
........................................................................

 iter      E             dE          RMSdq      gap      omega  full diag
   1   -119.4108393 -0.119411E+03  0.605E-02    1.75       0.0  T
   2   -119.4108398 -0.458264E-06  0.354E-02    1.75       1.0  T
   3   -119.4108396  0.205667E-06  0.251E-03    1.75       4.6  T
   4   -119.4108400 -0.400993E-06  0.789E-04    1.76      14.6  T
   5   -119.4108400 -0.282317E-08  0.524E-04    1.75      22.1  T
     SCC iter.                  ...        0 min,  0.043 sec
     gradient                   ...        0 min,  0.010 sec
 * total energy  :  -117.2206481 Eh     change       -0.5015908E-04 Eh
   gradient norm :     0.0009313 Eh/α   predicted    -0.2035826E-04 ( -59.41%)
   displ. norm   :     0.4044339 α      lambda       -0.3743463E-04
   maximum displ.:     0.2822281 α      in ANC's #3, #1, #11, ...

........................................................................
.............................. CYCLE   33 ..............................
........................................................................

 iter      E             dE          RMSdq      gap      omega  full diag
   1   -119.4104884 -0.119410E+03  0.653E-02    1.75       0.0  T
   2   -119.4104889 -0.494114E-06  0.382E-02    1.76       1.0  T
   3   -119.4104886  0.353034E-06  0.293E-03    1.75       3.9  T
   4   -119.4104892 -0.572147E-06  0.848E-04    1.76      13.6  T
   5   -119.4104892 -0.745764E-08  0.556E-04    1.76      20.8  T
     SCC iter.                  ...        0 min,  0.044 sec
     gradient                   ...        0 min,  0.010 sec
 * total energy  :  -117.2206960 Eh     change       -0.4793100E-04 Eh
   gradient norm :     0.0009051 Eh/α   predicted    -0.2007875E-04 ( -58.11%)
   displ. norm   :     0.4056996 α      lambda       -0.3334869E-04
   maximum displ.:     0.2852352 α      in ANC's #3, #1, #19, ...

........................................................................
.............................. CYCLE   34 ..............................
........................................................................

 iter      E             dE          RMSdq      gap      omega  full diag
   1   -119.4106970 -0.119411E+03  0.617E-02    1.75       0.0  T
   2   -119.4106975 -0.428868E-06  0.361E-02    1.76       1.0  T
   3   -119.4106972  0.306100E-06  0.259E-03    1.76       4.5  T
   4   -119.4106977 -0.494854E-06  0.760E-04    1.76      15.2  T
   5   -119.4106977 -0.595000E-08  0.527E-04    1.76      21.9  T
     SCC iter.                  ...        0 min,  0.043 sec
     gradient                   ...        0 min,  0.010 sec
 * total energy  :  -117.2207397 Eh     change       -0.4367686E-04 Eh
   gradient norm :     0.0011778 Eh/α   predicted    -0.1789529E-04 ( -59.03%)
   displ. norm   :     0.4642744 α      lambda       -0.3720993E-04
   maximum displ.:     0.3272644 α      in ANC's #3, #1, #19, ...

........................................................................
.............................. CYCLE   35 ..............................
........................................................................

 iter      E             dE          RMSdq      gap      omega  full diag
   1   -119.4104827 -0.119410E+03  0.668E-02    1.75       0.0  T
   2   -119.4104832 -0.517993E-06  0.391E-02    1.76       1.0  T
   3   -119.4104824  0.759991E-06  0.352E-03    1.75       3.3  T
   4   -119.4104834 -0.100916E-05  0.879E-04    1.76      13.1  T
   5   -119.4104834 -0.146295E-07  0.573E-04    1.76      20.1  T
   6   -119.4104834 -0.893097E-08  0.179E-04    1.76      64.7  T
     SCC iter.                  ...        0 min,  0.052 sec
     gradient                   ...        0 min,  0.010 sec
 * total energy  :  -117.2207890 Eh     change       -0.4927883E-04 Eh
   gradient norm :     0.0011444 Eh/α   predicted    -0.2039085E-04 ( -58.62%)
   displ. norm   :     0.6262250 α      lambda       -0.5043749E-04
   maximum displ.:     0.4404338 α      in ANC's #3, #1, #19, ...

........................................................................
.............................. CYCLE   36 ..............................
........................................................................

 iter      E             dE          RMSdq      gap      omega  full diag
   1   -119.4104943 -0.119410E+03  0.864E-02    1.75       0.0  T
   2   -119.4104951 -0.811109E-06  0.506E-02    1.75       1.0  T
   3   -119.4104946  0.488866E-06  0.336E-03    1.75       3.4  T
   4   -119.4104955 -0.865440E-06  0.944E-04    1.76      12.2  T
   5   -119.4104955 -0.165441E-08  0.632E-04    1.75      18.3  T
     SCC iter.                  ...        0 min,  0.043 sec
     gradient                   ...        0 min,  0.010 sec
 * total energy  :  -117.2208565 Eh     change       -0.6754781E-04 Eh
   gradient norm :     0.0015438 Eh/α   predicted    -0.2961850E-04 ( -56.15%)
   displ. norm   :     0.8616305 α      lambda       -0.6618838E-04
   maximum displ.:     0.6045384 α      in ANC's #3, #1, #11, ...

........................................................................
.............................. CYCLE   37 ..............................
........................................................................

 iter      E             dE          RMSdq      gap      omega  full diag
   1   -119.4087189 -0.119409E+03  0.116E-01    1.75       0.0  T
   2   -119.4087204 -0.150070E-05  0.678E-02    1.75       1.0  T
   3   -119.4087192  0.114055E-05  0.486E-03    1.75       2.4  T
   4   -119.4087210 -0.182311E-05  0.145E-03    1.75       8.0  T
   5   -119.4087211 -0.309044E-07  0.985E-04    1.75      11.7  T
   6   -119.4087211 -0.302115E-07  0.296E-04    1.75      39.0  T
     SCC iter.                  ...        0 min,  0.052 sec
     gradient                   ...        0 min,  0.010 sec
 * total energy  :  -117.2209346 Eh     change       -0.7809486E-04 Eh
   gradient norm :     0.0020383 Eh/α   predicted    -0.4401720E-04 ( -43.64%)
   displ. norm   :     0.5116232 α      lambda       -0.5476654E-04
   maximum displ.:     0.3565031 α      in ANC's #3, #1, #11, ...

........................................................................
.............................. CYCLE   38 ..............................
........................................................................

 iter      E             dE          RMSdq      gap      omega  full diag
   1   -119.4100268 -0.119410E+03  0.652E-02    1.75       0.0  T
   2   -119.4100273 -0.494672E-06  0.382E-02    1.75       1.0  T
   3   -119.4100270  0.274172E-06  0.270E-03    1.75       4.3  T
   4   -119.4100275 -0.510602E-06  0.700E-04    1.75      16.5  T
   5   -119.4100275  0.341430E-09  0.354E-04    1.75      32.6  T
     SCC iter.                  ...        0 min,  0.043 sec
     gradient                   ...        0 min,  0.010 sec
 * total energy  :  -117.2209805 Eh     change       -0.4588592E-04 Eh
   gradient norm :     0.0014835 Eh/α   predicted    -0.3455294E-04 ( -24.70%)
   displ. norm   :     0.8833906 α      lambda       -0.5494008E-04
   maximum displ.:     0.6117721 α      in ANC's #3, #1, #11, ...

........................................................................
.............................. CYCLE   39 ..............................
........................................................................

 iter      E             dE          RMSdq      gap      omega  full diag
   1   -119.4099289 -0.119410E+03  0.113E-01    1.75       0.0  T
   2   -119.4099306 -0.168591E-05  0.660E-02    1.75       1.0  T
   3   -119.4099299  0.737092E-06  0.471E-03    1.75       2.5  T
   4   -119.4099314 -0.151032E-05  0.133E-03    1.75       8.7  T
   5   -119.4099314  0.498135E-08  0.760E-04    1.75      15.2  T
   6   -119.4099314 -0.201828E-07  0.319E-04    1.75      36.2  T
     SCC iter.                  ...        0 min,  0.052 sec
     gradient                   ...        0 min,  0.010 sec
 * total energy  :  -117.2210381 Eh     change       -0.5765257E-04 Eh
   gradient norm :     0.0016800 Eh/α   predicted    -0.3700136E-04 ( -35.82%)
   displ. norm   :     0.4672849 α      lambda       -0.2265190E-04
   maximum displ.:     0.3181400 α      in ANC's #1, #3, #11, ...

........................................................................
.............................. CYCLE   40 ..............................
........................................................................

 iter      E             dE          RMSdq      gap      omega  full diag
   1   -119.4117611 -0.119412E+03  0.584E-02    1.75       0.0  T
   2   -119.4117617 -0.575035E-06  0.341E-02    1.75       1.0  T
   3   -119.4117615  0.213263E-06  0.268E-03    1.75       4.3  T
   4   -119.4117620 -0.473612E-06  0.777E-04    1.75      14.9  T
   5   -119.4117620 -0.699899E-09  0.303E-04    1.75      38.1  T
     SCC iter.                  ...        0 min,  0.043 sec
     gradient                   ...        0 min,  0.010 sec
 * total energy  :  -117.2210605 Eh     change       -0.2239776E-04 Eh
   gradient norm :     0.0009217 Eh/α   predicted    -0.1242604E-04 ( -44.52%)
   displ. norm   :     0.5124390 α      lambda       -0.1209122E-04
   maximum displ.:     0.3546874 α      in ANC's #1, #3, #11, ...

........................................................................
.............................. CYCLE   41 ..............................
........................................................................

 iter      E             dE          RMSdq      gap      omega  full diag
   1   -119.4081806 -0.119408E+03  0.699E-02    1.75       0.0  T
   2   -119.4081814 -0.830394E-06  0.408E-02    1.75       1.0  T
   3   -119.4081814  0.262888E-07  0.264E-03    1.75       4.4  T
   4   -119.4081818 -0.381019E-06  0.100E-03    1.75      11.6  T
   5   -119.4081818  0.571475E-09  0.538E-04    1.75      21.5  T
     SCC iter.                  ...        0 min,  0.046 sec
     gradient                   ...        0 min,  0.011 sec
 * total energy  :  -117.2210647 Eh     change       -0.4155633E-05 Eh
   gradient norm :     0.0019334 Eh/α   predicted    -0.6755146E-05 (  62.55%)
   displ. norm   :     0.0763525 α      lambda       -0.1085333E-04
   maximum displ.:     0.0501024 α      in ANC's #3, #1, #16, ...

........................................................................
.............................. CYCLE   42 ..............................
........................................................................

 iter      E             dE          RMSdq      gap      omega  full diag
   1   -119.4121643 -0.119412E+03  0.172E-02    1.75       0.0  T
   2   -119.4121644 -0.145249E-06  0.100E-02    1.75       1.2  T
   3   -119.4121642  0.173834E-06  0.185E-03    1.75       6.2  T
   4   -119.4121645 -0.235973E-06  0.353E-04    1.75      32.7  T
   5   -119.4121645 -0.728960E-09  0.183E-04    1.75      63.0  T
     SCC iter.                  ...        0 min,  0.042 sec
     gradient                   ...        0 min,  0.010 sec
 * total energy  :  -117.2210696 Eh     change       -0.4914295E-05 Eh
   gradient norm :     0.0018107 Eh/α   predicted    -0.5441211E-05 (  10.72%)
   displ. norm   :     0.0320000 α      lambda       -0.5174630E-05
   maximum displ.:     0.0171707 α      in ANC's #3, #1, #11, ...
 * RMSD in coord.:     0.7485280 α      energy gain  -0.7980592E-03 Eh

generating ANC from exact Hessian ...
Using Lindh-Hessian (1995)
 Shifting diagonal of input Hessian by   9.926935240733637E-003
 Lowest  eigenvalues of input Hessian
    0.000000    0.000000    0.000000    0.000000    0.000000    0.000000
    0.010000    0.010019    0.010027    0.010236    0.010645    0.010647
    0.010853    0.011280    0.011286    0.011438    0.011471    0.011540
 Highest eigenvalues
    2.146690    2.147119    2.174558    2.178910    2.256633    2.627171
 

........................................................................
.............................. CYCLE   43 ..............................
........................................................................

 iter      E             dE          RMSdq      gap      omega  full diag
   1   -119.4119467 -0.119412E+03  0.707E-03    1.75       0.0  T
   2   -119.4119467 -0.348000E-07  0.422E-03    1.75       2.7  T
   3   -119.4119465  0.200666E-06  0.175E-03    1.75       6.6  T
   4   -119.4119467 -0.223464E-06  0.223E-04    1.75      51.8  T
   5   -119.4119467 -0.159037E-08  0.122E-04    1.75      94.6  T
     SCC iter.                  ...        0 min,  0.042 sec
     gradient                   ...        0 min,  0.010 sec
 * total energy  :  -117.2210730 Eh     change       -0.3395184E-05 Eh
   gradient norm :     0.0009255 Eh/α   predicted     0.0000000E+00 (-100.00%)
   displ. norm   :     0.0126881 α      lambda       -0.8599201E-06
   maximum displ.:     0.0056589 α      in ANC's #9, #6, #12, ...

........................................................................
.............................. CYCLE   44 ..............................
........................................................................

 iter      E             dE          RMSdq      gap      omega  full diag
   1   -119.4114076 -0.119411E+03  0.471E-03    1.75       0.0  T
   2   -119.4114076 -0.222237E-07  0.275E-03    1.75       4.2  T
   3   -119.4114076  0.321507E-07  0.752E-04    1.75      15.4  T
   4   -119.4114076 -0.406076E-07  0.139E-04    1.75      83.1  T
     SCC iter.                  ...        0 min,  0.034 sec
     gradient                   ...        0 min,  0.010 sec
 * total energy  :  -117.2210745 Eh     change       -0.1506401E-05 Eh
   gradient norm :     0.0005796 Eh/α   predicted    -0.9311245E-06 ( -38.19%)
   displ. norm   :     0.0177896 α      lambda       -0.1071175E-05
   maximum displ.:     0.0089355 α      in ANC's #9, #6, #12, ...

........................................................................
.............................. CYCLE   45 ..............................
........................................................................

 iter      E             dE          RMSdq      gap      omega  full diag
   1   -119.4113750 -0.119411E+03  0.449E-03    1.75       0.0  T
   2   -119.4113750 -0.124064E-07  0.258E-03    1.75       4.5  T
   3   -119.4113750  0.196844E-07  0.521E-04    1.75      22.1  T
   4   -119.4113750 -0.252483E-07  0.134E-04    1.75      86.5  T
     SCC iter.                  ...        0 min,  0.034 sec
     gradient                   ...        0 min,  0.010 sec
 * total energy  :  -117.2210758 Eh     change       -0.1339137E-05 Eh
   gradient norm :     0.0004229 Eh/α   predicted    -0.5368272E-06 ( -59.91%)
   displ. norm   :     0.0470754 α      lambda       -0.2215869E-05
   maximum displ.:     0.0236625 α      in ANC's #9, #6, #12, ...

........................................................................
.............................. CYCLE   46 ..............................
........................................................................

 iter      E             dE          RMSdq      gap      omega  full diag
   1   -119.4114994 -0.119411E+03  0.101E-02    1.75       0.0  T
   2   -119.4114994 -0.544552E-07  0.582E-03    1.75       2.0  T
   3   -119.4114993  0.985541E-07  0.116E-03    1.75       9.9  T
   4   -119.4114994 -0.122790E-06  0.298E-04    1.75      38.7  T
   5   -119.4114994 -0.250890E-08  0.162E-04    1.75      71.5  T
     SCC iter.                  ...        0 min,  0.042 sec
     gradient                   ...        0 min,  0.010 sec
 * total energy  :  -117.2210783 Eh     change       -0.2429156E-05 Eh
   gradient norm :     0.0003036 Eh/α   predicted    -0.1111341E-05 ( -54.25%)
   displ. norm   :     0.0437278 α      lambda       -0.1297036E-05
   maximum displ.:     0.0224518 α      in ANC's #9, #6, #1, ...

........................................................................
.............................. CYCLE   47 ..............................
........................................................................

 iter      E             dE          RMSdq      gap      omega  full diag
   1   -119.4116742 -0.119412E+03  0.792E-03    1.75       0.0  T
   2   -119.4116743 -0.239919E-07  0.460E-03    1.75       2.5  T
   3   -119.4116742  0.531163E-07  0.863E-04    1.75      13.4  T
   4   -119.4116743 -0.647909E-07  0.203E-04    1.75      56.9  T
     SCC iter.                  ...        0 min,  0.034 sec
     gradient                   ...        0 min,  0.010 sec
 * total energy  :  -117.2210797 Eh     change       -0.1445793E-05 Eh
   gradient norm :     0.0002557 Eh/α   predicted    -0.6523669E-06 ( -54.88%)
   displ. norm   :     0.0360938 α      lambda       -0.8824954E-06
   maximum displ.:     0.0182734 α      in ANC's #9, #1, #6, ...

........................................................................
.............................. CYCLE   48 ..............................
........................................................................

 iter      E             dE          RMSdq      gap      omega  full diag
   1   -119.4117837 -0.119412E+03  0.610E-03    1.75       0.0  T
   2   -119.4117838 -0.951330E-08  0.356E-03    1.75       3.2  T
   3   -119.4117837  0.383142E-07  0.725E-04    1.75      15.9  T
   4   -119.4117838 -0.448704E-07  0.120E-04    1.75      96.2  T
     SCC iter.                  ...        0 min,  0.034 sec
     gradient                   ...        0 min,  0.010 sec
 * total energy  :  -117.2210807 Eh     change       -0.1013405E-05 Eh
   gradient norm :     0.0001946 Eh/α   predicted    -0.4426344E-06 ( -56.32%)
   displ. norm   :     0.0362138 α      lambda       -0.8428342E-06
   maximum displ.:     0.0191093 α      in ANC's #1, #9, #6, ...

........................................................................
.............................. CYCLE   49 ..............................
........................................................................

 iter      E             dE          RMSdq      gap      omega  full diag
   1   -119.4118660 -0.119412E+03  0.669E-03    1.75       0.0  T
   2   -119.4118660 -0.175677E-07  0.388E-03    1.75       3.0  T
   3   -119.4118660  0.394468E-07  0.761E-04    1.75      15.2  T
   4   -119.4118661 -0.495087E-07  0.148E-04    1.75      78.1  T
     SCC iter.                  ...        0 min,  0.034 sec
     gradient                   ...        0 min,  0.010 sec
 * total energy  :  -117.2210815 Eh     change       -0.7967056E-06 Eh
   gradient norm :     0.0002348 Eh/α   predicted    -0.4221797E-06 ( -47.01%)
   displ. norm   :     0.0273292 α      lambda       -0.6614846E-06
   maximum displ.:     0.0161935 α      in ANC's #1, #6, #9, ...

........................................................................
.............................. CYCLE   50 ..............................
........................................................................

 iter      E             dE          RMSdq      gap      omega  full diag
   1   -119.4118584 -0.119412E+03  0.593E-03    1.75       0.0  T
   2   -119.4118585 -0.190862E-07  0.341E-03    1.75       3.4  T
   3   -119.4118584  0.320299E-07  0.685E-04    1.75      16.9  T
   4   -119.4118585 -0.424706E-07  0.142E-04    1.75      81.3  T
     SCC iter.                  ...        0 min,  0.034 sec
     gradient                   ...        0 min,  0.010 sec
 * total energy  :  -117.2210821 Eh     change       -0.5745813E-06 Eh
   gradient norm :     0.0001936 Eh/α   predicted    -0.3312832E-06 ( -42.34%)
   displ. norm   :     0.0135178 α      lambda       -0.3495483E-06
   maximum displ.:     0.0091343 α      in ANC's #1, #6, #3, ...

........................................................................
.............................. CYCLE   51 ..............................
........................................................................

 iter      E             dE          RMSdq      gap      omega  full diag
   1   -119.4117869 -0.119412E+03  0.277E-03    1.75       0.0  T
   2   -119.4117869 -0.293183E-08  0.161E-03    1.75       7.2  T
   3   -119.4117869  0.411524E-08  0.242E-04    1.75      47.6  T
   4   -119.4117869 -0.550259E-08  0.578E-05    1.75     199.9  T
     SCC iter.                  ...        0 min,  0.034 sec
     gradient                   ...        0 min,  0.010 sec
 * total energy  :  -117.2210825 Eh     change       -0.4436653E-06 Eh
   gradient norm :     0.0001693 Eh/α   predicted    -0.1767675E-06 ( -60.16%)
   displ. norm   :     0.0214050 α      lambda       -0.5541764E-06
   maximum displ.:     0.0139616 α      in ANC's #1, #14, #3, ...

........................................................................
.............................. CYCLE   52 ..............................
........................................................................

 iter      E             dE          RMSdq      gap      omega  full diag
   1   -119.4117291 -0.119412E+03  0.412E-03    1.75       0.0  T
   2   -119.4117291 -0.658457E-08  0.240E-03    1.75       4.8  T
   3   -119.4117291  0.807731E-08  0.369E-04    1.75      31.3  T
   4   -119.4117292 -0.109121E-07  0.758E-05    1.75     152.4  T
     SCC iter.                  ...        0 min,  0.034 sec
     gradient                   ...        0 min,  0.010 sec
 * total energy  :  -117.2210832 Eh     change       -0.6582346E-06 Eh
   gradient norm :     0.0000940 Eh/α   predicted    -0.2806625E-06 ( -57.36%)
   displ. norm   :     0.0210515 α      lambda       -0.3976483E-06
   maximum displ.:     0.0140766 α      in ANC's #1, #14, #3, ...

........................................................................
.............................. CYCLE   53 ..............................
........................................................................

 iter      E             dE          RMSdq      gap      omega  full diag
   1   -119.4116765 -0.119412E+03  0.393E-03    1.75       0.0  T
   2   -119.4116765 -0.561927E-08  0.229E-03    1.75       5.0  T
   3   -119.4116765  0.141701E-07  0.498E-04    1.75      23.2  T
   4   -119.4116765 -0.169356E-07  0.868E-05    1.75     133.1  T
     SCC iter.                  ...        0 min,  0.034 sec
     gradient                   ...        0 min,  0.010 sec
 * total energy  :  -117.2210837 Eh     change       -0.4607399E-06 Eh
   gradient norm :     0.0001498 Eh/α   predicted    -0.2008060E-06 ( -56.42%)
   displ. norm   :     0.0160060 α      lambda       -0.2580866E-06
   maximum displ.:     0.0113390 α      in ANC's #1, #3, #14, ...

........................................................................
.............................. CYCLE   54 ..............................
........................................................................

 iter      E             dE          RMSdq      gap      omega  full diag
   1   -119.4116849 -0.119412E+03  0.293E-03    1.75       0.0  T
   2   -119.4116849 -0.296953E-08  0.170E-03    1.75       6.8  T
   3   -119.4116848  0.104995E-07  0.407E-04    1.75      28.4  T
   4   -119.4116849 -0.123388E-07  0.634E-05    1.75     182.2  T
     SCC iter.                  ...        0 min,  0.034 sec
     gradient                   ...        0 min,  0.010 sec
 * total energy  :  -117.2210840 Eh     change       -0.3321818E-06 Eh
   gradient norm :     0.0001496 Eh/α   predicted    -0.1325686E-06 ( -60.09%)
   displ. norm   :     0.0140553 α      lambda       -0.2624905E-06
   maximum displ.:     0.0102005 α      in ANC's #1, #3, #12, ...

........................................................................
.............................. CYCLE   55 ..............................
........................................................................

 iter      E             dE          RMSdq      gap      omega  full diag
   1   -119.4117335 -0.119412E+03  0.266E-03    1.75       0.0  T
   2   -119.4117335 -0.302904E-08  0.154E-03    1.75       7.5  T
   3   -119.4117335  0.516690E-08  0.288E-04    1.75      40.0  T
   4   -119.4117335 -0.659804E-08  0.638E-05    1.75     180.9  T
     SCC iter.                  ...        0 min,  0.034 sec
     gradient                   ...        0 min,  0.010 sec
 * total energy  :  -117.2210844 Eh     change       -0.3559981E-06 Eh
   gradient norm :     0.0001230 Eh/α   predicted    -0.1332923E-06 ( -62.56%)
   displ. norm   :     0.0187551 α      lambda       -0.3673936E-06
   maximum displ.:     0.0136250 α      in ANC's #1, #3, #12, ...

........................................................................
.............................. CYCLE   56 ..............................
........................................................................

 iter      E             dE          RMSdq      gap      omega  full diag
   1   -119.4117624 -0.119412E+03  0.355E-03    1.75       0.0  T
   2   -119.4117624 -0.548933E-08  0.205E-03    1.75       5.6  T
   3   -119.4117624  0.100108E-07  0.391E-04    1.75      29.5  T
   4   -119.4117624 -0.124539E-07  0.842E-05    1.75     137.2  T
     SCC iter.                  ...        0 min,  0.034 sec
     gradient                   ...        0 min,  0.010 sec
 * total energy  :  -117.2210848 Eh     change       -0.4896324E-06 Eh
   gradient norm :     0.0000800 Eh/α   predicted    -0.1854572E-06 ( -62.12%)
   displ. norm   :     0.0242795 α      lambda       -0.4255663E-06
   maximum displ.:     0.0175981 α      in ANC's #1, #3, #12, ...

........................................................................
.............................. CYCLE   57 ..............................
........................................................................

 iter      E             dE          RMSdq      gap      omega  full diag
   1   -119.4117842 -0.119412E+03  0.435E-03    1.75       0.0  T
   2   -119.4117843 -0.703898E-08  0.252E-03    1.75       4.6  T
   3   -119.4117842  0.171234E-07  0.483E-04    1.75      23.9  T
   4   -119.4117843 -0.202573E-07  0.950E-05    1.75     121.5  T
     SCC iter.                  ...        0 min,  0.034 sec
     gradient                   ...        0 min,  0.010 sec
 * total energy  :  -117.2210854 Eh     change       -0.5484861E-06 Eh
   gradient norm :     0.0001123 Eh/α   predicted    -0.2144387E-06 ( -60.90%)
   displ. norm   :     0.0247283 α      lambda       -0.3724309E-06
   maximum displ.:     0.0180733 α      in ANC's #1, #3, #12, ...

........................................................................
.............................. CYCLE   58 ..............................
........................................................................

 iter      E             dE          RMSdq      gap      omega  full diag
   1   -119.4117587 -0.119412E+03  0.411E-03    1.75       0.0  T
   2   -119.4117587 -0.456041E-08  0.240E-03    1.75       4.8  T
   3   -119.4117587  0.157453E-07  0.459E-04    1.75      25.1  T
   4   -119.4117587 -0.179596E-07  0.780E-05    1.75     148.1  T
     SCC iter.                  ...        0 min,  0.034 sec
     gradient                   ...        0 min,  0.010 sec
 * total energy  :  -117.2210859 Eh     change       -0.4912131E-06 Eh
   gradient norm :     0.0001307 Eh/α   predicted    -0.1905325E-06 ( -61.21%)
   displ. norm   :     0.0206178 α      lambda       -0.3003816E-06
   maximum displ.:     0.0152204 α      in ANC's #1, #3, #14, ...

........................................................................
.............................. CYCLE   59 ..............................
........................................................................

 iter      E             dE          RMSdq      gap      omega  full diag
   1   -119.4117301 -0.119412E+03  0.315E-03    1.75       0.0  T
   2   -119.4117301 -0.226935E-08  0.185E-03    1.75       6.3  T
   3   -119.4117301  0.946656E-08  0.349E-04    1.75      33.1  T
   4   -119.4117301 -0.106221E-07  0.573E-05    1.75     201.4  T
     SCC iter.                  ...        0 min,  0.034 sec
     gradient                   ...        0 min,  0.010 sec
 * total energy  :  -117.2210863 Eh     change       -0.4145266E-06 Eh
   gradient norm :     0.0001369 Eh/α   predicted    -0.1547074E-06 ( -62.68%)
   displ. norm   :     0.0202887 α      lambda       -0.3110324E-06
   maximum displ.:     0.0150321 α      in ANC's #1, #3, #14, ...

........................................................................
.............................. CYCLE   60 ..............................
........................................................................

 iter      E             dE          RMSdq      gap      omega  full diag
   1   -119.4117005 -0.119412E+03  0.299E-03    1.75       0.0  T
   2   -119.4117005 -0.225673E-08  0.174E-03    1.75       6.6  T
   3   -119.4117005  0.429615E-08  0.258E-04    1.75      44.7  T
   4   -119.4117005 -0.525273E-08  0.610E-05    1.75     189.2  T
     SCC iter.                  ...        0 min,  0.034 sec
     gradient                   ...        0 min,  0.010 sec
 * total energy  :  -117.2210867 Eh     change       -0.4410941E-06 Eh
   gradient norm :     0.0001199 Eh/α   predicted    -0.1584752E-06 ( -64.07%)
   displ. norm   :     0.0236072 α      lambda       -0.3704944E-06
   maximum displ.:     0.0174328 α      in ANC's #1, #3, #14, ...

........................................................................
.............................. CYCLE   61 ..............................
........................................................................

 iter      E             dE          RMSdq      gap      omega  full diag
   1   -119.4116658 -0.119412E+03  0.347E-03    1.75       0.0  T
   2   -119.4116658 -0.429951E-08  0.201E-03    1.75       5.7  T
[...]
    39   6 C       40   6 C                                       1.3934739
    40   6 C       41   6 C                                       1.3822502
    41   6 C       42   6 C                                       1.3855777
    42   6 C       43   6 C                                       1.3856745
    39   6 C       44   6 C                                       1.3937435
    43   6 C       44   6 C                                       1.3822645
    31   6 C       45   6 C                                       1.4019750
    28   6 C       46   6 C                                       1.3994502
    45   6 C       46   6 C                                       1.3735726
     6   6 C       47   1 H                                       1.0800129
     7   6 C       48   1 H                                       1.0794907
    11   6 C       49   1 H                                       1.0803237
    12   6 C       50   1 H                                       1.0801121
    13   6 C       51   1 H                                       1.0795760
    14   6 C       52   1 H                                       1.0800726
    15   6 C       53   1 H                                       1.0801334
    17   6 C       54   1 H                                       1.0804365
    18   6 C       55   1 H                                       1.0801104
    19   6 C       56   1 H                                       1.0795570
    20   6 C       57   1 H                                       1.0800863
    21   6 C       58   1 H                                       1.0801890
    22   6 C       59   1 H                                       1.0794457
    23   6 C       60   1 H                                       1.0790519
    25   6 C       61   1 H                                       1.0836524
    29   6 C       62   1 H                                       1.0800132
    30   6 C       63   1 H                                       1.0794906
    34   6 C       64   1 H                                       1.0801890
    35   6 C       65   1 H                                       1.0800860
    36   6 C       66   1 H                                       1.0795568
    37   6 C       67   1 H                                       1.0801102
    38   6 C       68   1 H                                       1.0804365
    40   6 C       69   1 H                                       1.0801333
    41   6 C       70   1 H                                       1.0800725
    42   6 C       71   1 H                                       1.0795760
    43   6 C       72   1 H                                       1.0801121
    44   6 C       73   1 H                                       1.0803238
    45   6 C       74   1 H                                       1.0794457
    46   6 C       75   1 H                                       1.0790518 (min)

 * 3 distinct bonds (by element types)

   Z      Z             #   av. dist./Å        max./Å        min./Å
   1 H    6 C          29     1.0800292     1.0836524     1.0790518
   6 C    6 C          38     1.3899683     1.4144563     1.3735726
   6 C    7 N          11     1.3497878     1.4070696     1.1511447

           -------------------------------------------------
          |               Frequency Printout                |
           -------------------------------------------------
 projected vibrational frequencies (cm⁻¹)
eigval :       -0.00    -0.00     0.00     0.00     0.00     0.00
eigval :        7.99    11.53    13.68    24.87    31.78    32.71
eigval :       39.09    45.31    46.52    60.12    60.98    71.36
eigval :       72.53    74.90    85.17    94.15   109.25   122.08
eigval :      126.79   146.62   163.06   181.51   186.12   212.32
eigval :      215.11   218.20   236.54   239.92   279.87   284.13
eigval :      305.53   307.39   309.06   329.34   367.70   373.43
eigval :      376.44   377.00   380.76   381.21   388.48   388.98
eigval :      393.66   399.05   401.45   424.38   431.36   476.05
eigval :      479.89   490.55   492.17   503.22   507.65   546.42
eigval :      560.34   573.33   582.74   583.91   584.34   586.20
eigval :      593.46   593.77   599.15   608.64   610.27   632.66
eigval :      636.46   661.23   661.81   665.97   668.75   679.53
eigval :      692.75   699.56   725.09   747.31   756.73   757.09
eigval :      760.01   761.41   816.29   818.05   827.22   836.26
eigval :      861.97   862.89   872.37   872.64   874.61   874.72
eigval :      896.35   896.83   897.20   897.21   899.96   909.16
eigval :      909.20   915.14   917.42   918.93   922.75   923.42
eigval :      925.11   926.28   926.49   927.15   927.16   928.34
eigval :      928.58   931.64   931.66   980.00   984.77  1004.28
eigval :     1004.36  1005.68  1016.09  1068.48  1080.23  1080.23
eigval :     1081.66  1081.67  1118.48  1118.48  1121.06  1121.07
eigval :     1142.40  1143.57  1160.16  1176.22  1176.23  1178.63
eigval :     1178.66  1182.41  1182.99  1189.39  1190.67  1191.37
eigval :     1193.15  1197.09  1211.09  1212.90  1223.88  1266.19
eigval :     1266.90  1274.75  1274.80  1276.95  1278.84  1281.55
eigval :     1296.74  1299.53  1306.56  1314.33  1315.08  1322.00
eigval :     1322.23  1328.92  1329.70  1333.08  1343.81  1377.90
eigval :     1379.81  1419.45  1420.39  1433.69  1434.03  1438.41
eigval :     1438.64  1465.31  1465.78  1469.22  1469.41  1474.32
eigval :     1490.09  1492.21  1505.93  1542.45  1543.06  1577.32
eigval :     1577.33  1580.70  1580.73  1586.14  1586.37  1589.85
eigval :     1589.86  1596.95  1597.10  2325.16  3041.57  3074.61
eigval :     3074.61  3075.23  3075.24  3075.47  3075.48  3076.75
eigval :     3076.76  3080.51  3080.83  3083.89  3083.90  3084.20
eigval :     3084.22  3087.02  3087.03  3088.13  3088.14  3091.10
eigval :     3091.13  3095.98  3095.99  3096.16  3096.20  3096.83
eigval :     3096.88  3103.88  3104.06
 reduced masses (amu)
   1: 11.70   2: 11.34   3: 11.40   4: 11.41   5: 11.65   6: 11.58   7: 11.32   8: 11.32
   9: 10.88  10: 11.23  11: 10.48  12: 11.81  13: 10.70  14: 10.38  15: 10.93  16: 10.98
  17: 10.54  18: 10.40  19: 10.42  20: 10.92  21: 11.92  22: 10.70  23: 10.31  24: 11.00
  25: 11.48  26: 11.42  27: 12.52  28: 12.56  29: 11.29  30: 10.83  31: 11.10  32: 10.95
  33: 10.31  34: 10.67  35: 11.40  36: 11.53  37: 10.82  38: 11.10  39: 10.67  40: 10.81
  41: 10.74  42: 10.55  43:  8.99  44:  9.24  45:  9.02  46:  9.07  47:  9.99  48: 11.02
  49:  9.55  50: 10.92  51: 11.24  52: 11.45  53: 10.83  54:  9.97  55: 10.39  56: 10.18
  57: 10.19  58: 10.55  59: 10.20  60: 11.25  61: 11.97  62: 11.83  63: 11.21  64: 11.15
  65: 11.39  66: 11.19  67: 11.29  68: 11.41  69: 11.50  70: 11.29  71: 11.39  72: 11.25
  73: 11.49  74: 10.12  75: 10.06  76:  9.74  77:  9.68  78: 11.31  79: 11.46  80: 11.24
  81: 11.22  82: 11.88  83:  4.21  84:  4.24  85:  4.40  86:  4.60  87:  6.88  88:  5.06
  89:  9.69  90: 12.77  91:  3.29  92:  3.30  93:  3.30  94:  3.30  95:  3.30  96:  3.29
  97:  4.02  98:  3.80  99:  4.09 100:  4.09 101:  4.34 102: 11.28 103: 11.25 104:  9.51
 105:  2.98 106:  4.49 107:  4.43 108:  3.97 109:  8.26 110:  3.38 111:  4.09 112:  3.58
 113:  4.23 114:  3.68 115:  4.79 116:  3.23 117:  3.21 118: 10.88 119: 10.83 120: 10.58
 121: 10.60 122: 10.15 123:  8.53 124:  8.59 125:  6.71 126:  6.72 127:  6.54 128:  6.54
 129:  3.97 130:  3.97 131:  3.95 132:  3.95 133:  3.47 134:  3.39 135:  6.94 136:  1.34
 137:  1.34 138:  1.31 139:  1.31 140:  4.83 141:  5.08 142:  8.42 143:  1.94 144:  3.19
 145:  2.16 146:  4.51 147:  6.54 148:  5.79 149: 10.83 150:  4.00 151:  3.94 152:  4.28
 153:  4.31 154:  4.89 155:  3.74 156:  5.04 157: 10.36 158:  9.87 159:  9.71 160: 11.47
 161: 11.34 162: 11.96 163: 11.96 164: 10.82 165: 10.78 166: 11.13 167: 11.77 168: 11.62
 169: 10.65 170: 10.50 171: 10.34 172:  9.24 173:  9.23 174:  9.08 175:  9.11 176:  8.98
 177:  9.27 178:  9.31 179:  9.21 180: 12.30 181: 10.26 182: 10.27 183: 11.74 184: 11.61
 185: 11.62 186: 11.50 187: 11.50 188: 11.54 189: 11.54 190: 11.52 191: 11.55 192: 11.47
 193: 11.47 194: 11.50 195: 11.51 196: 12.79 197:  1.78 198:  1.75 199:  1.75 200:  1.79
 201:  1.79 202:  1.76 203:  1.76 204:  1.77 205:  1.77 206:  1.79 207:  1.79 208:  1.84
 209:  1.84 210:  1.84 211:  1.84 212:  1.88 213:  1.88 214:  1.87 215:  1.87 216:  1.79
 217:  1.79 218:  1.90 219:  1.91 220:  1.89 221:  1.89 222:  1.92 223:  1.91 224:  1.87
 225:  1.87
 IR intensities (km·mol⁻¹)
   1:  0.00   2:  0.03   3:  0.00   4:  0.00   5:  0.00   6:  0.01   7:  0.43   8:  0.54
   9:  0.09  10:  0.76  11:  0.61  12:  1.58  13:  0.98  14: 20.74  15:  0.14  16:  0.37
  17:  1.83  18:  4.40  19:  0.02  20:  1.64  21:  4.41  22:  0.72  23:  1.97  24: 15.18
  25:  3.51  26:  0.19  27:  0.85  28:  4.16  29:  1.76  30:  1.88  31:  5.15  32: 17.21
  33:  1.89  34:  5.20  35:  6.66  36: 15.45  37:  1.32  38:  8.62  39:  3.98  40:  0.00
  41:  0.14  42:  2.91  43:  2.41  44:  3.37  45:  0.05  46:  3.75  47:  1.86  48: 10.47
  49:  0.53  50:  0.00  51:  1.00  52:  1.21  53:  1.43  54:  7.54  55:  1.47  56: 16.11
  57: 63.81  58:  3.68  59:  3.83  60:  0.14  61:  0.93  62:  0.07  63:  0.92  64:  3.46
  65:  0.16  66:  0.07  67:  1.73  68:  0.02  69:  1.86  70:  0.11  71:  6.18  72: 10.23
  73:  0.39  74:  4.33  75:  1.00  76: 25.66  77:  8.40  78: 10.00  79: 18.69  80: 16.98
  81:  4.97  82: 47.90  83:  0.53  84: 72.06  85:  0.36  86: 12.20  87:  9.05  88: 24.94
  89:  1.04  90: 62.44  91:137.45  92:  9.91  93:  4.66  94:  0.87  95:  4.42  96:  0.07
  97:  0.90  98:  0.25  99:  1.83 100:  0.35 101:  0.94 102:  1.07 103:  6.12 104:  5.07
 105:  0.36 106:  2.58 107: 34.29 108:  0.40 109:  0.89 110:  0.63 111:  0.24 112:  1.42
 113:  3.95 114:  0.16 115:  0.86 116:  0.13 117:  0.15 118:  4.43 119: 11.74 120:  9.89
 121:  2.41 122:  2.20 123:  1.62 124:  8.47 125:  0.08 126:  2.51 127:  0.64 128:  0.00
 129:  0.22 130:  2.57 131:  0.02 132:  0.83 133: 23.29 134:  1.53 135: 87.65 136:  0.91
 137:  0.27 138:  1.40 139:  0.05 140:115.99 141:  3.24 142: 16.82 143:116.59 144: 36.81
 145:267.23 146:  5.07 147: 55.83 148:  2.48 149: 12.64 150: 11.09 151: 16.06 152: 47.91
 153: 13.56 154: 67.43 155: 16.69 156: 24.16 157:431.55 158:102.78 159: 74.75 160:  0.32
 161:  7.97 162:202.91 163:  3.10 164:****** 165:154.35 166:105.49 167:119.15 168:137.93
 169:****** 170: 60.50 171: 41.09 172: 38.24 173: 15.81 174:104.37 175: 12.63 176:370.52
 177:144.29 178:394.54 179: 65.14 180:195.55 181: 76.53 182: 55.89 183:****** 184: 43.47
 185:171.30 186:  6.43 187: 14.98 188: 25.22 189:129.45 190:114.92 191:710.63 192: 29.18
 193:194.31 194:  6.24 195: 65.02 196:219.21 197: 56.06 198: 34.96 199:  7.55 200:  2.59
 201:  0.36 202: 26.90 203:  3.21 204:  4.12 205:  7.23 206: 46.99 207:  4.04 208: 41.63
 209: 74.00 210: 89.84 211: 60.15 212:326.90 213: 47.78 214: 80.02 215: 31.21 216: 27.60
 217:  8.81 218: 85.70 219: 92.20 220:  8.49 221: 17.23 222: 45.85 223:139.09 224: 17.38
 225: 48.61
 Raman intensities (Ä⁴*amu⁻¹)
   1:  0.00   2:  0.00   3:  0.00   4:  0.00   5:  0.00   6:  0.00   7:  0.00   8:  0.00
   9:  0.00  10:  0.00  11:  0.00  12:  0.00  13:  0.00  14:  0.00  15:  0.00  16:  0.00
  17:  0.00  18:  0.00  19:  0.00  20:  0.00  21:  0.00  22:  0.00  23:  0.00  24:  0.00
  25:  0.00  26:  0.00  27:  0.00  28:  0.00  29:  0.00  30:  0.00  31:  0.00  32:  0.00
  33:  0.00  34:  0.00  35:  0.00  36:  0.00  37:  0.00  38:  0.00  39:  0.00  40:  0.00
  41:  0.00  42:  0.00  43:  0.00  44:  0.00  45:  0.00  46:  0.00  47:  0.00  48:  0.00
  49:  0.00  50:  0.00  51:  0.00  52:  0.00  53:  0.00  54:  0.00  55:  0.00  56:  0.00
  57:  0.00  58:  0.00  59:  0.00  60:  0.00  61:  0.00  62:  0.00  63:  0.00  64:  0.00
  65:  0.00  66:  0.00  67:  0.00  68:  0.00  69:  0.00  70:  0.00  71:  0.00  72:  0.00
  73:  0.00  74:  0.00  75:  0.00  76:  0.00  77:  0.00  78:  0.00  79:  0.00  80:  0.00
  81:  0.00  82:  0.00  83:  0.00  84:  0.00  85:  0.00  86:  0.00  87:  0.00  88:  0.00
  89:  0.00  90:  0.00  91:  0.00  92:  0.00  93:  0.00  94:  0.00  95:  0.00  96:  0.00
  97:  0.00  98:  0.00  99:  0.00 100:  0.00 101:  0.00 102:  0.00 103:  0.00 104:  0.00
 105:  0.00 106:  0.00 107:  0.00 108:  0.00 109:  0.00 110:  0.00 111:  0.00 112:  0.00
 113:  0.00 114:  0.00 115:  0.00 116:  0.00 117:  0.00 118:  0.00 119:  0.00 120:  0.00
 121:  0.00 122:  0.00 123:  0.00 124:  0.00 125:  0.00 126:  0.00 127:  0.00 128:  0.00
 129:  0.00 130:  0.00 131:  0.00 132:  0.00 133:  0.00 134:  0.00 135:  0.00 136:  0.00
 137:  0.00 138:  0.00 139:  0.00 140:  0.00 141:  0.00 142:  0.00 143:  0.00 144:  0.00
 145:  0.00 146:  0.00 147:  0.00 148:  0.00 149:  0.00 150:  0.00 151:  0.00 152:  0.00
 153:  0.00 154:  0.00 155:  0.00 156:  0.00 157:  0.00 158:  0.00 159:  0.00 160:  0.00
 161:  0.00 162:  0.00 163:  0.00 164:  0.00 165:  0.00 166:  0.00 167:  0.00 168:  0.00
 169:  0.00 170:  0.00 171:  0.00 172:  0.00 173:  0.00 174:  0.00 175:  0.00 176:  0.00
 177:  0.00 178:  0.00 179:  0.00 180:  0.00 181:  0.00 182:  0.00 183:  0.00 184:  0.00
 185:  0.00 186:  0.00 187:  0.00 188:  0.00 189:  0.00 190:  0.00 191:  0.00 192:  0.00
 193:  0.00 194:  0.00 195:  0.00 196:  0.00 197:  0.00 198:  0.00 199:  0.00 200:  0.00
 201:  0.00 202:  0.00 203:  0.00 204:  0.00 205:  0.00 206:  0.00 207:  0.00 208:  0.00
 209:  0.00 210:  0.00 211:  0.00 212:  0.00 213:  0.00 214:  0.00 215:  0.00 216:  0.00
 217:  0.00 218:  0.00 219:  0.00 220:  0.00 221:  0.00 222:  0.00 223:  0.00 224:  0.00
 225:  0.00
 output can be read by thermo (or use thermo option).
 writing <g98.out> molden fake output.
 recommended (thermochemical) frequency scaling factor: 1.0
           -------------------------------------------------
          |             Thermodynamic Functions             |
           -------------------------------------------------

Molecule has the following symmetry elements: (sigma) 
It seems to be the Cs point group
cs  symmetry found (for desy threshold:  0.10E+00) used in thermo

          ...................................................
          :                      SETUP                      :
          :.................................................:
          :  # frequencies                         219      :
          :  # imaginary freq.                       0      :
          :  linear?                             false      :
          :  only rotor calc.                    false      :
          :  symmetry                               cs      :
          :  rotational number                       1      :
          :  scaling factor                  1.0000000      :
          :  rotor cutoff                   50.0000000 cm⁻¹ :
          :  imag. cutoff                  -20.0000000 cm⁻¹ :
          :.................................................:

    mode    ω/cm⁻¹     T·S(HO)/kcal·mol⁻¹    T·S(FR)/kcal·mol⁻¹   T·S(vib)
   ------------------------------------------------------------------------
       1      7.99    -2.52178 (  0.07%)    -1.59995 ( 99.93%)    -1.60055
       2     11.53    -2.30398 (  0.28%)    -1.49105 ( 99.72%)    -1.49334
       3     13.68    -2.20303 (  0.56%)    -1.44055 ( 99.44%)    -1.44480
       4     24.87    -1.84910 (  5.76%)    -1.26348 ( 94.24%)    -1.29723
       5     31.78    -1.70402 ( 14.03%)    -1.19083 ( 85.97%)    -1.26280
       6     32.71    -1.68686 ( 15.48%)    -1.18223 ( 84.52%)    -1.26037
       7     39.09    -1.58160 ( 27.20%)    -1.12947 ( 72.80%)    -1.25243
       8     45.31    -1.49442 ( 40.27%)    -1.08573 ( 59.73%)    -1.25032
       9     46.52    -1.47886 ( 42.83%)    -1.07792 ( 57.17%)    -1.24966
      10     60.12    -1.32773 ( 67.64%)    -1.00194 ( 32.36%)    -1.22231
      11     60.98    -1.31936 ( 68.87%)    -0.99772 ( 31.13%)    -1.21925
      12     71.36    -1.22700 ( 80.58%)    -0.95116 ( 19.42%)    -1.17344
      13     72.53    -1.21753 ( 81.57%)    -0.94637 ( 18.43%)    -1.16756
      14     74.90    -1.19860 ( 83.43%)    -0.93681 ( 16.57%)    -1.15524
      15     85.17    -1.12347 ( 89.38%)    -0.89877 ( 10.62%)    -1.09961
      16     94.15    -1.06499 ( 92.63%)    -0.86908 (  7.37%)    -1.05056
      17    109.25    -0.97859 ( 95.80%)    -0.82500 (  4.20%)    -0.97213
      18    122.08    -0.91448 ( 97.26%)    -0.79211 (  2.74%)    -0.91113
      19    126.79    -0.89271 ( 97.64%)    -0.78089 (  2.36%)    -0.89007
      20    146.62    -0.80967 ( 98.67%)    -0.73785 (  1.33%)    -0.80871
      21    163.06    -0.74955 ( 99.12%)    -0.70637 (  0.88%)    -0.74918
      22    181.51    -0.68958 ( 99.43%)    -0.67461 (  0.57%)    -0.68949
      23    186.12    -0.67566 ( 99.48%)    -0.66718 (  0.52%)    -0.67561
      24    212.32    -0.60333 ( 99.69%)    -0.62816 (  0.31%)    -0.60341
      25    215.11    -0.59627 ( 99.71%)    -0.62430 (  0.29%)    -0.59635
      26    218.20    -0.58853 ( 99.73%)    -0.62006 (  0.27%)    -0.58862
      27    236.54    -0.54524 ( 99.80%)    -0.59616 (  0.20%)    -0.54534
      28    239.92    -0.53770 ( 99.81%)    -0.59196 (  0.19%)    -0.53781
      29    279.87    -0.45750 ( 99.90%)    -0.54633 (  0.10%)    -0.45759
      30    284.13    -0.44980 ( 99.90%)    -0.54185 (  0.10%)    -0.44989
   ------------------------------------------------------------------------

   temp. (K)  partition function   enthalpy   heat capacity  entropy
                                   cal/mol     cal/K/mol   cal/K/mol   J/K/mol
 298.15  VIB  0.117E+19            22064.611    136.242    139.527
         ROT  0.102E+09              888.752      2.981     39.629
         INT  0.120E+27            22953.364    139.223    179.156
         TR   0.139E+29             1481.254      4.968     44.997
         TOT                       24434.6177   144.1911   224.1529   937.8556

       T/K    H(0)-H(T)+PV         H(T)/Eh          T*S/Eh         G(T)/Eh
   ------------------------------------------------------------------------
    298.15    0.389390E-01    0.611715E+00    0.106502E+00    0.505213E+00
   ------------------------------------------------------------------------

         :::::::::::::::::::::::::::::::::::::::::::::::::::::
         ::                  THERMODYNAMIC                  ::
         :::::::::::::::::::::::::::::::::::::::::::::::::::::
         :: total free energy        -116.715877656880 Eh   ::
         ::.................................................::
         :: total energy             -117.221090329641 Eh   ::
         :: zero point energy           0.572775887582 Eh   ::
         :: G(RRHO) w/o ZPVE           -0.067563214821 Eh   ::
         :: G(RRHO) contrib.            0.505212672761 Eh   ::
         :::::::::::::::::::::::::::::::::::::::::::::::::::::

optimized geometry written to: xtbopt.xyz


           -------------------------------------------------
          | TOTAL ENERGY             -117.221090329641 Eh   |
          | TOTAL ENTHALPY           -116.609375400123 Eh   |
          | TOTAL FREE ENERGY        -116.715877656880 Eh   |
          | GRADIENT NORM               0.000079761437 Eh/α |
          | HOMO-LUMO GAP               1.747358685356 eV   |
           -------------------------------------------------

------------------------------------------------------------------------
 * finished run on 2025/09/14 at 11:28:46.603     
------------------------------------------------------------------------
 total:
 * wall-time:     0 d,  0 h,  0 min,  7.718 sec
 *  cpu-time:     0 d,  0 h,  4 min, 56.546 sec
 * ratio c/w:    38.424 speedup
 SCF:
 * wall-time:     0 d,  0 h,  0 min,  0.148 sec
 *  cpu-time:     0 d,  0 h,  0 min,  5.800 sec
 * ratio c/w:    39.216 speedup
 ANC optimizer:
 * wall-time:     0 d,  0 h,  0 min,  4.388 sec
 *  cpu-time:     0 d,  0 h,  2 min, 55.491 sec
 * ratio c/w:    39.996 speedup
 analytical hessian:
 * wall-time:     0 d,  0 h,  0 min,  3.034 sec
 *  cpu-time:     0 d,  0 h,  1 min, 49.878 sec
 * ratio c/w:    36.213 speedup

