75
 energy: -117.146427304524 gnorm: 0.000068498139 xtb: 6.7.1 (edcfbbe)
N            0.27102701872831        1.41310690032945       -0.86550543334949
C            0.14943462149888        0.27956756479827       -0.65051397162477
C            0.04039608376993       -1.09022698890555       -0.47285716831661
C            1.19947746308246       -1.88631728296688       -0.41727809171135
C            2.53031626724606       -1.29928851459765       -0.24391660141040
C            2.74933098946669       -0.18366076724729        0.56546620778078
C            4.01147744255887        0.35020735332162        0.70000021885779
C            5.10012467217373       -0.21918871729041        0.03135405237395
N            6.37157047738243        0.33316282965318        0.15150623523390
C            7.50074919318845       -0.49620974777062        0.16538503640820
C            7.46637821667006       -1.72129745475813        0.83356819201647
C            8.58335429635594       -2.53400821893143        0.84872860530921
C            9.74687136295265       -2.13945555845669        0.20640037649088
C            9.78607638264612       -0.92233127182712       -0.45612946071458
C            8.67357112666669       -0.10368822686073       -0.48135319551992
C            6.52881600379432        1.72134328365514        0.24988523986323
C            5.70555837885683        2.57946761787420       -0.48149969470993
C            5.87096186606232        3.94754054259043       -0.38476380947010
C            6.85587240569019        4.47968077982232        0.43306114391198
C            7.67659079518371        3.63111198271167        1.15985603903393
C            7.51705926039623        2.26167179570587        1.07451771714268
C            4.88784838594164       -1.35713261107764       -0.75508249113403
C            3.62495261854277       -1.88753037631440       -0.88254571152778
N            1.15488161798110       -3.20686756321078       -0.55910789398108
C           -0.05197315782064       -3.76398774153099       -0.75879498335145
N           -1.18707138406732       -3.14262325489585       -0.72516610967757
C           -1.23304179010213       -1.80508652802203       -0.52625787590367
C           -2.51332615950996       -1.21395374008510       -0.37147375171352
C           -2.72098412455259        0.10260606307246        0.11172920549562
C           -3.98086669601141        0.61790351823501        0.25479309050648
C           -5.11580235276204       -0.14260633581440       -0.07540391289442
N           -6.39758774661286        0.38933569381838        0.06220233112640
C           -6.62763735937363        1.73452329905404       -0.22032446806953
C           -7.54857343511917        2.46897769997280        0.53491970397762
C           -7.76462821238094        3.80361401932601        0.25847154694941
C           -7.07160633497347        4.42991796245811       -0.76743782056734
C           -6.15574035091126        3.70728633665750       -1.51856445367000
C           -5.93120429872111        2.37168804500360       -1.25269459830366
C           -7.44483959906656       -0.42926942187437        0.48407997158672
C           -8.72919798880204       -0.26728033656530       -0.04616478268437
C           -9.75759768494566       -1.09048674345057        0.36556432551464
C           -9.52856398253336       -2.08512147451391        1.30539562175470
C           -8.25674510973722       -2.25048194621862        1.83454954153424
C           -7.21995473209478       -1.43344464123142        1.43135947821930
C           -4.92859875362618       -1.45880495565673       -0.54067536453189
C           -3.67340643171384       -1.97766951500278       -0.67540900534015
H            1.92848498709583        0.25454421982495        1.11346542109050
H            4.16736554129710        1.20675694373532        1.33866317110475
H            6.56412644833127       -2.02239559972033        1.34523065727865
H            8.54697096894610       -3.47742380615695        1.37290383511949
H           10.61788081190757       -2.77668708582885        0.22244808137144
H           10.68672435703874       -0.61152650684123       -0.96428212620121
H            8.70029747696657        0.83849566339224       -1.00827436523740
H            4.94514262041019        2.16689711042345       -1.12832360068661
H            5.23013829167525        4.60062850149551       -0.95827218204561
H            6.98254762056271        5.54922873636199        0.50332265199644
H            8.44125808696960        4.03850721490202        1.80430477238687
H            8.14748465845477        1.60144788745158        1.65145728543778
H            5.71897793475071       -1.80713431609087       -1.27714664183466
H            3.45651514727329       -2.75919313536589       -1.49629921126111
H           -0.06360549463170       -4.83089544447839       -0.93906463442552
H           -1.87361184284641        0.70365053631790        0.40082483589879
H           -4.11083055601496        1.61391511044642        0.65323268278633
H           -8.07235181176129        1.98751587008524        1.34724206477220
H           -8.47127627648990        4.36252903247510        0.85357565299695
H           -7.24229643665854        5.47428511751283       -0.97908800570832
H           -5.61666783178269        4.18629982987625       -2.32225456414596
H           -5.22929817874820        1.80536795176930       -1.84673950546595
H           -8.90274666893074        0.49309128586337       -0.79302398760778
H          -10.74299496701478       -0.96276147018911       -0.05699700749921
H          -10.33550377847888       -2.72764097469915        1.62279789531703
H           -8.07292187332036       -3.01777808782183        2.57173587191090
H           -6.23287728895078       -1.55070401138225        1.85338126951838
H           -5.79129033350058       -2.04852830056387       -0.81517857887295
H           -3.52985510046383       -2.98219657094278       -1.04139421597924
