$hessian                                                                        
        0.5150846510   0.0183117768   0.0194235499  -0.1164349222   0.0422766721
        0.0600248733   0.0045911572  -0.0026779286  -0.0035494356   0.0000018851
       -0.0017601674  -0.0015649342   0.0000836515  -0.0000260251  -0.0000591738
        0.0000319465  -0.0000870312  -0.0000006682  -0.0000067913   0.0000047277
        0.0000027782  -0.0000215021  -0.0000114703   0.0000095601   0.0000226350
       -0.0000146934   0.0000145210  -0.0000121771   0.0000027678  -0.0000050895
       -0.0000524473  -0.0000000526  -0.0000021921  -0.0001007859  -0.0000668672
       -0.0000686548  -0.0000023642  -0.0000267848  -0.0000010998   0.0000112943
       -0.0000046187   0.0000028995   0.0000035002   0.0000000233   0.0000008465
        0.0000188460  -0.0000001114  -0.0000033235   0.0000132321  -0.0000282756
        0.0000091420  -0.0000654402   0.0001968244   0.0004129902   0.0001707223
       -0.0001710234  -0.0005565762  -0.0000496436  -0.0000359956   0.0002317120
        0.0001329122  -0.0000093085  -0.0000281805  -0.0000390839  -0.0000561300
        0.0000050402   0.0000423259   0.0000273606  -0.0000242938  -0.0000573301
        0.0000205683  -0.0000204568   0.0000602877   0.0000949423  -0.0000490532
       -0.0000595718   0.0001258160   0.0000592968   0.0000118750  -0.0000206185
       -0.0000269612   0.0000036390   0.0000462961  -0.0000273576  -0.0000032993
        0.0000369231   0.0000335806   0.0000071187  -0.0000280916   0.0000048665
        0.0000507420  -0.0000381055   0.0000250175  -0.0047168308  -0.0018626014
       -0.0007814958  -0.0248489428   0.0135088660   0.0200931277   0.0001624196
        0.0011806106   0.0010588536  -0.0472694797  -0.0334262493   0.0012165705
       -0.2678934770  -0.0511410721  -0.0380616673  -0.0580200532   0.0154365081
       -0.0579283941   0.0011007058  -0.0010727725  -0.0017250116   0.0000179525
        0.0000004456   0.0000116459   0.0000036619   0.0000052500  -0.0000082585
       -0.0000079219  -0.0000064798  -0.0000124064  -0.0000015690  -0.0000166951
        0.0000176228   0.0000138789  -0.0000040581  -0.0000024043   0.0000024926
        0.0000170054   0.0000046182  -0.0000227024   0.0000062491  -0.0000037748
        0.0000367157   0.0000038596  -0.0000028698  -0.0000185638   0.0000011280
       -0.0000017857  -0.0000241637   0.0000018068   0.0000076025  -0.0000031803
        0.0000058234   0.0000062795  -0.0000037471   0.0000066974   0.0000227983
       -0.0000082479  -0.0000176019   0.0000271097   0.0000189440   0.0000061452
        0.0000231328  -0.0000290667   0.0000326998   0.0000091473  -0.0000247542
        0.0000092215  -0.0000055840  -0.0000208439   0.0000126747  -0.0000063070
        0.0000066609   0.0000116187  -0.0000003263  -0.0000282119   0.0000103701
       -0.0000020340  -0.0000346216  -0.0000412401   0.0000438574  -0.0009740715
        0.0007833057   0.0009856038  -0.0003064273   0.0002119876   0.0000899576
       -0.0004235815  -0.0000724482   0.0002349712  -0.0001200363   0.0003275463
        0.0004161975
        0.0183117768   0.4861158759  -0.0022025806   0.0387197221  -0.0944623423
       -0.0488389725   0.0083003384  -0.0117515517  -0.0199769578  -0.0026876321
        0.0031422827  -0.0038911724  -0.0000263852  -0.0003974756  -0.0004945834
        0.0003365704  -0.0000199212   0.0001673530  -0.0000603677   0.0001480877
       -0.0001103562   0.0001279456   0.0000071360   0.0000193308  -0.0001314126
        0.0000483449  -0.0000419938   0.0000865998  -0.0000913937   0.0000575228
       -0.0001433931  -0.0000362080  -0.0000481203   0.0003316000   0.0000043136
        0.0000027817  -0.0000802994   0.0001150944  -0.0000697509  -0.0000306348
       -0.0000635092  -0.0000492342  -0.0000089484   0.0000213630  -0.0000086019
       -0.0000310884  -0.0000488066   0.0000361514  -0.0000747737   0.0001066109
        0.0000398901   0.0003179440  -0.0010003363  -0.0012443667  -0.0005132715
       -0.0001346347   0.0013565753   0.0002400209   0.0000244778  -0.0002667183
       -0.0001999854   0.0000446663   0.0000523580   0.0000799772   0.0001263315
       -0.0000416055  -0.0000668799  -0.0000573458   0.0000396055   0.0001197347
       -0.0000172260   0.0000129003  -0.0000763739  -0.0001658957   0.0001166565
        0.0005428222  -0.0003635119  -0.0000851199  -0.0000220536   0.0000710574
        0.0001613864  -0.0000356058  -0.0000955634   0.0000877243   0.0000070849
        0.0000221612  -0.0000791018  -0.0000299042  -0.0000111040   0.0000152223
       -0.0000411523  -0.0000356950  -0.0002239886  -0.0014215919   0.0050444800
       -0.0018635603   0.0044124831   0.0009115235   0.0000333883  -0.0005225479
       -0.0028793393   0.0008978535  -0.0299792701  -0.2708732963   0.0182888123
       -0.0509523796  -0.0558003677  -0.0076434642   0.0160980705  -0.0572866542
        0.0642934188   0.0011435265  -0.0009361791   0.0013121565  -0.0000160637
       -0.0000693353   0.0000084808  -0.0000186661   0.0000179518  -0.0000153053
       -0.0000080039   0.0000077636  -0.0000034665  -0.0000140473   0.0000103497
       -0.0000337607  -0.0000062149   0.0000205089  -0.0000076292   0.0000449620
        0.0000379038  -0.0000676829   0.0000318121  -0.0000061624   0.0000110116
       -0.0000319552  -0.0000200309   0.0000008268   0.0000257150  -0.0000108428
        0.0000013307   0.0000382087  -0.0000033690   0.0000065268  -0.0000082482
       -0.0000072995  -0.0000037032   0.0000097353  -0.0000055455  -0.0000278584
        0.0000120404   0.0000233425  -0.0000276575  -0.0000203109  -0.0000007914
       -0.0000278314   0.0000198078  -0.0000395952  -0.0000227404   0.0000429018
        0.0000095082   0.0000071330   0.0000249274  -0.0000305099   0.0000077426
       -0.0000020169  -0.0000132023   0.0000032930   0.0000309558  -0.0000227384
        0.0000176578   0.0000113814   0.0000081465  -0.0000348810  -0.0002045223
       -0.0000224708   0.0001092601  -0.0018553456   0.0003895093  -0.0003033276
        0.0000408698   0.0002737602   0.0005778739  -0.0001881879   0.0000277003
        0.0000138686
        0.0194235499  -0.0022025806   0.4802735784   0.0549744189  -0.0502119936
       -0.1287120580   0.0099346146  -0.0171725585  -0.0191963376  -0.0017090748
       -0.0050899972  -0.0003664579   0.0007491513   0.0000917754   0.0000627142
       -0.0002672088  -0.0000956038  -0.0002486506   0.0000843671  -0.0001910106
        0.0001655861  -0.0000416817  -0.0000173656   0.0000087305   0.0000059896
       -0.0000608236   0.0000212761  -0.0001030520   0.0000944906  -0.0000612590
        0.0001449457   0.0001467560   0.0000537068  -0.0005677799   0.0000249272
       -0.0000287059   0.0001012670  -0.0001476461   0.0000974195   0.0000453562
        0.0001204914  -0.0000182090  -0.0000119041  -0.0000782055   0.0000059397
        0.0000334331   0.0000372883  -0.0000254697   0.0000352718  -0.0001075422
        0.0000652045   0.0006495105  -0.0001012711  -0.0001164131   0.0004916880
        0.0009227658  -0.0004862409  -0.0002644407  -0.0002406869   0.0000635305
        0.0001166038   0.0000810562   0.0000075979  -0.0000199007  -0.0000697187
        0.0000248935   0.0000193291   0.0000079336   0.0000018165  -0.0000626904
       -0.0000414821   0.0000106086   0.0000553808   0.0000376060   0.0000052654
       -0.0004426483   0.0000332912   0.0000234660   0.0000377222   0.0000396982
        0.0000027800   0.0000315100   0.0000437043  -0.0000725417  -0.0000009990
       -0.0000531761   0.0000613040   0.0000078002   0.0000334355  -0.0000135327
        0.0000361993   0.0000589255   0.0000498764  -0.0002651759  -0.0029678651
        0.0027212552   0.0082974061  -0.0002741991  -0.0011054213  -0.0011620693
        0.0006773383  -0.0024683800   0.0024525136   0.0216350048  -0.0395058670
       -0.0378120074  -0.0076368747  -0.0499872269  -0.0538125066   0.0612953933
       -0.2419511050   0.0012354898   0.0015621396  -0.0001819644   0.0000022441
       -0.0000828553   0.0000325300  -0.0000140273   0.0000117248  -0.0000152507
       -0.0000148082   0.0000076823  -0.0000038626  -0.0000265944   0.0000118782
       -0.0000664677   0.0000095579   0.0000224861  -0.0000053751   0.0000399822
        0.0000016948  -0.0000814382   0.0000287691  -0.0000281464   0.0000388728
       -0.0000610217  -0.0000207981   0.0000140641   0.0000282921  -0.0000272742
        0.0000014172   0.0000055227   0.0000116915  -0.0000233316   0.0000044563
       -0.0000105676   0.0000041823   0.0000231534  -0.0000069403  -0.0000457516
        0.0000230434   0.0000414076  -0.0000301976  -0.0000278777   0.0000154562
       -0.0000467791  -0.0000010359  -0.0000288420  -0.0000206747  -0.0000020466
       -0.0000077619   0.0000138432   0.0000286600  -0.0000138080   0.0000045612
       -0.0000117197  -0.0000179350   0.0000089249   0.0000291312  -0.0000174056
        0.0000155570   0.0000301760  -0.0000047145  -0.0000350442  -0.0002508053
       -0.0000876471   0.0000703002  -0.0003439401   0.0006291608   0.0003246659
       -0.0016665859  -0.0005478177   0.0006467159  -0.0002529048  -0.0000340888
        0.0000178293
       -0.1164349222   0.0387197221   0.0549744189   0.6083697508   0.0236439339
       -0.0267638271  -0.1174679570  -0.0200370742  -0.0199598785   0.0456079948
       -0.0070959259  -0.0158587268  -0.0017891121  -0.0048091315   0.0001002247
        0.0021957505   0.0011303734   0.0050090493  -0.0019129550   0.0027852046
       -0.0024476380   0.0025122675   0.0005389681   0.0004284850  -0.0017055059
        0.0008478777  -0.0006621477   0.0020601004  -0.0020467990   0.0008837400
       -0.0027611631  -0.0019706964  -0.0018503544   0.0005972812   0.0026487541
       -0.0034950738   0.0002748168  -0.0007067686   0.0028117948  -0.0001291813
        0.0012725071  -0.0003202362  -0.0000489832  -0.0007484112   0.0020360509
        0.0004174821   0.0016364587  -0.0027673013   0.0005168741  -0.0031245837
       -0.0002948464  -0.0285617334  -0.0106169613  -0.0003571783   0.0078166682
       -0.0090127818  -0.0109916356  -0.0059744611   0.0006193594   0.0068436136
        0.0048719245  -0.0020717768  -0.0019544559  -0.0021763884  -0.0032276223
        0.0011751296   0.0023500969   0.0014387381  -0.0008735058  -0.0038337285
       -0.0000837579   0.0002793173   0.0017693267   0.0050536477  -0.0036550209
       -0.0075037964   0.0026641035  -0.0016135790   0.0011265869  -0.0010526224
       -0.0006942065   0.0001227207   0.0014431563  -0.0026319512  -0.0000563521
       -0.0002398255   0.0022582520   0.0003820758   0.0002409807  -0.0003240026
        0.0005221298   0.0005308799   0.0022016629  -0.0509135795   0.0377155972
        0.0499390433  -0.2842729335  -0.0459850039  -0.0301347137  -0.0190943168
       -0.0089415116  -0.0084505803   0.0026617012   0.0027041380   0.0003167931
       -0.0229432586   0.0131555737   0.0193446276   0.0049407261  -0.0018030918
       -0.0000667575  -0.0167467279  -0.0172433315  -0.0180101683   0.0001571726
        0.0003913615   0.0001066298  -0.0000453589   0.0001821174   0.0000378636
       -0.0000013718   0.0000493806  -0.0000707230  -0.0000331361  -0.0000051998
        0.0000990407   0.0000356857   0.0000286960   0.0001076756  -0.0001985142
        0.0000801360   0.0003572784   0.0000403808  -0.0000038118   0.0001685422
       -0.0001074683  -0.0000114289   0.0000711333  -0.0000232031  -0.0000262476
       -0.0000300504   0.0000124137   0.0000095832   0.0000290459   0.0001069349
       -0.0000373303   0.0001344230  -0.0000117561  -0.0000733822   0.0001553950
        0.0000189352   0.0000674937  -0.0000167615  -0.0000678428   0.0001629728
        0.0000705052  -0.0000386830   0.0005409988   0.0000581719  -0.0003039946
       -0.0000688359   0.0000969343  -0.0000275646   0.0001140327  -0.0000151318
       -0.0000487422  -0.0000030549   0.0000451786  -0.0000524284   0.0000083836
        0.0000800311   0.0000959165   0.0000593648   0.0004468784  -0.0010668888
        0.0003961725   0.0026430670  -0.0008695858   0.0015208364   0.0006895888
       -0.0007006780   0.0001462051   0.0018571348  -0.0016594415  -0.0015007406
       -0.0015462684
        0.0422766721  -0.0944623423  -0.0502119936   0.0236439339   0.3189284482
        0.2187603624  -0.0758630357  -0.1168801794  -0.0827956860   0.0293343113
       -0.0262680116  -0.0472555314   0.0016832282  -0.0003765628  -0.0003361421
       -0.0001668807  -0.0002504905   0.0015255929  -0.0004897474   0.0006237932
       -0.0004188752   0.0003784960   0.0001700472   0.0001493086  -0.0002486720
        0.0005531309  -0.0001593243   0.0006000615  -0.0008556277   0.0003289462
       -0.0008777220  -0.0005638111  -0.0007792966  -0.0034769731   0.0010828895
       -0.0025893174   0.0007416798  -0.0011489859   0.0019653856   0.0001178306
        0.0013902404  -0.0000207293  -0.0000175212  -0.0007782204   0.0008426145
        0.0007305188   0.0010165321  -0.0013603179   0.0012801775  -0.0026781091
       -0.0002034816  -0.0125216779  -0.0011712103   0.0181927811   0.0083207140
       -0.0073537951  -0.0134549984  -0.0046381321   0.0004141449   0.0048001367
        0.0029030977  -0.0012235813  -0.0008919810  -0.0013118877  -0.0018824352
        0.0005770312   0.0014320974   0.0008223343  -0.0005095888  -0.0024095808
       -0.0001320324  -0.0000254016   0.0011474055   0.0033121249  -0.0022801621
       -0.0079147632   0.0016255677   0.0010553745   0.0011281258   0.0012170980
       -0.0006758794   0.0006362300   0.0005422015  -0.0009310875  -0.0001508974
        0.0003188407   0.0011333127   0.0005389089  -0.0006252970  -0.0000641847
        0.0008133144   0.0009191278   0.0003439144   0.0063594279   0.0049412314
        0.0031633977  -0.0019414941  -0.0634205225  -0.0157640974  -0.0179975437
       -0.0040951411  -0.0025116321   0.0167733965  -0.0199061508  -0.0226477820
       -0.0012896486   0.0026884683   0.0032862759  -0.0044055901   0.0030118733
       -0.0008053552  -0.0028879140  -0.0018857314  -0.0024138138   0.0002632077
        0.0002160654   0.0000468414   0.0000046921   0.0000525440   0.0000096732
        0.0000443826   0.0000179763  -0.0000752167  -0.0000117581   0.0000196491
        0.0000442134   0.0001363974   0.0000522831   0.0000300288  -0.0003607316
       -0.0000598091   0.0003765522  -0.0000796134   0.0000088911   0.0000866466
       -0.0000922486   0.0000182219   0.0000496813  -0.0001307173  -0.0000609194
       -0.0000275373  -0.0002481543   0.0000295098   0.0000103793   0.0001647748
       -0.0000162514   0.0000712533  -0.0000442847  -0.0000482309   0.0000970942
        0.0000115753   0.0000229113   0.0000972914  -0.0000267503   0.0000538526
        0.0000657213   0.0001914394   0.0003667664  -0.0000400896  -0.0004212195
       -0.0000590117   0.0001086587  -0.0001355459   0.0001610412   0.0000073996
       -0.0000378295   0.0000417580   0.0000085160  -0.0001420921  -0.0000156164
       -0.0000129736   0.0000389548  -0.0000914188   0.0002697343   0.0013177916
        0.0023833136  -0.0047762310  -0.0004969794   0.0000158070  -0.0003724399
       -0.0001598472   0.0007193005  -0.0001421787  -0.0020153894  -0.0014484897
       -0.0029507932
        0.0600248733  -0.0488389725  -0.1287120580  -0.0267638271   0.2187603624
        0.4198029125  -0.0854284126  -0.0906202908  -0.1489982032   0.0274347358
       -0.0348335954  -0.0502389104   0.0038304413  -0.0040222230   0.0049121156
       -0.0007280721   0.0006829870   0.0017463374  -0.0006715626   0.0006456795
       -0.0006606800   0.0005803811   0.0003824938   0.0001792590  -0.0004246237
        0.0002753229  -0.0001511379   0.0005640136  -0.0006792578   0.0002282570
       -0.0006964538  -0.0008656900  -0.0008325500  -0.0029551630   0.0003325914
       -0.0035038156   0.0008888419  -0.0007849199   0.0018147634   0.0001253599
        0.0012569565  -0.0000390871  -0.0000339675  -0.0006585567   0.0010502936
        0.0006243175   0.0009645712  -0.0016245013   0.0009176072  -0.0027760857
       -0.0000067628  -0.0131760148   0.0055948384   0.0148197116   0.0088186819
       -0.0085745149  -0.0128437073  -0.0050720027   0.0007863978   0.0053271956
        0.0034003459  -0.0016348510  -0.0011975542  -0.0015134100  -0.0021174696
        0.0007258825   0.0018118575   0.0008289740  -0.0006089198  -0.0029988782
       -0.0000434026   0.0000971157   0.0013767522   0.0038302634  -0.0028680761
       -0.0075192533   0.0022255439   0.0002555205   0.0010549997   0.0004432374
       -0.0007709218   0.0004870259   0.0008061439  -0.0014767923  -0.0001101475
        0.0001312968   0.0014917509   0.0004895372  -0.0003459370  -0.0001232503
        0.0005730742   0.0008190523   0.0009979196   0.0132663633   0.0034439517
        0.0004698978   0.0280815607  -0.0099485868  -0.0690066921  -0.0201416968
       -0.0045515832  -0.0018573311  -0.0008483830  -0.0065445582  -0.0017410062
        0.0011528951   0.0015550345   0.0020834352   0.0154719622  -0.0153601769
       -0.0272697759  -0.0018937722  -0.0020951392  -0.0006181785   0.0002679559
        0.0002935506  -0.0000734924   0.0000111295   0.0000386058   0.0000434125
        0.0000736446   0.0000165831  -0.0000704377   0.0000277889   0.0000195281
        0.0000778756   0.0001329627   0.0000722745   0.0000528909  -0.0003239858
       -0.0000671522   0.0004673034  -0.0000859572   0.0000313148   0.0000634071
       -0.0000538930   0.0000241572   0.0000474255  -0.0000965342  -0.0000704055
       -0.0000134937  -0.0002345696   0.0000051597  -0.0000048111   0.0001501792
       -0.0000019136   0.0000782583  -0.0000643219  -0.0000454960   0.0001424026
       -0.0000106090   0.0000025377   0.0000834737  -0.0000134253   0.0000659152
        0.0001206848   0.0001622128   0.0004056208  -0.0000349984  -0.0004002010
       -0.0000533664   0.0000774139  -0.0001104549   0.0001725373  -0.0000015091
       -0.0000449360   0.0000491086   0.0000059118  -0.0001274544   0.0000133409
       -0.0000225906   0.0001246960  -0.0001312469   0.0002819678   0.0032195001
       -0.0052369708   0.0000031680  -0.0001453804  -0.0008380828   0.0003796243
       -0.0003611923  -0.0002235202  -0.0001354620  -0.0020971416  -0.0030119674
       -0.0024208809
        0.0045911572   0.0083003384   0.0099346146  -0.1174679570  -0.0758630357
       -0.0854284126   0.6447997508   0.0112821727  -0.0329034423  -0.1658844914
        0.0790715418   0.1006977192   0.0086620701   0.0112565300   0.0119800575
       -0.0036077044  -0.0022529305  -0.0074144113   0.0019514746  -0.0035294383
        0.0026559022  -0.0025560726  -0.0003315623  -0.0001130638   0.0015499487
       -0.0009584830   0.0006675274  -0.0023570163   0.0021057994  -0.0007559583
        0.0028696802   0.0021650887   0.0016192399  -0.0050106156  -0.0047341636
        0.0002607719   0.0003919373  -0.0005004467  -0.0019399747   0.0003159585
       -0.0000231759   0.0001232950   0.0000060449   0.0001368745  -0.0016492359
        0.0002272441  -0.0010873289   0.0018094186   0.0001831790   0.0008503883
        0.0011042481  -0.0392593501   0.0095172326   0.0217524181  -0.0034874412
        0.0032127469  -0.0007224627   0.0000455045  -0.0000929720  -0.0020646046
       -0.0017980296   0.0007269854   0.0012556345   0.0006361280   0.0012748601
       -0.0004746448  -0.0005983782  -0.0007058083   0.0002305276   0.0011732223
        0.0000197822  -0.0002624190  -0.0007672406  -0.0014334891   0.0014719026
       -0.0009301065  -0.0018016142   0.0032850809   0.0004814362   0.0029032543
        0.0003968637   0.0007005432  -0.0009179132   0.0016608329  -0.0000710715
        0.0007479380  -0.0011078442   0.0002008717  -0.0012034384   0.0002960619
        0.0004943628   0.0008563006  -0.0021558487   0.0101843972  -0.0030796501
       -0.0054844556  -0.0370480638  -0.0160426691  -0.0149377945  -0.0050082126
       -0.0007211638   0.0006887786  -0.0009651798   0.0017797235   0.0017974897
        0.0007504374   0.0016405584   0.0019621673  -0.0008699665   0.0012368447
        0.0020618925  -0.2928686731  -0.0226619757  -0.0078304838   0.0001850869
       -0.0005201300  -0.0001718088   0.0000119250  -0.0000883594  -0.0001048603
        0.0000130411  -0.0000343762  -0.0000358556  -0.0000488425   0.0000402847
       -0.0002536071   0.0001414580   0.0000405382  -0.0001482091   0.0006029559
        0.0001202942  -0.0003631898  -0.0000948991  -0.0000385420  -0.0000107387
       -0.0000411153  -0.0000386687  -0.0000244712   0.0000172857  -0.0001657086
        0.0000200020  -0.0002349231   0.0000149000  -0.0000477125   0.0001127452
       -0.0000429819  -0.0000483983  -0.0000419263  -0.0000105835  -0.0001393522
        0.0000234476   0.0000339635   0.0000545482  -0.0000497301  -0.0001160685
       -0.0000726412   0.0002162796  -0.0001543001  -0.0000697931  -0.0001520220
       -0.0000238427  -0.0000844970  -0.0001296726  -0.0000051992   0.0000256083
       -0.0000296113  -0.0000154697  -0.0000473046  -0.0000630166  -0.0000530384
       -0.0000909906  -0.0004051019  -0.0001678792  -0.0002602113   0.0007215866
        0.0003600275  -0.0003114523  -0.0000039262   0.0004299835   0.0001050416
        0.0001562808   0.0001601724   0.0006017141  -0.0005670833  -0.0008687175
       -0.0009892086
       -0.0026779286  -0.0117515517  -0.0171725585  -0.0200370742  -0.1168801794
       -0.0906202908   0.0112821727   0.2838864601   0.2234691857   0.0477960519
       -0.1060263782  -0.0711548153  -0.0003686796  -0.0132930933  -0.0225157758
        0.0031820561   0.0006850010   0.0021083223  -0.0008235814   0.0008102362
       -0.0008435447   0.0009229077   0.0001485036  -0.0002817065  -0.0005160492
       -0.0004776362  -0.0001066191   0.0003385657   0.0000709238  -0.0000824290
       -0.0007609093  -0.0003944329   0.0003092616   0.0065138994   0.0012107313
        0.0044829019  -0.0014818266   0.0011577168  -0.0020679036  -0.0000156325
       -0.0020106908   0.0000255896   0.0000443801   0.0010766993  -0.0004992058
       -0.0010826123  -0.0008991468   0.0013988973  -0.0018891356   0.0035356477
       -0.0004246326   0.0271974966   0.0011160904  -0.0250207817  -0.0116819085
        0.0119298061   0.0147069714   0.0061523876  -0.0009131758  -0.0050521024
       -0.0036694285   0.0018569161   0.0010431086   0.0016460349   0.0021557836
       -0.0007982542  -0.0020782750  -0.0008125324   0.0006905826   0.0031920783
        0.0000444702  -0.0000259506  -0.0012601565  -0.0044422853   0.0029370301
        0.0110636786  -0.0013103256  -0.0017801540  -0.0019102566  -0.0024245279
        0.0005967109  -0.0011168286  -0.0003620276   0.0008326843   0.0002217264
       -0.0006258149  -0.0011814024  -0.0007904260   0.0011755413  -0.0000249699
       -0.0011276396  -0.0016586728   0.0001981706   0.0066469663  -0.0053902980
       -0.0002208117  -0.0487368965  -0.0070754959  -0.0007833071  -0.0002932237
        0.0052485284  -0.0028666926   0.0007261702  -0.0004300861  -0.0012233424
       -0.0013361331   0.0002874381   0.0006950212   0.0001834316  -0.0007585646
        0.0006528487  -0.0247338347  -0.0373032358  -0.0077025512  -0.0001443972
        0.0003486715  -0.0001106225  -0.0000230108   0.0000105917   0.0000229676
       -0.0000252432   0.0000203607   0.0001446867   0.0000565163  -0.0000218357
        0.0000462087  -0.0001597126   0.0000619381   0.0000227540   0.0000819908
       -0.0011375385   0.0001824916   0.0001312827   0.0000032185  -0.0000923746
        0.0001112107  -0.0000201401  -0.0000543077   0.0001186437   0.0001990775
        0.0000218101   0.0004232563   0.0000379683   0.0000647298  -0.0002716354
        0.0000239216  -0.0000638052   0.0001043108   0.0000971324  -0.0000702429
       -0.0000060477  -0.0000669206  -0.0000609836   0.0001192038  -0.0000121458
       -0.0000659904  -0.0003448422  -0.0004114418   0.0001419587   0.0005792179
        0.0001209890  -0.0000729052   0.0002084952  -0.0001821302  -0.0000367260
        0.0000930269  -0.0000336788   0.0000095099   0.0001539446   0.0000490326
        0.0000629160   0.0000793159   0.0002373074  -0.0001561294   0.0000469654
        0.0002136739  -0.0002492776   0.0004545406   0.0000747920   0.0004831631
       -0.0007450456  -0.0006561860  -0.0013971518   0.0002364454  -0.0001129998
       -0.0004701643
       -0.0035494356  -0.0199769578  -0.0191963376  -0.0199598785  -0.0827956860
       -0.1489982032  -0.0329034423   0.2234691857   0.3784453100   0.0688461711
       -0.0885508146  -0.1307454927  -0.0024485777  -0.0162759039  -0.0320620206
        0.0052641257   0.0014361627   0.0036810193  -0.0015471681   0.0022493172
       -0.0019714455   0.0022296943   0.0003008878  -0.0003156912  -0.0012271929
       -0.0007240118  -0.0002730216   0.0007754874  -0.0002053045  -0.0000482156
       -0.0016650238  -0.0011572826   0.0000810818   0.0103300108   0.0037432244
        0.0047634693  -0.0012532598   0.0014839654  -0.0015236770  -0.0004921107
       -0.0018535796   0.0002328221   0.0000436232   0.0010102399  -0.0000535211
       -0.0015120825  -0.0005243959   0.0007181714  -0.0024465028   0.0034580913
       -0.0009228656   0.0359334905  -0.0044411210  -0.0335234926  -0.0164185576
        0.0061190305   0.0247164008   0.0088943624   0.0001821436  -0.0064364013
       -0.0051848385   0.0020020836   0.0013762868   0.0021309315   0.0029921554
       -0.0011841376  -0.0026472788  -0.0011232448   0.0009057172   0.0042410067
        0.0001294245  -0.0000379502  -0.0018420605  -0.0057604627   0.0038182915
        0.0171150499  -0.0015731589  -0.0036623020  -0.0025048821  -0.0040995293
        0.0010750443  -0.0017859091  -0.0004241743   0.0008210026   0.0003099586
       -0.0010949261  -0.0015216277  -0.0013060665   0.0020883647  -0.0000308652
       -0.0017264064  -0.0030286100   0.0004785722   0.0061750987   0.0008554501
        0.0007530431  -0.0528204286  -0.0082139832  -0.0009771225   0.0009602201
       -0.0016955967   0.0027124550   0.0005699344   0.0001767510  -0.0014221696
       -0.0017682426   0.0004722309   0.0005411271   0.0006494330  -0.0011858428
       -0.0003807004  -0.0086657267  -0.0066674575  -0.0380123555  -0.0008920945
        0.0001080898  -0.0006973612  -0.0000230269  -0.0000451376   0.0000658988
       -0.0000853209  -0.0000194231   0.0002285846   0.0000675960  -0.0000795976
        0.0001247200  -0.0002804919  -0.0000443097   0.0000462593   0.0001203490
       -0.0002581646   0.0003891130   0.0001328735   0.0000327552  -0.0001025579
        0.0003140235   0.0000712822  -0.0000156662   0.0001557371   0.0003002383
        0.0000490159   0.0005910519   0.0001239659   0.0001232017  -0.0003965580
        0.0000626742  -0.0000417357   0.0001013109   0.0001180450  -0.0000408846
       -0.0000136399  -0.0001108918  -0.0000745044   0.0001631880  -0.0000257340
       -0.0000358940  -0.0004312288  -0.0004998853   0.0001640318   0.0008737609
        0.0002277742  -0.0001529015   0.0002868223  -0.0003194113  -0.0000406496
        0.0001596347  -0.0000517953   0.0000397112   0.0002424632   0.0000368677
        0.0001755464   0.0002368704   0.0004375245  -0.0001188275  -0.0000408587
        0.0003559575  -0.0003543290  -0.0005014558  -0.0010491170  -0.0005894358
        0.0000598773   0.0002253449  -0.0007185795   0.0003655906  -0.0003937170
       -0.0002429543
        0.0000018851  -0.0026876321  -0.0017090748   0.0456079948   0.0293343113
        0.0274347358  -0.1658844914   0.0477960519   0.0688461711   0.5870347087
       -0.0252467298  -0.0717467769  -0.0283132114  -0.0173749957  -0.0248420718
       -0.0066534828  -0.0071818019  -0.0081653851  -0.0010789846  -0.0007325590
       -0.0005535180   0.0000961184  -0.0001975307   0.0003992003   0.0000010227
        0.0001164478  -0.0000255367  -0.0004394259  -0.0004197708   0.0007164999
       -0.0020625685   0.0014102886  -0.0022510890   0.0052259131   0.0011517072
        0.0020414491  -0.0005915814  -0.0002082548  -0.0001216162  -0.0005710643
        0.0001469599   0.0000277136   0.0001386284  -0.0001006888   0.0002315438
       -0.0005771581   0.0002249848  -0.0004067716  -0.0001568212   0.0008481927
       -0.0006446671  -0.3138755997  -0.0243615592  -0.0105066332  -0.0392819097
        0.0169875734   0.0324368831   0.0024363470   0.0035176030  -0.0019169507
       -0.0017847219  -0.0006677037  -0.0001482605   0.0002967106   0.0004731233
       -0.0001242322  -0.0001086651  -0.0000966870   0.0001456417   0.0006388551
        0.0002196432   0.0002612375  -0.0003422202  -0.0009982462   0.0003135530
        0.0055585192  -0.0002049384  -0.0033861619  -0.0010041389  -0.0037016564
        0.0000135762  -0.0008350700   0.0003931237  -0.0007497758   0.0001874036
       -0.0015031560  -0.0001822693  -0.0005859384   0.0023288252  -0.0002876944
       -0.0011028052  -0.0018456752   0.0020925806  -0.0281672470  -0.0348401462
       -0.0368910997  -0.0341686068   0.0061260710   0.0115721934   0.0000347014
       -0.0001524798  -0.0005259961   0.0001997492   0.0002283355   0.0000963412
        0.0001120180  -0.0000148398  -0.0000448480   0.0000190602   0.0002298639
        0.0005920062  -0.0199513094   0.0140767591   0.0201188175   0.0000841595
        0.0002790974  -0.0005792318  -0.0000361178   0.0001473860   0.0000006133
       -0.0000032055   0.0000043631  -0.0001594699  -0.0003243775  -0.0000302365
        0.0001104673   0.0001259175   0.0000165438  -0.0002638781   0.0000831240
       -0.0006816273   0.0003304179   0.0000411979   0.0000230232  -0.0000046093
        0.0001807324   0.0000130480   0.0000020830   0.0000106737   0.0000818306
       -0.0000075027   0.0001970931   0.0000494591  -0.0000403320  -0.0001157908
       -0.0000638886   0.0000423178  -0.0000338216   0.0000015192   0.0001399974
       -0.0000161737  -0.0000948584  -0.0001277747   0.0000662235   0.0000159816
        0.0000444517  -0.0001561384  -0.0005154162   0.0001419255   0.0004394143
       -0.0000439303  -0.0000599234   0.0001346914  -0.0001551701  -0.0000403975
        0.0000014402  -0.0000656185   0.0000238961   0.0001930952   0.0000678071