 Entering Gaussian System
 *********************************************
 Gaussian 98:
 frequency output generated by the xtb code
 *********************************************
                         Standard orientation:
 --------------------------------------------------------------------
  Center     Atomic     Atomic              Coordinates (Angstroms)
  Number     Number      Type              X           Y           Z
 --------------------------------------------------------------------
    1          7             0      -10.657917    0.018877    0.029006
    2          6             0       -9.506603    0.014630    0.020910
    3          6             0       -8.102413    0.010027    0.012189
    4          6             0       -7.390512   -0.743638    0.956390
    5          6             0       -6.016660   -0.751043    0.938358
    6          6             0       -5.295029    0.004063   -0.002453
    7          6             0       -3.843418    0.002928   -0.007497
    8          6             0       -3.126307    1.240898    0.012697
    9          6             0       -3.781523    2.471376    0.136057
   10          6             0       -3.091466    3.675922    0.057582
   11          6             0       -1.727648    3.670386   -0.158593
   12          6             0       -1.041972    2.462611   -0.213860
   13          6             0       -1.700936    1.236853   -0.060815
   14          6             0       -0.987794    0.000000   -0.009479
   15          6             0        0.466798   -0.000729   -0.007202
   16          6             0        1.193525   -0.771244   -0.926105
   17          6             0        2.570270   -0.765188   -0.932104
   18          6             0        3.276845   -0.002240   -0.000784
   19          7             0        4.674536   -0.003270    0.002661
   20          6             0        5.482798   -1.123914   -0.036107
   21          6             0        5.133860   -2.467535   -0.029955
   22          6             0        6.154236   -3.400201   -0.042358
   23          6             0        7.492632   -3.013899   -0.049862
   24          6             0        7.846659   -1.678243   -0.028090
   25          6             0        6.839050   -0.723501   -0.015751
   26          6             0        6.840075    0.713498    0.032117
   27          6             0        7.849141    1.666618    0.049886
   28          6             0        7.497159    3.002837    0.070272
   29          6             0        6.159440    3.391289    0.056106
   30          6             0        5.137648    2.460264    0.038081
   31          6             0        5.484377    1.116077    0.045625
   32          6             0        2.566879    0.761749    0.927126
   33          6             0        1.190230    0.769319    0.914745
   34          6             0       -1.703184   -1.235539    0.040710
   35          6             0       -1.046896   -2.463010    0.191567
   36          6             0       -1.735446   -3.669112    0.135463
   37          6             0       -3.099560   -3.671327   -0.078984
   38          6             0       -3.786984   -2.465098   -0.154774
   39          6             0       -3.128653   -1.236355   -0.030912
   40          6             0       -6.023206    0.760845   -0.936826
   41          6             0       -7.397218    0.759424   -0.940351
   42          1             0       -7.933073   -1.311053    1.699094
   43          1             0       -5.476232   -1.312452    1.686398
   44          1             0       -4.847386    2.492028    0.303366
   45          1             0       -3.630100    4.607250    0.150218
   46          1             0       -1.186129    4.598346   -0.268115
   47          1             0        0.023193    2.473632   -0.385459
   48          1             0        0.659504   -1.339349   -1.673458
   49          1             0        3.111980   -1.329267   -1.676663
   50          1             0        4.100972   -2.779411   -0.004223
   51          1             0        5.907924   -4.451991   -0.041602
   52          1             0        8.261476   -3.772396   -0.062133
   53          1             0        8.884177   -1.379697   -0.015326
   54          1             0        8.886233    1.366415    0.042274
   55          1             0        8.267161    3.760084    0.086702
   56          1             0        5.914812    4.443471    0.054512
   57          1             0        4.105411    2.773821    0.007235
   58          1             0        3.105715    1.325355    1.674109
   59          1             0        0.653342    1.338468    1.659250
   60          1             0        0.018396   -2.476770    0.362153
   61          1             0       -1.195891   -4.598442    0.243084
   62          1             0       -3.640379   -4.601337   -0.172114
   63          1             0       -4.853227   -2.482906   -0.320130
   64          1             0       -5.488295    1.319104   -1.691156
   65          1             0       -7.945185    1.328700   -1.677669
 --------------------------------------------------------------------
     1 basis functions        1 primitive gaussians
     1 alpha electrons        1 beta electrons
 
 Harmonic frequencies (cm**-1), IR intensities (km*mol⁻¹),
 Raman scattering activities (A**4/amu), Raman depolarization ratios,
 reduced masses (AMU), force constants (mDyne/A) and normal coordinates:
                      1                      2                      3
                        a                      a                      a 
 Frequencies --     9.2369                16.0612                19.0359
 Red. masses --    11.8288                11.4881                10.7789
 Frc consts  --     0.0000                 0.0000                 0.0000
 IR Inten    --     0.9664                 0.7788                 0.1032
 Raman Activ --     0.0000                 0.0000                 0.0000
 Depolar     --     0.0000                 0.0000                 0.0000
 Atom AN      X      Y      Z        X      Y      Z        X      Y      Z
   1   7    -0.00   0.03  -0.44    -0.00  -0.34  -0.10     0.00   0.02   0.01
   2   6    -0.00   0.02  -0.32    -0.00  -0.24  -0.06     0.00   0.01   0.01
   3   6    -0.00   0.02  -0.21    -0.00  -0.15  -0.03     0.00   0.01   0.01
   4   6    -0.08   0.02  -0.16     0.02  -0.12  -0.02     0.00  -0.10  -0.08
   5   6    -0.07   0.01  -0.05     0.02  -0.05   0.01     0.00  -0.09  -0.08
   6   6    -0.00   0.00   0.00     0.00  -0.01   0.02     0.00   0.00  -0.00
   7   6    -0.00  -0.01   0.09     0.00   0.04   0.02    -0.00  -0.00  -0.00
   8   6     0.00  -0.01   0.13    -0.04   0.06   0.03     0.00  -0.01   0.08
   9   6    -0.00  -0.01   0.13    -0.08   0.04   0.04     0.01  -0.01   0.18
  10   6    -0.00  -0.01   0.16    -0.11   0.06   0.05     0.01  -0.01   0.24
  11   6     0.00  -0.01   0.18    -0.11   0.11   0.05     0.00   0.00   0.19
  12   6     0.00  -0.00   0.18    -0.07   0.13   0.04    -0.00   0.00   0.10
  13   6     0.00  -0.01   0.15    -0.04   0.11   0.03     0.00  -0.00   0.06
  14   6     0.00  -0.01   0.15     0.00   0.13   0.01     0.00  -0.01  -0.00
  15   6     0.00  -0.02   0.13     0.00   0.15  -0.02     0.00  -0.01  -0.00
  16   6    -0.03  -0.02   0.11    -0.02   0.15  -0.04     0.00  -0.02   0.01
  17   6    -0.03  -0.02   0.07    -0.02   0.12  -0.05     0.00  -0.03   0.02
  18   6     0.00  -0.02   0.04     0.00   0.10  -0.04     0.00  -0.01   0.00
  19   7     0.00  -0.01  -0.01     0.00   0.03  -0.03     0.00  -0.00   0.00
  20   6     0.01  -0.00  -0.05    -0.07  -0.02  -0.01     0.01  -0.00   0.10
  21   6     0.02  -0.00  -0.03    -0.15   0.00  -0.01     0.01  -0.00   0.20
  22   6     0.03   0.01  -0.08    -0.20  -0.06   0.02     0.01  -0.00   0.30
  23   6     0.03   0.02  -0.15    -0.18  -0.14   0.03     0.01   0.00   0.29
  24   6     0.02   0.02  -0.16    -0.10  -0.16   0.03     0.01   0.00   0.17
  25   6     0.01   0.01  -0.11    -0.04  -0.10   0.01     0.00   0.00   0.07
  26   6    -0.01   0.01  -0.12     0.04  -0.10  -0.00    -0.00   0.01  -0.06
  27   6    -0.01   0.02  -0.17     0.10  -0.16   0.01    -0.01   0.02  -0.16
  28   6    -0.03   0.02  -0.16     0.18  -0.14  -0.00    -0.01   0.02  -0.28
  29   6    -0.03   0.01  -0.09     0.20  -0.06  -0.02    -0.02   0.01  -0.30
  30   6    -0.02  -0.00  -0.04     0.15   0.00  -0.03    -0.01   0.00  -0.20
  31   6    -0.01   0.00  -0.05     0.07  -0.02  -0.02    -0.00   0.00  -0.09
  32   6     0.03  -0.02   0.07     0.02   0.12  -0.05     0.00   0.01  -0.02
  33   6     0.03  -0.02   0.11     0.02   0.15  -0.04     0.00   0.00  -0.01
  34   6    -0.00  -0.01   0.15     0.04   0.11   0.02    -0.00  -0.01  -0.07
  35   6    -0.00  -0.00   0.18     0.07   0.13   0.03    -0.01  -0.02  -0.12
  36   6    -0.00  -0.01   0.18     0.11   0.11   0.03    -0.01  -0.01  -0.21
  37   6     0.00  -0.01   0.15     0.11   0.06   0.03    -0.01   0.00  -0.25
  38   6     0.00  -0.01   0.12     0.08   0.04   0.02    -0.00   0.01  -0.19
  39   6    -0.00  -0.01   0.12     0.04   0.06   0.02    -0.00  -0.00  -0.09
  40   6     0.07   0.02  -0.05    -0.02  -0.03   0.02     0.00   0.10   0.08
  41   6     0.07   0.02  -0.15    -0.02  -0.10  -0.01     0.00   0.11   0.08
  42   1    -0.04   0.01  -0.06     0.01  -0.04  -0.01     0.00  -0.05  -0.04
  43   1    -0.04   0.00  -0.00     0.01  -0.01   0.00     0.00  -0.05  -0.04
  44   1    -0.00  -0.00   0.03    -0.02   0.00   0.01     0.00  -0.01   0.06
  45   1    -0.00  -0.00   0.05    -0.04   0.01   0.02     0.00  -0.00   0.09
  46   1     0.00  -0.00   0.06    -0.04   0.04   0.02     0.00   0.00   0.07
  47   1     0.00  -0.00   0.06    -0.02   0.05   0.01    -0.00   0.00   0.02
  48   1    -0.01  -0.01   0.04    -0.01   0.05  -0.01     0.00  -0.01   0.00
  49   1    -0.02  -0.01   0.02    -0.01   0.03  -0.01     0.00  -0.02   0.01
  50   1     0.01  -0.00   0.01    -0.05   0.02  -0.01     0.00   0.00   0.06
  51   1     0.01   0.00  -0.02    -0.08  -0.01   0.01     0.00  -0.00   0.11
  52   1     0.01   0.01  -0.05    -0.07  -0.05   0.01     0.00   0.00   0.11
  53   1     0.00   0.01  -0.06    -0.02  -0.07   0.01     0.00   0.00   0.04
  54   1    -0.00   0.01  -0.06     0.02  -0.07   0.01    -0.00   0.01  -0.04
  55   1    -0.01   0.01  -0.06     0.07  -0.05   0.00    -0.01   0.01  -0.10
  56   1    -0.01   0.00  -0.03     0.08  -0.01  -0.01    -0.01   0.00  -0.11
  57   1    -0.01  -0.00   0.00     0.05   0.02  -0.01    -0.00  -0.00  -0.06
  58   1     0.02  -0.01   0.02     0.01   0.03  -0.02     0.00   0.01  -0.01
  59   1     0.01  -0.01   0.04     0.01   0.05  -0.01     0.00   0.00  -0.00
  60   1    -0.00  -0.00   0.06     0.02   0.05   0.01    -0.01  -0.01  -0.02
  61   1    -0.00  -0.00   0.06     0.04   0.04   0.01    -0.01  -0.01  -0.07
  62   1     0.00  -0.00   0.04     0.04   0.01   0.01    -0.00   0.00  -0.09
  63   1     0.00  -0.00   0.03     0.02   0.00   0.00     0.00   0.01  -0.06
  64   1     0.04   0.01  -0.00    -0.01   0.00   0.01     0.00   0.05   0.04
  65   1     0.04   0.01  -0.05    -0.01  -0.04  -0.00     0.00   0.06   0.04
                      4                      5                      6
                        a                      a                      a 
 Frequencies --    34.4626                38.9628                56.0157
 Red. masses --    11.3817                11.7457                10.9762
 Frc consts  --     0.0000                 0.0000                 0.0000
 IR Inten    --     0.6877                 1.5323                 0.7826
 Raman Activ --     0.0000                 0.0000                 0.0000
 Depolar     --     0.0000                 0.0000                 0.0000
 Atom AN      X      Y      Z        X      Y      Z        X      Y      Z
   1   7     0.00   0.35  -0.08    -0.00  -0.42  -0.24     0.00   0.05   0.29
   2   6     0.00   0.20  -0.05    -0.00  -0.22  -0.11     0.00   0.00   0.11
   3   6    -0.00   0.08  -0.03    -0.00  -0.04   0.01     0.00  -0.04  -0.03
   4   6    -0.07   0.03  -0.02     0.01   0.03   0.06     0.05  -0.04  -0.07
   5   6    -0.07  -0.05   0.02     0.01   0.12   0.12     0.05  -0.03  -0.15
   6   6    -0.00  -0.09   0.04     0.00   0.14   0.12    -0.00  -0.02  -0.18
   7   6     0.00  -0.10   0.08     0.00   0.11   0.09     0.00   0.03  -0.16
   8   6    -0.02  -0.09   0.08     0.05   0.08   0.06    -0.03   0.05  -0.08
   9   6    -0.05  -0.11   0.16     0.09   0.10   0.08    -0.07   0.03  -0.14
  10   6    -0.08  -0.09   0.15     0.13   0.08   0.05    -0.08   0.05  -0.00
  11   6    -0.09  -0.05   0.06     0.12   0.03  -0.01    -0.05   0.09   0.20
  12   6    -0.07  -0.03  -0.02     0.08   0.00  -0.04    -0.02   0.10   0.23
  13   6    -0.03  -0.05   0.00     0.04   0.03  -0.01    -0.01   0.08   0.08
  14   6     0.00  -0.04  -0.05     0.00   0.00  -0.04     0.00   0.09   0.10
  15   6     0.00   0.00  -0.12     0.00  -0.04  -0.07     0.00   0.05   0.07
  16   6    -0.01   0.02  -0.15    -0.03  -0.06  -0.08    -0.08   0.00   0.04
  17   6    -0.01   0.05  -0.19    -0.03  -0.08  -0.11    -0.08  -0.07  -0.03
  18   6     0.00   0.06  -0.21     0.00  -0.08  -0.13     0.00  -0.09  -0.07
  19   7     0.00   0.05  -0.21     0.00  -0.07  -0.16     0.00  -0.10  -0.16
  20   6    -0.01   0.03  -0.10     0.04  -0.04  -0.08     0.04  -0.07  -0.09
  21   6    -0.03   0.04  -0.13     0.09  -0.05  -0.11     0.09  -0.08  -0.13
  22   6    -0.04   0.02   0.01     0.12  -0.01  -0.01     0.13  -0.05  -0.04
  23   6    -0.04   0.00   0.17     0.11   0.03   0.12     0.11   0.00   0.08
  24   6    -0.02  -0.00   0.20     0.06   0.04   0.15     0.06   0.01   0.11
  25   6    -0.01   0.01   0.06     0.03   0.01   0.05     0.02  -0.02   0.02
  26   6     0.01   0.01   0.06    -0.03   0.01   0.05    -0.02  -0.02   0.02
  27   6     0.02  -0.00   0.20    -0.06   0.04   0.15    -0.06   0.01   0.11
  28   6     0.04   0.00   0.17    -0.11   0.03   0.13    -0.11   0.00   0.08
  29   6     0.04   0.02   0.01    -0.12  -0.01  -0.00    -0.13  -0.05  -0.05
  30   6     0.03   0.04  -0.13    -0.09  -0.05  -0.11    -0.09  -0.08  -0.14
  31   6     0.01   0.03  -0.10    -0.04  -0.04  -0.08    -0.04  -0.07  -0.09
  32   6     0.01   0.05  -0.19     0.03  -0.08  -0.11     0.08  -0.07  -0.02
  33   6     0.01   0.02  -0.15     0.03  -0.06  -0.08     0.08  -0.00   0.05
  34   6     0.03  -0.05   0.00    -0.04   0.03  -0.01     0.01   0.08   0.08
  35   6     0.07  -0.03  -0.02    -0.08   0.00  -0.04     0.02   0.10   0.21
  36   6     0.09  -0.05   0.06    -0.12   0.03  -0.01     0.05   0.08   0.18
  37   6     0.08  -0.09   0.15    -0.13   0.08   0.05     0.08   0.05  -0.00
  38   6     0.05  -0.11   0.16    -0.09   0.10   0.08     0.06   0.03  -0.13
  39   6     0.02  -0.09   0.08    -0.05   0.08   0.06     0.02   0.05  -0.08
  40   6     0.07  -0.05   0.02    -0.01   0.12   0.12    -0.05  -0.06  -0.16
  41   6     0.07   0.03  -0.02    -0.01   0.03   0.06    -0.05  -0.07  -0.09
  42   1    -0.03   0.02  -0.01     0.00  -0.00   0.01     0.03  -0.01  -0.01
  43   1    -0.04  -0.02   0.01     0.00   0.04   0.04     0.03  -0.01  -0.05
  44   1    -0.01  -0.04   0.06     0.03   0.04   0.03    -0.03   0.00  -0.08
  45   1    -0.03  -0.03   0.06     0.05   0.03   0.02    -0.03   0.01  -0.01
  46   1    -0.04  -0.01   0.01     0.04   0.00  -0.01    -0.02   0.03   0.09
  47   1    -0.02  -0.00  -0.03     0.02  -0.01  -0.03     0.00   0.04   0.11
  48   1    -0.01   0.00  -0.04    -0.01  -0.02  -0.02    -0.04   0.00   0.02
  49   1    -0.01   0.02  -0.06    -0.01  -0.03  -0.03    -0.04  -0.03  -0.02
  50   1    -0.01   0.02  -0.07     0.03  -0.03  -0.06     0.03  -0.04  -0.07
  51   1    -0.02   0.01  -0.00     0.05  -0.01  -0.01     0.05  -0.02  -0.02
  52   1    -0.01  -0.00   0.08     0.04   0.02   0.06     0.04   0.01   0.05
  53   1    -0.01  -0.00   0.09     0.01   0.02   0.07     0.01   0.02   0.06
  54   1     0.00  -0.00   0.09    -0.01   0.02   0.07    -0.01   0.02   0.06
  55   1     0.01  -0.00   0.08    -0.04   0.02   0.06    -0.04   0.01   0.04
  56   1     0.02   0.01  -0.00    -0.05  -0.01  -0.01    -0.05  -0.02  -0.02
  57   1     0.01   0.02  -0.07    -0.03  -0.02  -0.06    -0.03  -0.04  -0.07
  58   1     0.01   0.02  -0.06     0.01  -0.03  -0.03     0.04  -0.03  -0.01
  59   1     0.01   0.00  -0.04     0.01  -0.01  -0.02     0.04   0.00   0.03
  60   1     0.02  -0.00  -0.03    -0.02  -0.01  -0.02     0.00   0.04   0.10
  61   1     0.04  -0.01   0.01    -0.04   0.00  -0.01     0.02   0.03   0.08
  62   1     0.03  -0.03   0.06    -0.05   0.03   0.02     0.03   0.01  -0.01
  63   1     0.01  -0.04   0.06    -0.03   0.04   0.03     0.02   0.00  -0.08
  64   1     0.03  -0.02   0.01    -0.00   0.05   0.04    -0.03  -0.02  -0.06
  65   1     0.03   0.02  -0.01    -0.00   0.00   0.01    -0.03  -0.02  -0.02
                      7                      8                      9
                        a                      a                      a 
 Frequencies --    59.2743                70.9735                86.6161
 Red. masses --     9.8891                11.0699                10.9206
 Frc consts  --     0.0000                 0.0000                 0.0000
 IR Inten    --     3.1881                 0.1468                 0.4549
 Raman Activ --     0.0000                 0.0000                 0.0000
 Depolar     --     0.0000                 0.0000                 0.0000
 Atom AN      X      Y      Z        X      Y      Z        X      Y      Z
   1   7    -0.02   0.01   0.02     0.00  -0.07   0.07    -0.00   0.17  -0.20
   2   6    -0.02   0.00   0.01     0.00  -0.03   0.02    -0.00   0.04  -0.04
   3   6    -0.02  -0.00  -0.00     0.00   0.00  -0.01    -0.00  -0.03   0.05
   4   6    -0.01  -0.29  -0.23     0.02   0.01  -0.01    -0.04  -0.04   0.07
   5   6    -0.02  -0.26  -0.22     0.02   0.02  -0.04    -0.04  -0.05   0.12
   6   6    -0.00  -0.00  -0.01    -0.00   0.02  -0.05    -0.00  -0.04   0.16
   7   6    -0.02   0.00  -0.01    -0.00   0.00  -0.04    -0.00  -0.01   0.19
   8   6    -0.00   0.00   0.01     0.05  -0.03  -0.02    -0.03   0.01   0.12
   9   6     0.03   0.01   0.09     0.09   0.01  -0.12    -0.06   0.01  -0.07
  10   6     0.03   0.00  -0.02     0.15  -0.03  -0.11    -0.09   0.02  -0.31
  11   6     0.00  -0.01  -0.20     0.17  -0.09   0.02    -0.09   0.01  -0.28
  12   6    -0.01  -0.02  -0.21     0.12  -0.12   0.12    -0.05   0.02  -0.02
  13   6    -0.01  -0.01  -0.08     0.05  -0.09   0.10    -0.03   0.03   0.14
  14   6    -0.00   0.00   0.01    -0.00  -0.12   0.18    -0.00   0.05   0.22
  15   6    -0.01   0.00   0.00    -0.00  -0.13   0.18    -0.00   0.05   0.17
  16   6    -0.01  -0.10   0.09    -0.02  -0.08   0.13    -0.06   0.04   0.13
  17   6    -0.01  -0.09   0.08    -0.02   0.06  -0.01    -0.06   0.00   0.05
  18   6    -0.00  -0.00  -0.00     0.00   0.12  -0.08     0.00  -0.02   0.02
  19   7    -0.00  -0.00  -0.01     0.00   0.17  -0.19     0.00  -0.04  -0.06
  20   6    -0.00  -0.00  -0.02    -0.05   0.12  -0.11     0.01  -0.03  -0.04
  21   6     0.01  -0.01  -0.03    -0.13   0.14  -0.10     0.03  -0.04  -0.11
  22   6     0.02  -0.00  -0.06    -0.18   0.08  -0.00     0.05  -0.03  -0.09
  23   6     0.01   0.01  -0.07    -0.16   0.01   0.08     0.04  -0.01   0.01
  24   6     0.00   0.01  -0.04    -0.09  -0.01   0.07     0.02  -0.00   0.07
  25   6    -0.00   0.00  -0.01    -0.03   0.05  -0.03     0.01  -0.02   0.04
  26   6    -0.00  -0.00   0.02     0.03   0.05  -0.03    -0.01  -0.02   0.04
  27   6     0.00  -0.01   0.06     0.09  -0.01   0.07    -0.02  -0.01   0.07
  28   6     0.01  -0.01   0.08     0.16   0.01   0.08    -0.04  -0.01   0.01
  29   6     0.01  -0.00   0.06     0.18   0.08  -0.00    -0.04  -0.03  -0.09
  30   6     0.01   0.00   0.02     0.13   0.14  -0.10    -0.03  -0.04  -0.11
  31   6    -0.00  -0.00   0.01     0.05   0.12  -0.11    -0.01  -0.03  -0.04
  32   6    -0.00   0.09  -0.08     0.02   0.06  -0.01     0.07   0.01   0.05
  33   6    -0.00   0.10  -0.08     0.02  -0.08   0.13     0.06   0.05   0.12
  34   6    -0.01   0.01   0.09    -0.05  -0.09   0.10     0.02   0.03   0.13
  35   6    -0.01   0.02   0.23    -0.12  -0.12   0.12     0.05   0.02  -0.02
  36   6     0.01   0.02   0.21    -0.17  -0.09   0.02     0.08   0.01  -0.29
  37   6     0.04   0.00   0.01    -0.15  -0.03  -0.11     0.09   0.02  -0.31
  38   6     0.04  -0.01  -0.11    -0.09   0.01  -0.12     0.05   0.01  -0.07
  39   6    -0.00   0.00  -0.02    -0.05  -0.03  -0.02     0.03   0.01   0.12
  40   6    -0.02   0.26   0.20    -0.02   0.01  -0.04     0.03  -0.06   0.12
  41   6    -0.01   0.28   0.22    -0.02   0.00  -0.02     0.04  -0.05   0.07
  42   1    -0.00  -0.15  -0.12     0.01   0.00  -0.00    -0.02  -0.01   0.01
  43   1    -0.01  -0.13  -0.10     0.01   0.00  -0.01    -0.02  -0.02   0.04
  44   1     0.02   0.01   0.07     0.02   0.02  -0.06    -0.02   0.00  -0.02
  45   1     0.01   0.00   0.01     0.05   0.00  -0.06    -0.03   0.01  -0.14
  46   1    -0.00  -0.01  -0.09     0.06  -0.03   0.01    -0.03   0.00  -0.13
  47   1    -0.01  -0.01  -0.09     0.04  -0.05   0.06    -0.01   0.01   0.01
  48   1    -0.00  -0.05   0.04    -0.01  -0.04   0.05    -0.03   0.02   0.04
  49   1    -0.01  -0.05   0.04    -0.01   0.03  -0.02    -0.03  -0.00   0.01
  50   1     0.00  -0.01  -0.00    -0.04   0.06  -0.04     0.01  -0.02  -0.05
  51   1     0.01  -0.00  -0.02    -0.07   0.03   0.00     0.02  -0.01  -0.04
  52   1     0.00   0.00  -0.03    -0.06  -0.01   0.05     0.02   0.00   0.01
  53   1     0.00   0.00  -0.01    -0.02  -0.02   0.04     0.01   0.00   0.04
  54   1    -0.00  -0.00   0.02     0.02  -0.02   0.04    -0.00   0.00   0.04
  55   1     0.00  -0.00   0.03     0.06  -0.01   0.05    -0.01   0.00   0.01
  56   1     0.00  -0.00   0.02     0.07   0.03   0.00    -0.02  -0.01  -0.04
  57   1     0.00   0.00  -0.00     0.04   0.06  -0.04    -0.01  -0.02  -0.05
  58   1    -0.00   0.05  -0.04     0.01   0.03  -0.02     0.04   0.00   0.00
  59   1     0.00   0.05  -0.04     0.01  -0.04   0.05     0.03   0.02   0.04
  60   1    -0.01   0.01   0.10    -0.04  -0.05   0.06     0.01   0.00   0.01
  61   1    -0.00   0.01   0.10    -0.06  -0.03   0.01     0.03   0.00  -0.13
  62   1     0.02  -0.00  -0.01    -0.05   0.00  -0.06     0.03   0.01  -0.15
  63   1     0.02  -0.01  -0.08    -0.02   0.02  -0.06     0.01   0.01  -0.02
  64   1    -0.01   0.13   0.10    -0.01   0.00  -0.02     0.02  -0.02   0.03
  65   1    -0.00   0.15   0.11    -0.01  -0.00  -0.00     0.02  -0.02   0.01
                     10                     11                     12
                        a                      a                      a 
 Frequencies --    90.2195               105.7982               109.9281
 Red. masses --    10.1657                10.4543                11.2020
 Frc consts  --     0.0000                 0.0000                 0.0000
 IR Inten    --     5.5748                 0.3517                 2.2103
 Raman Activ --     0.0000                 0.0000                 0.0000
 Depolar     --     0.0000                 0.0000                 0.0000
 Atom AN      X      Y      Z        X      Y      Z        X      Y      Z
   1   7    -0.04  -0.00   0.00    -0.00   0.05  -0.04     0.20   0.00  -0.01
   2   6    -0.03  -0.00   0.00    -0.00   0.00  -0.00     0.18  -0.00  -0.00
   3   6    -0.03   0.00  -0.00    -0.00  -0.02   0.01     0.18  -0.00   0.00
   4   6    -0.03   0.13   0.10    -0.00  -0.02   0.01     0.16   0.07   0.07
   5   6    -0.03   0.11   0.09    -0.00  -0.02   0.02     0.16   0.05   0.05
   6   6    -0.04   0.00  -0.00    -0.00  -0.01   0.03     0.13  -0.00   0.00
   7   6    -0.03   0.00  -0.00    -0.00   0.01   0.03     0.12   0.00   0.00
   8   6    -0.03  -0.01   0.05    -0.01   0.01   0.02     0.09   0.01   0.04
   9   6    -0.06  -0.03   0.12    -0.02   0.01  -0.02     0.09   0.01   0.10
  10   6    -0.09  -0.02   0.15    -0.03   0.02  -0.06     0.10   0.00   0.10
  11   6    -0.10   0.01   0.05    -0.02   0.02  -0.03     0.09   0.00  -0.02
  12   6    -0.08   0.02  -0.04    -0.01   0.02   0.03     0.08   0.00  -0.09
  13   6    -0.03   0.00   0.01    -0.01   0.02   0.04     0.07   0.01  -0.02
  14   6    -0.01  -0.00  -0.01    -0.00   0.02   0.04     0.03   0.00   0.00
  15   6    -0.01  -0.00  -0.00     0.00   0.01  -0.01     0.00   0.00   0.00
  16   6     0.02  -0.25   0.22    -0.04  -0.02  -0.02    -0.04  -0.09   0.05
  17   6     0.02  -0.26   0.22    -0.04  -0.04  -0.06    -0.05  -0.09   0.05
  18   6     0.04   0.00  -0.00     0.00  -0.04  -0.09    -0.09  -0.00  -0.00
  19   7     0.04   0.00   0.00     0.00  -0.02  -0.18    -0.12  -0.00  -0.00
  20   6     0.05  -0.00   0.01     0.01  -0.01  -0.15    -0.14  -0.00   0.01
  21   6     0.09  -0.01   0.04     0.02  -0.01   0.18    -0.19   0.01   0.05
  22   6     0.11   0.00  -0.02     0.02  -0.01   0.39    -0.21  -0.01   0.01
  23   6     0.10   0.02  -0.10     0.02   0.00   0.19    -0.21  -0.03  -0.06
  24   6     0.07   0.03  -0.08     0.01   0.01  -0.19    -0.17  -0.04  -0.06
  25   6     0.05   0.00  -0.01     0.01   0.00  -0.31    -0.14  -0.00  -0.01
  26   6     0.05  -0.00   0.01    -0.00   0.00  -0.31    -0.14   0.00   0.01
  27   6     0.07  -0.03   0.08    -0.01   0.01  -0.19    -0.17   0.04   0.06
  28   6     0.10  -0.02   0.10    -0.02   0.00   0.19    -0.21   0.03   0.07
  29   6     0.11  -0.00   0.02    -0.02  -0.01   0.39    -0.21   0.01  -0.00
  30   6     0.09   0.01  -0.04    -0.02  -0.01   0.18    -0.19  -0.01  -0.05
  31   6     0.05   0.00  -0.01    -0.01  -0.01  -0.15    -0.14   0.00  -0.01
  32   6     0.02   0.26  -0.22     0.04  -0.04  -0.06    -0.05   0.09  -0.05
  33   6     0.02   0.25  -0.22     0.04  -0.02  -0.02    -0.04   0.09  -0.05
  34   6    -0.03  -0.00  -0.01     0.00   0.02   0.03     0.07  -0.01   0.03
  35   6    -0.08  -0.02   0.04     0.01   0.02   0.02     0.08  -0.00   0.09
  36   6    -0.11  -0.01  -0.04     0.02   0.02  -0.03     0.09  -0.00   0.02
  37   6    -0.09   0.02  -0.13     0.03   0.02  -0.06     0.10  -0.00  -0.11
  38   6    -0.06   0.03  -0.11     0.02   0.01  -0.02     0.09  -0.01  -0.10
  39   6    -0.03   0.01  -0.06     0.01   0.01   0.02     0.09  -0.01  -0.03
  40   6    -0.03  -0.11  -0.09     0.00  -0.02   0.02     0.16  -0.05  -0.05
  41   6    -0.03  -0.13  -0.10     0.00  -0.02   0.01     0.16  -0.07  -0.06
  42   1    -0.01   0.07   0.05    -0.00  -0.01   0.00     0.04   0.04   0.03
  43   1    -0.01   0.05   0.04    -0.00  -0.01   0.01     0.05   0.02   0.02
  44   1    -0.02  -0.02   0.04    -0.01   0.00  -0.01     0.03   0.00   0.04
  45   1    -0.03  -0.01   0.06    -0.01   0.00  -0.03     0.03   0.00   0.05
  46   1    -0.04   0.01   0.01    -0.01   0.01  -0.01     0.02   0.00  -0.02
  47   1    -0.03   0.02  -0.04    -0.00   0.01   0.02     0.02  -0.00  -0.06
  48   1     0.01  -0.12   0.10    -0.02  -0.01   0.00    -0.02  -0.04   0.03
  49   1    -0.00  -0.13   0.10    -0.02  -0.02  -0.02    -0.01  -0.04   0.03
  50   1     0.03  -0.01   0.03     0.01  -0.00   0.09    -0.06   0.01   0.03
  51   1     0.04   0.00  -0.00     0.01  -0.00   0.21    -0.07  -0.00   0.01
  52   1     0.03   0.01  -0.05     0.01   0.00   0.10    -0.06  -0.01  -0.03
  53   1     0.02   0.02  -0.03     0.00   0.01  -0.09    -0.05  -0.02  -0.03
  54   1     0.02  -0.02   0.03    -0.00   0.00  -0.09    -0.05   0.02   0.03
  55   1     0.03  -0.01   0.05    -0.01   0.00   0.10    -0.07   0.01   0.03
  56   1     0.04  -0.00   0.00    -0.01  -0.00   0.21    -0.07   0.00  -0.00
  57   1     0.03   0.02  -0.03    -0.00  -0.00   0.09    -0.06  -0.01  -0.03
  58   1    -0.00   0.13  -0.10     0.02  -0.02  -0.02    -0.01   0.04  -0.03
  59   1     0.01   0.12  -0.10     0.02  -0.01   0.00    -0.02   0.04  -0.03
  60   1    -0.03  -0.02   0.04     0.00   0.01   0.01     0.02   0.00   0.06
  61   1    -0.04  -0.01  -0.01     0.01   0.01  -0.01     0.02  -0.00   0.01
  62   1    -0.03   0.01  -0.06     0.01   0.00  -0.03     0.03  -0.00  -0.05
  63   1    -0.02   0.02  -0.04     0.01   0.00  -0.01     0.03  -0.00  -0.04
  64   1    -0.01  -0.05  -0.04     0.00  -0.01   0.01     0.05  -0.03  -0.02
  65   1    -0.01  -0.07  -0.05     0.00  -0.01   0.00     0.04  -0.04  -0.03
                     13                     14                     15
                        a                      a                      a 
 Frequencies --   126.5909               131.0261               140.3817
 Red. masses --    11.7746                12.0896                 9.8276
 Frc consts  --     0.0000                 0.0000                 0.0000
 IR Inten    --     5.8560                 7.5995                 0.1643
 Raman Activ --     0.0000                 0.0000                 0.0000
 Depolar     --     0.0000                 0.0000                 0.0000
 Atom AN      X      Y      Z        X      Y      Z        X      Y      Z
   1   7    -0.01  -0.14  -0.48     0.00  -0.51   0.33    -0.02   0.00  -0.00
   2   6    -0.00   0.07   0.07     0.00   0.09  -0.02    -0.02  -0.00   0.00
   3   6     0.00   0.22   0.31     0.00   0.34  -0.12    -0.02  -0.00   0.00
   4   6     0.05   0.19   0.26    -0.08   0.28  -0.10    -0.02  -0.09  -0.07
   5   6     0.05   0.06   0.07    -0.09   0.12  -0.08    -0.02  -0.06  -0.05
   6   6    -0.00  -0.04  -0.05     0.00   0.02  -0.08    -0.00  -0.00   0.00
   7   6    -0.00  -0.08  -0.19     0.00  -0.07   0.03    -0.00   0.00  -0.00
   8   6    -0.03  -0.07  -0.16    -0.02  -0.06   0.07     0.01   0.01  -0.06
   9   6    -0.07  -0.09  -0.16    -0.05  -0.08   0.08     0.00   0.02  -0.20
  10   6    -0.10  -0.06  -0.03    -0.10  -0.07  -0.04     0.01   0.02  -0.13
  11   6    -0.08  -0.01   0.12    -0.11  -0.04  -0.11     0.05   0.02   0.13
  12   6    -0.04   0.01   0.10    -0.07  -0.02  -0.03     0.04   0.01   0.20
  13   6    -0.03  -0.02  -0.05    -0.02  -0.03   0.06     0.01   0.01   0.06
  14   6    -0.00  -0.01  -0.03     0.00  -0.01   0.08     0.02   0.00   0.00
  15   6    -0.00  -0.00   0.00     0.00   0.01   0.06     0.01  -0.00   0.00
  16   6     0.00  -0.01   0.01    -0.02   0.01   0.05     0.01  -0.03   0.02
  17   6     0.00  -0.01   0.01    -0.02   0.00   0.02     0.01  -0.06   0.05
  18   6     0.00   0.00  -0.00    -0.00  -0.00   0.01     0.01   0.00  -0.00
  19   7     0.00   0.01  -0.01    -0.00  -0.01  -0.03     0.01   0.00  -0.00
  20   6    -0.00   0.00  -0.00     0.00  -0.01  -0.02    -0.00  -0.00   0.11
  21   6    -0.00   0.00  -0.01     0.01  -0.01  -0.01    -0.02   0.01   0.29
  22   6    -0.01   0.00  -0.01     0.01  -0.01   0.02    -0.03  -0.01   0.13
  23   6    -0.00   0.00   0.00     0.01  -0.00   0.02    -0.03  -0.01  -0.23
  24   6    -0.00  -0.00   0.00     0.00  -0.00  -0.00    -0.01  -0.01  -0.27
  25   6    -0.00   0.00  -0.00     0.00  -0.01  -0.03     0.00  -0.00  -0.02
  26   6     0.00   0.00  -0.00    -0.00  -0.01  -0.03     0.00   0.00   0.02
  27   6     0.00  -0.00   0.00    -0.01  -0.00  -0.00    -0.01   0.01   0.27
  28   6     0.01   0.00   0.00    -0.01  -0.00   0.02    -0.03   0.01   0.24
  29   6     0.01   0.00  -0.01    -0.01  -0.01   0.02    -0.03   0.01  -0.13
  30   6     0.01   0.01  -0.01    -0.01  -0.01  -0.01    -0.02  -0.01  -0.29
  31   6     0.00   0.00  -0.00    -0.00  -0.01  -0.03    -0.00   0.00  -0.11
  32   6    -0.00  -0.01   0.01     0.02   0.01   0.02     0.01   0.06  -0.05
  33   6    -0.00  -0.01   0.01     0.02   0.02   0.04     0.01   0.03  -0.02
  34   6     0.02  -0.02  -0.05     0.02  -0.03   0.06     0.01  -0.00  -0.06
  35   6     0.04   0.01   0.10     0.07  -0.02  -0.03     0.04  -0.01  -0.20
  36   6     0.08  -0.02   0.12     0.11  -0.04  -0.12     0.05  -0.02  -0.13
  37   6     0.10  -0.06  -0.03     0.10  -0.07  -0.04     0.01  -0.02   0.13
  38   6     0.07  -0.09  -0.16     0.05  -0.08   0.08     0.00  -0.02   0.20
  39   6     0.03  -0.07  -0.16     0.02  -0.06   0.07     0.01  -0.01   0.06
  40   6    -0.05   0.06   0.07     0.09   0.12  -0.08    -0.02   0.06   0.05
  41   6    -0.05   0.20   0.26     0.08   0.28  -0.10    -0.02   0.08   0.07
  42   1     0.03   0.07   0.09    -0.05   0.10  -0.03    -0.00  -0.05  -0.04
  43   1     0.03  -0.00  -0.00    -0.05   0.02  -0.02    -0.01  -0.02  -0.02
  44   1    -0.02  -0.03  -0.07    -0.01  -0.03   0.04    -0.00   0.01  -0.09
  45   1    -0.04  -0.02  -0.01    -0.04  -0.02  -0.02    -0.00   0.01  -0.07
  46   1    -0.03   0.00   0.07    -0.04  -0.01  -0.06     0.02   0.00   0.07
  47   1    -0.01   0.01   0.06    -0.02   0.00  -0.01     0.02   0.00   0.10
  48   1     0.00  -0.01   0.01    -0.01   0.01   0.01     0.01  -0.01   0.00
  49   1     0.00  -0.00   0.00    -0.01   0.00   0.00     0.01  -0.03   0.03
  50   1    -0.00   0.00  -0.00     0.00  -0.00  -0.00    -0.01   0.01   0.15
  51   1    -0.00   0.00  -0.00     0.00  -0.00   0.01    -0.01  -0.00   0.07
  52   1    -0.00  -0.00   0.00     0.00  -0.00   0.01    -0.01  -0.00  -0.13
  53   1    -0.00  -0.00   0.00     0.00   0.00  -0.00    -0.00  -0.01  -0.14
  54   1     0.00  -0.00   0.00    -0.00   0.00   0.00    -0.00   0.01   0.14
  55   1     0.00  -0.00   0.00    -0.00  -0.00   0.01    -0.01   0.00   0.13
  56   1     0.00   0.00  -0.00    -0.01  -0.00   0.01    -0.01   0.00  -0.07
  57   1     0.00   0.00  -0.00    -0.00  -0.00  -0.01    -0.01  -0.01  -0.15
  58   1    -0.00  -0.00   0.00     0.01   0.00   0.00     0.01   0.03  -0.03
  59   1    -0.00  -0.01   0.01     0.01   0.01   0.01     0.01   0.01  -0.00
  60   1     0.01   0.01   0.06     0.02   0.00  -0.02     0.02  -0.00  -0.10
  61   1     0.03   0.00   0.07     0.04  -0.01  -0.06     0.02  -0.00  -0.07
  62   1     0.04  -0.02  -0.01     0.04  -0.02  -0.02    -0.00  -0.01   0.07
  63   1     0.02  -0.03  -0.07     0.01  -0.03   0.04    -0.00  -0.01   0.09
  64   1    -0.03  -0.00  -0.00     0.05   0.02  -0.02    -0.01   0.02   0.02
  65   1    -0.03   0.07   0.10     0.05   0.10  -0.03    -0.00   0.05   0.04
                     16                     17                     18
                        a                      a                      a 
 Frequencies --   154.1763               181.4742               181.8216
 Red. masses --    10.0740                10.9707                10.8719
 Frc consts  --     0.0000                 0.0000                 0.0000
 IR Inten    --    24.0799                 3.1532                 1.1698
 Raman Activ --     0.0000                 0.0000                 0.0000
 Depolar     --     0.0000                 0.0000                 0.0000
 Atom AN      X      Y      Z        X      Y      Z        X      Y      Z
   1   7    -0.04  -0.00   0.00    -0.26  -0.01   0.02     0.06  -0.06   0.06
   2   6    -0.04   0.00   0.00    -0.24   0.01  -0.01     0.06   0.03  -0.03
   3   6    -0.04   0.00   0.00    -0.23   0.01  -0.01     0.05   0.05  -0.04
   4   6    -0.03   0.09   0.07    -0.19   0.07   0.02    -0.01   0.01  -0.03
   5   6    -0.03   0.06   0.04    -0.18   0.04   0.01    -0.01  -0.02   0.04
   6   6    -0.04  -0.00  -0.00    -0.10  -0.00   0.02     0.03  -0.01   0.08
   7   6    -0.03  -0.00   0.00    -0.07  -0.00   0.03     0.02  -0.01   0.13
   8   6    -0.02  -0.01   0.07     0.01  -0.01  -0.07     0.01  -0.01   0.12
   9   6    -0.00  -0.02   0.22     0.14   0.06  -0.10    -0.03  -0.01  -0.10
  10   6    -0.00  -0.02   0.13     0.26   0.01   0.09    -0.06  -0.00  -0.21
  11   6    -0.05  -0.03  -0.15     0.27  -0.05   0.12    -0.02  -0.01   0.05
  12   6    -0.04  -0.03  -0.21     0.13  -0.10  -0.06     0.01  -0.01   0.26
  13   6    -0.02  -0.02  -0.07     0.02  -0.04  -0.07     0.01  -0.02   0.18
  14   6    -0.01  -0.00  -0.00     0.02  -0.01   0.01    -0.00  -0.05   0.04
  15   6     0.01  -0.00  -0.00     0.03  -0.01  -0.05    -0.01  -0.03  -0.20
  16   6     0.01   0.17  -0.13     0.02  -0.02  -0.04     0.01   0.05  -0.25
  17   6     0.02   0.18  -0.14     0.03  -0.01  -0.03     0.03   0.09  -0.25
  18   6     0.02   0.00  -0.00     0.01   0.01  -0.04    -0.00   0.04  -0.17
  19   7     0.04  -0.00   0.00     0.00  -0.01   0.02    -0.00  -0.02   0.09
  20   6     0.04   0.00   0.09     0.00  -0.00   0.03     0.01  -0.01   0.15
  21   6     0.04   0.01   0.22    -0.02   0.00   0.02     0.02  -0.02   0.16
  22   6     0.03   0.00   0.12    -0.03  -0.01  -0.01     0.03  -0.01   0.02
  23   6     0.03  -0.00  -0.15    -0.03  -0.01  -0.02     0.03   0.01  -0.12
  24   6     0.04  -0.00  -0.19    -0.01  -0.02   0.01     0.02   0.01  -0.04
  25   6     0.05   0.00  -0.01     0.00  -0.00   0.03     0.00  -0.00   0.13
  26   6     0.05  -0.00   0.01    -0.00   0.00   0.03    -0.01  -0.01   0.13
  27   6     0.04   0.00   0.19    -0.02   0.02  -0.03    -0.01   0.00  -0.03
  28   6     0.03  -0.00   0.15    -0.04   0.02  -0.04    -0.01   0.00  -0.12
  29   6     0.03  -0.00  -0.12    -0.04   0.00   0.02    -0.02  -0.01   0.02
  30   6     0.04  -0.01  -0.22    -0.03  -0.01   0.05    -0.01  -0.01   0.15
  31   6     0.04  -0.00  -0.09    -0.00  -0.00   0.04    -0.01  -0.01   0.14
  32   6     0.02  -0.18   0.14     0.01   0.05  -0.08    -0.03   0.07  -0.23
  33   6     0.01  -0.17   0.13     0.02   0.04  -0.08    -0.02   0.04  -0.24
  34   6    -0.02   0.01   0.07     0.01   0.03   0.14    -0.02  -0.04   0.13
  35   6    -0.04   0.03   0.21     0.12   0.09   0.17    -0.07  -0.05   0.20
  36   6    -0.05   0.03   0.15     0.25   0.04  -0.08    -0.11  -0.03   0.10
  37   6    -0.00   0.02  -0.13     0.26  -0.01  -0.18    -0.07   0.01  -0.15
  38   6    -0.00   0.02  -0.22     0.13  -0.06   0.04    -0.04   0.02  -0.14
  39   6    -0.02   0.01  -0.07     0.00   0.00   0.12    -0.01  -0.01   0.07
  40   6    -0.03  -0.06  -0.04    -0.16  -0.05   0.01     0.09  -0.00   0.04
  41   6    -0.03  -0.09  -0.07    -0.17  -0.06  -0.03     0.09   0.04  -0.02
  42   1    -0.01   0.05   0.04    -0.05   0.03   0.02    -0.02  -0.00  -0.02
  43   1    -0.01   0.02   0.01    -0.07   0.01   0.01    -0.01  -0.02   0.01
  44   1     0.01  -0.01   0.10     0.04   0.05  -0.06    -0.01  -0.00  -0.06
  45   1     0.01  -0.01   0.07     0.10   0.01   0.05    -0.03   0.00  -0.13
  46   1    -0.02  -0.01  -0.08     0.10  -0.02   0.07    -0.00  -0.01   0.02
  47   1    -0.02  -0.01  -0.09     0.04  -0.06  -0.03     0.01   0.01   0.11
  48   1     0.00   0.07  -0.06     0.01  -0.02  -0.00     0.01   0.00  -0.07
  49   1     0.01   0.08  -0.06     0.01  -0.01  -0.00     0.02   0.02  -0.06
  50   1     0.01   0.01   0.10    -0.01   0.00   0.01     0.01  -0.01   0.06
  51   1     0.01   0.00   0.06    -0.01  -0.00  -0.01     0.01  -0.00   0.00
  52   1     0.01  -0.00  -0.09    -0.01  -0.01  -0.01     0.01   0.00  -0.08
  53   1     0.01  -0.00  -0.11    -0.00  -0.01   0.00     0.00   0.01  -0.04
  54   1     0.01   0.00   0.11    -0.00   0.01  -0.02    -0.00   0.00  -0.03
  55   1     0.01   0.00   0.09    -0.01   0.01  -0.03    -0.00   0.00  -0.08
  56   1     0.01  -0.00  -0.06    -0.02   0.00   0.01    -0.01  -0.00  -0.00
  57   1     0.01  -0.01  -0.10    -0.01  -0.01   0.02    -0.00  -0.00   0.06
  58   1     0.01  -0.08   0.06     0.00   0.02  -0.03    -0.02   0.02  -0.06
  59   1     0.00  -0.07   0.06     0.00   0.02  -0.03    -0.01  -0.00  -0.06
  60   1    -0.02   0.01   0.09     0.03   0.06   0.08    -0.02  -0.02   0.08
  61   1    -0.02   0.01   0.08     0.09   0.02  -0.06    -0.04  -0.01   0.05
  62   1     0.01   0.01  -0.07     0.10  -0.01  -0.11    -0.02   0.01  -0.09
  63   1     0.01   0.01  -0.10     0.04  -0.04   0.02    -0.00   0.02  -0.08
  64   1    -0.01  -0.02  -0.01    -0.05  -0.02  -0.01     0.04  -0.01   0.01
  65   1    -0.01  -0.05  -0.04    -0.04  -0.03  -0.02     0.04   0.01  -0.01
                     19                     20                     21
                        a                      a                      a 
 Frequencies --   208.6859               211.6004               232.9870
 Red. masses --    10.9953                10.7172                10.7139
 Frc consts  --     0.0000                 0.0000                 0.0000
 IR Inten    --     0.1358                 2.6527                 0.3325
 Raman Activ --     0.0000                 0.0000                 0.0000
 Depolar     --     0.0000                 0.0000                 0.0000
 Atom AN      X      Y      Z        X      Y      Z        X      Y      Z
   1   7    -0.00   0.00   0.08    -0.12   0.00  -0.00    -0.00   0.07  -0.14
   2   6    -0.00  -0.00  -0.07    -0.11   0.00   0.00     0.00  -0.07   0.14
   3   6    -0.00  -0.01  -0.08    -0.10   0.00   0.00     0.00  -0.06   0.13
   4   6    -0.06  -0.00  -0.03    -0.07   0.02  -0.00     0.17  -0.01   0.03
   5   6    -0.05   0.02   0.09    -0.06   0.02  -0.01     0.16   0.08  -0.21
   6   6    -0.00   0.03   0.14    -0.03  -0.00  -0.00    -0.00   0.10  -0.31
   7   6     0.00   0.03   0.10     0.00  -0.00  -0.00    -0.00   0.05  -0.13
   8   6     0.00   0.03   0.02     0.05  -0.03   0.11     0.03   0.01   0.12
   9   6    -0.05   0.01  -0.02     0.01  -0.06   0.10     0.00  -0.01   0.21
  10   6    -0.12   0.04  -0.09    -0.07  -0.03  -0.07    -0.04  -0.00   0.03
  11   6    -0.10   0.09   0.03    -0.07  -0.01  -0.09    -0.07  -0.00  -0.17
  12   6    -0.04   0.11   0.08    -0.01   0.02   0.08    -0.01   0.02   0.01
  13   6     0.01   0.07  -0.05     0.06  -0.01   0.10     0.03   0.01   0.16
  14   6     0.00   0.04  -0.18     0.12  -0.00   0.00    -0.00  -0.01   0.14
  15   6     0.00  -0.16  -0.16     0.14   0.00   0.00    -0.00  -0.10   0.01
  16   6     0.05  -0.31  -0.01     0.17  -0.02   0.03    -0.04  -0.11  -0.03
  17   6     0.05  -0.33   0.08     0.17  -0.01   0.01    -0.03  -0.10  -0.11
  18   6     0.00  -0.18   0.01     0.17   0.00   0.00     0.00  -0.07  -0.15
  19   7     0.00   0.07  -0.05     0.17  -0.00   0.00    -0.00   0.01  -0.08
  20   6     0.01   0.08  -0.01     0.13   0.02  -0.01     0.01   0.02   0.06
  21   6    -0.07   0.11  -0.00    -0.08   0.07  -0.02    -0.02   0.03   0.11
  22   6    -0.12   0.07  -0.03    -0.22  -0.07  -0.03    -0.03   0.02   0.02
  23   6    -0.10   0.03  -0.02    -0.19  -0.18   0.01    -0.03   0.02  -0.10
  24   6    -0.04   0.02   0.03    -0.01  -0.22   0.03    -0.01   0.01   0.00
  25   6     0.00   0.06   0.03     0.15  -0.02   0.00     0.01   0.02   0.12
  26   6     0.00   0.06   0.03     0.15   0.02  -0.00    -0.01   0.02   0.12
  27   6     0.04   0.02   0.03    -0.01   0.22  -0.03     0.01   0.01   0.00
  28   6     0.10   0.04  -0.02    -0.20   0.18  -0.01     0.03   0.02  -0.10
  29   6     0.11   0.07  -0.03    -0.23   0.07   0.03     0.03   0.02   0.02
  30   6     0.07   0.10   0.00    -0.08  -0.08   0.02     0.02   0.03   0.11
  31   6    -0.00   0.08  -0.01     0.13  -0.02   0.01    -0.01   0.02   0.06
  32   6    -0.05  -0.33   0.08     0.17   0.02  -0.01     0.03  -0.10  -0.11
  33   6    -0.04  -0.31  -0.02     0.17   0.03  -0.03     0.04  -0.11  -0.03
  34   6    -0.00   0.07  -0.05     0.06   0.01  -0.10    -0.03   0.01   0.16
  35   6     0.04   0.11   0.08    -0.01  -0.02  -0.08     0.02   0.02   0.01
  36   6     0.10   0.09   0.03    -0.07   0.00   0.09     0.07  -0.00  -0.17
  37   6     0.12   0.04  -0.09    -0.07   0.03   0.07     0.04  -0.00   0.03
  38   6     0.05   0.02  -0.02     0.00   0.05  -0.10     0.00  -0.01   0.21
  39   6    -0.00   0.04   0.01     0.05   0.03  -0.11    -0.03   0.01   0.11
  40   6     0.05   0.02   0.09    -0.07  -0.02   0.01    -0.16   0.09  -0.20
  41   6     0.05  -0.00  -0.03    -0.08  -0.02   0.01    -0.17  -0.01   0.03
  42   1    -0.03  -0.00  -0.02    -0.01   0.00   0.00     0.10  -0.01   0.04
  43   1    -0.03   0.00   0.03    -0.02   0.00  -0.00     0.09   0.05  -0.07
  44   1    -0.01  -0.01   0.00     0.00  -0.03   0.04     0.00  -0.02   0.08
  45   1    -0.05   0.01  -0.05    -0.03  -0.01  -0.05    -0.01  -0.00  -0.00
  46   1    -0.04   0.03   0.02    -0.03   0.00  -0.06    -0.03  -0.00  -0.12
  47   1    -0.01   0.05   0.06    -0.00   0.02   0.03    -0.01   0.01  -0.01
  48   1     0.03  -0.10  -0.00     0.05  -0.01   0.01    -0.02  -0.03   0.00
  49   1     0.02  -0.10   0.04     0.05   0.00  -0.00    -0.02  -0.03  -0.04
  50   1    -0.02   0.04   0.01    -0.04   0.07  -0.00    -0.01   0.02   0.05
  51   1    -0.04   0.02  -0.01    -0.10  -0.01  -0.02    -0.01   0.01   0.00
  52   1    -0.04   0.00  -0.01    -0.08  -0.07   0.01    -0.01   0.00  -0.07
  53   1    -0.01  -0.01   0.02     0.01  -0.12   0.02    -0.00  -0.00  -0.01
  54   1     0.01  -0.01   0.02     0.01   0.12  -0.02     0.00  -0.00  -0.01
  55   1     0.04   0.00  -0.01    -0.08   0.07  -0.01     0.01   0.00  -0.07
  56   1     0.04   0.02  -0.01    -0.10   0.01   0.02     0.01   0.01   0.00
  57   1     0.02   0.04   0.01    -0.04  -0.08   0.00     0.01   0.02   0.05
  58   1    -0.02  -0.10   0.03     0.05   0.00  -0.00     0.02  -0.03  -0.04
  59   1    -0.03  -0.10  -0.00     0.05   0.02  -0.01     0.02  -0.03   0.00
  60   1     0.01   0.04   0.06    -0.00  -0.02  -0.03     0.01   0.01  -0.01
  61   1     0.03   0.03   0.02    -0.03  -0.00   0.06     0.03  -0.00  -0.12
  62   1     0.05   0.01  -0.05    -0.03   0.01   0.05     0.01  -0.00   0.00
  63   1     0.01  -0.01   0.00     0.00   0.03  -0.04    -0.00  -0.02   0.08
  64   1     0.03   0.00   0.03    -0.03  -0.00   0.00    -0.09   0.05  -0.07
  65   1     0.03  -0.00  -0.02    -0.02  -0.00  -0.00    -0.10  -0.01   0.04
                     22                     23                     24
                        a                      a                      a 
 Frequencies --   237.9884               267.7599               270.1617
 Red. masses --    10.7299                10.7152                10.2479
 Frc consts  --     0.0000                 0.0000                 0.0000
 IR Inten    --     0.4235                 0.3908                10.1704
 Raman Activ --     0.0000                 0.0000                 0.0000
 Depolar     --     0.0000                 0.0000                 0.0000
 Atom AN      X      Y      Z        X      Y      Z        X      Y      Z
   1   7    -0.12   0.00   0.00     0.00   0.14   0.03    -0.01   0.01   0.01
   2   6    -0.11   0.00   0.00    -0.00  -0.18  -0.04    -0.01  -0.02  -0.01
   3   6    -0.09   0.00   0.00    -0.00  -0.16  -0.06    -0.01  -0.01  -0.01
   4   6    -0.06   0.06   0.02     0.09   0.02   0.01    -0.00   0.00  -0.00
   5   6    -0.05   0.02  -0.01     0.08   0.23   0.01    -0.00   0.02   0.01
   6   6    -0.02  -0.00   0.00    -0.00   0.19  -0.07     0.00   0.01   0.01
   7   6     0.02  -0.00  -0.00    -0.00   0.01  -0.04     0.00  -0.00  -0.01
   8   6     0.04  -0.00   0.27     0.05  -0.04   0.07     0.01  -0.01  -0.01
   9   6     0.10   0.04   0.21    -0.00  -0.07   0.07    -0.00  -0.01  -0.01
  10   6     0.11   0.01  -0.16    -0.07  -0.05  -0.10    -0.01  -0.01   0.00
  11   6     0.11  -0.02  -0.17    -0.06  -0.04  -0.01    -0.01  -0.00   0.01
  12   6     0.10  -0.04   0.20     0.01  -0.01   0.16    -0.00   0.00  -0.01
  13   6     0.04   0.01   0.27     0.04  -0.04   0.07     0.01  -0.00  -0.01
  14   6     0.03  -0.00   0.00     0.00  -0.07  -0.08     0.01  -0.00   0.00
  15   6    -0.01   0.00   0.00     0.00  -0.06  -0.16     0.01  -0.00   0.01
  16   6    -0.04  -0.01  -0.01     0.14   0.01  -0.11     0.01  -0.02   0.02
  17   6    -0.05  -0.04   0.02     0.14   0.10   0.09     0.01   0.01  -0.01
  18   6    -0.07   0.00  -0.00    -0.00   0.09   0.20     0.01   0.00  -0.01
  19   7    -0.10  -0.00  -0.00    -0.00  -0.00   0.25    -0.00  -0.00  -0.01
  20   6    -0.09  -0.01  -0.01    -0.02  -0.02  -0.03     0.00   0.01  -0.32
  21   6     0.00  -0.04  -0.00     0.01  -0.03  -0.15    -0.00   0.01  -0.24
  22   6     0.08   0.03   0.01     0.03  -0.02  -0.05    -0.01   0.00   0.28
  23   6     0.06   0.09   0.00     0.03  -0.02   0.15    -0.01  -0.00   0.14
  24   6    -0.03   0.11  -0.01     0.00  -0.01  -0.01    -0.00   0.00  -0.33
  25   6    -0.11   0.01  -0.01    -0.01  -0.02  -0.17    -0.00   0.01  -0.23
  26   6    -0.11  -0.01   0.01     0.01  -0.02  -0.17    -0.00  -0.01   0.23
  27   6    -0.03  -0.11   0.01    -0.00  -0.01  -0.02    -0.01  -0.00   0.33
  28   6     0.06  -0.09  -0.00    -0.03  -0.02   0.16    -0.01   0.00  -0.14
  29   6     0.08  -0.04  -0.01    -0.03  -0.02  -0.04    -0.01  -0.00  -0.28
  30   6     0.00   0.04   0.00    -0.01  -0.03  -0.16    -0.01  -0.01   0.24
  31   6    -0.09   0.01   0.01     0.02  -0.02  -0.04    -0.00  -0.01   0.32
  32   6    -0.05   0.05  -0.02    -0.14   0.10   0.09     0.02   0.00   0.00
  33   6    -0.04   0.01   0.01    -0.14   0.01  -0.11     0.02   0.02  -0.01
  34   6     0.04  -0.01  -0.27    -0.04  -0.04   0.07     0.01  -0.00   0.00
  35   6     0.10   0.04  -0.20    -0.01  -0.01   0.16    -0.00  -0.01   0.01
  36   6     0.11   0.02   0.17     0.06  -0.04  -0.01    -0.00  -0.00  -0.01
  37   6     0.11  -0.01   0.16     0.07  -0.05  -0.10    -0.00  -0.00  -0.01
  38   6     0.10  -0.04  -0.22     0.00  -0.07   0.07     0.00   0.00   0.01
  39   6     0.04   0.00  -0.27    -0.05  -0.04   0.07     0.01  -0.00  -0.00
  40   6    -0.05  -0.03   0.01    -0.08   0.23   0.01    -0.00   0.02   0.01
  41   6    -0.06  -0.06  -0.02    -0.09   0.02   0.01    -0.00   0.00   0.00
  42   1    -0.01   0.03   0.02     0.05   0.00   0.02     0.00  -0.00  -0.00
  43   1    -0.02  -0.00  -0.00     0.05   0.10   0.01    -0.00   0.01   0.01
  44   1     0.03   0.03   0.07     0.00  -0.03   0.04    -0.00  -0.01  -0.00
  45   1     0.03   0.01  -0.13    -0.03  -0.02  -0.08    -0.00  -0.00   0.00
  46   1     0.03  -0.01  -0.13    -0.02  -0.01  -0.03    -0.00   0.00   0.01
  47   1     0.03  -0.03   0.06     0.00   0.01   0.06    -0.00   0.00  -0.00
  48   1    -0.01   0.01  -0.01     0.08  -0.01  -0.05     0.00  -0.01   0.01
  49   1    -0.01  -0.02   0.01     0.08   0.05   0.04     0.00   0.01  -0.01
  50   1     0.01  -0.04  -0.00     0.01  -0.02  -0.07    -0.00   0.00  -0.08
  51   1     0.04   0.01   0.01     0.01  -0.01  -0.02    -0.00   0.00   0.20
  52   1     0.03   0.04   0.00     0.01  -0.00   0.11    -0.00  -0.00   0.11
  53   1    -0.02   0.06  -0.00    -0.00   0.00   0.01    -0.00   0.00  -0.14
  54   1    -0.02  -0.06   0.00     0.00   0.00   0.00    -0.00  -0.00   0.14
  55   1     0.03  -0.04  -0.00    -0.01  -0.00   0.11    -0.00   0.00  -0.12
  56   1     0.04  -0.01  -0.01    -0.01  -0.01  -0.02    -0.00  -0.00  -0.20
  57   1     0.01   0.04   0.00    -0.01  -0.02  -0.07    -0.00  -0.01   0.08
  58   1    -0.01   0.02  -0.01    -0.08   0.05   0.04     0.00  -0.01   0.01
  59   1    -0.01  -0.01   0.01    -0.08  -0.01  -0.05     0.01   0.01  -0.01
  60   1     0.03   0.03  -0.06    -0.00   0.01   0.06    -0.00  -0.00   0.01
  61   1     0.03   0.01   0.13     0.02  -0.01  -0.03    -0.00  -0.00  -0.00
  62   1     0.03  -0.01   0.13     0.03  -0.02  -0.08    -0.00   0.00  -0.00
  63   1     0.03  -0.03  -0.07    -0.00  -0.03   0.03    -0.00   0.00   0.01
  64   1    -0.02   0.00   0.00    -0.05   0.10   0.01    -0.00   0.01   0.00
  65   1    -0.01  -0.03  -0.02    -0.05   0.00   0.02    -0.00   0.00   0.00
                     25                     26                     27
                        a                      a                      a 
 Frequencies --   270.7848               308.7830               345.8043
 Red. masses --    11.2376                11.0010                10.6440
 Frc consts  --     0.0000                 0.0000                 0.0000
 IR Inten    --     1.4260                 6.8847                 0.4782
 Raman Activ --     0.0000                 0.0000                 0.0000
 Depolar     --     0.0000                 0.0000                 0.0000
 Atom AN      X      Y      Z        X      Y      Z        X      Y      Z
   1   7     0.00   0.18   0.15     0.18  -0.00  -0.00    -0.00  -0.06  -0.03
   2   6    -0.00  -0.24  -0.21     0.16   0.00  -0.00     0.00   0.12   0.06
   3   6    -0.00  -0.23  -0.20     0.13   0.00  -0.00     0.00   0.07   0.05
   4   6     0.00   0.04   0.01     0.04   0.00   0.06    -0.03  -0.05  -0.03
   5   6     0.01   0.28   0.20     0.03  -0.05   0.02    -0.02  -0.09  -0.01
   6   6     0.00   0.17   0.12    -0.07  -0.00   0.00     0.00  -0.00   0.07
   7   6    -0.00  -0.04  -0.11    -0.12   0.00   0.00     0.00   0.03  -0.02
   8   6     0.01  -0.06  -0.16    -0.19   0.06   0.09     0.09  -0.00  -0.08
   9   6    -0.03  -0.09  -0.05    -0.04   0.17   0.03     0.08  -0.04   0.14
  10   6    -0.07  -0.08   0.02     0.13   0.09  -0.03    -0.03   0.01  -0.05
  11   6    -0.07  -0.03   0.01     0.13  -0.03  -0.02    -0.04   0.10  -0.06
  12   6    -0.02  -0.01  -0.02    -0.04  -0.11   0.04     0.07   0.14   0.10
  13   6     0.00  -0.03  -0.09    -0.20  -0.00   0.09     0.11   0.07  -0.14
  14   6    -0.00  -0.02   0.06    -0.23   0.00  -0.00    -0.00  -0.01  -0.14
  15   6    -0.00  -0.00   0.18    -0.22   0.00  -0.00    -0.00  -0.25   0.11
  16   6    -0.08   0.02   0.10    -0.14   0.03   0.03     0.08  -0.19   0.13
  17   6    -0.09   0.04  -0.09    -0.12   0.00   0.07     0.07   0.23  -0.04
  18   6    -0.00   0.03  -0.15     0.00  -0.00   0.00     0.00   0.33  -0.09
  19   7     0.00  -0.00  -0.15     0.08  -0.00   0.00     0.00   0.06  -0.12
  20   6     0.00  -0.01   0.04     0.14   0.03  -0.01    -0.06  -0.03  -0.01
  21   6     0.01  -0.01   0.11     0.07   0.05  -0.02     0.04  -0.07   0.01
  22   6     0.01  -0.01   0.02    -0.03  -0.06   0.01     0.08  -0.04   0.04
  23   6     0.01  -0.00  -0.10    -0.01  -0.14   0.01     0.08  -0.04  -0.04
  24   6     0.01  -0.00   0.02     0.08  -0.15  -0.02     0.00  -0.03  -0.01
  25   6     0.00  -0.01   0.12     0.17  -0.02  -0.01    -0.04  -0.07   0.06
  26   6    -0.00  -0.01   0.10     0.17   0.02   0.01     0.04  -0.07   0.06
  27   6    -0.01   0.00  -0.02     0.08   0.15   0.02    -0.00  -0.03  -0.01
  28   6    -0.01   0.00  -0.09    -0.01   0.14  -0.01    -0.08  -0.04  -0.04
  29   6    -0.01  -0.01   0.05    -0.03   0.06  -0.01    -0.08  -0.04   0.04
  30   6    -0.01  -0.01   0.09     0.07  -0.05   0.02    -0.04  -0.07   0.01
  31   6    -0.00  -0.01   0.01     0.14  -0.03   0.01     0.06  -0.03  -0.01
  32   6     0.08   0.04  -0.09    -0.12  -0.00  -0.07    -0.07   0.23  -0.04
  33   6     0.08   0.01   0.10    -0.14  -0.03  -0.03    -0.08  -0.19   0.13
  34   6    -0.01  -0.03  -0.10    -0.20   0.00  -0.09    -0.11   0.07  -0.14
  35   6     0.02  -0.01  -0.02    -0.04   0.11  -0.04    -0.07   0.13   0.11
  36   6     0.07  -0.03   0.01     0.13   0.03   0.02     0.04   0.10  -0.06
  37   6     0.07  -0.08   0.02     0.13  -0.09   0.03     0.03   0.01  -0.05
  38   6     0.02  -0.10  -0.05    -0.04  -0.17  -0.03    -0.08  -0.04   0.15
  39   6    -0.01  -0.06  -0.16    -0.19  -0.06  -0.09    -0.09  -0.00  -0.08
  40   6    -0.00   0.28   0.20     0.03   0.05  -0.02     0.02  -0.09  -0.01
  41   6    -0.00   0.05   0.01     0.05  -0.00  -0.06     0.03  -0.06  -0.03
  42   1    -0.00   0.01   0.00    -0.00   0.02   0.02    -0.02  -0.03  -0.02
  43   1     0.00   0.12   0.08     0.03  -0.01  -0.01    -0.02  -0.04  -0.01
  44   1    -0.00  -0.03   0.02    -0.01   0.10  -0.00     0.03  -0.04   0.10
  45   1    -0.02  -0.03   0.03     0.07   0.05  -0.03    -0.03  -0.01  -0.03
  46   1    -0.03  -0.00   0.02     0.07  -0.03  -0.02    -0.03   0.04  -0.03
  47   1    -0.00   0.01   0.02    -0.01  -0.08  -0.00     0.03   0.06   0.09
  48   1    -0.05   0.01   0.04    -0.02   0.01  -0.00     0.04  -0.10   0.05
  49   1    -0.05   0.01  -0.04    -0.06  -0.02   0.02     0.05   0.09  -0.01
  50   1     0.00  -0.00   0.04     0.01   0.04  -0.01     0.02  -0.04  -0.01
  51   1     0.01  -0.00   0.01    -0.04  -0.01   0.01     0.03  -0.01   0.02
  52   1     0.00   0.00  -0.07    -0.02  -0.05   0.01     0.03  -0.01  -0.03
  53   1     0.00   0.00  -0.00     0.03  -0.08  -0.01    -0.00   0.01  -0.01
  54   1    -0.00   0.00  -0.02     0.03   0.08   0.01     0.00   0.01  -0.01
  55   1    -0.00   0.00  -0.06    -0.01   0.05  -0.01    -0.03  -0.00  -0.03
  56   1    -0.01  -0.00   0.03    -0.04   0.01  -0.01    -0.03  -0.01   0.02
  57   1    -0.00  -0.00   0.03     0.01  -0.04   0.01    -0.02  -0.04  -0.01
  58   1     0.05   0.01  -0.04    -0.06   0.02  -0.02    -0.04   0.09  -0.01
  59   1     0.05   0.01   0.05    -0.02  -0.01   0.00    -0.05  -0.10   0.05
  60   1     0.00   0.01   0.02    -0.01   0.08   0.00    -0.03   0.06   0.09
  61   1     0.03  -0.00   0.03     0.07   0.03   0.02     0.03   0.04  -0.03
  62   1     0.03  -0.03   0.03     0.07  -0.05   0.03     0.03  -0.01  -0.03
  63   1     0.00  -0.03   0.02    -0.01  -0.10   0.00    -0.03  -0.04   0.10
  64   1    -0.00   0.12   0.08     0.03   0.01   0.01     0.02  -0.04  -0.01
  65   1     0.00   0.01   0.00    -0.00  -0.02  -0.02     0.02  -0.03  -0.02
                     28                     29                     30
                        a                      a                      a 
 Frequencies --   368.4624               369.3496               377.2652
 Red. masses --     9.2577                10.3436                10.9779
 Frc consts  --     0.0000                 0.0000                 0.0000
 IR Inten    --     1.9734                 0.7053                 1.2242
 Raman Activ --     0.0000                 0.0000                 0.0000
 Depolar     --     0.0000                 0.0000                 0.0000
 Atom AN      X      Y      Z        X      Y      Z        X      Y      Z
   1   7    -0.02   0.00  -0.00    -0.00  -0.00   0.01     0.00   0.02  -0.02
   2   6    -0.02  -0.00   0.00    -0.00   0.01  -0.02     0.00  -0.04   0.05
   3   6    -0.02   0.00   0.00    -0.00  -0.01  -0.01     0.00  -0.01   0.02
   4   6     0.01   0.30   0.22    -0.02   0.01   0.02     0.05   0.00  -0.01
   5   6    -0.00  -0.34  -0.28    -0.02  -0.05   0.01     0.04   0.07  -0.07
   6   6     0.03   0.00   0.00     0.00  -0.09  -0.02    -0.00   0.08  -0.07
   7   6     0.00   0.00   0.01     0.00  -0.08  -0.14     0.00   0.02   0.20
   8   6     0.01   0.02  -0.10     0.01  -0.07  -0.09    -0.04   0.02   0.18
   9   6     0.02   0.02   0.03     0.10  -0.07   0.25    -0.07   0.04  -0.04
  10   6    -0.03   0.04  -0.03     0.08  -0.07  -0.13    -0.03   0.01  -0.09
  11   6    -0.02   0.06   0.00     0.09   0.00  -0.08     0.01  -0.07   0.13
  12   6    -0.00   0.07   0.05     0.11   0.02   0.26    -0.05  -0.09  -0.06
  13   6     0.01   0.02  -0.10     0.00   0.02  -0.12    -0.07  -0.06  -0.03
  14   6    -0.01  -0.00   0.00    -0.00   0.06  -0.21    -0.00  -0.03  -0.20
  15   6     0.00  -0.00   0.00    -0.00   0.29  -0.06    -0.00   0.09  -0.11
  16   6    -0.00   0.02  -0.01    -0.06   0.21  -0.02     0.06   0.01   0.02
  17   6     0.00  -0.03   0.02    -0.07  -0.09   0.09     0.04   0.05   0.18
  18   6    -0.00   0.00  -0.00    -0.00  -0.14   0.07    -0.00   0.16   0.10
  19   7     0.00   0.00  -0.00     0.00  -0.02  -0.12     0.00   0.06  -0.42
  20   6    -0.00  -0.00  -0.00     0.03   0.01  -0.06    -0.04  -0.01  -0.18
  21   6     0.00  -0.00  -0.00    -0.01   0.02   0.06     0.03  -0.03   0.16
  22   6     0.00  -0.00   0.00    -0.03   0.01  -0.01     0.05  -0.02   0.02
  23   6     0.00  -0.00   0.00    -0.03   0.01  -0.05     0.05  -0.03  -0.17
  24   6    -0.00  -0.00  -0.00     0.00   0.01   0.06    -0.00  -0.03   0.15
  25   6     0.00  -0.00  -0.00     0.02   0.02  -0.01    -0.02  -0.04   0.03
  26   6     0.00  -0.00   0.00    -0.02   0.02  -0.01     0.02  -0.04   0.03
  27   6    -0.00   0.00   0.00    -0.00   0.01   0.06     0.00  -0.02   0.15
  28   6    -0.00   0.00  -0.00     0.03   0.01  -0.05    -0.05  -0.03  -0.17
  29   6    -0.00   0.00  -0.00     0.03   0.01  -0.01    -0.05  -0.02   0.02
  30   6     0.00   0.00   0.00     0.01   0.02   0.06    -0.03  -0.03   0.15
  31   6     0.00  -0.00   0.00    -0.03   0.01  -0.06     0.04  -0.01  -0.18
  32   6    -0.00   0.03  -0.03     0.07  -0.09   0.09    -0.04   0.05   0.17
  33   6    -0.00  -0.03   0.02     0.06   0.21  -0.02    -0.06   0.01   0.02
  34   6     0.01  -0.02   0.10     0.00   0.02  -0.12     0.07  -0.06  -0.03
  35   6     0.00  -0.07  -0.06    -0.11   0.01   0.26     0.05  -0.09  -0.06
  36   6    -0.02  -0.06   0.01    -0.09  -0.01  -0.08    -0.01  -0.07   0.13
  37   6    -0.02  -0.04   0.04    -0.09  -0.07  -0.13     0.03   0.01  -0.09
  38   6     0.03  -0.02  -0.04    -0.10  -0.07   0.25     0.07   0.04  -0.04
  39   6     0.01  -0.02   0.11    -0.01  -0.07  -0.09     0.05   0.02   0.18
  40   6    -0.00   0.34   0.28     0.02  -0.04   0.02    -0.04   0.06  -0.07
  41   6     0.01  -0.30  -0.23     0.02  -0.01   0.01    -0.05   0.01  -0.01
  42   1     0.01   0.19   0.15    -0.01   0.02   0.01     0.03  -0.01   0.00
  43   1    -0.01  -0.19  -0.15    -0.01  -0.01   0.01     0.03   0.03  -0.03
  44   1     0.02   0.00   0.06     0.04  -0.01   0.15    -0.02   0.02  -0.03
  45   1    -0.01   0.01  -0.01     0.01  -0.02  -0.09     0.00   0.01  -0.06
  46   1    -0.01   0.02   0.01     0.01   0.00  -0.06     0.02  -0.03   0.07
  47   1     0.01   0.03   0.05     0.04   0.00   0.14    -0.02  -0.03  -0.06
  48   1     0.00   0.01  -0.01    -0.04   0.07  -0.00     0.04  -0.01   0.00
  49   1    -0.00  -0.02   0.01    -0.04  -0.06   0.04     0.04   0.01   0.08
  50   1     0.00  -0.00  -0.00    -0.00   0.02   0.05     0.01  -0.02   0.11
  51   1    -0.00  -0.00   0.00    -0.01   0.00   0.00     0.01  -0.01   0.03
  52   1     0.00  -0.00   0.00    -0.01   0.00  -0.03     0.02  -0.00  -0.09
  53   1    -0.00  -0.00  -0.00     0.00  -0.01   0.04    -0.00   0.00   0.10
  54   1    -0.00   0.00  -0.00    -0.00  -0.01   0.04     0.00   0.01   0.10
  55   1    -0.00   0.00  -0.00     0.01   0.00  -0.03    -0.02  -0.00  -0.09
  56   1    -0.00   0.00  -0.00     0.01   0.00   0.00    -0.01  -0.01   0.03
  57   1     0.00   0.00  -0.00     0.00   0.02   0.05    -0.01  -0.02   0.11
  58   1    -0.00   0.02  -0.01     0.04  -0.06   0.04    -0.04   0.01   0.08
  59   1    -0.00  -0.02   0.01     0.04   0.08  -0.00    -0.04  -0.01   0.00
  60   1     0.01  -0.03  -0.06    -0.04  -0.00   0.14     0.02  -0.03  -0.06
  61   1    -0.01  -0.02  -0.01    -0.01   0.00  -0.06    -0.02  -0.03   0.07
  62   1    -0.01  -0.01   0.01    -0.01  -0.02  -0.09    -0.00   0.01  -0.06
  63   1     0.02  -0.00  -0.07    -0.04  -0.01   0.15     0.02   0.02  -0.03
  64   1    -0.00   0.19   0.15     0.01   0.00   0.02    -0.03   0.02  -0.03
  65   1     0.01  -0.19  -0.15     0.01   0.01   0.01    -0.03  -0.00   0.00
                     31                     32                     33
                        a                      a                      a 
 Frequencies --   380.6733               389.8075               394.0706
 Red. masses --    11.1277                 9.5566                 9.7332
 Frc consts  --     0.0000                 0.0000                 0.0000
 IR Inten    --    29.8632                 0.7381                 0.6372
 Raman Activ --     0.0000                 0.0000                 0.0000
 Depolar     --     0.0000                 0.0000                 0.0000
 Atom AN      X      Y      Z        X      Y      Z        X      Y      Z
   1   7     0.17  -0.00  -0.00    -0.08   0.00   0.00    -0.00  -0.00   0.02
   2   6     0.15  -0.00  -0.00    -0.07   0.00   0.00    -0.00   0.01  -0.04
   3   6     0.11  -0.00  -0.00    -0.05   0.00   0.00    -0.00   0.00  -0.01
   4   6    -0.00  -0.00   0.07     0.00  -0.04  -0.06    -0.02   0.00   0.01
   5   6    -0.03  -0.08   0.01     0.01   0.09   0.04    -0.02  -0.03   0.04
   6   6    -0.12  -0.00   0.00     0.05  -0.00  -0.00     0.00  -0.04   0.04
   7   6    -0.16  -0.00  -0.00     0.07  -0.00  -0.00     0.00  -0.00  -0.10
   8   6    -0.08  -0.12  -0.02     0.05   0.02  -0.10     0.03  -0.01  -0.08
   9   6    -0.09  -0.16  -0.00     0.04   0.00   0.07     0.03  -0.01  -0.04
  10   6     0.01  -0.24  -0.02    -0.01   0.03   0.01     0.01   0.01   0.08
  11   6     0.02  -0.29   0.02    -0.02   0.07  -0.05    -0.02   0.04  -0.07
  12   6     0.01  -0.26   0.02     0.03   0.09   0.03     0.01   0.05  -0.01
  13   6    -0.08  -0.16   0.00     0.04   0.05  -0.10     0.05   0.03   0.07
  14   6     0.06   0.00  -0.00    -0.04   0.00  -0.00    -0.00   0.00   0.16
  15   6     0.10   0.00  -0.00    -0.04   0.00   0.00     0.00  -0.09   0.01
  16   6     0.11   0.11  -0.09    -0.06   0.30  -0.24     0.01  -0.03  -0.04
  17   6     0.11  -0.13   0.09    -0.05  -0.28   0.24     0.02   0.03  -0.05
  18   6     0.06  -0.00   0.00    -0.03  -0.00  -0.00     0.00   0.01  -0.01
  19   7     0.01  -0.00  -0.00    -0.01  -0.00   0.00    -0.00  -0.02   0.12
  20   6    -0.04  -0.01  -0.04     0.01  -0.01  -0.04     0.00  -0.00  -0.09
  21   6    -0.04  -0.01   0.01     0.04  -0.02  -0.01     0.01  -0.00   0.29
  22   6    -0.01   0.03  -0.01     0.01  -0.06  -0.01     0.00  -0.00  -0.22
  23   6    -0.02   0.06  -0.01     0.01  -0.07   0.00     0.00  -0.00  -0.02
  24   6    -0.03   0.06   0.02    -0.01  -0.06   0.00     0.00  -0.00   0.26
  25   6    -0.06   0.01  -0.02     0.02  -0.01  -0.03     0.01   0.00  -0.33
  26   6    -0.06  -0.01   0.02     0.02   0.01   0.03    -0.00   0.00  -0.33
  27   6    -0.03  -0.06  -0.01    -0.01   0.06  -0.01    -0.01  -0.01   0.26
  28   6    -0.02  -0.06   0.00     0.01   0.07  -0.00    -0.01  -0.00  -0.02
  29   6    -0.01  -0.03   0.00     0.01   0.06   0.01    -0.00  -0.00  -0.22
  30   6    -0.04   0.01  -0.00     0.04   0.02   0.01    -0.01  -0.00   0.29
  31   6    -0.04   0.01   0.03     0.01   0.01   0.04    -0.00  -0.00  -0.09
  32   6     0.11   0.13  -0.08    -0.05   0.28  -0.24    -0.02   0.03  -0.05
  33   6     0.11  -0.10   0.09    -0.06  -0.30   0.24    -0.01  -0.03  -0.04
  34   6    -0.08   0.16  -0.01     0.04  -0.05   0.10    -0.05   0.03   0.07
  35   6     0.01   0.26  -0.02     0.03  -0.09  -0.03    -0.01   0.05  -0.01
  36   6     0.02   0.29  -0.02    -0.02  -0.07   0.05     0.02   0.04  -0.07
  37   6     0.01   0.24   0.02    -0.01  -0.03  -0.01    -0.01   0.00   0.08
  38   6    -0.09   0.16   0.01     0.04  -0.00  -0.07    -0.03  -0.02  -0.04
  39   6    -0.08   0.12   0.01     0.05  -0.03   0.10    -0.03  -0.01  -0.08
  40   6    -0.03   0.08  -0.01     0.01  -0.09  -0.04     0.02  -0.03   0.04
  41   6    -0.00   0.00  -0.07     0.00   0.04   0.06     0.02  -0.00   0.01
  42   1    -0.02   0.02   0.02     0.01  -0.03  -0.03    -0.02   0.00  -0.00
  43   1     0.01  -0.03  -0.01    -0.00   0.04   0.03    -0.01  -0.01   0.01
  44   1    -0.02  -0.04   0.01     0.02  -0.01   0.06     0.01  -0.01  -0.02
  45   1     0.03  -0.06  -0.01    -0.01   0.00   0.02    -0.00  -0.00   0.06
  46   1     0.00  -0.08   0.01    -0.02   0.03  -0.02    -0.01   0.01  -0.04
  47   1     0.00  -0.09   0.02     0.02   0.04   0.06     0.01   0.02   0.00
  48   1     0.03   0.06  -0.05    -0.02   0.17  -0.13     0.01  -0.01  -0.01
  49   1     0.04  -0.07   0.05    -0.02  -0.17   0.13     0.01   0.01  -0.01
  50   1    -0.01  -0.01   0.02     0.01  -0.01   0.02     0.00   0.00   0.21
  51   1     0.01   0.01   0.00    -0.01  -0.01   0.01     0.00  -0.00  -0.11
  52   1    -0.00   0.02   0.00     0.01  -0.02   0.01     0.00  -0.00   0.02
  53   1    -0.01   0.02   0.02    -0.00  -0.02   0.01     0.00  -0.00   0.21
  54   1    -0.01  -0.02  -0.02    -0.00   0.02  -0.01    -0.00  -0.00   0.21
  55   1    -0.00  -0.02  -0.00     0.01   0.02  -0.01    -0.00  -0.00   0.02
  56   1     0.01  -0.01  -0.00    -0.01   0.02  -0.01    -0.00  -0.00  -0.11
  57   1    -0.01   0.01  -0.02     0.01   0.01  -0.02    -0.00   0.00   0.20
  58   1     0.04   0.07  -0.05    -0.02   0.17  -0.13    -0.01   0.01  -0.01
  59   1     0.03  -0.06   0.05    -0.02  -0.17   0.13    -0.01  -0.01  -0.01
  60   1     0.00   0.10  -0.02     0.02  -0.04  -0.06    -0.01   0.02   0.01
  61   1     0.01   0.08  -0.01    -0.02  -0.03   0.02     0.01   0.01  -0.04
  62   1     0.03   0.06   0.01    -0.01  -0.00  -0.02     0.00  -0.01   0.06
  63   1    -0.02   0.04  -0.00     0.02   0.01  -0.05    -0.01  -0.01  -0.02
  64   1     0.01   0.03   0.02    -0.00  -0.04  -0.03     0.01  -0.01   0.01
  65   1    -0.02  -0.02  -0.02     0.01   0.03   0.03     0.02   0.00  -0.00
                     34                     35                     36
                        a                      a                      a 
 Frequencies --   399.9159               412.9203               418.7646
 Red. masses --    10.7782                10.7236                10.8821
 Frc consts  --     0.0000                 0.0000                 0.0000
 IR Inten    --     0.4292                 2.3097                 1.3352
 Raman Activ --     0.0000                 0.0000                 0.0000
 Depolar     --     0.0000                 0.0000                 0.0000
 Atom AN      X      Y      Z        X      Y      Z        X      Y      Z
   1   7    -0.00  -0.06  -0.08    -0.06   0.00   0.00    -0.00  -0.02  -0.04
   2   6     0.00   0.13   0.19    -0.05  -0.00  -0.00     0.00   0.05   0.10
   3   6     0.00   0.06   0.08    -0.04  -0.00  -0.00     0.00   0.01   0.02
   4   6     0.04  -0.10  -0.10     0.01   0.01  -0.02     0.03  -0.04  -0.05
   5   6     0.04   0.07  -0.07     0.02   0.02  -0.01     0.02   0.04  -0.05
   6   6     0.00   0.27   0.09     0.05  -0.00  -0.00     0.00   0.09  -0.01
   7   6     0.00  -0.02   0.27     0.05   0.00  -0.00     0.00   0.07   0.13
   8   6     0.20  -0.12   0.10     0.08  -0.08  -0.08    -0.11   0.08   0.04
   9   6     0.09  -0.21  -0.08     0.00  -0.18   0.07    -0.09   0.11   0.12
  10   6    -0.03  -0.15  -0.06    -0.01  -0.21  -0.05    -0.05   0.07  -0.14
  11   6    -0.00   0.05   0.12    -0.00  -0.14   0.01    -0.01  -0.10   0.11
  12   6     0.12   0.13  -0.12     0.12  -0.06   0.07    -0.08  -0.13   0.03
  13   6     0.18   0.07  -0.07     0.06  -0.03  -0.09    -0.12  -0.10  -0.21
  14   6    -0.00   0.02  -0.01    -0.01  -0.00   0.00     0.00  -0.06  -0.22
  15   6    -0.00   0.04   0.09    -0.09  -0.00   0.00    -0.00   0.01   0.17
  16   6    -0.05   0.10   0.01    -0.16  -0.09   0.05    -0.07  -0.03   0.15
  17   6    -0.06  -0.04  -0.02    -0.17   0.06  -0.05    -0.07   0.01  -0.16
  18   6    -0.00  -0.13   0.01    -0.13   0.00  -0.00     0.00   0.00  -0.20
  19   7    -0.00  -0.04   0.05    -0.06   0.00   0.00    -0.00  -0.04   0.26
  20   6     0.03   0.00   0.01     0.01  -0.04   0.18     0.01  -0.01   0.10
  21   6    -0.01   0.02   0.02     0.12  -0.10  -0.08    -0.01   0.00   0.06
  22   6    -0.03   0.01  -0.02     0.06  -0.18   0.01    -0.01   0.00  -0.11
  23   6    -0.03   0.02   0.01     0.05  -0.19   0.06    -0.01   0.01   0.09
  24   6     0.01   0.01   0.01    -0.03  -0.15  -0.10     0.00   0.01   0.01
  25   6     0.02   0.02  -0.03     0.03  -0.04   0.11     0.01   0.02  -0.14
  26   6    -0.02   0.03  -0.03     0.03   0.04  -0.11    -0.01   0.01  -0.14
  27   6    -0.01   0.01   0.01    -0.03   0.15   0.10    -0.00   0.01   0.01
  28   6     0.03   0.02   0.01     0.05   0.19  -0.06     0.01   0.01   0.09
  29   6     0.03   0.01  -0.02     0.06   0.18  -0.01     0.01   0.00  -0.11
  30   6     0.01   0.02   0.02     0.11   0.10   0.09     0.01   0.00   0.06
  31   6    -0.03   0.00   0.01     0.01   0.04  -0.18    -0.01  -0.01   0.10
  32   6     0.05  -0.04  -0.02    -0.17  -0.06   0.04     0.07   0.01  -0.16
  33   6     0.05   0.10   0.01    -0.16   0.09  -0.05     0.07  -0.03   0.15
  34   6    -0.18   0.07  -0.07     0.06   0.03   0.09     0.12  -0.10  -0.22
  35   6    -0.12   0.13  -0.12     0.12   0.06  -0.07     0.08  -0.13   0.03
  36   6     0.00   0.05   0.12    -0.00   0.14  -0.01     0.01  -0.10   0.11
  37   6     0.03  -0.15  -0.06    -0.01   0.21   0.06     0.05   0.07  -0.14
  38   6    -0.09  -0.21  -0.08     0.01   0.18  -0.07     0.09   0.11   0.13
  39   6    -0.20  -0.12   0.10     0.08   0.08   0.08     0.11   0.08   0.04
  40   6    -0.04   0.07  -0.07     0.02  -0.02   0.01    -0.02   0.04  -0.05
  41   6    -0.04  -0.10  -0.10     0.01  -0.01   0.02    -0.03  -0.04  -0.05
  42   1     0.03  -0.08  -0.06     0.01  -0.00  -0.00     0.02  -0.03  -0.02
  43   1     0.02  -0.00  -0.05    -0.00   0.00   0.00     0.01   0.02  -0.02
  44   1     0.03  -0.08  -0.03     0.01  -0.07   0.06    -0.02   0.03   0.09
  45   1    -0.05  -0.07  -0.03    -0.01  -0.06  -0.03     0.01   0.04  -0.09
  46   1    -0.04   0.04   0.09    -0.03  -0.02   0.01     0.03  -0.04   0.07
  47   1     0.03   0.06  -0.06     0.04   0.00   0.05    -0.02  -0.04   0.03
  48   1    -0.04   0.06  -0.01    -0.06  -0.04   0.03    -0.06  -0.01   0.07
  49   1    -0.04  -0.01  -0.02    -0.05   0.03  -0.03    -0.06  -0.01  -0.06
  50   1    -0.01   0.02   0.01     0.03  -0.03  -0.10    -0.00   0.01   0.03
  51   1    -0.01   0.00  -0.01    -0.00  -0.05  -0.02    -0.00   0.00  -0.07
  52   1    -0.01   0.00   0.01     0.03  -0.04   0.01    -0.00   0.00   0.06
  53   1     0.00  -0.01   0.01    -0.01  -0.05  -0.10     0.00  -0.00   0.02
  54   1    -0.00  -0.01   0.01    -0.01   0.05   0.11    -0.00  -0.00   0.01
  55   1     0.01   0.00   0.01     0.03   0.04  -0.01     0.00   0.00   0.06
  56   1     0.01   0.00  -0.01    -0.00   0.05   0.02     0.00   0.00  -0.07
  57   1     0.01   0.02   0.01     0.03   0.03   0.10     0.00   0.01   0.03
  58   1     0.04  -0.01  -0.02    -0.05  -0.03   0.03     0.06  -0.01  -0.06
  59   1     0.03   0.06  -0.01    -0.05   0.04  -0.03     0.06  -0.01   0.07
  60   1    -0.03   0.06  -0.06     0.04  -0.00  -0.05     0.02  -0.04   0.03
  61   1     0.04   0.04   0.09    -0.03   0.02  -0.02    -0.03  -0.04   0.07
  62   1     0.05  -0.06  -0.03    -0.01   0.06   0.03    -0.01   0.04  -0.09
  63   1    -0.03  -0.08  -0.03     0.01   0.07  -0.06     0.02   0.03   0.09
  64   1    -0.02  -0.00  -0.05    -0.00  -0.00  -0.00    -0.01   0.02  -0.02
  65   1    -0.03  -0.08  -0.06     0.01   0.00   0.00    -0.02  -0.03  -0.02
                     37                     38                     39
                        a                      a                      a 
 Frequencies --   426.0909               430.5107               439.9893
 Red. masses --     9.8885                10.1452                10.9085
 Frc consts  --     0.0000                 0.0000                 0.0000
 IR Inten    --     0.6119                28.7692                 0.9536
 Raman Activ --     0.0000                 0.0000                 0.0000
 Depolar     --     0.0000                 0.0000                 0.0000
 Atom AN      X      Y      Z        X      Y      Z        X      Y      Z
   1   7    -0.02   0.00   0.00    -0.08   0.00   0.00    -0.00  -0.13  -0.10
   2   6    -0.02  -0.00  -0.00    -0.07   0.00   0.00     0.00   0.32   0.24
   3   6    -0.01  -0.00  -0.00    -0.05   0.00   0.00     0.00   0.07   0.05
   4   6     0.00  -0.02  -0.02     0.03   0.06  -0.00    -0.00  -0.20  -0.17
   5   6     0.01   0.05   0.03     0.04  -0.05  -0.09     0.01   0.10   0.08
   6   6     0.02  -0.00  -0.00     0.09   0.00   0.00     0.00   0.31   0.26
   7   6     0.01  -0.00  -0.00     0.10  -0.00  -0.00     0.00   0.11  -0.13
   8   6     0.02  -0.03  -0.16     0.08  -0.02   0.22    -0.03   0.07  -0.18
   9   6     0.02  -0.08   0.14    -0.04  -0.06  -0.18    -0.07   0.06   0.00
  10   6     0.01  -0.09  -0.06    -0.03  -0.07   0.04    -0.05   0.03   0.10
  11   6     0.01  -0.05  -0.03    -0.02  -0.05   0.08    -0.08  -0.12  -0.11
  12   6     0.08  -0.01   0.13     0.01  -0.02  -0.19    -0.05  -0.11   0.10
  13   6     0.01  -0.00  -0.17     0.07   0.01   0.21    -0.04  -0.09   0.04
  14   6    -0.05   0.00  -0.00     0.03  -0.00   0.00    -0.00  -0.10   0.11
  15   6    -0.09  -0.00  -0.00    -0.02  -0.00  -0.00    -0.00   0.00  -0.05
  16   6    -0.11  -0.08   0.07    -0.07   0.03  -0.05     0.02   0.05  -0.08
  17   6    -0.10   0.08  -0.04    -0.08  -0.01  -0.01     0.02  -0.01   0.05
  18   6    -0.05   0.00   0.00    -0.07  -0.00   0.00    -0.00  -0.05   0.10
  19   7    -0.01  -0.00  -0.00    -0.05  -0.00  -0.00     0.00  -0.00  -0.08
  20   6     0.05   0.07  -0.29    -0.01  -0.03  -0.22     0.01   0.00  -0.04
  21   6    -0.00   0.12   0.15     0.09  -0.08   0.11     0.00   0.01  -0.02
  22   6    -0.03   0.11  -0.01     0.05  -0.14  -0.00    -0.01   0.00   0.04
  23   6    -0.01   0.04  -0.11     0.04  -0.13  -0.09    -0.01   0.00  -0.03
  24   6     0.08   0.01   0.16    -0.05  -0.10   0.12     0.00  -0.00   0.01
  25   6     0.08   0.02  -0.19    -0.01  -0.02  -0.14     0.01   0.00   0.04
  26   6     0.08  -0.02   0.19    -0.01   0.02   0.14    -0.01   0.00   0.04
  27   6     0.08  -0.01  -0.16    -0.05   0.10  -0.12    -0.00  -0.00   0.01
  28   6    -0.01  -0.04   0.11     0.04   0.13   0.09     0.01  -0.00  -0.03
  29   6    -0.03  -0.11   0.01     0.05   0.14   0.01     0.00  -0.00   0.04
  30   6    -0.00  -0.12  -0.15     0.09   0.08  -0.11    -0.00   0.00  -0.02
  31   6     0.05  -0.07   0.29    -0.01   0.03   0.22    -0.01   0.00  -0.04
  32   6    -0.10  -0.08   0.04    -0.08   0.01   0.01    -0.02  -0.01   0.05
  33   6    -0.11   0.08  -0.07    -0.07  -0.03   0.05    -0.02   0.05  -0.08
  34   6     0.01   0.00   0.17     0.06  -0.01  -0.21     0.04  -0.09   0.04
  35   6     0.08   0.01  -0.13     0.01   0.02   0.18     0.05  -0.11   0.10
  36   6     0.01   0.05   0.02    -0.02   0.05  -0.08     0.08  -0.11  -0.11
  37   6     0.01   0.09   0.06    -0.03   0.07  -0.04     0.05   0.03   0.10
  38   6     0.02   0.08  -0.14    -0.04   0.06   0.18     0.07   0.06  -0.00
  39   6     0.02   0.03   0.16     0.08   0.02  -0.22     0.03   0.07  -0.18
  40   6     0.01  -0.05  -0.03     0.04   0.05   0.09    -0.01   0.10   0.08
  41   6     0.00   0.02   0.02     0.03  -0.06  -0.00    -0.00  -0.20  -0.17
  42   1     0.00  -0.02  -0.01     0.02   0.03   0.02    -0.00  -0.14  -0.12
  43   1     0.00   0.02   0.01    -0.00  -0.03  -0.03    -0.00  -0.01  -0.00
  44   1     0.02  -0.03   0.11    -0.02  -0.02  -0.14    -0.02   0.01   0.01
  45   1     0.00  -0.03  -0.02    -0.01  -0.02   0.01     0.01   0.02   0.06
  46   1    -0.01  -0.01  -0.00    -0.02  -0.01   0.03    -0.01  -0.04  -0.06
  47   1     0.03   0.01   0.10    -0.01  -0.01  -0.15    -0.01  -0.02   0.07
  48   1    -0.03  -0.04   0.03    -0.03   0.02  -0.01     0.01   0.02  -0.03
  49   1    -0.04   0.03  -0.03    -0.02  -0.01   0.01     0.02   0.00   0.02
  50   1    -0.00   0.05   0.16     0.03  -0.03   0.11    -0.00   0.00  -0.00
  51   1    -0.01   0.03   0.05     0.00  -0.04   0.04    -0.00   0.00   0.02
  52   1    -0.02  -0.00  -0.02     0.03  -0.02  -0.02    -0.00  -0.00  -0.02
  53   1     0.02  -0.01   0.17    -0.01  -0.03   0.12     0.00  -0.00   0.00
  54   1     0.02   0.01  -0.17    -0.01   0.03  -0.12    -0.00  -0.00   0.00
  55   1    -0.02   0.00   0.02     0.03   0.02   0.02     0.00  -0.00  -0.02
  56   1    -0.01  -0.03  -0.05     0.00   0.04  -0.04     0.00   0.00   0.02
  57   1    -0.00  -0.05  -0.16     0.03   0.03  -0.11     0.00   0.00  -0.00
  58   1    -0.04  -0.03   0.03    -0.02   0.01  -0.01    -0.02   0.00   0.02
  59   1    -0.03   0.04  -0.03    -0.03  -0.02   0.01    -0.01   0.02  -0.03
  60   1     0.03  -0.01  -0.10    -0.01   0.01   0.15     0.01  -0.02   0.07
  61   1    -0.01   0.01   0.00    -0.02   0.01  -0.03     0.01  -0.04  -0.06
  62   1     0.00   0.03   0.03    -0.01   0.02  -0.01    -0.01   0.02   0.06
  63   1     0.02   0.03  -0.11    -0.02   0.02   0.14     0.02   0.01   0.01
  64   1     0.00  -0.02  -0.01    -0.00   0.03   0.03     0.00  -0.01  -0.00
  65   1     0.00   0.02   0.01     0.02  -0.03  -0.02     0.00  -0.14  -0.12
[...]
  30   6    -0.00   0.00  -0.00    -0.00   0.00  -0.00    -0.11   0.03  -0.00
  31   6    -0.00  -0.00  -0.00    -0.00  -0.00   0.00    -0.00  -0.00  -0.00
  32   6    -0.00  -0.00  -0.00    -0.00  -0.00  -0.00    -0.01  -0.01  -0.01
  33   6    -0.00   0.00   0.00     0.00  -0.00  -0.00     0.01  -0.01  -0.01
  34   6    -0.00  -0.00  -0.00     0.00   0.00   0.00    -0.00  -0.00   0.00
  35   6    -0.01   0.00  -0.00     0.01  -0.00   0.00    -0.00   0.00  -0.00
  36   6     0.01  -0.01   0.00    -0.00   0.01  -0.00    -0.00   0.00  -0.00
  37   6    -0.01  -0.01  -0.00     0.01   0.02   0.00     0.00   0.00   0.00
  38   6    -0.00   0.00   0.00     0.01  -0.00   0.00    -0.00  -0.00  -0.00
  39   6     0.00   0.00   0.00    -0.00   0.00  -0.00    -0.00   0.00  -0.00
  40   6     0.09   0.09  -0.12     0.08   0.08  -0.11    -0.00  -0.00   0.00
  41   6    -0.06   0.06  -0.07    -0.05   0.06  -0.07     0.00  -0.00   0.00
  42   1    -0.18  -0.19   0.25     0.19   0.20  -0.26     0.00   0.00  -0.00
  43   1     0.28  -0.29   0.39    -0.28   0.30  -0.39    -0.00   0.00  -0.00
  44   1    -0.00  -0.00  -0.00    -0.05   0.00   0.01    -0.01   0.00   0.00
  45   1    -0.03   0.06   0.01    -0.03   0.05   0.01     0.00  -0.00  -0.00
  46   1     0.02   0.03  -0.00     0.02   0.03  -0.00    -0.00  -0.00   0.00
  47   1    -0.04  -0.00   0.01    -0.03  -0.00   0.00    -0.01   0.00   0.00
  48   1    -0.00  -0.00  -0.00    -0.00  -0.00  -0.00     0.04   0.04   0.05
  49   1    -0.00   0.00   0.00     0.01  -0.01  -0.01    -0.02   0.02   0.02
  50   1    -0.00  -0.00   0.00     0.01   0.00  -0.00    -0.36  -0.11   0.01
  51   1    -0.00  -0.00  -0.00     0.00   0.00  -0.00     0.01   0.05  -0.00
  52   1    -0.00   0.00   0.00     0.01  -0.01  -0.00    -0.24   0.24   0.00
  53   1    -0.00  -0.00  -0.00     0.02   0.01   0.00    -0.41  -0.12  -0.00
  54   1     0.00  -0.00  -0.00     0.03  -0.01  -0.00     0.42  -0.12  -0.00
  55   1     0.00   0.00   0.00     0.01   0.01   0.00     0.25   0.24   0.01
  56   1     0.00  -0.00  -0.00     0.00  -0.00   0.00    -0.01   0.04  -0.00
  57   1     0.00  -0.00   0.00     0.01  -0.00   0.00     0.38  -0.12   0.01
  58   1     0.00   0.00   0.01     0.01   0.01   0.01     0.02   0.02   0.02
  59   1     0.00  -0.00  -0.00    -0.00   0.00   0.00    -0.04   0.04   0.05
  60   1     0.04  -0.00   0.01    -0.03   0.00  -0.00     0.01  -0.00   0.00
  61   1    -0.02   0.03  -0.00     0.02  -0.03   0.00     0.00  -0.00   0.00
  62   1     0.03   0.05   0.01    -0.03  -0.05  -0.01    -0.00  -0.00  -0.00
  63   1     0.00  -0.00  -0.00    -0.05  -0.00  -0.01     0.01   0.00   0.00
  64   1    -0.29  -0.30   0.41    -0.28  -0.29   0.39     0.00   0.00  -0.00
  65   1     0.18  -0.19   0.24     0.18  -0.19   0.24    -0.00   0.00  -0.00
                    181                    182                    183
                        a                      a                      a 
 Frequencies --  3089.0808              3091.3344              3093.1470
 Red. masses --     1.8602                 1.8778                 1.8805
 Frc consts  --     0.0000                 0.0000                 0.0000
 IR Inten    --   386.9894                65.0575                 0.7458
 Raman Activ --     0.0000                 0.0000                 0.0000
 Depolar     --     0.0000                 0.0000                 0.0000
 Atom AN      X      Y      Z        X      Y      Z        X      Y      Z
   1   7    -0.00   0.00   0.00    -0.00   0.00  -0.00     0.00  -0.00  -0.00
   2   6     0.00  -0.00  -0.00     0.00   0.00  -0.00    -0.00   0.00   0.00
   3   6     0.00   0.00  -0.00     0.00  -0.00   0.00     0.00  -0.00  -0.00
   4   6     0.00   0.00  -0.00     0.00   0.00  -0.00    -0.00  -0.00   0.00
   5   6    -0.00   0.00  -0.01    -0.00   0.00  -0.00     0.00  -0.00   0.00
   6   6    -0.00   0.00   0.00    -0.00  -0.00  -0.00     0.00  -0.00  -0.00
   7   6     0.00   0.00  -0.00     0.00  -0.00  -0.00    -0.00   0.00  -0.00
   8   6    -0.00  -0.00  -0.00    -0.00  -0.00   0.00    -0.00  -0.00   0.00
   9   6    -0.00   0.00   0.00    -0.01   0.00   0.00    -0.02   0.00   0.00
  10   6    -0.00   0.00   0.00     0.00  -0.00  -0.00     0.00  -0.00  -0.00
  11   6     0.00   0.00  -0.00    -0.00  -0.00   0.00    -0.01  -0.01   0.00
  12   6     0.01   0.00  -0.00    -0.01  -0.00   0.00    -0.04  -0.00   0.01
  13   6     0.00  -0.00   0.00    -0.00   0.00   0.00    -0.00   0.00  -0.00
  14   6     0.00  -0.00  -0.00     0.00   0.00  -0.00    -0.00   0.00  -0.00
  15   6     0.00   0.00   0.00     0.00  -0.00  -0.00    -0.01  -0.00  -0.00
  16   6     0.01   0.01   0.01     0.06   0.06   0.08    -0.05  -0.06  -0.08
  17   6    -0.00   0.00   0.00    -0.08   0.08   0.11     0.07  -0.08  -0.10
  18   6     0.00  -0.00  -0.00    -0.00  -0.00  -0.00     0.01  -0.00   0.00
  19   7    -0.00   0.00  -0.00     0.00   0.00  -0.00    -0.00   0.00  -0.00
  20   6    -0.00   0.00  -0.00     0.00  -0.00   0.00     0.00  -0.00   0.00
  21   6    -0.11  -0.04   0.00     0.00   0.00  -0.00     0.01   0.00   0.00
  22   6     0.00  -0.00  -0.00    -0.00  -0.01   0.00     0.00   0.02  -0.00
  23   6    -0.06   0.06   0.00     0.01  -0.01  -0.00    -0.01   0.01   0.00
  24   6    -0.13  -0.04  -0.00     0.02   0.00   0.00    -0.02  -0.01  -0.00
  25   6     0.00  -0.00  -0.00     0.00   0.00   0.00    -0.00  -0.00  -0.00
  26   6     0.00   0.00   0.00    -0.00   0.00   0.00    -0.00   0.00   0.00
  27   6    -0.12   0.04   0.00    -0.02   0.00   0.00    -0.02   0.01   0.00
  28   6    -0.06  -0.06  -0.00    -0.01  -0.01  -0.00    -0.02  -0.02  -0.00
  29   6     0.00   0.01   0.00     0.00  -0.01   0.00     0.00  -0.02   0.00
  30   6    -0.11   0.03  -0.00    -0.00   0.00  -0.00     0.01  -0.00   0.00
  31   6    -0.00  -0.00  -0.00    -0.00  -0.00   0.00     0.00   0.00  -0.00
  32   6    -0.00  -0.00  -0.00     0.08   0.08   0.11     0.08   0.08   0.11
  33   6     0.01  -0.01  -0.01    -0.06   0.06   0.08    -0.06   0.06   0.08
  34   6     0.00   0.00  -0.00     0.00   0.00   0.00    -0.00  -0.00   0.00
  35   6     0.01  -0.00   0.00     0.01  -0.00   0.00    -0.04   0.00  -0.01
  36   6     0.00  -0.00   0.00     0.00  -0.00   0.00    -0.01   0.01  -0.00
  37   6    -0.00  -0.00  -0.00    -0.00  -0.00   0.00     0.00   0.00   0.00
  38   6    -0.00  -0.00  -0.00     0.01   0.00   0.00    -0.02  -0.00  -0.00
  39   6    -0.00   0.00   0.00     0.00  -0.00   0.00    -0.00   0.00  -0.00
  40   6    -0.00  -0.00   0.01     0.00   0.00  -0.00     0.00   0.00  -0.00
  41   6     0.00  -0.00   0.00    -0.00   0.00  -0.00    -0.00   0.00  -0.00
  42   1    -0.01  -0.01   0.01    -0.00  -0.00   0.00     0.00   0.00  -0.01
  43   1     0.01  -0.01   0.02     0.00  -0.00   0.00    -0.01   0.01  -0.01
  44   1     0.00   0.00  -0.00     0.03  -0.00  -0.00     0.06  -0.00  -0.01
  45   1     0.00  -0.01  -0.00    -0.00   0.00   0.00    -0.00   0.01   0.00
  46   1    -0.00  -0.01   0.00     0.01   0.01  -0.00     0.03   0.04  -0.01
  47   1    -0.02  -0.00   0.00     0.04  -0.00  -0.00     0.14   0.00  -0.02
  48   1    -0.03  -0.04  -0.05    -0.20  -0.21  -0.27     0.18   0.20   0.26
  49   1     0.01  -0.00  -0.01     0.28  -0.29  -0.38    -0.25   0.27   0.35
  50   1     0.40   0.12  -0.01    -0.00  -0.00   0.00    -0.03  -0.01   0.00
  51   1     0.00   0.01   0.00     0.01   0.05  -0.00    -0.01  -0.06   0.00
  52   1     0.20  -0.20  -0.00    -0.04   0.04   0.00     0.05  -0.05  -0.00
  53   1     0.45   0.13   0.01    -0.05  -0.02  -0.00     0.06   0.02   0.00
  54   1     0.43  -0.12  -0.00     0.05  -0.02  -0.00     0.07  -0.02  -0.00
  55   1     0.19   0.19   0.00     0.04   0.04   0.00     0.05   0.05   0.00
  56   1     0.00  -0.01  -0.00    -0.01   0.04  -0.00    -0.01   0.06  -0.00
  57   1     0.39  -0.12   0.01     0.00  -0.00   0.00    -0.04   0.01  -0.00
  58   1     0.01   0.00   0.01    -0.27  -0.28  -0.37    -0.27  -0.28  -0.37
  59   1    -0.03   0.03   0.05     0.19  -0.20  -0.26     0.19  -0.20  -0.27
  60   1    -0.02   0.00  -0.00    -0.04  -0.00  -0.01     0.13  -0.00   0.02
  61   1    -0.00   0.01  -0.00    -0.01   0.02  -0.00     0.02  -0.04   0.00
  62   1     0.00   0.01   0.00     0.00   0.00   0.00    -0.00  -0.00  -0.00
  63   1     0.00   0.00   0.00    -0.03  -0.00  -0.00     0.06   0.00   0.01
  64   1     0.01   0.01  -0.02    -0.00  -0.00   0.00    -0.01  -0.01   0.01
  65   1    -0.01   0.01  -0.01     0.00  -0.00   0.00     0.00  -0.00   0.01
                    184                    185                    186
                        a                      a                      a 
 Frequencies --  3094.4098              3094.4914              3094.9392
 Red. masses --     1.8794                 1.8559                 1.8375
 Frc consts  --     0.0000                 0.0000                 0.0000
 IR Inten    --   112.7829               100.5109               242.9114
 Raman Activ --     0.0000                 0.0000                 0.0000
 Depolar     --     0.0000                 0.0000                 0.0000
 Atom AN      X      Y      Z        X      Y      Z        X      Y      Z
   1   7    -0.00   0.00   0.00    -0.00  -0.00   0.00    -0.00   0.00  -0.00
   2   6     0.00   0.00  -0.00     0.00   0.00  -0.00    -0.00  -0.00   0.00
   3   6     0.00  -0.00   0.00     0.00  -0.00   0.00     0.00   0.00  -0.00
   4   6     0.00   0.00  -0.00     0.00   0.00  -0.00     0.00   0.00  -0.00
   5   6    -0.00   0.00  -0.01    -0.01   0.01  -0.01    -0.01   0.01  -0.01
   6   6    -0.00  -0.00   0.00    -0.00  -0.00   0.00    -0.00   0.00  -0.00
   7   6     0.00  -0.00  -0.00     0.00  -0.00  -0.00     0.00   0.00   0.00
   8   6    -0.00  -0.00   0.00    -0.00  -0.00   0.00     0.00   0.00  -0.00
   9   6    -0.06   0.00   0.01    -0.09   0.00   0.01     0.16  -0.00  -0.03
  10   6    -0.01   0.02   0.00    -0.01   0.03   0.00     0.03  -0.04  -0.00
  11   6    -0.00  -0.01   0.00    -0.01  -0.01   0.00     0.01   0.02  -0.00
  12   6    -0.05  -0.00   0.01    -0.08  -0.00   0.01     0.14   0.00  -0.02
  13   6    -0.00   0.00   0.00    -0.00   0.00   0.00     0.00  -0.00  -0.00
  14   6     0.00   0.00  -0.00     0.00   0.00  -0.00     0.00  -0.00   0.00
  15   6    -0.00   0.00   0.00    -0.00   0.00  -0.00    -0.00  -0.00  -0.00
  16   6    -0.01  -0.01  -0.01    -0.01  -0.01  -0.01    -0.01  -0.01  -0.02
  17   6     0.01  -0.01  -0.01     0.00  -0.00  -0.00     0.01  -0.01  -0.02
  18   6     0.00  -0.00   0.00     0.00   0.00   0.00     0.00  -0.00  -0.00
  19   7    -0.00  -0.00  -0.00    -0.00   0.00   0.00    -0.00   0.00  -0.00
  20   6    -0.00   0.00  -0.00     0.00  -0.00   0.00     0.00  -0.00   0.00
  21   6    -0.11  -0.03   0.00     0.07   0.02  -0.00     0.00   0.00   0.00
  22   6    -0.02  -0.08   0.00     0.01   0.05  -0.00     0.00   0.00  -0.00
  23   6     0.05  -0.04  -0.00    -0.03   0.03   0.00    -0.00   0.00   0.00
  24   6     0.04   0.01   0.00    -0.03  -0.01  -0.00    -0.00  -0.00  -0.00
  25   6     0.00   0.00   0.00    -0.00  -0.00  -0.00    -0.00   0.00  -0.00
  26   6    -0.00   0.00   0.00     0.00  -0.00  -0.00    -0.00   0.00   0.00
  27   6    -0.05   0.01   0.00     0.03  -0.01  -0.00    -0.00   0.00   0.00
  28   6    -0.05  -0.05  -0.00     0.03   0.03   0.00    -0.00  -0.00  -0.00
  29   6     0.02  -0.08   0.00    -0.01   0.06  -0.00     0.00  -0.00   0.00
  30   6     0.11  -0.03   0.00    -0.08   0.02  -0.00     0.00  -0.00   0.00
  31   6     0.00   0.00  -0.00    -0.00  -0.00  -0.00     0.00   0.00  -0.00
  32   6    -0.01  -0.01  -0.01     0.00   0.00   0.01     0.01   0.01   0.02
  33   6     0.01  -0.01  -0.01     0.00  -0.00  -0.00    -0.02   0.02   0.02
  34   6     0.00   0.00   0.00     0.00   0.00   0.00     0.00   0.00   0.00
  35   6     0.07  -0.00   0.01     0.11  -0.00   0.02     0.09  -0.00   0.01
  36   6     0.01  -0.01   0.00     0.01  -0.01   0.00     0.01  -0.01   0.00
  37   6     0.02   0.03   0.00     0.03   0.04   0.00     0.02   0.04   0.00
  38   6     0.09   0.00   0.01     0.14   0.00   0.02     0.11   0.00   0.02
  39   6     0.00  -0.00   0.00     0.00  -0.00   0.00     0.00  -0.00   0.00
  40   6     0.00   0.00  -0.00     0.00   0.00  -0.00    -0.01  -0.01   0.01
  41   6    -0.00   0.00  -0.00    -0.00   0.00  -0.00     0.00  -0.00   0.00
  42   1    -0.00  -0.00   0.00    -0.00  -0.00   0.01    -0.01  -0.01   0.01
  43   1     0.01  -0.02   0.02     0.02  -0.02   0.03     0.03  -0.03   0.04
  44   1     0.23  -0.00  -0.03     0.32  -0.00  -0.05    -0.56   0.01   0.09
  45   1     0.03  -0.06  -0.01     0.05  -0.08  -0.01    -0.08   0.14   0.01
  46   1     0.02   0.03  -0.00     0.03   0.04  -0.01    -0.04  -0.07   0.01
  47   1     0.20   0.00  -0.03     0.28   0.00  -0.04    -0.49  -0.00   0.08
  48   1     0.02   0.03   0.03     0.02   0.03   0.03     0.05   0.05   0.07
  49   1    -0.03   0.04   0.05    -0.00   0.00   0.00    -0.04   0.04   0.06
  50   1     0.38   0.12  -0.01    -0.26  -0.08   0.01    -0.00  -0.00   0.00
  51   1     0.06   0.26  -0.00    -0.04  -0.18   0.00    -0.00  -0.00   0.00
  52   1    -0.15   0.15   0.00     0.10  -0.10  -0.00     0.00  -0.00  -0.00
  53   1    -0.15  -0.04  -0.00     0.09   0.03   0.00     0.00   0.00   0.00
  54   1     0.16  -0.05  -0.00    -0.11   0.03   0.00     0.01  -0.00  -0.00
  55   1     0.16   0.16   0.00    -0.11  -0.11  -0.00     0.01   0.00   0.00
  56   1    -0.06   0.27  -0.00     0.04  -0.19   0.00    -0.00   0.01  -0.00
  57   1    -0.38   0.12  -0.01     0.28  -0.08   0.01    -0.01   0.00  -0.00
  58   1     0.03   0.03   0.04    -0.02  -0.02  -0.02    -0.04  -0.05  -0.06
  59   1    -0.02   0.02   0.02    -0.01   0.01   0.01     0.06  -0.06  -0.08
  60   1    -0.26   0.00  -0.04    -0.39   0.00  -0.06    -0.31   0.00  -0.05
  61   1    -0.02   0.03  -0.00    -0.03   0.05  -0.01    -0.02   0.03  -0.00
  62   1    -0.05  -0.09  -0.01    -0.08  -0.14  -0.01    -0.07  -0.12  -0.01
  63   1    -0.33  -0.00  -0.05    -0.49  -0.01  -0.07    -0.40  -0.01  -0.06
  64   1    -0.01  -0.01   0.01    -0.01  -0.01   0.01     0.03   0.04  -0.05
  65   1     0.00  -0.00   0.00     0.00  -0.00   0.00    -0.01   0.01  -0.01
                    187                    188                    189
                        a                      a                      a 
 Frequencies --  3095.5691              3097.7935              3098.8148
 Red. masses --     1.8991                 1.8778                 1.8837
 Frc consts  --     0.0000                 0.0000                 0.0000
 IR Inten    --    97.0581               142.9077                 0.0730
 Raman Activ --     0.0000                 0.0000                 0.0000
 Depolar     --     0.0000                 0.0000                 0.0000
 Atom AN      X      Y      Z        X      Y      Z        X      Y      Z
   1   7    -0.00  -0.00   0.00     0.00   0.00  -0.00    -0.00   0.00   0.00
   2   6     0.00   0.00  -0.00    -0.00  -0.00   0.00     0.00  -0.00  -0.00
   3   6    -0.00   0.00   0.00     0.00   0.00  -0.00     0.00   0.00  -0.00
   4   6     0.00   0.00  -0.00    -0.00   0.00   0.00     0.00   0.00  -0.00
   5   6    -0.00   0.00  -0.00     0.00  -0.00   0.00    -0.01   0.01  -0.01
   6   6     0.00  -0.00   0.00    -0.00   0.00  -0.00    -0.00   0.00  -0.00
   7   6     0.00  -0.00  -0.00     0.00   0.00  -0.00     0.00   0.00  -0.00
   8   6    -0.00  -0.00   0.00     0.00   0.00  -0.00     0.00   0.00  -0.00
   9   6    -0.02   0.00   0.00     0.10  -0.00  -0.02     0.10  -0.00  -0.02
  10   6    -0.01   0.01   0.00     0.04  -0.06  -0.01     0.04  -0.07  -0.01
  11   6     0.01   0.01  -0.00    -0.04  -0.06   0.01    -0.04  -0.07   0.01
  12   6     0.03   0.00  -0.00    -0.12  -0.00   0.02    -0.12  -0.00   0.02
  13   6     0.00  -0.00   0.00    -0.00   0.00   0.00    -0.00   0.00   0.00
  14   6     0.00   0.00  -0.00     0.00   0.00   0.00    -0.00   0.00   0.00
  15   6     0.00   0.00  -0.00    -0.00   0.00   0.00     0.00  -0.00   0.00
  16   6     0.01   0.00   0.01    -0.00  -0.00  -0.01     0.01   0.01   0.02
  17   6    -0.01   0.01   0.02     0.00  -0.00  -0.00    -0.01   0.01   0.02
  18   6    -0.00   0.00  -0.00     0.00   0.00   0.00    -0.00   0.00  -0.00
  19   7    -0.00   0.00   0.00    -0.00  -0.00   0.00     0.00   0.00   0.00
  20   6     0.00  -0.00  -0.00    -0.00   0.00  -0.00     0.00  -0.00   0.00
  21   6     0.13   0.04  -0.00     0.00   0.00   0.00     0.02   0.01  -0.00
  22   6     0.02   0.10  -0.00    -0.00  -0.00   0.00     0.00   0.02  -0.00
  23   6    -0.06   0.06   0.00     0.00  -0.00  -0.00    -0.01   0.01   0.00
  24   6    -0.07  -0.02  -0.00     0.00   0.00   0.00    -0.02  -0.00  -0.00
  25   6    -0.00  -0.00  -0.00     0.00   0.00   0.00    -0.00  -0.00  -0.00
  26   6    -0.00   0.00   0.00    -0.00  -0.00   0.00    -0.00   0.00   0.00
  27   6    -0.07   0.02   0.00    -0.00   0.00   0.00    -0.02   0.00   0.00
  28   6    -0.06  -0.06  -0.00    -0.00  -0.00  -0.00    -0.01  -0.01  -0.00
  29   6     0.02  -0.09   0.00    -0.00   0.00   0.00     0.00  -0.02   0.00
  30   6     0.12  -0.04   0.00    -0.00   0.00  -0.00     0.02  -0.01   0.00
  31   6     0.00   0.00   0.00    -0.00  -0.00  -0.00     0.00   0.00  -0.00
  32   6    -0.01  -0.01  -0.02    -0.00  -0.00  -0.00    -0.01  -0.01  -0.02
  33   6     0.01  -0.01  -0.01     0.00  -0.00  -0.00     0.01  -0.01  -0.02
  34   6     0.00   0.00  -0.00     0.00   0.00   0.00    -0.00  -0.00  -0.00
  35   6     0.03  -0.00   0.01     0.14  -0.00   0.02    -0.13   0.00  -0.02
  36   6     0.01  -0.01   0.00     0.04  -0.07   0.01    -0.04   0.06  -0.01
  37   6    -0.01  -0.01  -0.00    -0.04  -0.06  -0.01     0.04   0.06   0.01
  38   6    -0.02  -0.00  -0.00    -0.09  -0.00  -0.01     0.09   0.00   0.01
  39   6    -0.00   0.00   0.00    -0.00   0.00  -0.00     0.00  -0.00   0.00
  40   6     0.00   0.00  -0.00    -0.00  -0.00   0.00    -0.01  -0.01   0.01
  41   6     0.00  -0.00   0.00     0.00   0.00   0.00     0.00  -0.00   0.00
  42   1    -0.00  -0.00   0.00     0.00  -0.00  -0.00    -0.01  -0.01   0.01
  43   1     0.00  -0.00   0.00    -0.01   0.01  -0.01     0.02  -0.02   0.03
  44   1     0.08  -0.00  -0.01    -0.35   0.00   0.05    -0.35   0.01   0.05
  45   1     0.03  -0.05  -0.00    -0.13   0.22   0.02    -0.13   0.22   0.02
  46   1    -0.03  -0.04   0.01     0.12   0.21  -0.03     0.13   0.21  -0.03
  47   1    -0.10  -0.00   0.02     0.44   0.00  -0.07     0.43   0.00  -0.07
  48   1    -0.02  -0.02  -0.02     0.01   0.02   0.02    -0.04  -0.05  -0.06
  49   1     0.04  -0.05  -0.06    -0.00   0.00   0.00     0.04  -0.04  -0.05
  50   1    -0.45  -0.14   0.01    -0.00  -0.00  -0.00    -0.08  -0.03   0.00
  51   1    -0.07  -0.31   0.00     0.00   0.00   0.00    -0.01  -0.06   0.00
  52   1     0.19  -0.19  -0.00    -0.00   0.00   0.00     0.04  -0.04  -0.00
  53   1     0.23   0.07   0.00    -0.00  -0.00  -0.00     0.05   0.02   0.00
  54   1     0.22  -0.06  -0.00     0.00  -0.00   0.00     0.05  -0.02  -0.00
  55   1     0.19   0.18   0.00     0.00   0.00   0.00     0.04   0.04   0.00
  56   1    -0.07   0.30  -0.00     0.00  -0.00   0.00    -0.01   0.06  -0.00
  57   1    -0.42   0.13  -0.01     0.00  -0.00   0.00    -0.08   0.02  -0.00
  58   1     0.04   0.05   0.06     0.00   0.00   0.00     0.04   0.04   0.05
  59   1    -0.02   0.02   0.02    -0.01   0.01   0.01    -0.04   0.05   0.06
  60   1    -0.12   0.00  -0.02    -0.48   0.00  -0.07     0.44  -0.00   0.07
  61   1    -0.03   0.05  -0.01    -0.13   0.22  -0.03     0.12  -0.21   0.02
  62   1     0.02   0.04   0.00     0.12   0.21   0.02    -0.12  -0.20  -0.02
  63   1     0.06   0.00   0.01     0.32   0.00   0.05    -0.31  -0.00  -0.05
  64   1    -0.00  -0.00   0.00     0.01   0.01  -0.01     0.02   0.02  -0.03
  65   1    -0.00   0.00  -0.00    -0.00  -0.00  -0.00    -0.01   0.01  -0.01
