$hessian                                                                        
        0.5269080581   0.0115764526  -0.0094027212  -0.0824648758   0.0339651160
       -0.0318496188  -0.0176478580   0.0229417042  -0.0198092462  -0.0038680046
        0.0002084544   0.0009569009  -0.0012683311   0.0012329236  -0.0007659318
        0.0000017419  -0.0004070435  -0.0002762001   0.0000101082   0.0001106294
        0.0000588786   0.0000305457  -0.0000182589  -0.0000031591   0.0000399562
        0.0000925190   0.0000344041  -0.0000049967  -0.0001711006  -0.0000498302
       -0.0002566904   0.0001913189   0.0001097528  -0.0001755903  -0.0001036960
       -0.0000280558   0.0000340267   0.0001495408   0.0000560193   0.0000099451
       -0.0000892826  -0.0000210918   0.0000235580   0.0000161327   0.0000121120
        0.0000646191  -0.0001304524  -0.0000448639   0.0003155493   0.0003524109
        0.0001373271  -0.0000287951   0.0003092273  -0.0001162257   0.0001248942
       -0.0000178629  -0.0001066317  -0.0021115929  -0.0019613226   0.0018875033
        0.0066884306  -0.0104037023   0.0082528798  -0.0005766137  -0.0011063914
        0.0007053982   0.0006665072   0.0002838233   0.0002483971  -0.0003886495
        0.0000996057  -0.0000783331  -0.0000791165  -0.0002807764   0.0000036027
       -0.0002224289   0.0004346863   0.0000264102   0.0002026253  -0.0004110701
        0.0000668827  -0.0000677624  -0.0001059523   0.0000021326   0.0000306197
        0.0000461946  -0.0000133812   0.0000150281  -0.0000033787   0.0000241521
       -0.0000014999   0.0000025078  -0.0000197906  -0.0000077403   0.0000053499
       -0.0000025649   0.0000322236   0.0000589918  -0.0000458990   0.0006702330
       -0.0000922004  -0.0000004287  -0.0013541935   0.0001973578   0.0017147676
       -0.2479220383  -0.0543173865  -0.0697442183  -0.1371348468  -0.0067918064
        0.1157766462  -0.0404249489   0.0041408764   0.0026895890   0.0009168156
        0.0009621694  -0.0014409260  -0.0000163065  -0.0000197736  -0.0000169397
       -0.0000023254   0.0000235197   0.0000112406  -0.0000244634   0.0000128829
        0.0000097266  -0.0000278701   0.0000145117  -0.0000051143  -0.0000265660
        0.0000109294  -0.0000081397  -0.0000223061  -0.0000130451  -0.0000149357
       -0.0000135288  -0.0000158177  -0.0000147074  -0.0000267984   0.0000827776
        0.0000380463  -0.0000088754   0.0000096420  -0.0000131511   0.0000300627
        0.0000081299  -0.0000147708  -0.0000330725   0.0000467532  -0.0000657630
        0.0002145093  -0.0006896154   0.0006565862   0.0000074138  -0.0000371904
        0.0000002184   0.0000221139   0.0000035815  -0.0000506461  -0.0000214192
       -0.0000149769  -0.0000103005   0.0000036510   0.0000200361  -0.0000051797
       -0.0000050857  -0.0000018889   0.0000048670   0.0000185405   0.0000004585
        0.0000048137   0.0000288116   0.0000040169   0.0000092190  -0.0000020500
       -0.0000090873   0.0000702518  -0.0008733473  -0.0004021529   0.0004700397
        0.0115764526   0.4730178652   0.0083795770   0.0346564669  -0.1277655696
        0.0660678778   0.0102555336  -0.0065155255   0.0080308415   0.0024720051
        0.0056666792   0.0013313664  -0.0012574294  -0.0000124663   0.0002431837
        0.0001075318  -0.0003562803   0.0000195735   0.0001394137   0.0001132942
       -0.0000041376  -0.0000005139   0.0001093803   0.0000421822   0.0000758462
        0.0001242534   0.0000557470  -0.0000180353  -0.0002577943  -0.0001078919
       -0.0002321183   0.0000740485   0.0000259051  -0.0002192215  -0.0000155797
       -0.0000517733   0.0000238788   0.0002581754   0.0000864493   0.0000207710
       -0.0001745200  -0.0000588146   0.0000312844  -0.0000561383   0.0000304480
        0.0001329999  -0.0001875944  -0.0000754189   0.0002179628   0.0004048993
       -0.0000743215  -0.0013366373  -0.0014113751   0.0009780690  -0.0000619594
       -0.0003212269  -0.0005613990  -0.0016861077   0.0015568053   0.0041559223
       -0.0010039886  -0.0146673032   0.0154136348   0.0028200555  -0.0008885938
       -0.0008131295  -0.0009347256  -0.0007853636   0.0003112242   0.0009920328
       -0.0003934105  -0.0003149865  -0.0009338642   0.0004422386   0.0003479740
       -0.0001032740  -0.0010956693   0.0007791895   0.0002305582   0.0009424804
       -0.0003781109   0.0001378455   0.0002642182  -0.0003590042   0.0000689254
       -0.0003931938   0.0001554247  -0.0001621319   0.0000633962  -0.0000489323
        0.0000409686   0.0000397787   0.0000459920  -0.0000002340   0.0000474698
        0.0000866300  -0.0002288001  -0.0001335613  -0.0000605954   0.0010812108
        0.0002972359  -0.0002865098  -0.0012770545   0.0004417144  -0.0003093018
       -0.0552727175  -0.0551600396  -0.0182878318  -0.0058384220  -0.0404935512
        0.0063529128   0.0056145232  -0.2316498563  -0.0896478110  -0.0009165428
       -0.0010002841  -0.0018359149  -0.0000281029  -0.0000293098  -0.0000000187
       -0.0000017216  -0.0000409950  -0.0000240952   0.0000487262  -0.0000190644
       -0.0000150086   0.0000418331  -0.0000038097   0.0000056949   0.0000320964
       -0.0000075087   0.0000181380   0.0000225308   0.0000448904   0.0000077122
        0.0000176686   0.0000567035   0.0000367276  -0.0000059796   0.0000128874
        0.0000311537   0.0000569649  -0.0001095649   0.0001038266  -0.0000264980
        0.0000002838  -0.0000423719   0.0000367679   0.0000190148  -0.0000986013
        0.0002611540  -0.0006766924   0.0002543374   0.0000861143   0.0001121336
        0.0001038073  -0.0000487715   0.0000867495  -0.0000318218   0.0000898596
        0.0000588560   0.0000383166  -0.0000596476  -0.0000918535   0.0000383661
       -0.0000060925  -0.0000310290  -0.0000418081  -0.0000537195  -0.0000219341
        0.0000174399   0.0000023069   0.0000178155  -0.0000642724  -0.0001647947
       -0.0000361574   0.0000311464   0.0004868168   0.0005295482  -0.0000329085
       -0.0094027212   0.0083795770   0.4842886659  -0.0337528125   0.0733034655
       -0.1281708906  -0.0073520990   0.0071001406  -0.0050672874   0.0008605365
        0.0022710201   0.0040663977  -0.0008860715   0.0002308785  -0.0000352551
        0.0001364109  -0.0003213463  -0.0001639248   0.0000316254   0.0000949037
        0.0000550483   0.0000399129  -0.0000345928   0.0000028120  -0.0000031968
        0.0000548321   0.0000215895  -0.0000053741  -0.0000553973  -0.0000160185
       -0.0000728451   0.0000188288  -0.0000371543  -0.0000675329   0.0000108991
       -0.0000162552   0.0000009011   0.0000439884   0.0000292727  -0.0000141661
       -0.0000232688  -0.0000234932   0.0000514830   0.0000354225   0.0000072417
       -0.0000103370  -0.0000979925  -0.0000411596   0.0003213746   0.0003133772
        0.0000871884  -0.0001550249   0.0002321532  -0.0002498016  -0.0000921229
       -0.0006170164  -0.0004845243   0.0024795082   0.0037964059   0.0018931980
       -0.0035928957   0.0152205470  -0.0128679028  -0.0006887175  -0.0010449748
       -0.0008332143  -0.0004847234  -0.0000764301  -0.0000283370   0.0000480978
       -0.0002080757  -0.0000431146  -0.0000574178   0.0001422614   0.0000281826
       -0.0000898239   0.0001786674  -0.0000714998   0.0001485209  -0.0002726783
        0.0000632585  -0.0000704977  -0.0000032318   0.0000299980   0.0000495071
       -0.0000098674   0.0000244535   0.0000002633  -0.0000072686  -0.0000238957
        0.0000164497   0.0000067229  -0.0000050378  -0.0000137275  -0.0000115434
        0.0000068860  -0.0000180213   0.0000168102  -0.0000142398   0.0000995412
        0.0001302700  -0.0000929284   0.0005370201  -0.0001729896  -0.0007439638
       -0.0692767059  -0.0187808934  -0.0675393231   0.1155397995   0.0058700485
       -0.1893819923   0.0038783120  -0.0953251042  -0.0823559124   0.0010254660
       -0.0015357466  -0.0005782984  -0.0000248379  -0.0000276367  -0.0000427404
       -0.0000154356   0.0000110736   0.0000004297  -0.0000123712   0.0000102182
       -0.0000018470  -0.0000193707   0.0000036929   0.0000091694  -0.0000172845
       -0.0000099729  -0.0000007811  -0.0000182824  -0.0000051628  -0.0000019901
       -0.0000197678  -0.0000196536  -0.0000121249  -0.0000072249   0.0000622954
       -0.0000015966   0.0000618069  -0.0001131231   0.0000179664  -0.0000536322
        0.0000854433  -0.0000855076   0.0000146897   0.0000321830  -0.0000241004
       -0.0003684906   0.0006136631  -0.0006424454  -0.0000195351  -0.0000006640
       -0.0000226536   0.0000112876  -0.0000107468   0.0000404143   0.0000001958
        0.0000028037  -0.0000065487  -0.0000019920   0.0000010176   0.0000013309
        0.0000081338   0.0000017280   0.0000037638  -0.0000080949  -0.0000098064
       -0.0000012275  -0.0000100759   0.0000023598   0.0000246306   0.0001402721
        0.0000044232   0.0000063420   0.0012021144   0.0005130623  -0.0009792518
       -0.0824648758   0.0346564669  -0.0337528125   0.6354290240  -0.0300397324
       -0.0109477912  -0.3199827521   0.0051438033   0.0135420233  -0.0320868020
        0.0628662339  -0.0561131543   0.0074430966   0.0006274047   0.0001679195
       -0.0013802490   0.0023197673  -0.0012993081  -0.0001822743  -0.0005672868
       -0.0002636991  -0.0001318352  -0.0000398115   0.0001885453  -0.0000422038
       -0.0001126340  -0.0001035595  -0.0000627527   0.0001226734   0.0002194018
        0.0003454306   0.0004802958   0.0000511854   0.0001122115  -0.0004597348
        0.0001233156   0.0000820340  -0.0000211236  -0.0001689994   0.0001406950
        0.0000572203   0.0000819613  -0.0001793959  -0.0001459272  -0.0001514639
        0.0002509149   0.0006875778   0.0003597358  -0.0013755509  -0.0018493433
        0.0011371934  -0.0407189853  -0.0089462845   0.0150319936   0.0001392137
       -0.0011030905  -0.0002694342   0.0425248261  -0.0195653524   0.0208114765
       -0.1320029622  -0.0442743634   0.0465127885  -0.0496125100  -0.0130885675
        0.0142223593   0.0053534795   0.0080384266  -0.0020108834  -0.0073460114
        0.0026798314  -0.0001444234   0.0058389413  -0.0027246198  -0.0003055795
        0.0026052289  -0.0080956276   0.0015859603  -0.0053253725   0.0079409316
       -0.0023068002   0.0023249445   0.0014303825  -0.0000221279  -0.0023831797
        0.0011508612  -0.0010445967   0.0009213916   0.0004662611   0.0002453535
       -0.0007608380  -0.0006433775  -0.0001009249   0.0008560979   0.0004673302
       -0.0004121322   0.0008592002  -0.0012300974   0.0011931380  -0.0075020487
       -0.0012242984   0.0004324642   0.0088071940  -0.0112467984   0.0025749155
       -0.0137250781   0.0195162541  -0.0190428627   0.0056621421  -0.0113773225
        0.0115159360  -0.0002960082   0.0047436289  -0.0018814137  -0.0219009831
        0.0010353130   0.0020068541   0.0000385236   0.0000515821  -0.0000636225
        0.0000189857   0.0000291742   0.0000575765  -0.0000555349   0.0000150442
       -0.0000188016  -0.0000381186  -0.0000144787   0.0000635590  -0.0000122882
        0.0000571200  -0.0000566732   0.0000154993  -0.0000746529   0.0000068523
        0.0000077666  -0.0000342795  -0.0000289775  -0.0001787073  -0.0003500525
       -0.0002702466   0.0004033264  -0.0002686058   0.0001537950  -0.0001016608
        0.0002454536   0.0000329952   0.0003298662  -0.0001744496   0.0000541664
       -0.0003978209   0.0020024990  -0.0018497642  -0.0000744918  -0.0000588098
        0.0003382730  -0.0002098236  -0.0001002708   0.0003681301  -0.0003613662
       -0.0002332090  -0.0000537691   0.0002113392   0.0003047618  -0.0002081400
       -0.0000294733   0.0000651574   0.0001191246   0.0002500308   0.0001740701
        0.0000239365  -0.0000512306  -0.0001318014   0.0000385987   0.0003132944
        0.0002237737  -0.0004161344  -0.0003115132   0.0005967034   0.0000465677
        0.0339651160  -0.1277655696   0.0733034655  -0.0300397324   0.3827028704
       -0.2281573886   0.0665399613  -0.0753997978   0.0214136300   0.0155929339
       -0.0022659619  -0.0003994470   0.0064736166  -0.0004346136   0.0053537167
       -0.0005484438   0.0011940154  -0.0001010920  -0.0003294581  -0.0003593221
       -0.0001118398  -0.0000408979  -0.0001216481   0.0000201555  -0.0001326266
       -0.0002834498  -0.0001385870   0.0000237782   0.0004393584   0.0002005951
        0.0004956752   0.0000586557  -0.0002523763   0.0006268093   0.0000747557
       -0.0000159491   0.0000308614  -0.0004363654  -0.0002782239  -0.0000436779
        0.0003173460   0.0001237094  -0.0000923969   0.0001409705  -0.0000896475
       -0.0003052776   0.0003366898   0.0001016706  -0.0000089054  -0.0014206131
        0.0007870575  -0.0066778169   0.0018759605  -0.0023830342   0.0003880323
       -0.0011866091  -0.0000770539  -0.0014688840  -0.0247418153   0.0258209541
       -0.0685304833  -0.1310832010   0.0769310014  -0.0211096243   0.0042874489
       -0.0015428706   0.0073742856   0.0048456710  -0.0004488252  -0.0047448511
        0.0027972725   0.0006332695   0.0040686483  -0.0019490543  -0.0002541289
        0.0008647192  -0.0022092671   0.0001731288  -0.0024165027   0.0025113330
       -0.0006892528   0.0008902737   0.0001453155   0.0002257511  -0.0010753509
        0.0009153430  -0.0006393330   0.0004992905   0.0001016464   0.0002127962
       -0.0003471527  -0.0002621891  -0.0000662766   0.0003218697   0.0001255765
       -0.0002317061   0.0006354611  -0.0003366059   0.0004643278  -0.0047030380
       -0.0012229181   0.0006225044   0.0059615240  -0.0059252237   0.0028203905
        0.0025597975   0.0032518925  -0.0031612823  -0.0019174874  -0.0050336750
        0.0059542139   0.0109621193  -0.0260573128   0.0183145668  -0.0156803485
        0.0023361260   0.0009608880   0.0001054221   0.0000094284   0.0000001215
        0.0000169384   0.0000602547   0.0000384389  -0.0000483139   0.0000379126
       -0.0000068035  -0.0000514797  -0.0000100551   0.0000338421  -0.0000293606
        0.0000327707  -0.0000239119  -0.0000360997  -0.0000587955   0.0000129188
       -0.0000165081  -0.0000757489  -0.0000556298   0.0000104411   0.0000962902
        0.0000402947   0.0001023612   0.0000286586   0.0000982986  -0.0001186787
        0.0001957843  -0.0001465992   0.0000762981   0.0001567199  -0.0001993064
        0.0015023325   0.0001756374   0.0058175533  -0.0001894708  -0.0002938341
        0.0000005672   0.0001775642  -0.0001294445   0.0000640097  -0.0002230992
       -0.0001477009  -0.0000545871   0.0001653136   0.0001904696  -0.0001201320
        0.0000249148   0.0000601270   0.0000595819   0.0001294912   0.0001410483
       -0.0000098629  -0.0000383425  -0.0001013448   0.0000563231   0.0002411119
        0.0001128618  -0.0002730222   0.0001373474  -0.0004440747  -0.0007315728
       -0.0318496188   0.0660678778  -0.1281708906  -0.0109477912  -0.2281573886
        0.3608198912  -0.0382509206   0.0263070352  -0.0672612881  -0.0161216787
       -0.0051826687   0.0034062103  -0.0026858609   0.0068741058   0.0019155098
       -0.0012815741  -0.0004113045   0.0002377830   0.0001510057   0.0000734066
        0.0000370422   0.0000180942   0.0001390945  -0.0000167066   0.0001183507
        0.0001909111   0.0000987319  -0.0001505088  -0.0003207514  -0.0001862088
       -0.0004313126   0.0003931755   0.0002300909  -0.0000428704   0.0001135713
       -0.0000971878   0.0000030156   0.0002262936   0.0001526382   0.0000101875
       -0.0002105220  -0.0000864358  -0.0000104490  -0.0001474456   0.0000258948
        0.0000923906  -0.0001941811  -0.0000871929   0.0008036588   0.0002820370
       -0.0003806955   0.0120989301  -0.0028736113  -0.0029533427  -0.0003065599
        0.0008994670  -0.0001643726  -0.0058724570   0.0280524293  -0.0263520673
        0.0826522842   0.0757019760  -0.1253630559   0.0113821434   0.0006164708
        0.0013402517  -0.0040735071  -0.0028638380   0.0020247724   0.0021241611
       -0.0002370028  -0.0003134642  -0.0019282549   0.0008036991   0.0003290544
       -0.0007165858   0.0010631617   0.0001188147   0.0014102451  -0.0011405380
        0.0003229416  -0.0003731807   0.0001032478  -0.0002933953   0.0005733373
       -0.0006368931   0.0004565176  -0.0003127546   0.0000093728  -0.0001524766
        0.0002255344   0.0001418854   0.0000745464  -0.0001841751  -0.0001146613
        0.0001250689  -0.0003851816   0.0001340098  -0.0003476981   0.0019058150
        0.0005688399  -0.0006223118  -0.0028143441   0.0021944736  -0.0021159008
       -0.0079940319   0.0080641084  -0.0071509304  -0.0047199383   0.0203819220
       -0.0201378065   0.0020579754  -0.0015813652   0.0078647614   0.0169807931
       -0.0009126188   0.0001606518  -0.0000597824   0.0000015235   0.0000122095
       -0.0000189709  -0.0000417487  -0.0000275257   0.0000375454  -0.0000356128
        0.0000095299   0.0000118725   0.0000328458  -0.0000158357   0.0000492358
       -0.0000192694   0.0000437489   0.0000373366   0.0000452009  -0.0000075881
        0.0000126999   0.0000690330   0.0000460059  -0.0000598800  -0.0000438195
        0.0000094236  -0.0000871710  -0.0001036340  -0.0000318145   0.0001243410
       -0.0001867457   0.0001232484  -0.0001551349  -0.0000598682   0.0001754821
       -0.0009211203   0.0058199564   0.0016135728   0.0001809994   0.0001726805
        0.0000080265  -0.0000054557   0.0000045487  -0.0002742498   0.0001583927
        0.0001017509   0.0000412397  -0.0001039706  -0.0001422779   0.0000615987
       -0.0000157796  -0.0000401058  -0.0000331709  -0.0000972133  -0.0000899908
        0.0000230455   0.0000469952   0.0000796468  -0.0000311181  -0.0003479653
       -0.0000925832   0.0001338875   0.0000586595   0.0001106879   0.0006325388
       -0.0176478580   0.0102555336  -0.0073520990  -0.3199827521   0.0665399613
       -0.0382509206   0.6628531702  -0.0207328802  -0.0279092740  -0.1000568917
        0.0275512049  -0.0176002276  -0.0374319197   0.0292559779  -0.0189095827
       -0.0016908473  -0.0034473025  -0.0026299011   0.0000360520   0.0003727862
        0.0001452962   0.0004393167  -0.0002175882  -0.0000653239  -0.0001758445
       -0.0000732371  -0.0000210516  -0.0002181417  -0.0001427799   0.0000858025
       -0.0017154745   0.0000209147   0.0008487102  -0.0001727654   0.0005705346
        0.0004100464  -0.0000481075  -0.0003039308   0.0001622818  -0.0002181725
        0.0001328219   0.0000323967   0.0002609061   0.0002074686   0.0000870348
       -0.0007364033  -0.0000247564  -0.0001323574   0.0014033511   0.0036259524
       -0.0020483335   0.0443734746   0.0017358590  -0.0088957501  -0.0021551134
       -0.0018051356   0.0023097591  -0.0294372607   0.0146450752  -0.0140733456
       -0.0597975793  -0.0401055625   0.0426719457   0.0110091693  -0.0035070734
        0.0017956546  -0.0054877590  -0.0033496245   0.0013852959   0.0031298485
       -0.0018872284  -0.0003613985  -0.0023570695   0.0014582536  -0.0000145409
       -0.0013854958   0.0041539244  -0.0009972690   0.0025894756  -0.0039412183
        0.0011985817  -0.0011930644  -0.0006765596   0.0001161184   0.0012045856
       -0.0005962868   0.0005305855  -0.0005055664  -0.0002763713  -0.0001324194
        0.0004158248   0.0003566689   0.0000688189  -0.0004781805  -0.0002826246
        0.0002052318  -0.0004254782   0.0006224746  -0.0005496525   0.0034664743
        0.0003731496  -0.0004045350  -0.0037622854   0.0047326225  -0.0016140703
       -0.0005754942   0.0012068822  -0.0015648372   0.0001980271  -0.0011053552
        0.0016621223  -0.0005169110  -0.0012302832   0.0000290799  -0.1425967245
       -0.0850520110   0.0895459202   0.0000870143   0.0001808260   0.0000896852
        0.0000069276   0.0000134421  -0.0000071812   0.0000387954   0.0000091723
        0.0000049023  -0.0000464912   0.0001114180  -0.0000652586   0.0000185438
       -0.0000371839   0.0000145343   0.0000243448   0.0000131416  -0.0000036275
        0.0000283435   0.0000005372   0.0000000781  -0.0000898277  -0.0004351249
       -0.0003395950  -0.0003513944   0.0002783506  -0.0000127941  -0.0002639444
        0.0000138671  -0.0002294463  -0.0000336833  -0.0003587539   0.0005787844
        0.0000502875   0.0008623203  -0.0000408424   0.0001450224   0.0003244343
        0.0000436034  -0.0001135829   0.0001336049  -0.0002304539   0.0002059222
        0.0001221979   0.0000518368  -0.0001039171  -0.0001615769   0.0001180181
       -0.0000046827  -0.0000260453  -0.0000554993  -0.0001187903  -0.0000802289
       -0.0000243408   0.0000039014   0.0000753656  -0.0000692427  -0.0000898877
       -0.0001506629   0.0002281604  -0.0000034166   0.0000506420   0.0001848862
        0.0229417042  -0.0065155255   0.0071001406   0.0051438033  -0.0753997978
        0.0263070352  -0.0207328802   0.3950767605  -0.2650856120   0.0693563943
       -0.1779255528   0.1115278859   0.0233184611  -0.0053720522   0.0053346912
       -0.0004621454   0.0025201416  -0.0000644388  -0.0001066625  -0.0001137500
       -0.0001783475  -0.0001532815   0.0000147715   0.0000567754  -0.0000516543
       -0.0000666773  -0.0000528045   0.0000409331   0.0001223939   0.0000972988
        0.0003474828   0.0004419595  -0.0000192450   0.0002437714  -0.0004899305
       -0.0000829931  -0.0000041755  -0.0001593339  -0.0001807304   0.0000163429
        0.0001225698   0.0001053003  -0.0001791300  -0.0000272127  -0.0001427655
       -0.0003962842   0.0002458018   0.0002604807  -0.0026339943  -0.0031912043
        0.0006943780  -0.0262685443  -0.0283540641   0.0311247632  -0.0018663301
        0.0015718455   0.0039972296   0.0179716656  -0.0071330031   0.0048490950
        0.0020625426   0.0177540536  -0.0160074252  -0.0112951705   0.0021143777
        0.0044622333   0.0041172945   0.0030527220  -0.0012493580  -0.0032973583
        0.0017234960   0.0002951728   0.0027899336  -0.0018716185  -0.0001909167
        0.0016221349  -0.0031391624   0.0004395680  -0.0026781710   0.0033486846
       -0.0009078785   0.0008070084   0.0001662191   0.0002191517  -0.0011327890
        0.0009795920  -0.0006912397   0.0005311314   0.0001069626   0.0002223136
       -0.0003830134  -0.0003142397  -0.0001153322   0.0003347225   0.0001344787
       -0.0002479262   0.0007392626  -0.0003566025   0.0005567698  -0.0036822213
       -0.0001698648   0.0004228222   0.0033825721  -0.0047441520   0.0010366243
        0.0010189052  -0.0019766652   0.0026567468   0.0017247301   0.0000329711
       -0.0002277042   0.0009365096  -0.0001999240   0.0006684677  -0.0848317664
       -0.1114969027   0.0829881792   0.0000107726  -0.0001627131   0.0000200380
        0.0000163460   0.0000373470   0.0000455905  -0.0000725016  -0.0000027043
        0.0000160180  -0.0000262161  -0.0000223071  -0.0000073795  -0.0000201453
        0.0000787168  -0.0000424813  -0.0000337840  -0.0000468859  -0.0000029791
       -0.0000038816  -0.0000339313  -0.0000764370   0.0000059249   0.0001174423
       -0.0000613206  -0.0000053852   0.0004277127  -0.0002688771   0.0000249957
       -0.0000401818   0.0000409169   0.0005447274  -0.0009975496   0.0009191003
        0.0003939584  -0.0001560983  -0.0004218955  -0.0001413089   0.0000302122
        0.0000556645   0.0000630168  -0.0000913033   0.0001800116  -0.0002759538
       -0.0001861131  -0.0000666857   0.0001746757   0.0002566363  -0.0001331466
        0.0000034032   0.0000707761   0.0000802679   0.0001907271   0.0001405830
       -0.0000181369  -0.0000092803  -0.0000858043   0.0000708701   0.0000733143
        0.0001960296  -0.0001681750  -0.0002051392  -0.0000424295  -0.0001393696
       -0.0198092462   0.0080308415  -0.0050672874   0.0135420233   0.0214136300
       -0.0672612881  -0.0279092740  -0.2650856120   0.3585975050  -0.0672500596
        0.1184228058  -0.1416325936  -0.0087891499   0.0032999440  -0.0009264350
        0.0009807954  -0.0008545841   0.0006680108  -0.0000621535  -0.0002601457
       -0.0000504967   0.0000394468   0.0000912439  -0.0000884342  -0.0000239043
       -0.0000918441  -0.0000361874   0.0000329780   0.0002005968  -0.0000110506
       -0.0000030312  -0.0002238193   0.0001155742   0.0006632002   0.0002420885
        0.0001032091  -0.0000993491  -0.0003441985  -0.0001075782  -0.0001524721
        0.0001709409   0.0001166607   0.0000582939   0.0001687536  -0.0000561988
       -0.0001358214   0.0002112579  -0.0003625089   0.0001732843  -0.0006161974
       -0.0007089610   0.0260191018   0.0283084261  -0.0292321115   0.0017785873
        0.0039584169   0.0018767667  -0.0170970163   0.0053832676  -0.0077633879
        0.0093554532  -0.0136292089   0.0125844905   0.0053599106   0.0043150976
        0.0010946145  -0.0000308765  -0.0009527005   0.0005446012   0.0011329635
       -0.0002422509  -0.0000684943  -0.0003823843   0.0006330903  -0.0000447851
       -0.0005043395   0.0007356581  -0.0001283432   0.0006041453  -0.0006946463
        0.0001941388  -0.0002221960   0.0000280881  -0.0000025312   0.0002382304
       -0.0002467209   0.0001351794  -0.0001849170  -0.0000376907  -0.0000778775
        0.0001043837   0.0000306076   0.0000307670  -0.0001039611  -0.0000778969
        0.0000906088  -0.0001290098   0.0000353740  -0.0000887119   0.0006925779
       -0.0000559206  -0.0001554272  -0.0012814906   0.0014825048  -0.0004929359
       -0.0021735315   0.0029253738  -0.0023652383  -0.0021535354   0.0002400820
        0.0007945841  -0.0013449368   0.0002239391  -0.0001064392   0.0903947365
        0.0818915183  -0.1202299507   0.0000749161   0.0003318649   0.0001246488
        0.0000224670  -0.0000032614   0.0000185915   0.0000011125  -0.0000119417
        0.0000536097   0.0000313054   0.0000184917  -0.0000405244   0.0000029028
        0.0000170942   0.0000183444  -0.0000260929  -0.0000234961   0.0000140467
       -0.0000047567   0.0000215446  -0.0000041539  -0.0005608635  -0.0002934651
       -0.0000269395  -0.0005525910   0.0010066762  -0.0007849467   0.0001215310
       -0.0003986547   0.0003807874  -0.0001591482   0.0003998052   0.0001151012
       -0.0004327964  -0.0000952210   0.0003107185   0.0001410132  -0.0000046166
       -0.0000358298   0.0000823810   0.0000874044  -0.0001262132   0.0000820179
        0.0000083694   0.0000409475  -0.0000262251  -0.0000196669   0.0000446167
       -0.0000236740  -0.0000021418   0.0000010220  -0.0000107610  -0.0000561069
       -0.0000025546   0.0000090250   0.0000521655  -0.0000299307  -0.0000567761
       -0.0000560274   0.0000767692  -0.0000424431  -0.0000089271  -0.0000295678
       -0.0038680046   0.0024720051   0.0008605365  -0.0320868020   0.0155929339
       -0.0161216787  -0.1000568917   0.0693563943  -0.0672500596   0.5970885683
       -0.0183309794  -0.0168363907  -0.2333631546   0.0196713795  -0.0061206045
       -0.0227580651   0.0199654263  -0.0017824697   0.0005605830  -0.0032099429
       -0.0010743824  -0.0009776723  -0.0001858974   0.0003718361  -0.0002619543
       -0.0010835464  -0.0006145343  -0.0008418096   0.0017807873   0.0009726556
        0.0023127005   0.0010289127  -0.0001239574   0.0010900931  -0.0017765661
       -0.0006402254  -0.0011935352  -0.0014852217  -0.0012286035  -0.0001283474
        0.0013351297   0.0006727037  -0.0007716209   0.0000776125  -0.0005082088
        0.0005856889   0.0031209885   0.0012696346  -0.0318651612  -0.0137486971
        0.0007380928  -0.1331506032  -0.0807465047   0.0907241799   0.0063642190
        0.0005480820  -0.0029658831  -0.0577225575   0.0000691521   0.0091076213
        0.0214738249  -0.0069660975   0.0040337316  -0.0150128096   0.0011458124
       -0.0007794051   0.0059425981   0.0048535599  -0.0022524156  -0.0049383269
        0.0027354549   0.0010920305   0.0040486353  -0.0026860882  -0.0005324131
        0.0023231051  -0.0029637374   0.0000661025  -0.0035300428   0.0035694030
       -0.0009012274   0.0008329361  -0.0000045941   0.0004522723  -0.0014032330
        0.0014828399  -0.0009687736   0.0006627191   0.0000008053   0.0004053029
       -0.0005040757  -0.0004558186  -0.0002448008   0.0003640788   0.0001080249
       -0.0003714406   0.0010608793  -0.0003434115   0.0007789252  -0.0052493733
       -0.0010022511   0.0010784592   0.0057895697  -0.0069764084   0.0016429891
       -0.0002850626   0.0008068960  -0.0002942343  -0.0002174198  -0.0003585432
        0.0003756520  -0.0003566225   0.0002570778  -0.0007668513   0.0048863078
       -0.0123115127   0.0116963100   0.0006060947   0.0001067256  -0.0001010064
        0.0002016245  -0.0001743993   0.0000607160  -0.0001021473  -0.0001118163
       -0.0000445750   0.0000436904  -0.0000321744   0.0001673230   0.0000200098
        0.0000854718  -0.0001057037   0.0001313806  -0.0000950482   0.0000666970
        0.0001627371   0.0001621889  -0.0000458475   0.0007041760  -0.0001761494
        0.0002197464  -0.0004262612   0.0012863785  -0.0003620681  -0.0005925003
        0.0006571632  -0.0012995430  -0.0009867530   0.0017417612  -0.0014435387
       -0.0050428359   0.0003787333  -0.0003368612  -0.0000555259   0.0001999909
       -0.0001829765   0.0002442965   0.0000472552   0.0001892794  -0.0003786589
       -0.0003713122  -0.0000458078   0.0002668622   0.0004818118  -0.0001743715
       -0.0001150857   0.0001141870   0.0001862532   0.0004104889   0.0001223290
       -0.0000108295   0.0000757410  -0.0000087893   0.0000242953   0.0002866876
        0.0001672921  -0.0000905118  -0.0002973822   0.0000755413  -0.0006311454
        0.0002084544   0.0056666792   0.0022710201   0.0628662339  -0.0022659619
       -0.0051826687   0.0275512049  -0.1779255528   0.1184228058  -0.0183309794
        0.4225204950  -0.2392896051   0.0205827779  -0.0746799345  -0.0027823155
        0.0228678752  -0.0008919307   0.0039616995   0.0004654440  -0.0000228521
        0.0003861745  -0.0000221719  -0.0000779603   0.0000580301  -0.0002526626
       -0.0001887659  -0.0000362907   0.0011528913   0.0008523481   0.0001450956
        0.0037282245  -0.0041193375  -0.0023950592  -0.0038445496  -0.0022391601
       -0.0022379828  -0.0008462138   0.0004290289  -0.0001092053  -0.0000261264
        0.0000994327   0.0000667866   0.0001762183   0.0001041759   0.0001774328