$hessian                                                                        
        0.4892066410  -0.0365896540  -0.0130158321  -0.1236378529  -0.0581236348
       -0.0160998218  -0.0145282404  -0.0142491198   0.0027661916  -0.0192380297
       -0.0133773942  -0.0083116335  -0.0000826678   0.0001855412   0.0001136793
        0.0001858075  -0.0006703952  -0.0001529043  -0.0001263509  -0.0001639087
       -0.0000923828  -0.0006576046  -0.0007144614  -0.0008206321  -0.0026802920
        0.0022640364  -0.0019285209   0.0002023918  -0.0001400559   0.0001620358
        0.0002542641   0.0002478875  -0.0000210946   0.0000174797  -0.0003384447
        0.0000991750  -0.0001585111   0.0000624049  -0.0000131666  -0.0000287657
       -0.0000154699   0.0000043493   0.0000211830   0.0000131492  -0.0000011325
       -0.0000109235  -0.0000082708   0.0000010032  -0.0000026197  -0.0000095328
        0.0000001666  -0.0000221940  -0.0000017422  -0.0000028943   0.0000042201
        0.0000021555  -0.0000045085  -0.0000158092   0.0000880730  -0.0000409404
        0.0000398358   0.0000368219   0.0000272062  -0.0000021671  -0.0000112458
        0.0000021478  -0.0000067990  -0.0000033332   0.0000000782   0.0000018494
       -0.0000115249  -0.0000008486  -0.0000001092  -0.0000084820  -0.0000004671
       -0.0000025698  -0.0000028222  -0.0000035129   0.0000130736   0.0000064808
       -0.0000090300  -0.0001193832  -0.0000397285  -0.0000445068  -0.0006645417
        0.0017415871   0.0011107659   0.0002061902   0.0003212691   0.0002851637
        0.0000476931   0.0000139782  -0.0000001471  -0.0000100821   0.0001388211
        0.0000523483  -0.0000067875  -0.0000971857  -0.0000480640  -0.0000903924
        0.0000204805  -0.0000097609   0.0000427713   0.0000491725   0.0000314343
        0.0000434482  -0.0000491929  -0.0000169455  -0.0000251319   0.0001084508
        0.0000109445  -0.0000966651  -0.0000633192  -0.0000297248   0.0001098521
        0.0000506404   0.0000712196   0.0000258721  -0.0000653864  -0.0000185711
        0.0000219138  -0.0000031599   0.0000076974  -0.0000049310  -0.0000200442
        0.0000120742   0.0000056391   0.0000053593  -0.0000030754  -0.0000236987
        0.0000139391  -0.0000134948   0.0004996558  -0.0000022103   0.0002376902
       -0.0007767799   0.0009467474  -0.0003630532   0.0069124245   0.0038043428
        0.0006083651  -0.1508164010   0.0589056259  -0.1043643227  -0.0880722965
        0.0842849793   0.0464333928  -0.0931122972  -0.0292390661   0.0925697537
        0.0001895191  -0.0004698481  -0.0007023096  -0.0014934238  -0.0013356873
        0.0027020192   0.0006163903   0.0004949340  -0.0008536195  -0.0015794664
        0.0000443983  -0.0012657919   0.0000103415  -0.0000171949   0.0000087332
       -0.0000727092  -0.0000264016   0.0000212351  -0.0002567490   0.0000961904
       -0.0001941205   0.0000167913  -0.0000107162  -0.0000023928   0.0000035481
       -0.0000117915  -0.0000006204  -0.0000005152  -0.0000067797  -0.0000007403
       -0.0000004042   0.0000002761  -0.0000022776  -0.0000018594  -0.0000041267
       -0.0000011131  -0.0000005760  -0.0000050619   0.0000005392   0.0000029728
        0.0000015876  -0.0000009479  -0.0000031863   0.0000023426   0.0000000575
       -0.0000048250  -0.0000033242   0.0000013819  -0.0000135942  -0.0000020915
        0.0000067470   0.0000018413   0.0001313415   0.0000914203   0.0000079087
       -0.0000010341   0.0000009108   0.0000006890   0.0000081005   0.0000058011
       -0.0000056383   0.0000084512   0.0000027716  -0.0000137103  -0.0000025119
       -0.0000025627  -0.0000144015   0.0000142943  -0.0000383776   0.0000027073
        0.0000052124  -0.0000046157  -0.0000102261   0.0000078365  -0.0000012840
       -0.0000045345   0.0000065751   0.0000008707  -0.0000099355   0.0000066381
        0.0000044723  -0.0002082660   0.0017752329   0.0010479203
       -0.0365896540   0.4879410356  -0.0112214177  -0.0581861513  -0.1243805267
       -0.0150753344  -0.0114945215  -0.0096806654   0.0023341412   0.0025563166
        0.0060166577  -0.0005412984   0.0007933041  -0.0009344732  -0.0000996571
       -0.0000854753   0.0003946355   0.0000443184   0.0001339009  -0.0000152222
        0.0000871334   0.0001017283   0.0002736931   0.0002027244   0.0012861887
       -0.0006017647   0.0014949589  -0.0000509641   0.0004978365   0.0000896857
       -0.0000930591  -0.0000162489  -0.0000220237   0.0001141741   0.0001134683
       -0.0000647916   0.0001064103  -0.0000065932   0.0000329008   0.0000070305
       -0.0000127099  -0.0000093246  -0.0000046601   0.0000130179  -0.0000097084
        0.0000024547  -0.0000028668   0.0000017281  -0.0000170285   0.0000025714
       -0.0000026337   0.0000003870  -0.0000056431  -0.0000021044  -0.0000124319
       -0.0000183339  -0.0000009141   0.0000113829  -0.0001519066   0.0000098149
        0.0000408164  -0.0000677338   0.0000399349  -0.0000245587  -0.0000281627
       -0.0000022771   0.0000041362   0.0000025265  -0.0000013324  -0.0000010977
       -0.0000146440   0.0000027954  -0.0000037815  -0.0000021408  -0.0000029759
       -0.0000101825  -0.0000089075   0.0000011392   0.0000062740   0.0000182190
        0.0000030183  -0.0001580156   0.0001358065  -0.0000376607   0.0026603413
       -0.0034312461  -0.0008641762  -0.0006658399  -0.0009185229  -0.0009259163
       -0.0001524228  -0.0000781122  -0.0000687642  -0.0000650675  -0.0000996119
       -0.0000012741   0.0000092358   0.0000432262   0.0000274514   0.0000508874
       -0.0000231189  -0.0000057726  -0.0000084939  -0.0000351582  -0.0000163169
       -0.0000153986   0.0000109304   0.0000125620   0.0000293789  -0.0000319671
        0.0000265760   0.0001739091   0.0000399899   0.0000556437  -0.0001545181
       -0.0000857189  -0.0000787389  -0.0000425136   0.0000713701  -0.0000240655
       -0.0000298840  -0.0000295154   0.0000117996   0.0000240831   0.0000040916
        0.0000264880  -0.0000064099  -0.0000114465   0.0000059639   0.0000218624
       -0.0000063745   0.0000091982  -0.0009310229   0.0002554125  -0.0004802316
        0.0001736012  -0.0004254534   0.0000029578  -0.0146607118  -0.0230179180
       -0.0080274015   0.0591569424  -0.0733981217   0.0579042872   0.0841136321
       -0.1947194855  -0.0817641857  -0.0291616765  -0.0614626355   0.0559536550
        0.0006737110   0.0006130966  -0.0006742386  -0.0012567878  -0.0004410597
        0.0018190696  -0.0002143137   0.0001109668  -0.0006559747   0.0014563920
       -0.0000564340   0.0014291672  -0.0000148513  -0.0000020430   0.0000093649
        0.0000627157   0.0000426771   0.0000116881   0.0001051345  -0.0000177697
        0.0001164416  -0.0000032091  -0.0000106772   0.0000062592  -0.0000055830
       -0.0000016066   0.0000002853  -0.0000010385  -0.0000024371  -0.0000013164
       -0.0000016908  -0.0000000652  -0.0000007907   0.0000003301   0.0000043103
       -0.0000024892   0.0000022351   0.0000009805  -0.0000024116  -0.0000004910
       -0.0000052204  -0.0000006293  -0.0000029014  -0.0000066293  -0.0000008412
       -0.0000028974   0.0000007611  -0.0000020368  -0.0000073677   0.0000198836
       -0.0000094235   0.0000790721  -0.0003164535  -0.0001614137   0.0000058768
        0.0000127409   0.0000059237   0.0000069650  -0.0000083616  -0.0000050527
        0.0000024273  -0.0000054291  -0.0000031332   0.0000133698  -0.0000081204
       -0.0000035050  -0.0000332154  -0.0000018441   0.0000246079   0.0000203308
        0.0000109693  -0.0000147396   0.0000161667  -0.0000018020   0.0000038781
        0.0000107980   0.0000033594   0.0000019519   0.0000065589  -0.0000047306
       -0.0000026078   0.0001294259  -0.0020406003  -0.0009186119
       -0.0130158321  -0.0112214177   0.5297188253  -0.0173380521  -0.0162341432
       -0.0647087839   0.0181811054   0.0170913711  -0.0011446702  -0.0155883270
       -0.0105981351  -0.0058653438  -0.0005948227   0.0002367007  -0.0007980335
       -0.0000161009  -0.0005951533  -0.0000487908  -0.0001260272  -0.0001778927
       -0.0000802194  -0.0006115471  -0.0005196920  -0.0006306929  -0.0026664526
        0.0017610583  -0.0012360390  -0.0000100150  -0.0000668775   0.0002309194
        0.0003569607   0.0002794735  -0.0001456866  -0.0001292492  -0.0000868779
        0.0001307735   0.0000250161   0.0000437103  -0.0000617663  -0.0000204195
       -0.0000078657  -0.0000004193   0.0000108254   0.0000091905   0.0000048208
       -0.0000017056  -0.0000033026   0.0000007244  -0.0000023120  -0.0000026015
        0.0000006158  -0.0000019346  -0.0000007707   0.0000015235   0.0000019789
        0.0000011402   0.0000014742  -0.0000606608  -0.0000144060   0.0000356454
        0.0000702341   0.0000217569  -0.0000417711  -0.0000078799  -0.0000074861
        0.0000033282  -0.0000031739  -0.0000044225   0.0000043085  -0.0000034268
        0.0000035887   0.0000017266   0.0000002376  -0.0000053192   0.0000018655
       -0.0000019017   0.0000008702   0.0000007654   0.0000097456   0.0000051750
        0.0000066306  -0.0000734161  -0.0001172724   0.0000679956   0.0011864184
       -0.0019546022   0.0000263625  -0.0003347729  -0.0004755137  -0.0003539920
       -0.0000585436  -0.0000780118  -0.0000384953  -0.0000552072  -0.0000051725
       -0.0000241505   0.0000188031  -0.0000222650  -0.0000040371  -0.0000332541
        0.0000004134  -0.0000038413   0.0000317902   0.0000276511   0.0000147156
        0.0000139547  -0.0000494605  -0.0000169679   0.0000114169   0.0000988864
        0.0000809419   0.0001919381  -0.0000667180  -0.0000620442  -0.0000806166
       -0.0000273652  -0.0000153989   0.0000134592  -0.0000014445   0.0000559765
       -0.0000360239  -0.0000364964  -0.0000083234  -0.0000041928   0.0000097522
       -0.0000190914  -0.0000074672   0.0000010348  -0.0000157195   0.0000181521
        0.0000226287  -0.0000198618  -0.0005885493   0.0000300633  -0.0001050517
        0.0001261614  -0.0007911904  -0.0007304209  -0.0066217267  -0.0118432492
       -0.0036001982  -0.1039952415   0.0575769852  -0.1448445768   0.0462506161
       -0.0813999459  -0.0873388303   0.0927066656   0.0561981500  -0.2156480474
        0.0002055364   0.0008902019   0.0006303849   0.0031760096   0.0022538447
       -0.0039301562   0.0009981616   0.0004170675   0.0007401577  -0.0010492994
       -0.0001813146  -0.0002408916   0.0000101380  -0.0000110109   0.0000147776
       -0.0000596268  -0.0000319503  -0.0000188382  -0.0001868899   0.0000598454
       -0.0002003635   0.0000099275   0.0000009656  -0.0000106490   0.0000030278
       -0.0000010550  -0.0000009828  -0.0000035673  -0.0000013498  -0.0000003582
       -0.0000028293  -0.0000026706   0.0000001481  -0.0000008205  -0.0000029379
       -0.0000017672  -0.0000014478  -0.0000017898  -0.0000010527  -0.0000018463
       -0.0000024308   0.0000005147  -0.0000002801  -0.0000023176   0.0000007005
       -0.0000000540   0.0000020698   0.0000001010   0.0000043974   0.0000040227
       -0.0000085967   0.0000346356  -0.0001367779  -0.0001192535   0.0000014084
        0.0000059456   0.0000033048   0.0000017624  -0.0000053816  -0.0000003861
        0.0000023530  -0.0000038645  -0.0000011572   0.0000033798  -0.0000027997
        0.0000035061   0.0000129786  -0.0000413565  -0.0000159352   0.0000279950
        0.0000140168   0.0000076055  -0.0000013812   0.0000009620   0.0000048844
       -0.0000011932   0.0000070363   0.0000026240  -0.0000017863   0.0000105925
        0.0000009192  -0.0003173158  -0.0002420928   0.0003620857
       -0.1236378529  -0.0581861513  -0.0173380521   0.4724791520   0.0164152555
        0.0305791254  -0.0774071096  -0.0141048235   0.0438676582  -0.1203458927
        0.0279903672  -0.0581159137  -0.0053726091   0.0087190862  -0.0050479326
        0.0038253531   0.0001637792  -0.0027717708  -0.0004788686  -0.0002640326
       -0.0000996709   0.0006388861  -0.0025968431  -0.0040902673  -0.0199151500
       -0.0024769600  -0.0162196053  -0.0002670345   0.0033160423   0.0012076470
       -0.0004323079  -0.0010108927  -0.0000825099   0.0002731543   0.0003759653
        0.0002075917   0.0001208363  -0.0001668642  -0.0001026306  -0.0000188652
        0.0000290572  -0.0000088078   0.0000222861   0.0000051646   0.0000181939
       -0.0000141419  -0.0000011443   0.0000023399   0.0000042816   0.0000021096
        0.0000002793  -0.0000147056   0.0000033977   0.0000006032   0.0000268115
       -0.0000080452   0.0000022533   0.0000130009   0.0000552810   0.0001261982
       -0.0000135318  -0.0002334719  -0.0000690245  -0.0000196826   0.0000495639
       -0.0000025438  -0.0000029960  -0.0000013795   0.0000053912  -0.0000140889
       -0.0000003338   0.0000004940   0.0000032537  -0.0000010720  -0.0000010722
        0.0000007354  -0.0000011158  -0.0000033647  -0.0000074701  -0.0000044005
        0.0000114938   0.0000619554   0.0004015060  -0.0001483441   0.0083329749
       -0.0087402555  -0.0047519466  -0.0020596910  -0.0026449268  -0.0022566290
       -0.0005907093   0.0002857216   0.0001169530  -0.0000003505  -0.0001558895
        0.0000132340   0.0000059408  -0.0001159214  -0.0000354033  -0.0001481436
        0.0000311003  -0.0000139594   0.0000879291   0.0001626904   0.0000917649
        0.0001299920  -0.0001259627  -0.0000101443  -0.0004042775   0.0004179257
        0.0000971092  -0.0001828398   0.0009736070   0.0003482013   0.0003151765
        0.0001941899   0.0001281658  -0.0000306604  -0.0000107107  -0.0000653295
        0.0000319914   0.0000165203  -0.0000137742  -0.0000200791  -0.0000057898
       -0.0000118834   0.0000101998  -0.0000015730   0.0000013434  -0.0000445171
       -0.0000290800  -0.0000144610  -0.0043377229   0.0000634277  -0.0015492565
       -0.0143630755   0.0236374413   0.0109966310  -0.0808754072   0.0339976792
        0.0147953412  -0.0188092191  -0.0143843519  -0.0074523873   0.0080242554
        0.0062941748   0.0016862573  -0.0124035213  -0.0117654130  -0.0003323119
       -0.0066684028  -0.0018945184   0.0132124489  -0.0109726280  -0.0070010011
        0.0172134361   0.0069045801   0.0044175407  -0.0156078582  -0.0009361816
       -0.0011024816   0.0012629359  -0.0000344755  -0.0001585258  -0.0001045031
       -0.0005102903  -0.0000090397   0.0008049015  -0.0006789265   0.0003040523
       -0.0004253162   0.0000022783  -0.0000075184  -0.0000241485   0.0000015064
       -0.0000047830  -0.0000004838   0.0000064477  -0.0000030836   0.0000001676
        0.0000064207   0.0000017051  -0.0000015787  -0.0000058400  -0.0000037832
       -0.0000018836   0.0000005097  -0.0000017839  -0.0000015345   0.0000045950
        0.0000043509  -0.0000020259  -0.0000008867   0.0000059291  -0.0000008610
        0.0000006876  -0.0000023665   0.0000019575   0.0000120807   0.0000077477
       -0.0000082800   0.0000900093  -0.0008963455  -0.0004963769   0.0000011316
        0.0000196240   0.0000032684  -0.0000027959   0.0000142466   0.0000015656
       -0.0000048721   0.0000200494  -0.0000000475  -0.0000084014   0.0000003970
       -0.0000041269  -0.0000021352   0.0000669386   0.0000158850  -0.0000251592
       -0.0000270233   0.0000077203  -0.0000109274  -0.0000059050   0.0000022228
       -0.0000095096  -0.0000030630  -0.0000015687   0.0000061588  -0.0000210715
        0.0000248825   0.0006593818  -0.0002839373   0.0004339277
       -0.0581236348  -0.1243805267  -0.0162341432   0.0164152555   0.4791436971
        0.0226611741  -0.0155267379  -0.0643291387   0.0274516968   0.0237165188
       -0.0763823236   0.0217099343   0.0202062926  -0.0112304161   0.0173450260
       -0.0007092676  -0.0046238981   0.0006584164   0.0002747104  -0.0004296192
        0.0002822676  -0.0031752932  -0.0022912298  -0.0016501621  -0.0089927378
        0.0072941530  -0.0090321804   0.0028793800   0.0003840286   0.0011826537
       -0.0006146284  -0.0004604398  -0.0000954627   0.0003432014   0.0001387812
        0.0000821478  -0.0002087980  -0.0000627135  -0.0001341236   0.0000368805
        0.0000144206  -0.0000073598   0.0000035076   0.0000037055   0.0000036421
       -0.0000052625   0.0000077097  -0.0000020854  -0.0000052451  -0.0000024339
       -0.0000003214  -0.0000068176  -0.0000084314   0.0000013546   0.0000080062
       -0.0000082185   0.0000000742   0.0001984963   0.0001430250   0.0001072667
       -0.0000725236  -0.0000838375  -0.0000570741   0.0000275735  -0.0000143089
       -0.0000042654   0.0000003969   0.0000246537   0.0000009643   0.0000014887
       -0.0000199075   0.0000051220  -0.0000000553   0.0000082865  -0.0000026367
        0.0000067922  -0.0000164230  -0.0000010683  -0.0000100573   0.0000240794
        0.0000178606  -0.0000684991   0.0001156996   0.0000838671  -0.0005739317
       -0.0236693113  -0.0135432955  -0.0016317225  -0.0001356189  -0.0030120241
       -0.0003168930  -0.0006080589  -0.0003053783  -0.0002222490  -0.0000499074
        0.0004564778  -0.0000269308  -0.0001218431  -0.0000220722  -0.0000576066
        0.0000197676  -0.0000336171   0.0000206860   0.0000053225  -0.0000012133
       -0.0000138705  -0.0000376492   0.0001130176  -0.0000248353   0.0000009198
        0.0001380645  -0.0004715221   0.0000613125  -0.0004760770   0.0001672831
        0.0001965355   0.0000742245  -0.0000538479  -0.0000161163  -0.0000454283
        0.0000143758   0.0000134159  -0.0000266577  -0.0000078410  -0.0000169513
       -0.0000034052   0.0000244652   0.0000095885   0.0000109922  -0.0000725565
        0.0000029756  -0.0000471088   0.0014725944   0.0030362161  -0.0023844342
        0.0111957526  -0.0089321390  -0.0026875314   0.0391351095  -0.1419576462
       -0.0451563867   0.0049155117   0.0067851177   0.0008286741  -0.0161764969
       -0.0221982094  -0.0073488224  -0.0084871188  -0.0082102397   0.0003900168
        0.0095202618   0.0042714970  -0.0193334106  -0.0100641833  -0.0070437117
        0.0169976527  -0.0037793160  -0.0031456918   0.0105968297   0.0000215104
        0.0006025454  -0.0002041231   0.0010666715  -0.0005278418   0.0006893250
        0.0000463903  -0.0000191688  -0.0001463894  -0.0008414121   0.0000818066
       -0.0006739057   0.0000067701   0.0000057061  -0.0000097463   0.0000035518
       -0.0000100754   0.0000008205   0.0000119423  -0.0000035700  -0.0000017747
        0.0000089455   0.0000055519  -0.0000035296  -0.0000047571  -0.0000078514
       -0.0000014228  -0.0000067108  -0.0000083227  -0.0000026966   0.0000043123
        0.0000086216  -0.0000023268  -0.0000050053   0.0000095655  -0.0000010081
       -0.0000078237   0.0000017803   0.0000000597  -0.0000043413  -0.0000101890
       -0.0000240359   0.0001328958  -0.0007765392  -0.0001826649   0.0000092890
        0.0000136896   0.0000099102   0.0000025353   0.0000139523  -0.0000037225
       -0.0000046530   0.0000174070  -0.0000248362  -0.0000314159  -0.0000001859
        0.0000023255   0.0000200276  -0.0000119514   0.0000576091  -0.0000194617
       -0.0000247026   0.0000165273  -0.0000083638  -0.0000043794   0.0000030032
       -0.0000015125   0.0000013862   0.0000032732   0.0000070552  -0.0000072058
        0.0000114118  -0.0014905005  -0.0005679772   0.0009362448
       -0.0160998218  -0.0150753344  -0.0647087839   0.0305791254   0.0226611741
        0.4285388788   0.0368383586   0.0206199223  -0.1373608191  -0.0582056441
        0.0253564559  -0.0995572630  -0.0052513130   0.0072776502  -0.0034641355
       -0.0025778739   0.0005261125   0.0048365085  -0.0003433619   0.0005415458
       -0.0004511337  -0.0025521489  -0.0018279411   0.0033286828  -0.0149878580
       -0.0016204264  -0.0114265667   0.0025502167   0.0026625253  -0.0013823461
       -0.0008678842  -0.0005629598   0.0004057850   0.0003499331   0.0001811418
       -0.0003531007  -0.0000458133   0.0000172880   0.0001275341   0.0000389193
        0.0000000804   0.0000137700  -0.0000041782   0.0000136050   0.0000024190
        0.0000011784  -0.0000053434   0.0000037600  -0.0000172171   0.0000009936
       -0.0000019343   0.0000003626  -0.0000033757  -0.0000111169  -0.0000043829
       -0.0000094589  -0.0000008281  -0.0000648882  -0.0002173975  -0.0000351659
       -0.0002095057   0.0001960288  -0.0000240564   0.0000284820  -0.0000241311
       -0.0000051922  -0.0000088658   0.0000210280  -0.0000039483   0.0000069167
       -0.0000069660   0.0000031030  -0.0000027911  -0.0000049398  -0.0000031787
       -0.0000031437  -0.0000119592   0.0000050460   0.0000148748   0.0000261646
       -0.0000007646   0.0004460683   0.0003713548  -0.0000000659   0.0009629353
       -0.0150172177  -0.0081509945  -0.0023035910  -0.0017300768   0.0025912593
        0.0004402443  -0.0002697524  -0.0001447609   0.0001930598   0.0003203141
       -0.0006023509  -0.0000275868   0.0000420607  -0.0000452212   0.0001913426
       -0.0000282969   0.0000511311  -0.0001936114  -0.0002084172  -0.0001083320
       -0.0001106989   0.0003982560  -0.0000832901   0.0000032536  -0.0004542694
       -0.0005320510  -0.0009928648   0.0006230804   0.0006177361   0.0000706932
        0.0000830488   0.0001264690   0.0000119996  -0.0000746475  -0.0000267617
        0.0000161660  -0.0000106617  -0.0000072102  -0.0000049526  -0.0000118867
        0.0000030325   0.0000172184   0.0000207249  -0.0000065892  -0.0000543362
        0.0000119448  -0.0000316184  -0.0011309947  -0.0027407187   0.0057342514
        0.0026095204   0.0007222070   0.0015039948   0.0191631643  -0.0456803590
       -0.0723624014  -0.0150170149  -0.0123614584  -0.0057120262  -0.0076826094
       -0.0103811746  -0.0034372775   0.0172106370   0.0170423713   0.0036759364
        0.0085995637   0.0011009349  -0.0159893488   0.0005140021   0.0008700338
        0.0015964565   0.0065018854   0.0071283975  -0.0223461186   0.0011236589
       -0.0009929855  -0.0015210956  -0.0000441440  -0.0001485229  -0.0000680838
        0.0007398480  -0.0001155263  -0.0007978552  -0.0003580376   0.0001308403
       -0.0001966966   0.0000257582  -0.0000089644  -0.0000065889  -0.0000022616
        0.0000034437  -0.0000012126  -0.0000050147   0.0000003344   0.0000005818
       -0.0000025956  -0.0000009546   0.0000001056   0.0000084221   0.0000017972
        0.0000004402  -0.0000039796   0.0000015093   0.0000001940  -0.0000045507
       -0.0000018193   0.0000025654  -0.0000012381  -0.0000058112   0.0000022638
       -0.0000012050   0.0000041151   0.0000000255  -0.0000195752   0.0000284633
       -0.0000137710   0.0000973258  -0.0004360993  -0.0000786570   0.0000042915
        0.0000107367   0.0000077692   0.0000007329  -0.0000051574   0.0000128318
       -0.0000114471  -0.0000231795   0.0000475568  -0.0000018076  -0.0000024373
        0.0000028875   0.0000114998   0.0000065493   0.0000353956  -0.0000035834
        0.0000003383   0.0000021518  -0.0000023572   0.0000014242   0.0000028252
        0.0000013630   0.0000034177  -0.0000016304   0.0000042601   0.0000108120
       -0.0000065669  -0.0001505317   0.0010404013  -0.0022144382
       -0.0145282404  -0.0114945215   0.0181811054  -0.0774071096  -0.0155267379
        0.0368383586   0.5085179206  -0.0059052742   0.0344723594   0.0060680953
        0.0049923414  -0.0147967714  -0.0008572075   0.0001293446  -0.0010482329
       -0.0008721010   0.0000693310   0.0006353648  -0.0000505772   0.0004260422
       -0.0000790395   0.0002417254  -0.0003636264   0.0009410372  -0.0011026230
        0.0012234695  -0.0016779019   0.0004060639  -0.0008143009   0.0004881474
       -0.0000554440   0.0001691884  -0.0004621136  -0.0000411962  -0.0002492931
        0.0001669513  -0.0001158554   0.0001503998  -0.0000661592   0.0000063232
       -0.0000209499   0.0000096632   0.0000155748   0.0000045601   0.0000164612
        0.0000109663  -0.0000038225  -0.0000012418   0.0000074739   0.0000005173
        0.0000000546   0.0000022205  -0.0000036415   0.0000040017   0.0000039438
        0.0000143416   0.0000004863  -0.0000018897  -0.0000170077   0.0000040827
       -0.0000535685   0.0000822370  -0.0000679656   0.0000168331  -0.0000042877
       -0.0000029299   0.0000012941   0.0000086455  -0.0000000069   0.0000006521
        0.0000103809  -0.0000011604   0.0000021562   0.0000053998   0.0000004483
        0.0000014909   0.0000001499  -0.0000030071  -0.0000140854   0.0000025999
        0.0000034775   0.0001335541  -0.0000319555   0.0002853707  -0.0010956979
       -0.0008916330  -0.0004097389   0.0001289165   0.0003466522  -0.0004239842
       -0.0000560780  -0.0001783334  -0.0000742078  -0.0000355454   0.0000333738
        0.0001403680  -0.0000092705  -0.0000558321  -0.0000250769  -0.0000357121
        0.0000131744  -0.0000081167  -0.0000006549   0.0000154593  -0.0000009552
        0.0000051042   0.0000016608   0.0000313862  -0.0000386588   0.0000169574
        0.0000558603   0.0000450296   0.0001082689  -0.0000908436   0.0000267504
        0.0000066515   0.0000315048   0.0000059041  -0.0000225526   0.0000203188
        0.0000029839   0.0000010373   0.0000050218  -0.0000012426   0.0000039352
       -0.0000038343   0.0000011329  -0.0000032002  -0.0000026907  -0.0000024805
       -0.0000005141  -0.0000063180  -0.0001049888   0.0008302574  -0.0005820105
        0.0006377348   0.0004124685   0.0006830019  -0.0081903822   0.0038814279
        0.0157600021   0.0004632516  -0.0001624363   0.0011772232   0.0005172996
        0.0007963665   0.0003241745  -0.0034407258  -0.0036305062   0.0002253764
       -0.0881174485   0.0833889237   0.0409328903  -0.1614985632  -0.1182852337
       -0.0267833813  -0.1597473054   0.0605812096  -0.1045666800   0.0001718312
        0.0000104728  -0.0003029323  -0.0000711926   0.0000558887  -0.0000394097
        0.0001246517  -0.0000095389  -0.0001329952   0.0000121792   0.0000108928
       -0.0000630888  -0.0000069994   0.0000068811  -0.0000111763   0.0000024450
       -0.0000029995  -0.0000007709  -0.0000039120  -0.0000025144  -0.0000007938
       -0.0000039875  -0.0000015865  -0.0000011575  -0.0000035943  -0.0000046046
       -0.0000026387  -0.0000028136  -0.0000039497  -0.0000014778   0.0000006880
        0.0000013420  -0.0000009493   0.0000008107   0.0000042642  -0.0000016815
       -0.0000027430   0.0000012421   0.0000012367   0.0000168547  -0.0000206673
       -0.0000019248   0.0000121368   0.0000467545   0.0000189861   0.0000002415
       -0.0000006913   0.0000013640  -0.0000014433   0.0000056545   0.0000024332
        0.0000015628   0.0000068062  -0.0000043994  -0.0000064995   0.0000003629
        0.0000055387   0.0000104774  -0.0000019034  -0.0000174992   0.0000090736
        0.0000077338   0.0000012058  -0.0000054476   0.0000024816  -0.0000000302
       -0.0000072198   0.0000051238  -0.0000025219  -0.0000044223   0.0000143934
        0.0000001436  -0.0000384208  -0.0001929520   0.0003044091
       -0.0142491198  -0.0096806654   0.0170913711  -0.0141048235  -0.0643291387
        0.0206199223  -0.0059052742   0.5190065128   0.0199293597  -0.0001923396
       -0.0034060285   0.0136979759   0.0005853727   0.0003711998   0.0005241359
        0.0006235605  -0.0001750349  -0.0003972493  -0.0000608102  -0.0000771778
        0.0000056698   0.0003533572   0.0000130489  -0.0004435945  -0.0006646053
       -0.0010241094  -0.0002532938  -0.0005298471   0.0004988268   0.0000622602
       -0.0002341764  -0.0002923340  -0.0003443135   0.0000965661   0.0002761674
        0.0000988296   0.0000986209  -0.0000021597  -0.0000136702   0.0000334895
       -0.0000124851  -0.0000008425  -0.0000119880  -0.0000005262   0.0000069112
        0.0000082714   0.0000040832  -0.0000043632  -0.0000067648   0.0000079928
       -0.0000023200   0.0000217351  -0.0000090096   0.0000040671  -0.0000116890
       -0.0000069272   0.0000074079  -0.0000370105  -0.0002413351   0.0000400964
       -0.0000069405   0.0000363707  -0.0000328432  -0.0000142431  -0.0000176547
       -0.0000012996   0.0000148315   0.0000161094  -0.0000041423  -0.0000026520
        0.0000005851   0.0000023051   0.0000034243   0.0000115974  -0.0000011691
       -0.0000067247   0.0000086169   0.0000006513  -0.0000160573   0.0000212665
        0.0000176742   0.0000824798   0.0001386488   0.0001709420   0.0010702118
       -0.0011714567  -0.0010716372  -0.0003910322   0.0001397991   0.0005830332
        0.0003515592   0.0001634222   0.0001514369   0.0000534066  -0.0000338481
       -0.0001524316  -0.0000051203   0.0001722640   0.0000756040   0.0001839147
       -0.0000359216   0.0000245889  -0.0000914139  -0.0001475983  -0.0000722787
       -0.0000865569   0.0001764041  -0.0000008442   0.0001047044  -0.0003564884
       -0.0001965519  -0.0001126728   0.0001184972   0.0002170581  -0.0001879875
       -0.0001010199  -0.0000986869   0.0000393282   0.0000257192   0.0000168051
       -0.0000195705  -0.0000137361   0.0000066174   0.0000179038   0.0000040443
        0.0000164221  -0.0000102960  -0.0000019723  -0.0000024111   0.0000283256
        0.0000042040   0.0000154060   0.0000254939  -0.0012279380   0.0009543019
       -0.0001059979  -0.0006538005  -0.0010740932   0.0110965772   0.0019213292
       -0.0185902728   0.0006385287   0.0004715287   0.0004338425  -0.0004762611
        0.0005310910   0.0010442846  -0.0037518843  -0.0031515698   0.0002294462
        0.0836755459  -0.1994179181  -0.0794100479  -0.1182375505  -0.1635559033
       -0.0264962476   0.0603702054  -0.0751340743   0.0528241640  -0.0002041202
        0.0000394679   0.0002073007   0.0000537171  -0.0000423143   0.0000461656
       -0.0000884600   0.0000221729   0.0001229605   0.0000321750  -0.0000002599
        0.0000267027  -0.0000188501   0.0000139563  -0.0000099363  -0.0000016167
        0.0000022425   0.0000008788   0.0000013947   0.0000022958  -0.0000011062
       -0.0000023113  -0.0000006144  -0.0000006466   0.0000004190   0.0000040158
       -0.0000038463   0.0000012354   0.0000008870  -0.0000046953  -0.0000026026
       -0.0000068409  -0.0000016672  -0.0000010320  -0.0000075349  -0.0000033041
       -0.0000000017   0.0000014111  -0.0000052550   0.0000149369  -0.0000029680
       -0.0000157802   0.0000594679   0.0000133328  -0.0000691321   0.0000008243