      -----------------------------------------------------------      
     |                   =====================                   |     
     |                           x T B                           |     
     |                   =====================                   |     
     |                         S. Grimme                         |     
     |          Mulliken Center for Theoretical Chemistry        |     
     |                    University of Bonn                     |     
      -----------------------------------------------------------      

   * xtb version 6.7.1 (edcfbbe) compiled by 'albert@albert-system' on 2024-07-22

   xtb is free software: you can redistribute it and/or modify it under
   the terms of the GNU Lesser General Public License as published by
   the Free Software Foundation, either version 3 of the License, or
   (at your option) any later version.
   
   xtb is distributed in the hope that it will be useful,
   but WITHOUT ANY WARRANTY; without even the implied warranty of
   MERCHANTABILITY or FITNESS FOR A PARTICULAR PURPOSE.  See the
   GNU Lesser General Public License for more details.
   
   Cite this work as:
   * C. Bannwarth, E. Caldeweyher, S. Ehlert, A. Hansen, P. Pracht,
     J. Seibert, S. Spicher, S. Grimme, WIREs Comput. Mol. Sci., 2020, 11,
     e01493. DOI: 10.1002/wcms.1493
   
   for GFN2-xTB:
   * C. Bannwarth, S. Ehlert and S. Grimme., J. Chem. Theory Comput., 2019,
     15, 1652-1671. DOI: 10.1021/acs.jctc.8b01176
   for GFN1-xTB:
   * S. Grimme, C. Bannwarth, P. Shushkov, J. Chem. Theory Comput., 2017,
     13, 1989-2009. DOI: 10.1021/acs.jctc.7b00118
   for GFN0-xTB:
   * P. Pracht, E. Caldeweyher, S. Ehlert, S. Grimme, ChemRxiv, 2019, preprint.
     DOI: 10.26434/chemrxiv.8326202.v1
   for GFN-FF:
   * S. Spicher and S. Grimme, Angew. Chem. Int. Ed., 2020, 59, 15665-15673.
     DOI: 10.1002/anie.202004239
   
   for ALPB and GBSA implicit solvation:
   * S. Ehlert, M. Stahn, S. Spicher, S. Grimme, J. Chem. Theory Comput.,
     2021, 17, 4250-4261. DOI: 10.1021/acs.jctc.1c00471
   
   for ddCOSMO and CPCM-X implicit solvation:
   * M. Stahn, S. Ehlert, S. Grimme, J. Phys. Chem. A,
     2023, XX, XXXX-XXXX. DOI: 10.1021/acs.jpca.3c04382
   
   for DFT-D4:
   * E. Caldeweyher, C. Bannwarth and S. Grimme, J. Chem. Phys., 2017,
     147, 034112. DOI: 10.1063/1.4993215
   * E. Caldeweyher, S. Ehlert, A. Hansen, H. Neugebauer, S. Spicher,
     C. Bannwarth and S. Grimme, J. Chem. Phys., 2019, 150, 154122.
     DOI: 10.1063/1.5090222
   * E. Caldeweyher, J.-M. Mewes, S. Ehlert and S. Grimme, Phys. Chem. Chem. Phys.
     2020, 22, 8499-8512. DOI: 10.1039/D0CP00502A
   
   for sTDA-xTB:
   * S. Grimme and C. Bannwarth, J. Chem. Phys., 2016, 145, 054103.
     DOI: 10.1063/1.4959605
   
   in the mass-spec context:
   * V. Asgeirsson, C. Bauer and S. Grimme, Chem. Sci., 2017, 8, 4879.
     DOI: 10.1039/c7sc00601b
   * J. Koopman and S. Grimme, ACS Omega 2019, 4, 12, 15120-15133.
     DOI: 10.1021/acsomega.9b02011
   
   for metadynamics refer to:
   * S. Grimme, J. Chem. Theory Comput., 2019, 155, 2847-2862
     DOI: 10.1021/acs.jctc.9b00143
   
   for SPH calculations refer to:
   * S. Spicher and S. Grimme, J. Chem. Theory Comput., 2021, 17, 1701-1714
     DOI: 10.1021/acs.jctc.0c01306
   
   for ONIOM refer to:
   * C. Plett, A. Katbashev, S. Ehlert, S. Grimme, M. Bursch,
     Phys. Chem. Chem. Phys., 2023, 25, 17860-17868. DOI: 10.1039/D3CP02178E
   
   for DIPRO refer to:
   * J. Kohn, N. Gildemeister, S. Grimme, D. Fazzi, A. Hansen,
     J. Chem. Phys., 2023, just accepted.
   
   for PTB refer to:
   * S. Grimme, M. Mueller, A. Hansen, J. Chem. Phys., 2023, 158, 124111.
     DOI: 10.1063/5.0137838
   
   with help from (in alphabetical order)
   P. Atkinson, C. Bannwarth, F. Bohle, G. Brandenburg, E. Caldeweyher
   M. Checinski, S. Dohm, S. Ehlert, S. Ehrlich, I. Gerasimov, C. Hölzer
   A. Katbashev, J. Kohn, J. Koopman, C. Lavigne, S. Lehtola, F. März, M. Müller,
   F. Musil, H. Neugebauer, J. Pisarek, C. Plett, P. Pracht, F. Pultar,
   J. Seibert, P. Shushkov, S. Spicher, M. Stahn, M. Steiner, T. Strunk,
   J. Stückrath, T. Rose, and J. Unsleber
   
 * started run on 2025/07/19 at 13:22:50.841     
   ID    Z sym.   atoms
    1    6 C      1-9, 11, 13-19, 21-27, 29-37, 39-47
    2    7 N      10, 12, 20, 28, 38
    3    1 H      48-78

           -------------------------------------------------
          |                Calculation Setup                |
           -------------------------------------------------

          program call               : xtb data2507/gas/3DPTIA/3DPTIA_gas_T1_crest.xyz --gfn 2 --spinpol --tblite --uhf 2 --ohess vtight --parallel 40 --molden --ceasefiles --namespace data2507/gas/3DPTIA/3DPTIA_gas_T1_finalOpt
          calculation namespace      : data2507/gas/3DPTIA/3DPTIA_gas_T1_finalOpt
          coordinate file            : data2507/gas/3DPTIA/3DPTIA_gas_T1_crest.xyz
          omp threads                :                    40

repulsion energy          2.1661670836110E+00 Eh
dispersion energy         4.3033289887029E-04 Eh
interaction energy        0.0000000000000E+00 Eh
number of electrons       2.2400000000000E+02 e
integral cutoff           1.7347787504999E+01 bohr

------------------------------------------------------------
  cycle        total energy    energy error   density error
------------------------------------------------------------
      1     -120.0903567317  -1.2225695E+02   1.0253582E-01
      2     -119.9993950025   9.0961729E-02   6.1862626E-02
      3     -119.5127834639   4.8661154E-01   5.3567848E-02
      4     -120.0277834398  -5.1499998E-01   3.6399389E-02
      5     -120.3298020471  -3.0201861E-01   2.1369965E-02
      6     -120.3713512689  -4.1549222E-02   1.6003279E-02
      7     -120.3710789208   2.7234811E-04   1.3809770E-02
      8     -120.3643205575   6.7583633E-03   1.6308501E-02
      9     -120.3741558855  -9.8353281E-03   1.0256598E-02
     10     -120.3753164730  -1.1605874E-03   8.8556806E-03
     11     -120.3758639275  -5.4745451E-04   8.9522903E-03
     12     -120.3779107308  -2.0468033E-03   5.5902189E-03
     13     -120.3808913454  -2.9806146E-03   2.5339224E-03
     14     -120.3811217425  -2.3039706E-04   1.6717231E-03
     15     -120.3814554558  -3.3371336E-04   3.3596488E-04
     16     -120.3814586084  -3.1525533E-06   2.4648675E-04
     17     -120.3814632149  -4.6065130E-06   1.3499010E-04
     18     -120.3814607429   2.4719761E-06   1.8229604E-04
     19     -120.3814639315  -3.1885585E-06   6.8487750E-05
     20     -120.3814642470  -3.1555743E-07   2.9148160E-05
     21     -120.3814642429   4.1395225E-09   2.3042751E-05
     22     -120.3814643152  -7.2338437E-08   7.9216402E-06
------------------------------------------------------------

electronic energy        -1.2254806173174E+02 Eh
total energy             -1.2038146431523E+02 Eh

 total:                                   0.355 sec
 - repulsion                              0.000 sec (  0%)
 - dispersion                             0.017 sec (  4%)
 - coulomb                                0.006 sec (  1%)
 - hamiltonian                            0.013 sec (  3%)
 - scc                                    0.318 sec ( 89%)

      ----------------------------------------------------------- 
     |                   =====================                   |
     |                        A N C O P T                        |
     |                   =====================                   |
     |               Approximate Normal Coordinate               |
     |                Rational Function Optimizer                |
      ----------------------------------------------------------- 

Optimization log is written to '/dev/null'
      ----------------------------------------------------------- 
     |                   =====================                   |
     |                        A N C O P T                        |
     |                   =====================                   |
     |               Approximate Normal Coordinate               |
     |                Rational Function Optimizer                |
      ----------------------------------------------------------- 

          ...................................................
          :                      SETUP                      :
          :.................................................:
          :   optimization level         verytight          :
          :   max. optcycles                  1560          :
          :   ANC micro-cycles                  20          :
          :   degrees of freedom               228          :
          :.................................................:
          :   RF solver                   davidson          :
          :   write xtbopt.log                true          :
          :   linear?                        false          :
          :   energy convergence         0.1000000E-06 Eh   :
          :   grad. convergence          0.2000000E-03 Eh/α :
          :   maxmium RF displ.          1.0000000          :
          :   Hlow (freq-cutoff)         0.1000000E-01      :
          :   Hmax (freq-cutoff)         5.0000000          :
          :   S6 in model hess.         20.0000000          :
          ...................................................

generating ANC from exact Hessian ...
Using Lindh-Hessian (1995)
 Shifting diagonal of input Hessian by   9.895604390672986E-003
 Lowest  eigenvalues of input Hessian
    0.000000    0.000000    0.000000    0.000000    0.000000    0.000000
    0.010000    0.010058    0.010196    0.010436    0.010541    0.010839
    0.010932    0.011012    0.011182    0.011513    0.011807    0.012347
 Highest eigenvalues
    2.151350    2.192064    2.211184    2.222474    2.258868    2.345745
 

........................................................................
.............................. CYCLE    1 ..............................
........................................................................
------------------------------------------------------------
  cycle        total energy    energy error   density error
------------------------------------------------------------
      1     -120.3814637217  -1.2254806E+02   7.1804565E-05
      2     -120.3814519796   1.1742074E-05   3.1820712E-04
      3     -120.3814640952  -1.2115557E-05   3.4770881E-05
      4     -120.3814643111  -2.1595042E-07   9.0032706E-06
------------------------------------------------------------

 total:                                   0.076 sec
 * total energy  :  -120.3814643 Eh     change        0.4122342E-08 Eh
   gradient norm :     0.0098345 Eh/α   predicted     0.0000000E+00 (-100.00%)
   displ. norm   :     0.0245524 α      lambda       -0.6456955E-04
   maximum displ.:     0.0089090 α      in ANC's #21, #24, #39, ...

........................................................................
.............................. CYCLE    2 ..............................
........................................................................
------------------------------------------------------------
  cycle        total energy    energy error   density error
------------------------------------------------------------
      1     -120.3814690803  -1.2254912E+02   8.4458657E-04
      2     -120.3805624395   9.0664080E-04   2.2915557E-03
      3     -120.3812897934  -7.2735395E-04   1.2453734E-03
      4     -120.3814982245  -2.0843107E-04   6.3504970E-04
      5     -120.3815184736  -2.0249154E-05   3.5319484E-04
      6     -120.3815319071  -1.3433453E-05   9.1428240E-05
      7     -120.3815326844  -7.7734153E-07   4.3186167E-05
      8     -120.3815327532  -6.8800716E-08   3.0336921E-05
      9     -120.3815328414  -8.8181807E-08   1.2751401E-05
------------------------------------------------------------

 total:                                   0.141 sec
 * total energy  :  -120.3815328 Eh     change       -0.6853030E-04 Eh
   gradient norm :     0.0064933 Eh/α   predicted    -0.4286129E-04 ( -37.46%)
   displ. norm   :     0.0476447 α      lambda       -0.9470893E-04
   maximum displ.:     0.0164569 α      in ANC's #21, #14, #24, ...

........................................................................
.............................. CYCLE    3 ..............................
........................................................................
------------------------------------------------------------
  cycle        total energy    energy error   density error
------------------------------------------------------------
      1     -120.3814206508  -1.2254979E+02   1.3950729E-03
      2     -120.3792037481   2.2169027E-03   3.5827106E-03
      3     -120.3809729629  -1.7692148E-03   1.9713152E-03
      4     -120.3814783205  -5.0535762E-04   1.1032889E-03
      5     -120.3815567238  -7.8403295E-05   4.8230441E-04
      6     -120.3815831767  -2.6452838E-05   1.3288668E-04
      7     -120.3815835657  -3.8903637E-07   9.4523064E-05
      8     -120.3815841548  -5.8907455E-07   5.8065375E-05
      9     -120.3815845037  -3.4893347E-07   1.8678627E-05
------------------------------------------------------------

 total:                                   0.141 sec
 * total energy  :  -120.3815845 Eh     change       -0.5166229E-04 Eh
   gradient norm :     0.0021685 Eh/α   predicted    -0.4785521E-04 (  -7.37%)
   displ. norm   :     0.0153773 α      lambda       -0.4873805E-05
   maximum displ.:     0.0053256 α      in ANC's #18, #9, #15, ...

........................................................................
.............................. CYCLE    4 ..............................
........................................................................
------------------------------------------------------------
  cycle        total energy    energy error   density error
------------------------------------------------------------
      1     -120.3815839931  -1.2254970E+02   2.6047639E-04
      2     -120.3815021525   8.1840637E-05   8.4401480E-04
      3     -120.3815853022  -8.3149746E-05   2.0192799E-04
      4     -120.3815874468  -2.1446355E-06   1.4480242E-04
      5     -120.3815877968  -3.4995747E-07   9.6778412E-05
      6     -120.3815893242  -1.5273868E-06   1.6014939E-05
      7     -120.3815893255  -1.2726957E-09   1.8321722E-05
------------------------------------------------------------

 total:                                   0.115 sec
 * total energy  :  -120.3815893 Eh     change       -0.4821755E-05 Eh
   gradient norm :     0.0013508 Eh/α   predicted    -0.3074449E-05 ( -36.24%)
   displ. norm   :     0.0483261 α      lambda       -0.7825842E-05
   maximum displ.:     0.0182553 α      in ANC's #18, #9, #15, ...

........................................................................
.............................. CYCLE    5 ..............................
........................................................................
------------------------------------------------------------
  cycle        total energy    energy error   density error
------------------------------------------------------------
      1     -120.3815575464  -1.2254921E+02   6.7406315E-04
      2     -120.3808193453   7.3820107E-04   2.6429758E-03
      3     -120.3815500514  -7.3070607E-04   4.9723461E-04
      4     -120.3815682499  -1.8198505E-05   4.3882738E-04
      5     -120.3815808713  -1.2621407E-05   3.2972575E-04
      6     -120.3815926609  -1.1789628E-05   1.1522337E-04
      7     -120.3815942653  -1.6043265E-06   3.8865687E-05
      8     -120.3815943571  -9.1844782E-08   2.9219987E-05
      9     -120.3815944203  -6.3203402E-08   1.8868718E-05
------------------------------------------------------------

 total:                                   0.149 sec
 * total energy  :  -120.3815944 Eh     change       -0.5094863E-05 Eh
   gradient norm :     0.0014488 Eh/α   predicted    -0.3987171E-05 ( -21.74%)
   displ. norm   :     0.0110832 α      lambda       -0.1688088E-05
   maximum displ.:     0.0046093 α      in ANC's #3, #9, #4, ...

........................................................................
.............................. CYCLE    6 ..............................
........................................................................
------------------------------------------------------------
  cycle        total energy    energy error   density error
------------------------------------------------------------
      1     -120.3815876909  -1.2254947E+02   2.3722453E-04
      2     -120.3813314688   2.5622216E-04   1.3455457E-03
      3     -120.3815952346  -2.6376580E-04   9.5345199E-05
      4     -120.3815957748  -5.4025264E-07   8.5683807E-05
      5     -120.3815957973  -2.2519217E-08   7.0818390E-05
      6     -120.3815964525  -6.5511888E-07   1.2399833E-05
------------------------------------------------------------

 total:                                   0.101 sec
 * total energy  :  -120.3815965 Eh     change       -0.2032131E-05 Eh
   gradient norm :     0.0007743 Eh/α   predicted    -0.8474681E-06 ( -58.30%)
   displ. norm   :     0.0391485 α      lambda       -0.2578219E-05
   maximum displ.:     0.0163153 α      in ANC's #3, #9, #4, ...

........................................................................
.............................. CYCLE    7 ..............................
........................................................................
------------------------------------------------------------
  cycle        total energy    energy error   density error
------------------------------------------------------------
      1     -120.3815950294  -1.2254968E+02   2.4147869E-04
      2     -120.3815017035   9.3325853E-05   8.4861422E-04
      3     -120.3815942648  -9.2561305E-05   1.9242299E-04
      4     -120.3815920229   2.2419116E-06   2.1735212E-04
      5     -120.3815974567  -5.4337776E-06   1.1911447E-04
      6     -120.3815987604  -1.3036791E-06   4.9594391E-05
      7     -120.3815990252  -2.6481422E-07   1.4711414E-05
------------------------------------------------------------

 total:                                   0.115 sec
 * total energy  :  -120.3815990 Eh     change       -0.2572755E-05 Eh
   gradient norm :     0.0005054 Eh/α   predicted    -0.1293492E-05 ( -49.72%)
   displ. norm   :     0.0371598 α      lambda       -0.1304680E-05
   maximum displ.:     0.0165767 α      in ANC's #3, #9, #4, ...

........................................................................
.............................. CYCLE    8 ..............................
........................................................................
------------------------------------------------------------
  cycle        total energy    energy error   density error
------------------------------------------------------------
      1     -120.3815845120  -1.2254970E+02   3.6664654E-04
      2     -120.3811602800   4.2423199E-04   1.7039584E-03
      3     -120.3815990876  -4.3880757E-04   1.2979670E-04
      4     -120.3815964589   2.6286556E-06   1.9997475E-04
      5     -120.3815999561  -3.4972242E-06   7.2874264E-05
      6     -120.3816006115  -6.5532298E-07   2.2099359E-05
      7     -120.3816006204  -8.9568886E-09   1.6167131E-05
------------------------------------------------------------

 total:                                   0.115 sec
 * total energy  :  -120.3816006 Eh     change       -0.1595210E-05 Eh
   gradient norm :     0.0006503 Eh/α   predicted    -0.6544718E-06 ( -58.97%)
   displ. norm   :     0.0557844 α      lambda       -0.1841491E-05
   maximum displ.:     0.0260653 α      in ANC's #3, #4, #9, ...

........................................................................
.............................. CYCLE    9 ..............................
........................................................................
------------------------------------------------------------
  cycle        total energy    energy error   density error
------------------------------------------------------------
      1     -120.3815719343  -1.2254963E+02   4.9953305E-04
      2     -120.3807942018   7.7773252E-04   2.2619216E-03
      3     -120.3815990062  -8.0480443E-04   2.0183058E-04
      4     -120.3815938340   5.1721679E-06   2.8875289E-04
      5     -120.3816020744  -8.2403216E-06   7.8229267E-05
      6     -120.3816026205  -5.4609735E-07   3.7269324E-05
      7     -120.3816028367  -2.1623484E-07   2.0973933E-05
      8     -120.3816028881  -5.1383850E-08   5.5586849E-06
------------------------------------------------------------

 total:                                   0.130 sec
 * total energy  :  -120.3816029 Eh     change       -0.2267657E-05 Eh
   gradient norm :     0.0006013 Eh/α   predicted    -0.9258805E-06 ( -59.17%)
   displ. norm   :     0.0699039 α      lambda       -0.2006059E-05
   maximum displ.:     0.0341401 α      in ANC's #3, #4, #2, ...

........................................................................
.............................. CYCLE   10 ..............................
........................................................................
------------------------------------------------------------
  cycle        total energy    energy error   density error
------------------------------------------------------------
      1     -120.3815930994  -1.2254960E+02   3.7876051E-04
      2     -120.3812780383   3.1506110E-04   1.4986320E-03
      3     -120.3815991330  -3.2109470E-04   2.3836605E-04
      4     -120.3815867260   1.2406992E-05   4.0078226E-04
      5     -120.3816047885  -1.8062451E-05   4.6287067E-05
      6     -120.3816050276  -2.3909568E-07   2.9593055E-05
      7     -120.3816051399  -1.1236311E-07   7.6173070E-06
------------------------------------------------------------

 total:                                   0.116 sec
 * total energy  :  -120.3816051 Eh     change       -0.2251846E-05 Eh
   gradient norm :     0.0004836 Eh/α   predicted    -0.1007387E-05 ( -55.26%)
   displ. norm   :     0.0619560 α      lambda       -0.1593810E-05
   maximum displ.:     0.0316965 α      in ANC's #3, #4, #2, ...

........................................................................
.............................. CYCLE   11 ..............................
........................................................................
------------------------------------------------------------
  cycle        total energy    energy error   density error
------------------------------------------------------------
      1     -120.3816008009  -1.2254953E+02   2.8327664E-04
      2     -120.3814266847   1.7411614E-04   1.1047887E-03
      3     -120.3816041796  -1.7749485E-04   1.7581849E-04
      4     -120.3815976942   6.4854236E-06   2.8990547E-04
      5     -120.3816069223  -9.2281689E-06   3.7617919E-05
      6     -120.3816070973  -1.7491148E-07   1.0154516E-05
------------------------------------------------------------

 total:                                   0.100 sec
 * total energy  :  -120.3816071 Eh     change       -0.1957336E-05 Eh
   gradient norm :     0.0004838 Eh/α   predicted    -0.8012652E-06 ( -59.06%)
   displ. norm   :     0.0709649 α      lambda       -0.1940517E-05
   maximum displ.:     0.0372734 α      in ANC's #3, #2, #1, ...

........................................................................
.............................. CYCLE   12 ..............................
........................................................................
------------------------------------------------------------
  cycle        total energy    energy error   density error
------------------------------------------------------------
      1     -120.3816034274  -1.2254951E+02   2.7557005E-04
      2     -120.3814444157   1.5901169E-04   1.0059092E-03
      3     -120.3816068784  -1.6246274E-04   1.8370362E-04
      4     -120.3816004548   6.4236029E-06   2.7068092E-04
      5     -120.3816070996  -6.6447838E-06   1.3635224E-04
      6     -120.3816094456  -2.3460117E-06   1.0481367E-05
      7     -120.3816094615  -1.5907275E-08   6.8892498E-06
------------------------------------------------------------

 total:                                   0.114 sec
 * total energy  :  -120.3816095 Eh     change       -0.2364248E-05 Eh
   gradient norm :     0.0004614 Eh/α   predicted    -0.9747431E-06 ( -58.77%)
   displ. norm   :     0.0781930 α      lambda       -0.1848396E-05
   maximum displ.:     0.0422141 α      in ANC's #3, #2, #1, ...

........................................................................
.............................. CYCLE   13 ..............................
........................................................................
------------------------------------------------------------
  cycle        total energy    energy error   density error
------------------------------------------------------------
      1     -120.3816052094  -1.2254960E+02   3.2786942E-04
      2     -120.3814764252   1.2878420E-04   1.0776356E-03
      3     -120.3816091080  -1.3268286E-04   1.9136976E-04
      4     -120.3816030683   6.0397119E-06   2.8437494E-04
      5     -120.3816095386  -6.4702827E-06   1.0939078E-04
      6     -120.3816114222  -1.8835805E-06   2.7798527E-05
      7     -120.3816115527  -1.3050571E-07   1.0788484E-05
------------------------------------------------------------

 total:                                   0.115 sec
 * total energy  :  -120.3816116 Eh     change       -0.2091163E-05 Eh
   gradient norm :     0.0003417 Eh/α   predicted    -0.9303444E-06 ( -55.51%)
   displ. norm   :     0.0555411 α      lambda       -0.1083670E-05
   maximum displ.:     0.0310928 α      in ANC's #3, #2, #1, ...

........................................................................
.............................. CYCLE   14 ..............................
........................................................................
------------------------------------------------------------
  cycle        total energy    energy error   density error
------------------------------------------------------------
      1     -120.3816047547  -1.2254962E+02   3.1613636E-04
      2     -120.3814333867   1.7136798E-04   1.2467390E-03
      3     -120.3816112978  -1.7791109E-04   1.4286116E-04
      4     -120.3815975404   1.3757466E-05   3.3354734E-04
      5     -120.3816125508  -1.5010461E-05   4.6285596E-05
      6     -120.3816127975  -2.4666024E-07   2.0917287E-05
      7     -120.3816128538  -5.6301388E-08   1.1844330E-05
------------------------------------------------------------

 total:                                   0.124 sec
 * total energy  :  -120.3816129 Eh     change       -0.1301116E-05 Eh
   gradient norm :     0.0002648 Eh/α   predicted    -0.5443537E-06 ( -58.16%)
   displ. norm   :     0.0487676 α      lambda       -0.1011779E-05
   maximum displ.:     0.0279227 α      in ANC's #3, #2, #1, ...

........................................................................
.............................. CYCLE   15 ..............................
........................................................................
------------------------------------------------------------
  cycle        total energy    energy error   density error
------------------------------------------------------------
      1     -120.3816067531  -1.2254968E+02   2.8143759E-04
      2     -120.3814544502   1.5230292E-04   1.0946026E-03
      3     -120.3816102718  -1.5582157E-04   1.9604724E-04
      4     -120.3816121073  -1.8355493E-06   1.5162045E-04
      5     -120.3816095302   2.5771515E-06   1.5889333E-04
      6     -120.3816141387  -4.6085459E-06   1.2215862E-05
      7     -120.3816141479  -9.2002637E-09   8.7256931E-06
------------------------------------------------------------

 total:                                   0.116 sec
 * total energy  :  -120.3816141 Eh     change       -0.1294127E-05 Eh
   gradient norm :     0.0002757 Eh/α   predicted    -0.5077315E-06 ( -60.77%)
   displ. norm   :     0.0616606 α      lambda       -0.1331726E-05
   maximum displ.:     0.0353334 α      in ANC's #3, #2, #1, ...

........................................................................
.............................. CYCLE   16 ..............................
........................................................................
------------------------------------------------------------
  cycle        total energy    energy error   density error
------------------------------------------------------------
      1     -120.3816080425  -1.2254973E+02   3.0444637E-04
      2     -120.3814265313   1.8151127E-04   1.1937187E-03
      3     -120.3816114204  -1.8488914E-04   2.0016577E-04
      4     -120.3816075953   3.8251370E-06   2.7308104E-04
      5     -120.3816156051  -8.0098668E-06   3.7741328E-05
      6     -120.3816158063  -2.0119631E-07   1.2354478E-05
------------------------------------------------------------

 total:                                   0.101 sec
 * total energy  :  -120.3816158 Eh     change       -0.1658415E-05 Eh
   gradient norm :     0.0003583 Eh/α   predicted    -0.6678203E-06 ( -59.73%)
   displ. norm   :     0.0774959 α      lambda       -0.1522210E-05
   maximum displ.:     0.0445049 α      in ANC's #3, #2, #1, ...

........................................................................
.............................. CYCLE   17 ..............................
........................................................................
------------------------------------------------------------
  cycle        total energy    energy error   density error
------------------------------------------------------------
      1     -120.3816015356  -1.2254967E+02   3.9889348E-04
      2     -120.3811650044   4.3653124E-04   1.7372594E-03
      3     -120.3816127886  -4.4778419E-04   2.1074819E-04
      4     -120.3816019903   1.0798247E-05   3.7366858E-04
      5     -120.3816174053  -1.5414955E-05   4.0677962E-05
      6     -120.3816175609  -1.5562949E-07   3.1014418E-05
      7     -120.3816176276  -6.6666317E-08   1.5936906E-05
------------------------------------------------------------

 total:                                   0.115 sec
 * total energy  :  -120.3816176 Eh     change       -0.1821255E-05 Eh
   gradient norm :     0.0003887 Eh/α   predicted    -0.7676170E-06 ( -57.85%)
   displ. norm   :     0.0742627 α      lambda       -0.1202857E-05
   maximum displ.:     0.0432337 α      in ANC's #3, #2, #1, ...

........................................................................
.............................. CYCLE   18 ..............................
........................................................................
------------------------------------------------------------
  cycle        total energy    energy error   density error
------------------------------------------------------------
      1     -120.3815932949  -1.2254964E+02   4.6486913E-04
      2     -120.3809013378   6.9195708E-04   2.1483939E-03
      3     -120.3816157763  -7.1443852E-04   1.8384565E-04
      4     -120.3816118039   3.9724596E-06   2.6548792E-04
      5     -120.3816177470  -5.9431760E-06   9.9874057E-05
      6     -120.3816190049  -1.2578627E-06   2.6396572E-05
      7     -120.3816189741   3.0779489E-08   2.4007904E-05
      8     -120.3816190790  -1.0490652E-07   6.2411946E-06
------------------------------------------------------------

 total:                                   0.127 sec
 * total energy  :  -120.3816191 Eh     change       -0.1451453E-05 Eh
   gradient norm :     0.0003197 Eh/α   predicted    -0.6044959E-06 ( -58.35%)
   displ. norm   :     0.0568719 α      lambda       -0.7995209E-06
   maximum displ.:     0.0339105 α      in ANC's #3, #2, #1, ...

........................................................................
.............................. CYCLE   19 ..............................
........................................................................
------------------------------------------------------------
  cycle        total energy    energy error   density error
------------------------------------------------------------
      1     -120.3816127733  -1.2254967E+02   2.8027898E-04
      2     -120.3814459546   1.6681873E-04   1.1535176E-03
      3     -120.3816159278  -1.6997322E-04   1.7373828E-04
      4     -120.3816144656   1.4621598E-06   2.0550048E-04
      5     -120.3816188048  -4.3391094E-06   6.4817924E-05
      6     -120.3816193972  -5.9239321E-07   2.6148801E-05
      7     -120.3816194666  -6.9437178E-08   8.5872828E-06
------------------------------------------------------------

 total:                                   0.112 sec
 * total energy  :  -120.3816195 Eh     change       -0.3875566E-06 Eh
   gradient norm :     0.0001646 Eh/α   predicted    -0.4046985E-06 (   4.42%)
   displ. norm   :     0.0379570 α      lambda       -0.5613069E-06
   maximum displ.:     0.0231972 α      in ANC's #3, #2, #1, ...

........................................................................
.............................. CYCLE   20 ..............................
........................................................................
------------------------------------------------------------
  cycle        total energy    energy error   density error
------------------------------------------------------------
      1     -120.3816145660  -1.2254965E+02   2.4731436E-04
      2     -120.3814811472   1.3341884E-04   1.0540277E-03
      3     -120.3816178351  -1.3668788E-04   1.3933680E-04
      4     -120.3816184513  -6.1625778E-07   1.2520923E-04
      5     -120.3816194884  -1.0370233E-06   7.1351940E-05
      6     -120.3816200473  -5.5893611E-07   3.0856022E-05
      7     -120.3816201803  -1.3304869E-07   1.1155640E-05
------------------------------------------------------------

 total:                                   0.112 sec
 * total energy  :  -120.3816202 Eh     change       -0.7137584E-06 Eh
   gradient norm :     0.0001518 Eh/α   predicted    -0.2819283E-06 ( -60.50%)
   displ. norm   :     0.0462082 α      lambda       -0.7212104E-06
   maximum displ.:     0.0279223 α      in ANC's #3, #2, #1, ...
 * RMSD in coord.:     0.0964689 α      energy gain  -0.1558651E-03 Eh

generating ANC from exact Hessian ...
Using Lindh-Hessian (1995)
 Shifting diagonal of input Hessian by   9.896004816269529E-003
 Lowest  eigenvalues of input Hessian
    0.000000    0.000000    0.000000    0.000000    0.000000    0.000000
    0.010000    0.010057    0.010186    0.010431    0.010540    0.010837
    0.010934    0.011017    0.011163    0.011502    0.011798    0.012325
 Highest eigenvalues
    2.152116    2.192414    2.212149    2.222498    2.274899    2.344899
 

........................................................................
.............................. CYCLE   21 ..............................
........................................................................
------------------------------------------------------------
  cycle        total energy    energy error   density error
------------------------------------------------------------
      1     -120.3816125472  -1.2254964E+02   2.9456735E-04
      2     -120.3814170300   1.9551714E-04   1.2612080E-03
      3     -120.3816187873  -2.0175725E-04   1.5224610E-04
      4     -120.3816189055  -1.1815658E-07   1.4453446E-04
      5     -120.3816192676  -3.6212342E-07   1.0495235E-04
      6     -120.3816209343  -1.6667365E-06   3.5406206E-05
      7     -120.3816211284  -1.9412091E-07   1.1228521E-05
------------------------------------------------------------

 total:                                   0.113 sec
 * total energy  :  -120.3816211 Eh     change       -0.9480849E-06 Eh
   gradient norm :     0.0002265 Eh/α   predicted     0.0000000E+00 (-100.00%)
   displ. norm   :     0.0060774 α      lambda       -0.2317410E-06
   maximum displ.:     0.0028225 α      in ANC's #4, #8, #6, ...

........................................................................
.............................. CYCLE   22 ..............................
........................................................................
------------------------------------------------------------
  cycle        total energy    energy error   density error
------------------------------------------------------------
      1     -120.3816206151  -1.2254969E+02   7.9406001E-05
      2     -120.3816010954   1.9519733E-05   3.8411306E-04
      3     -120.3816211770  -2.0081635E-05   5.3803296E-05
      4     -120.3816214305  -2.5346216E-07   1.8555017E-05
------------------------------------------------------------

 total:                                   0.069 sec
 * total energy  :  -120.3816214 Eh     change       -0.3020486E-06 Eh
   gradient norm :     0.0000829 Eh/α   predicted    -0.1252824E-06 ( -58.52%)
   displ. norm   :     0.0268632 α      lambda       -0.6232584E-06
   maximum displ.:     0.0119991 α      in ANC's #4, #8, #6, ...

........................................................................
.............................. CYCLE   23 ..............................
........................................................................
------------------------------------------------------------
  cycle        total energy    energy error   density error
------------------------------------------------------------
      1     -120.3816074988  -1.2254972E+02   3.6768177E-04
      2     -120.3811431032   4.6439565E-04   1.8905930E-03
      3     -120.3816190792  -4.7597606E-04   1.6610047E-04
      4     -120.3816177355   1.3437010E-06   2.1144446E-04
      5     -120.3816220095  -4.2740213E-06   4.3886069E-05
      6     -120.3816221675  -1.5795675E-07   2.8741306E-05
      7     -120.3816222772  -1.0971416E-07   1.4646745E-05
------------------------------------------------------------

 total:                                   0.118 sec
 * total energy  :  -120.3816223 Eh     change       -0.8467240E-06 Eh
   gradient norm :     0.0002384 Eh/α   predicted    -0.4009378E-06 ( -52.65%)
   displ. norm   :     0.0247738 α      lambda       -0.4379626E-06
   maximum displ.:     0.0116212 α      in ANC's #4, #8, #6, ...

........................................................................
.............................. CYCLE   24 ..............................
........................................................................
------------------------------------------------------------
  cycle        total energy    energy error   density error
------------------------------------------------------------
      1     -120.3816167379  -1.2254970E+02   2.4019294E-04
      2     -120.3814852562   1.3148170E-04   1.0359064E-03
      3     -120.3816216203  -1.3636408E-04   1.1463126E-04
      4     -120.3816205678   1.0525060E-06   1.4580370E-04
      5     -120.3816206236  -5.5777605E-08   1.0748712E-04
      6     -120.3816226085  -1.9848975E-06   3.2704571E-05
      7     -120.3816227738  -1.6538523E-07   8.7075119E-06
------------------------------------------------------------

 total:                                   0.116 sec
 * total energy  :  -120.3816228 Eh     change       -0.4966354E-06 Eh
   gradient norm :     0.0003096 Eh/α   predicted    -0.2212618E-06 ( -55.45%)
   displ. norm   :     0.0210831 α      lambda       -0.3108375E-06
   maximum displ.:     0.0101661 α      in ANC's #4, #8, #3, ...

........................................................................
.............................. CYCLE   25 ..............................
........................................................................
------------------------------------------------------------
  cycle        total energy    energy error   density error
------------------------------------------------------------
      1     -120.3816212587  -1.2254973E+02   1.4998487E-04
      2     -120.3815789121   4.2346593E-05   6.2009575E-04
      3     -120.3816230131  -4.4101076E-05   5.5956498E-05
      4     -120.3816190246   3.9885733E-06   1.7709677E-04
      5     -120.3816229195  -3.8949533E-06   3.8086186E-05
      6     -120.3816231019  -1.8236994E-07   1.8107054E-05
------------------------------------------------------------

 total:                                   0.100 sec
 * total energy  :  -120.3816231 Eh     change       -0.3280536E-06 Eh
   gradient norm :     0.0002630 Eh/α   predicted    -0.1588686E-06 ( -51.57%)
   displ. norm   :     0.0265061 α      lambda       -0.3987118E-06
   maximum displ.:     0.0128340 α      in ANC's #4, #8, #3, ...

........................................................................
.............................. CYCLE   26 ..............................
........................................................................
------------------------------------------------------------
  cycle        total energy    energy error   density error
------------------------------------------------------------
      1     -120.3816170364  -1.2254974E+02   2.0730044E-04
      2     -120.3814719957   1.4504072E-04   9.3790893E-04
      3     -120.3816195820  -1.4758626E-04   1.9527713E-04
      4     -120.3816233227  -3.7407076E-06   6.6925429E-05
      5     -120.3816224886   8.3405337E-07   9.7346486E-05
      6     -120.3816234421  -9.5343323E-07   2.9801340E-05
      7     -120.3816235619  -1.1980005E-07   4.3138328E-06
------------------------------------------------------------

 total:                                   0.114 sec
 * total energy  :  -120.3816236 Eh     change       -0.4599608E-06 Eh
   gradient norm :     0.0001461 Eh/α   predicted    -0.2030110E-06 ( -55.86%)
   displ. norm   :     0.0265061 α      lambda        0.0000000E+00
   maximum displ.:     0.0128340 α      in ANC's #4, #8, #3, ...

........................................................................
.............................. CYCLE   27 ..............................
........................................................................
------------------------------------------------------------
  cycle        total energy    energy error   density error
------------------------------------------------------------
      1     -120.3816228081  -1.2254975E+02   1.2836419E-04
      2     -120.3816045113   1.8296834E-05   3.7158595E-04
      3     -120.3816225835  -1.8072276E-05   1.0607813E-04
      4     -120.3816198669   2.7166379E-06   1.7995516E-04
      5     -120.3816228747  -3.0077899E-06   7.0131958E-05
      6     -120.3816235350  -6.6032302E-07   1.9748926E-05
------------------------------------------------------------

 total:                                   0.100 sec
 * total energy  :  -120.3816235 Eh     change        0.2684556E-07 Eh
   gradient norm :     0.0003944 Eh/α   predicted    -0.4818511E-08 (-117.95%)
   displ. norm   :     0.0046378 α      lambda       -0.2035651E-06
   maximum displ.:     0.0019728 α      in ANC's #10, #9, #14, ...

........................................................................
.............................. CYCLE   28 ..............................
........................................................................
------------------------------------------------------------
  cycle        total energy    energy error   density error
------------------------------------------------------------
      1     -120.3816150600  -1.2254972E+02   2.2614231E-04
      2     -120.3813837548   2.3130521E-04   1.2257112E-03
      3     -120.3816226562  -2.3890139E-04   9.8024141E-05
      4     -120.3816235940  -9.3777571E-07   4.4860720E-05
      5     -120.3816237256  -1.3166205E-07   2.8880602E-05
      6     -120.3816237758  -5.0143626E-08   1.7421529E-05
------------------------------------------------------------

 total:                                   0.101 sec
 * total energy  :  -120.3816238 Eh     change       -0.2407757E-06 Eh
   gradient norm :     0.0002098 Eh/α   predicted    -0.1049660E-06 ( -56.41%)
   displ. norm   :     0.0089490 α      lambda       -0.2181998E-06
   maximum displ.:     0.0038976 α      in ANC's #10, #9, #14, ...

........................................................................
.............................. CYCLE   29 ..............................
........................................................................
------------------------------------------------------------
  cycle        total energy    energy error   density error
------------------------------------------------------------
      1     -120.3816201683  -1.2254969E+02   1.7081371E-04
      2     -120.3815515984   6.8569819E-05   7.6213013E-04
      3     -120.3816231507  -7.1552254E-05   8.9112896E-05
      4     -120.3816239770  -8.2627261E-07   2.7244600E-05
      5     -120.3816237323   2.4461905E-07   4.9332346E-05
      6     -120.3816236696   6.2760392E-08   4.3731275E-05
      7     -120.3816240170  -3.4743771E-07   5.5343938E-06
------------------------------------------------------------

 total:                                   0.114 sec
 * total energy  :  -120.3816240 Eh     change       -0.2412352E-06 Eh
   gradient norm :     0.0001637 Eh/α   predicted    -0.1107084E-06 ( -54.11%)
   displ. norm   :     0.0084084 α      lambda        0.5235734E-07
   maximum displ.:     0.0036560 α      in ANC's #10, #9, #14, ...

........................................................................
.............................. CYCLE   30 ..............................
........................................................................
------------------------------------------------------------
  cycle        total energy    energy error   density error
------------------------------------------------------------
      1     -120.3816226215  -1.2254966E+02   1.1675141E-04
      2     -120.3815933663   2.9255153E-05   5.1191234E-04
      3     -120.3816237235  -3.0357128E-05   5.1351513E-05
      4     -120.3816236960   2.7431454E-08   5.5912673E-05
      5     -120.3816233419   3.5409556E-07   6.0719403E-05
      6     -120.3816239896  -6.4765455E-07   5.6254070E-06
------------------------------------------------------------

 total:                                   0.100 sec
 * total energy  :  -120.3816240 Eh     change        0.2742534E-07 Eh
   gradient norm :     0.0003870 Eh/α   predicted     0.2596901E-07 (  -5.31%)
   displ. norm   :     0.0117763 α      lambda       -0.1771696E-06
   maximum displ.:     0.0056973 α      in ANC's #4, #8, #3, ...

........................................................................
.............................. CYCLE   31 ..............................
........................................................................
------------------------------------------------------------
  cycle        total energy    energy error   density error
------------------------------------------------------------
      1     -120.3816238611  -1.2254970E+02   7.0636632E-05
      2     -120.3816172446   6.6164755E-06   2.4450889E-04
      3     -120.3816240958  -6.8511336E-06   3.8333151E-05
      4     -120.3816236818   4.1394512E-07   6.7097678E-05
      5     -120.3816240090  -3.2717537E-07   3.4204285E-05
      6     -120.3816241393  -1.3028728E-07   1.6524481E-05
------------------------------------------------------------

 total:                                   0.100 sec
 * total energy  :  -120.3816241 Eh     change       -0.1497015E-06 Eh
   gradient norm :     0.0001266 Eh/α   predicted    -0.9136129E-07 ( -38.97%)
   displ. norm   :     0.0169866 α      lambda       -0.1313373E-06
   maximum displ.:     0.0078382 α      in ANC's #2, #4, #3, ...

........................................................................
.............................. CYCLE   32 ..............................
........................................................................
------------------------------------------------------------
  cycle        total energy    energy error   density error
------------------------------------------------------------
      1     -120.3816157198  -1.2254971E+02   2.2026409E-04
      2     -120.3814211211   1.9459876E-04   1.0510913E-03
      3     -120.3816205237  -1.9940261E-04   1.8774525E-04
      4     -120.3816242755  -3.7518178E-06   3.9024257E-05
      5     -120.3816243169  -4.1465640E-08   2.0003980E-05
      6     -120.3816242900   2.6965694E-08   2.5474500E-05
      7     -120.3816243540  -6.4041146E-08   7.5046481E-06
------------------------------------------------------------

 total:                                   0.114 sec
 * total energy  :  -120.3816244 Eh     change       -0.2147250E-06 Eh
   gradient norm :     0.0001291 Eh/α   predicted    -0.6614752E-07 ( -69.19%)
   displ. norm   :     0.0252155 α      lambda       -0.1926753E-06
   maximum displ.:     0.0121854 α      in ANC's #2, #3, #4, ...

........................................................................
.............................. CYCLE   33 ..............................
........................................................................
------------------------------------------------------------
  cycle        total energy    energy error   density error
------------------------------------------------------------
      1     -120.3816233705  -1.2254975E+02   1.2766806E-04
      2     -120.3816065441   1.6826373E-05   3.8168994E-04
      3     -120.3816239481  -1.7404019E-05   8.6358846E-05
      4     -120.3816233630   5.8511576E-07   1.0591732E-04
      5     -120.3816244817  -1.1186567E-06   2.2396585E-05
      6     -120.3816245067  -2.4998897E-08   2.0512126E-05
      7     -120.3816245673  -6.0611242E-08   2.4984657E-06
------------------------------------------------------------

 total:                                   0.114 sec
 * total energy  :  -120.3816246 Eh     change       -0.2132605E-06 Eh
   gradient norm :     0.0001593 Eh/α   predicted    -0.9711761E-07 ( -54.46%)
   displ. norm   :     0.0252155 α      lambda        0.0000000E+00
   maximum displ.:     0.0121854 α      in ANC's #2, #3, #4, ...

........................................................................
.............................. CYCLE   34 ..............................
........................................................................
------------------------------------------------------------
  cycle        total energy    energy error   density error
------------------------------------------------------------
      1     -120.3816241364  -1.2254977E+02   1.0346038E-04
      2     -120.3816176741   6.4623049E-06   1.9425170E-04
      3     -120.3816222790  -4.6048196E-06   1.3188729E-04
      4     -120.3816234796  -1.2006402E-06   1.0687088E-04
      5     -120.3816245878  -1.1082180E-06   1.0250542E-05
      6     -120.3816245909  -3.0500615E-09   9.8029132E-06
------------------------------------------------------------

 total:                                   0.100 sec
 * total energy  :  -120.3816246 Eh     change       -0.2358236E-07 Eh
   gradient norm :     0.0003264 Eh/α   predicted    -0.2719534E-08 ( -88.47%)
   displ. norm   :     0.0027068 α      lambda       -0.8625824E-07
   maximum displ.:     0.0010245 α      in ANC's #2, #10, #9, ...

........................................................................
.............................. CYCLE   35 ..............................
........................................................................
------------------------------------------------------------
  cycle        total energy    energy error   density error
------------------------------------------------------------
      1     -120.3816230952  -1.2254976E+02   1.1794180E-04
      2     -120.3815862157   3.6879546E-05   5.7501102E-04
      3     -120.3816245674  -3.8351785E-05   3.3730425E-05
      4     -120.3816246525  -8.5027708E-08   2.0331050E-05
      5     -120.3816246798  -2.7321718E-08   1.2011480E-05
------------------------------------------------------------

 total:                                   0.085 sec
 * total energy  :  -120.3816247 Eh     change       -0.8893034E-07 Eh
   gradient norm :     0.0002019 Eh/α   predicted    -0.4599640E-07 ( -48.28%)
   displ. norm   :     0.0076774 α      lambda       -0.1592617E-06
   maximum displ.:     0.0028698 α      in ANC's #10, #2, #1, ...

........................................................................
.............................. CYCLE   36 ..............................
........................................................................
------------------------------------------------------------
  cycle        total energy    energy error   density error
------------------------------------------------------------
      1     -120.3816234193  -1.2254970E+02   9.3023958E-05
      2     -120.3815852885   3.8130835E-05   4.9063376E-04
      3     -120.3816245960  -3.9307550E-05   4.3093793E-05
      4     -120.3816247549  -1.5891581E-07   2.0826601E-05
      5     -120.3816247267   2.8268147E-08   2.4855720E-05
      6     -120.3816247924  -6.5735605E-08   6.9958943E-06
------------------------------------------------------------

 total:                                   0.101 sec
 * total energy  :  -120.3816248 Eh     change       -0.1126072E-06 Eh
   gradient norm :     0.0001710 Eh/α   predicted    -0.8125425E-07 ( -27.84%)
   displ. norm   :     0.0048765 α      lambda       -0.4593886E-07
   maximum displ.:     0.0020280 α      in ANC's #2, #10, #1, ...

........................................................................
.............................. CYCLE   37 ..............................
........................................................................
------------------------------------------------------------
  cycle        total energy    energy error   density error
------------------------------------------------------------
      1     -120.3816241549  -1.2254972E+02   8.0498555E-05
      2     -120.3816095181   1.4636811E-05   3.7252259E-04
      3     -120.3816248152  -1.5297134E-05   1.8899925E-05
      4     -120.3816248354  -2.0165558E-08   1.4874413E-05
------------------------------------------------------------

 total:                                   0.071 sec
 * total energy  :  -120.3816248 Eh     change       -0.4298805E-07 Eh
   gradient norm :     0.0001423 Eh/α   predicted    -0.2450811E-07 ( -42.99%)
   displ. norm   :     0.0138043 α      lambda       -0.1337779E-06
   maximum displ.:     0.0061333 α      in ANC's #2, #1, #10, ...

   *** GEOMETRY OPTIMIZATION CONVERGED AFTER 37 ITERATIONS ***

------------------------------------------------------------------------
 total energy gain   :        -0.0001605 Eh       -0.1007 kcal/mol
 total RMSD          :         0.1062827 a0        0.0562 Å
 total power (kW/mol):        -0.0113904 (step)   -0.1004 (real)
------------------------------------------------------------------------

 ANCopt (total)                0 d,  0 h,  0 min,  4.198 sec
 optimizer setup                ...        0 min,  0.000 sec (  0.007%)
 model hessian                  ...        0 min,  0.081 sec (  1.923%)
 ANC generation                 ...        0 min,  0.014 sec (  0.325%)
 coordinate transformation      ...        0 min,  0.004 sec (  0.084%)
 single point calculation       ...        0 min,  4.079 sec ( 97.165%)
 optimization log               ...        0 min,  0.008 sec (  0.181%)
 hessian update                 ...        0 min,  0.004 sec (  0.106%)
 rational function              ...        0 min,  0.005 sec (  0.113%)

================
 final structure:
================
78
 xtb: 6.7.1 (edcfbbe)
C            1.62912287901058        4.20208173514090        1.14384995080333
C            0.58466581762256        3.11619474739650        0.88253467567273
C           -0.03629503168431        2.70726163059413        2.23556150105438
C           -0.53976790106995        3.59571281416024       -0.01720828975464
C           -0.81085903694958        4.93010068544358       -0.27810631482568
C           -1.90288305341911        5.30008354748802       -1.04499746286656
C           -2.74113300760027        4.33452473478990       -1.57256962565567
C           -2.47996452612996        2.99710271575436       -1.34368940408315
C           -1.39112227125723        2.62983148001471       -0.56412072217681
N           -1.06958832218215        1.27794660448298       -0.35903776540268
C           -2.00006866413085        0.30124364104594       -0.13246086292568
N           -3.28045515429503        0.58429238626880       -0.19621995867192
C           -4.16115357211809       -0.42747406024766        0.11970910089361
C           -5.56374272887476       -0.13388970619481        0.13411687657220
C           -6.02348199001067        1.16790190528822       -0.11780050048793
C           -7.37318999490975        1.44267876286409       -0.10652862742448
C           -8.29430627696837        0.43722838005883        0.15401160839913
C           -7.84901508346320       -0.85390284697640        0.40869764566029
C           -6.50297582905882       -1.14198640272349        0.40094095877453
N           -3.72528892480607       -1.64872274474491        0.37996744313831
C           -2.43243778460981       -1.91489057959371        0.38547893225787
C           -1.93666790549258       -3.24371106386720        0.57830780240928
C           -2.81851581044614       -4.32555252007944        0.72464069950403
C           -2.33046925870852       -5.60328075422348        0.87952939450258
C           -0.96076336877922       -5.83865881034387        0.88884802387222
C           -0.07944352720375       -4.77483847740666        0.75009360289760
C           -0.55444310720853       -3.49072465986943        0.60098052027399
N           -1.53257872414366       -0.89202118176453        0.20289545486266
C            0.29314632421908        0.95270850406743       -0.33288552989193
C            0.73459544641596       -0.24463816066298       -0.88474282150805
C            2.07663580945067       -0.56493050393653       -0.78047497646603
C            2.84904521567890       -1.71927190136221       -1.14435540704439
C            2.52666736594958       -2.94028564665715       -1.72035662996696
C            3.54099457251640       -3.85190245232643       -1.93851278079451
C            4.86012748914217       -3.55190667089256       -1.60489953610999
C            5.20285482500243       -2.34543406498179       -1.02399444290676
C            4.18459409504428       -1.43636456995346       -0.77515660234502
N            4.24599823200223       -0.17297894733430       -0.21687800656387
C            5.40422934595050        0.46226158623687        0.25450013988505
C            5.70984720236899        1.75442100623208       -0.16327797288326
C            6.84889202749686        2.38012950909734        0.30837545451686
C            7.69331393022655        1.72325732153456        1.18812610494576
C            7.39209183814281        0.43595389473443        1.60122956038279
C            6.25029488987309       -0.19481553432382        1.14298891318632
C            2.97628260975384        0.35998135388119       -0.20673213181605
C            2.53384459400059        1.57377106241761        0.30532577733980
C            1.18465552389231        1.87235793590114        0.25343137135662
H            2.39153954354288        3.83747922405242        1.82722452958471
H            1.16427739961534        5.06263732362874        1.61711738788898
H            2.10293451420850        4.51844936751722        0.21720339506927
H           -0.51401474059559        3.56778194205235        2.69904669089768
H           -0.78348562180948        1.92854214205021        2.10705955400155
H            0.73806873631174        2.33250886627596        2.90168984448624
H           -0.17516364892891        5.70337590992481        0.12121338607566
H           -2.09760265578584        6.34635268426501       -1.22676772470034
H           -3.59160976704910        4.61914053956954       -2.17315823866043
H           -3.11323280373800        2.23355200488873       -1.76392857255222
H           -5.30005447131980        1.94523904888690       -0.31207462344262
H           -7.71751641416756        2.44884507518185       -0.30089868157556
H           -9.35158763350400        0.65770600433071        0.16061055039904
H           -8.56497937914851       -1.63718128877316        0.61410598542491
H           -6.14664975051374       -2.14149121087558        0.59763043831697
H           -3.88011368506922       -4.13206805264461        0.70859593985745
H           -3.01680165030866       -6.43076770104331        0.99098089795377
H           -0.58425436142652       -6.84419719661450        1.00537364970105
H            0.98717583670745       -4.95255610802461        0.75873698736816
H            0.12601757842792       -2.65830081074994        0.50451968845527
H            0.05202612695730       -0.90691149978399       -1.38960838252272
H            1.50592495299706       -3.16828170029792       -1.98596503824213
H            3.31370434753888       -4.80964640738693       -2.38171621988716
H            5.63344076726625       -4.27871886496097       -1.80440134008993
H            6.22977406266653       -2.11834287154418       -0.78098497675982
H            5.06162236174071        2.25305918466354       -0.86841257950837
H            7.08236712845069        3.38212650426308       -0.01949027925251
H            8.58401769161135        2.21328101869368        1.55069550511589
H            8.04537692541835       -0.07763649714113        2.29065535387715
H            5.99911890216913       -1.18889495244655        1.48100066192441
H            3.23801766479763        2.24578164672428        0.76647828910775
 
 Bond Distances (Angstroems)
 ---------------------------
C1-C2=1.5292         C1-H48=1.0868        C1-H49=1.0866        C1-H50=1.0878        C2-C1=1.5292         C2-C3=1.5439         
C2-C4=1.5178         C2-C47=1.5175        C3-C2=1.5439         C3-H51=1.0879        C3-H52=1.0868        C3-H53=1.0880        
C4-C2=1.5178         C4-C5=1.3864         C4-C9=1.3989         C5-C4=1.3864         C5-C6=1.3847         C5-H54=1.0777        
C6-C5=1.3847         C6-C7=1.3832         C6-H55=1.0796        C7-C6=1.3832         C7-C8=1.3818         C7-H56=1.0794        
C8-C7=1.3818         C8-C9=1.3886         C8-H57=1.0773        C9-C4=1.3989         C9-C8=1.3886         C9-N10=1.4046        
N10-C9=1.4046        N10-C11=1.3679       N10-C29=1.4013       C11-N10=1.3679       C11-N12=1.3128       C11-N28=1.3247       
N12-C11=1.3128       N12-C13=1.3781       C13-N12=1.3781       C13-C14=1.4331       C13-N20=1.3226       C14-C13=1.4331       
C14-C15=1.4034       C14-C19=1.4034       C15-C14=1.4034       C15-C16=1.3774       C15-H58=1.0795       C16-C15=1.3774       
C16-C17=1.3883       C16-H59=1.0811       C17-C16=1.3883       C17-C18=1.3893       C17-H60=1.0800       C18-C17=1.3893       
C18-C19=1.3765       C18-H61=1.0809       C19-C14=1.4034       C19-C18=1.3765       C19-H62=1.0792       N20-C13=1.3226       
N20-C21=1.3200       C21-N20=1.3200       C21-C22=1.4313       C21-N28=1.3745       C22-C21=1.4313       C22-C23=1.4034       
C22-C27=1.4043       C23-C22=1.4034       C23-C24=1.3765       C23-H63=1.0792       C24-C23=1.3765       C24-C25=1.3898       
C24-H64=1.0808       C25-C24=1.3898       C25-C26=1.3884       C25-H65=1.0800       C26-C25=1.3884       C26-C27=1.3772       
C26-H66=1.0814       C27-C22=1.4043       C27-C26=1.3772       C27-H67=1.0795       N28-C11=1.3247       N28-C21=1.3745       
C29-N10=1.4013       C29-C30=1.3903       C29-C47=1.4087       C30-C29=1.3903       C30-C31=1.3837       C30-H68=1.0768       
C31-C30=1.3837       C31-C32=1.4358       C31-C45=1.4121       C32-C31=1.4358       C32-C33=1.3880       C32-C37=1.4142       
C33-C32=1.3880       C33-C34=1.3811       C33-H69=1.0791       C34-C33=1.3811       C34-C35=1.3933       C34-H70=1.0795       
C35-C34=1.3933       C35-C36=1.3822       C35-H71=1.0798       C36-C35=1.3822       C36-C37=1.3875       C36-H72=1.0794       
C37-C32=1.4142       C37-C36=1.3875       C37-N38=1.3826       N38-C37=1.3826       N38-C39=1.4026       N38-C45=1.3771       
C39-N38=1.4026       C39-C40=1.3920       C39-C44=1.3918       C40-C39=1.3920       C40-C41=1.3825       C40-H73=1.0798       
C41-C40=1.3825       C41-C42=1.3851       C41-H74=1.0798       C42-C41=1.3851       C42-C43=1.3851       C42-H75=1.0793       
C43-C42=1.3851       C43-C44=1.3826       C43-H76=1.0798       C44-C39=1.3918       C44-C43=1.3826       C44-H77=1.0796       
C45-C31=1.4121       C45-N38=1.3771       C45-C46=1.3897       C46-C45=1.3897       C46-C47=1.3828       C46-H78=1.0771       
C47-C2=1.5175        C47-C29=1.4087       C47-C46=1.3828       H48-C1=1.0868        H49-C1=1.0866        H50-C1=1.0878        
H51-C3=1.0879        H52-C3=1.0868        H53-C3=1.0880        H54-C5=1.0777        H55-C6=1.0796        H56-C7=1.0794        
H57-C8=1.0773        H58-C15=1.0795       H59-C16=1.0811       H60-C17=1.0800       H61-C18=1.0809       H62-C19=1.0792       
H63-C23=1.0792       H64-C24=1.0808       H65-C25=1.0800       H66-C26=1.0814       H67-C27=1.0795       H68-C30=1.0768       
H69-C33=1.0791       H70-C34=1.0795       H71-C35=1.0798       H72-C36=1.0794       H73-C40=1.0798       H74-C41=1.0798       
H75-C42=1.0793       H76-C43=1.0798       H77-C44=1.0796       H78-C46=1.0771       
 C  H  Rav=1.0810 sigma=0.0033  Rmin=1.0768  Rmax=1.0880    31
 C  C  Rav=1.4057 sigma=0.0416  Rmin=1.3765  Rmax=1.5439    43
 N  C  Rav=1.3641 sigma=0.0331  Rmin=1.3128  Rmax=1.4046    12
 
 selected bond angles (degree)
 --------------------
H48-C1-C2=110.39               H49-C1-C2=110.16               H49-C1-H48=106.97              H50-C1-C2=111.01               
H50-C1-H48=109.13              H50-C1-H49=109.09              C3-C2-C1=108.24                C4-C2-C1=112.52                
C4-C2-C3=107.77                C47-C2-C1=112.51               C47-C2-C3=107.77               C47-C2-C4=107.82               
H51-C3-C2=109.91               H52-C3-C2=111.27               H52-C3-H51=108.37              H53-C3-C2=109.97               
H53-C3-H51=108.91              H53-C3-H52=108.35              C5-C4-C2=124.09                C9-C4-C2=117.68                
C9-C4-C5=118.16                C6-C5-C4=121.04                H54-C5-C4=120.37               H54-C5-C6=118.60               
C7-C6-C5=120.17                H55-C6-C5=119.63               H55-C6-C7=120.20               C8-C7-C6=119.86                
H56-C7-C6=120.38               H56-C7-C8=119.76               C9-C8-C7=119.82                H57-C8-C7=120.68               
H57-C8-C9=119.50               C8-C9-C4=120.94                N10-C9-C4=117.91               N10-C9-C8=121.07               
C11-N10-C9=123.76              C29-N10-C9=116.66              C29-N10-C11=119.52             
 
 selected dihedral angles (degree)
 ---------------------------------
C3-C2-C1-H48= 58.37           C3-C2-C1-H49=300.46           C3-C2-C1-H50=179.51           C4-C2-C1-H48=177.36           
C4-C2-C1-H49= 59.44           C4-C2-C1-H50=298.50           C47-C2-C1-H48=299.39          C47-C2-C1-H49=181.48          
C47-C2-C1-H50= 60.54          H51-C3-C2-C1= 60.39           H51-C3-C2-C4=298.45           H51-C3-C2-C47=182.33          
H52-C3-C2-C1=180.44           H52-C3-C2-C4= 58.50           H52-C3-C2-C47=302.37          H53-C3-C2-C1=300.50           
H53-C3-C2-C4=178.56           H53-C3-C2-C47= 62.44          C5-C4-C2-C1=343.20            C5-C4-C2-C3=102.46            
C5-C4-C2-C47=218.55           C9-C4-C2-C1=166.34            C9-C4-C2-C3=285.60            C9-C4-C2-C47= 41.69           
C6-C5-C4-C2=183.93            C6-C5-C4-C9=  0.78            H54-C5-C4-C2=  3.47           H54-C5-C4-C9=180.32           
C7-C6-C5-C4=359.61            C7-C6-C5-H54=180.06           H55-C6-C5-C4=179.47           H55-C6-C5-H54=359.92          
C8-C7-C6-C5=359.39            C8-C7-C6-H55=179.53           H56-C7-C6-C5=180.18           H56-C7-C6-H55=  0.32          
C9-C8-C7-C6=  1.20            C9-C8-C7-H56=180.41           H57-C8-C7-C6=181.18           H57-C8-C7-H56=  0.39          
C8-C9-C4-C2=176.87            C8-C9-C4-C5=359.82            N10-C9-C4-C2=353.57           N10-C9-C4-C5=176.52           
C4-C9-C8-C7=359.20            C4-C9-C8-H57=179.22           N10-C9-C8-C7=182.60           N10-C9-C8-H57=  2.62          
C11-N10-C9-C4=142.41          C11-N10-C9-C8=319.10          C29-N10-C9-C4=325.27          C29-N10-C9-C8=141.96          
           -------------------------------------------------
          |                Final Singlepoint                |
           -------------------------------------------------
repulsion energy          2.1676903892870E+00 Eh
dispersion energy         4.0689975989593E-04 Eh
interaction energy        0.0000000000000E+00 Eh
number of electrons       2.2400000000000E+02 e
integral cutoff           1.7347787504999E+01 bohr

------------------------------------------------------------
  cycle        total energy    energy error   density error
------------------------------------------------------------
      1     -120.3816225417  -1.2254972E+02   1.3391261E-04
      2     -120.3815926661   2.9875597E-05   5.1088576E-04
      3     -120.3816237294  -3.1063269E-05   9.5405550E-05
      4     -120.3816248542  -1.1247895E-06   5.0105612E-06
      5     -120.3816248423   1.1876210E-08   1.0257500E-05
------------------------------------------------------------

electronic energy        -1.2254972213135E+02 Eh
total energy             -1.2038162484230E+02 Eh

 total:                                   0.085 sec
 - repulsion                              0.000 sec (  0%)
 - dispersion                             0.002 sec (  2%)
 - coulomb                                0.004 sec (  4%)
 - hamiltonian                            0.008 sec (  9%)
 - scc                                    0.071 sec ( 83%)

           ------------------------------------------------- 
          |                Numerical Hessian                |
           ------------------------------------------------- 
step length          :   0.00500
SCC accuracy         :   0.30000
Hessian scale factor :   1.00000
frozen atoms in %    :   0.00000    0
RMS gradient         :   0.00011
estimated CPU  time     44.47 min
estimated wall time      1.11 min

writing file <hessian>.

 projected vibrational frequencies (cm⁻¹)
eigval :       -0.00    -0.00    -0.00     0.00     0.00     0.00
eigval :       12.38    13.67    18.71    35.08    39.41    43.52
eigval :       49.56    50.52    55.43    64.37    67.21    78.08
eigval :       86.80    95.76   111.08   113.38   133.40   151.62
eigval :      154.16   176.65   186.12   196.12   198.02   208.76
eigval :      222.57   224.41   229.24   249.64   257.63   265.31
eigval :      272.47   292.40   309.50   315.65   337.48   356.65
eigval :      370.73   372.97   373.60   377.56   381.35   384.26
eigval :      389.53   396.14   413.12   422.64   429.44   442.32
eigval :      444.65   476.69   479.01   503.34   509.99   524.58
eigval :      536.83   546.16   547.28   555.65   565.11   579.57
eigval :      581.41   586.92   587.29   590.62   593.75   618.20
eigval :      625.27   633.02   641.61   650.20   651.34   653.24
eigval :      665.54   673.17   685.03   705.62   711.95   722.51
eigval :      740.08   749.11   749.87   764.11   776.73   776.81
eigval :      792.43   806.00   824.44   841.19   852.38   860.55
eigval :      864.32   871.64   871.91   880.48   881.94   884.63
eigval :      904.04   908.40   909.34   912.97   920.53   921.39
eigval :      921.65   923.40   924.39   925.09   926.92   930.21
eigval :      933.84   934.75   938.98   964.27   968.64   972.43
eigval :      993.60  1001.37  1007.74  1020.09  1070.32  1071.12
eigval :     1072.19  1075.25  1079.67  1081.81  1101.08  1109.39
eigval :     1110.62  1113.57  1117.99  1124.39  1129.74  1133.89
eigval :     1149.27  1165.24  1175.13  1178.44  1179.40  1179.82
eigval :     1181.03  1183.77  1189.75  1194.99  1200.72  1207.02
eigval :     1222.80  1228.32  1245.12  1259.95  1262.95  1270.07
eigval :     1271.59  1273.34  1279.29  1285.29  1301.36  1315.59
eigval :     1317.56  1324.99  1332.37  1334.17  1338.92  1351.88
eigval :     1358.01  1365.44  1372.61  1390.21  1398.46  1401.41
eigval :     1414.87  1424.44  1432.76  1434.49  1435.78  1436.10
eigval :     1442.36  1454.24  1462.34  1466.26  1480.71  1485.12
eigval :     1487.19  1490.24  1492.41  1504.06  1528.47  1547.50
eigval :     1548.29  1549.86  1579.25  1579.67  1580.59  1581.47
eigval :     1583.86  1588.66  1593.71  1594.81  1608.27  3028.19
eigval :     3030.59  3034.67  3034.90  3050.22  3052.61  3063.50
eigval :     3065.69  3069.13  3069.53  3081.29  3082.18  3083.75
eigval :     3084.26  3084.83  3085.16  3088.01  3092.61  3093.39
eigval :     3094.68  3094.89  3095.70  3096.78  3097.25  3097.88
eigval :     3101.46  3101.98  3113.26  3117.84  3118.24  3119.47
           -------------------------------------------------
          |                Property Printout                |
           -------------------------------------------------
           -------------------------------------------------
          |                Geometry Summary                 |
           -------------------------------------------------

      molecular mass/u    :      605.7305871
   center of mass at/Å    :        0.0012449      -0.0015779       0.0006286
  moments of inertia/u·Å² :        0.5094660E+04   0.1076185E+05   0.1484229E+05
rotational constants/cm⁻¹ :        0.3308882E-02   0.1566425E-02   0.1135784E-02

 * 83 selected distances

     #   Z          #   Z                                           value/Å
     1   6 C        2   6 C                                       1.5291590 (max)
     4   6 C        5   6 C                                       1.3864161
     5   6 C        6   6 C                                       1.3847477
     6   6 C        7   6 C                                       1.3832207
     7   6 C        8   6 C                                       1.3817717
     4   6 C        9   6 C                                       1.3988726
     8   6 C        9   6 C                                       1.3885940
     9   6 C       10   7 N                                       1.4046481
    10   7 N       11   6 C                                       1.3678742
    11   6 C       12   7 N                                       1.3128487
    12   7 N       13   6 C                                       1.3780829
    13   6 C       14   6 C                                       1.4330583
    14   6 C       15   6 C                                       1.4033832
    15   6 C       16   6 C                                       1.3774402
    16   6 C       17   6 C                                       1.3882605
    17   6 C       18   6 C                                       1.3893054
    14   6 C       19   6 C                                       1.4034291
    18   6 C       19   6 C                                       1.3765443
    13   6 C       20   7 N                                       1.3225585
    20   7 N       21   6 C                                       1.3199773
    21   6 C       22   6 C                                       1.4313403
    22   6 C       23   6 C                                       1.4033711
    23   6 C       24   6 C                                       1.3765064
    24   6 C       25   6 C                                       1.3898145
    25   6 C       26   6 C                                       1.3884133
    22   6 C       27   6 C                                       1.4043061
    26   6 C       27   6 C                                       1.3772465
    11   6 C       28   7 N                                       1.3247234
    21   6 C       28   7 N                                       1.3745345
    10   7 N       29   6 C                                       1.4012530
    29   6 C       30   6 C                                       1.3903464
    30   6 C       31   6 C                                       1.3836660
    31   6 C       32   6 C                                       1.4358028
    32   6 C       33   6 C                                       1.3880129
    33   6 C       34   6 C                                       1.3811218
    34   6 C       35   6 C                                       1.3933439
    35   6 C       36   6 C                                       1.3822045
    32   6 C       37   6 C                                       1.4142261
    36   6 C       37   6 C                                       1.3875096
    37   6 C       38   7 N                                       1.3826023
    38   7 N       39   6 C                                       1.4025789
    39   6 C       40   6 C                                       1.3919832
    40   6 C       41   6 C                                       1.3825309
    41   6 C       42   6 C                                       1.3850960
    42   6 C       43   6 C                                       1.3851136
    39   6 C       44   6 C                                       1.3917578
    43   6 C       44   6 C                                       1.3825900
    31   6 C       45   6 C                                       1.4120933
    38   7 N       45   6 C                                       1.3770722
    45   6 C       46   6 C                                       1.3896908
    29   6 C       47   6 C                                       1.4086560
    46   6 C       47   6 C                                       1.3828082
     1   6 C       48   1 H                                       1.0868372
     1   6 C       49   1 H                                       1.0865632
     1   6 C       50   1 H                                       1.0877776
     3   6 C       51   1 H                                       1.0879017
     3   6 C       52   1 H                                       1.0868352
     3   6 C       53   1 H                                       1.0880285
     5   6 C       54   1 H                                       1.0777382
     6   6 C       55   1 H                                       1.0796460
     7   6 C       56   1 H                                       1.0793627
     8   6 C       57   1 H                                       1.0773298
    15   6 C       58   1 H                                       1.0795106
    16   6 C       59   1 H                                       1.0810695
    17   6 C       60   1 H                                       1.0800454
    18   6 C       61   1 H                                       1.0808898
    19   6 C       62   1 H                                       1.0791965
    23   6 C       63   1 H                                       1.0792052
    24   6 C       64   1 H                                       1.0808369
    25   6 C       65   1 H                                       1.0800208
    26   6 C       66   1 H                                       1.0813581
    27   6 C       67   1 H                                       1.0794726
    30   6 C       68   1 H                                       1.0767527 (min)
    33   6 C       69   1 H                                       1.0790947
    34   6 C       70   1 H                                       1.0795202
    35   6 C       71   1 H                                       1.0798475
    36   6 C       72   1 H                                       1.0794384
    40   6 C       73   1 H                                       1.0798382
    41   6 C       74   1 H                                       1.0798170
    42   6 C       75   1 H                                       1.0793207
    43   6 C       76   1 H                                       1.0797521
    44   6 C       77   1 H                                       1.0795997
    46   6 C       78   1 H                                       1.0770886

 * 3 distinct bonds (by element types)

   Z      Z             #   av. dist./Å        max./Å        min./Å
   1 H    6 C          31     1.0809579     1.0880285     1.0767527
   6 C    6 C          40     1.3965939     1.5291590     1.3765064
   6 C    7 N          12     1.3640628     1.4046481     1.3128487

           -------------------------------------------------
          |               Frequency Printout                |
           -------------------------------------------------
 projected vibrational frequencies (cm⁻¹)
eigval :       -0.00    -0.00    -0.00     0.00     0.00     0.00
eigval :       12.38    13.67    18.71    35.08    39.41    43.52
eigval :       49.56    50.52    55.43    64.37    67.21    78.08
eigval :       86.80    95.76   111.08   113.38   133.40   151.62
eigval :      154.16   176.65   186.12   196.12   198.02   208.76
eigval :      222.57   224.41   229.24   249.64   257.63   265.31
eigval :      272.47   292.40   309.50   315.65   337.48   356.65
eigval :      370.73   372.97   373.60   377.56   381.35   384.26
eigval :      389.53   396.14   413.12   422.64   429.44   442.32
eigval :      444.65   476.69   479.01   503.34   509.99   524.58
eigval :      536.83   546.16   547.28   555.65   565.11   579.57
eigval :      581.41   586.92   587.29   590.62   593.75   618.20
eigval :      625.27   633.02   641.61   650.20   651.34   653.24
eigval :      665.54   673.17   685.03   705.62   711.95   722.51
eigval :      740.08   749.11   749.87   764.11   776.73   776.81
eigval :      792.43   806.00   824.44   841.19   852.38   860.55
eigval :      864.32   871.64   871.91   880.48   881.94   884.63
eigval :      904.04   908.40   909.34   912.97   920.53   921.39
eigval :      921.65   923.40   924.39   925.09   926.92   930.21
eigval :      933.84   934.75   938.98   964.27   968.64   972.43
eigval :      993.60  1001.37  1007.74  1020.09  1070.32  1071.12
eigval :     1072.19  1075.25  1079.67  1081.81  1101.08  1109.39
eigval :     1110.62  1113.57  1117.99  1124.39  1129.74  1133.89
eigval :     1149.27  1165.24  1175.13  1178.44  1179.40  1179.82
eigval :     1181.03  1183.77  1189.75  1194.99  1200.72  1207.02
eigval :     1222.80  1228.32  1245.12  1259.95  1262.95  1270.07
eigval :     1271.59  1273.34  1279.29  1285.29  1301.36  1315.59
eigval :     1317.56  1324.99  1332.37  1334.17  1338.92  1351.88
eigval :     1358.01  1365.44  1372.61  1390.21  1398.46  1401.41
eigval :     1414.87  1424.44  1432.76  1434.49  1435.78  1436.10
eigval :     1442.36  1454.24  1462.34  1466.26  1480.71  1485.12
eigval :     1487.19  1490.24  1492.41  1504.06  1528.47  1547.50
eigval :     1548.29  1549.86  1579.25  1579.67  1580.59  1581.47
eigval :     1583.86  1588.66  1593.71  1594.81  1608.27  3028.19
eigval :     3030.59  3034.67  3034.90  3050.22  3052.61  3063.50
eigval :     3065.69  3069.13  3069.53  3081.29  3082.18  3083.75
eigval :     3084.26  3084.83  3085.16  3088.01  3092.61  3093.39
eigval :     3094.68  3094.89  3095.70  3096.78  3097.25  3097.88
eigval :     3101.46  3101.98  3113.26  3117.84  3118.24  3119.47
 reduced masses (amu)
   1: 11.27   2: 11.57   3: 11.58   4: 11.55   5: 11.12   6: 11.53   7: 11.10   8: 11.09
   9: 10.90  10: 11.01  11: 10.36  12: 10.10  13: 10.66  14: 10.42  15: 10.70  16: 10.39
  17: 10.10  18: 11.12  19: 10.90  20: 11.56  21: 10.79  22:  9.95  23: 10.45  24: 11.99
  25:  9.87  26: 11.47  27: 11.30  28:  7.26  29:  5.94  30: 10.50  31: 10.95  32: 10.81
  33: 10.80  34: 10.08  35: 10.77  36:  9.65  37:  9.76  38:  9.56  39:  9.96  40: 10.36
  41:  9.06  42:  9.55  43:  8.99  44:  9.20  45: 10.65  46:  9.72  47:  9.06  48: 10.40
  49: 10.35  50: 10.45  51: 11.14  52: 10.69  53:  9.54  54: 10.17  55: 10.36  56: 10.97
  57: 10.40  58: 11.07  59: 11.43  60: 10.58  61: 10.74  62: 10.73  63: 11.77  64: 11.10
  65: 11.05  66: 11.32  67: 11.21  68: 11.24  69: 11.24  70: 11.52  71: 11.79  72: 11.66
  73: 11.06  74: 12.18  75: 11.50  76:  9.45  77: 10.20  78: 10.90  79: 10.86  80: 10.18
  81: 11.59  82: 11.64  83: 11.24  84: 11.49  85: 10.96  86:  4.56  87:  4.41  88:  4.64
  89:  3.58  90:  3.67  91: 10.56  92: 11.31  93:  8.81  94:  5.90  95:  3.28  96:  3.38
  97:  3.35  98:  3.39  99:  3.40 100:  3.90 101:  3.94 102:  3.28 103:  3.93 104:  4.81
 105:  3.93 106: 10.22 107:  3.39 108:  3.24 109:  3.49 110:  3.30 111:  3.68 112:  3.67
 113: 10.79 114: 11.26 115:  3.57 116:  4.28 117:  8.06 118:  6.26 119: 11.03 120: 11.29
 121: 10.38 122: 10.73 123:  5.08 124:  8.67 125:  7.18 126:  8.08 127:  7.25 128:  6.63
 129:  7.26 130:  7.65 131:  9.43 132:  6.99 133:  4.53 134:  5.81 135:  3.94 136:  7.54
 137:  8.63 138:  8.12 139:  6.94 140:  7.87 141:  4.93 142:  2.25 143:  1.46 144:  1.42
 145:  1.43 146:  2.12 147:  2.41 148:  2.92 149:  4.07 150:  7.08 151:  5.10 152:  6.09
 153:  8.14 154:  6.85 155:  7.35 156:  6.05 157:  6.01 158:  4.24 159:  5.49 160:  9.47
 161: 10.39 162: 10.86 163: 11.83 164: 11.83 165: 11.38 166: 11.70 167: 11.48 168: 11.72
 169: 11.58 170: 12.00 171: 11.22 172: 11.39 173:  3.62 174:  9.82 175:  3.28 176:  9.78
 177:  9.14 178:  9.49 179:  9.50 180:  9.84 181:  9.65 182:  9.10 183: 10.86 184:  9.76
 185: 10.07 186: 10.58 187:  9.74 188:  2.29 189:  2.26 190:  1.81 191:  1.68 192: 11.35
 193: 11.86 194: 11.36 195: 11.50 196: 11.55 197: 11.59 198: 11.54 199: 11.46 200: 11.67
 201: 11.49 202: 11.61 203: 11.72 204:  1.90 205:  1.78 206:  1.81 207:  1.81 208:  1.50
 209:  1.50 210:  1.77 211:  1.76 212:  1.80 213:  1.79 214:  1.76 215:  1.75 216:  1.77
 217:  1.79 218:  1.86 219:  1.86 220:  1.80 221:  1.84 222:  1.86 223:  1.87 224:  1.86
 225:  1.85 226:  1.87 227:  1.87 228:  1.86 229:  1.91 230:  1.92 231:  1.85 232:  1.83
 233:  1.83 234:  1.85
 IR intensities (km·mol⁻¹)
   1:  0.16   2:  0.14   3:  0.40   4:  0.33   5:  0.01   6:  0.11   7:  0.13   8:  0.02
   9:  0.23  10:  0.45  11:  0.01  12:  0.76  13:  0.30  14:  0.31  15:  0.11  16:  0.20
  17:  0.48  18:  0.37  19:  1.54  20:  3.27  21:  0.97  22:  0.27  23:  2.11  24:  0.73
  25:  0.11  26:  1.28  27:  5.67  28:  0.86  29:  0.32  30:  0.25  31:  1.05  32:  1.05
  33:  0.08  34:  1.40  35:  5.62  36:  1.42  37:  0.36  38:  1.32  39:  2.06  40:  0.07
  41:  9.40  42:  3.27  43:  0.10  44:  1.30  45:  8.84  46:  3.05  47:  1.12  48:  2.22
  49:  1.75  50:  3.98  51:  0.46  52:  9.49  53:  1.09  54:  1.35  55:  2.44  56:  6.60
  57:  1.48  58:  0.20  59:  9.86  60:  0.60  61:  1.04  62:  1.90  63:  7.29  64:  4.39
  65:  3.65  66: 18.42  67:  0.13  68:  1.03  69:  1.08  70:  7.16  71:  7.06  72:  0.65
  73: 27.24  74: 44.94  75: 18.43  76:  1.42  77: 20.37  78: 21.47  79:  0.89  80:  9.88
  81:  2.87  82:  2.54  83:  4.73  84:  5.33  85:  5.85  86:  3.95  87: 31.16  88: 27.93
  89:  1.87  90: 47.84  91:  8.70  92:  4.60  93: 23.73  94: 27.78  95: 56.95  96:  7.48
  97:  6.01  98:  3.59  99:  1.80 100:  3.20 101: 11.62 102:  7.75 103:  0.48 104:  3.09
 105:  1.10 106: 24.12 107:  1.91 108:  0.77 109:  0.20 110:  2.19 111:  6.49 112: 13.45
 113: 87.84 114:407.50 115: 13.17 116:  6.76 117: 27.15 118: 34.17 119:269.15 120:140.21
 121:  4.91 122: 10.73 123:  2.24 124:  8.99 125:  6.71 126: 16.02 127: 10.08 128: 11.45
 129:  5.84 130: 10.22 131:318.13 132:291.14 133: 40.26 134:218.87 135:  7.94 136: 48.94
 137:385.94 138: 17.05 139:  8.31 140:  1.38 141:  1.40 142:  2.75 143:  0.59 144:  0.46
 145:  0.37 146:  1.26 147: 19.14 148:  1.34 149:148.80 150: 18.37 151: 64.46 152: 60.66
 153: 13.83 154:  3.47 155: 16.23 156:  3.28 157: 18.31 158:  5.22 159:  5.22 160: 29.45
 161: 32.20 162:122.67 163:  1.35 164: 46.96 165: 28.44 166:  3.35 167: 42.35 168:100.86
 169: 82.12 170:103.89 171:219.04 172: 78.47 173:  1.67 174:165.07 175:  1.27 176: 91.93
 177:  0.69 178: 27.52 179: 44.83 180: 90.19 181:  2.34 182:  6.28 183: 21.47 184: 53.20
 185:150.03 186:130.23 187:  0.19 188:  2.27 189:  1.44 190:  0.81 191:  6.45 192:  1.65
 193:  3.39 194:  2.13 195: 82.33 196: 56.19 197: 89.70 198:  2.97 199:  7.77 200: 15.45
 201: 60.65 202: 15.26 203:125.68 204:  2.94 205: 18.76 206: 32.45 207: 22.38 208: 21.39
 209: 35.64 210: 43.19 211: 33.63 212: 25.42 213: 65.22 214:  2.99 215: 10.81 216:  8.75
 217:  7.68 218:240.81 219: 73.46 220: 28.74 221: 39.33 222: 35.21 223: 73.69 224: 54.70
 225:  9.13 226: 64.67 227: 94.90 228: 23.68 229: 61.37 230: 28.99 231: 41.13 232: 51.20
 233: 50.08 234: 20.61
 Raman intensities (Ä⁴*amu⁻¹)
   1:  0.00   2:  0.00   3:  0.00   4:  0.00   5:  0.00   6:  0.00   7:  0.00   8:  0.00
   9:  0.00  10:  0.00  11:  0.00  12:  0.00  13:  0.00  14:  0.00  15:  0.00  16:  0.00
  17:  0.00  18:  0.00  19:  0.00  20:  0.00  21:  0.00  22:  0.00  23:  0.00  24:  0.00
  25:  0.00  26:  0.00  27:  0.00  28:  0.00  29:  0.00  30:  0.00  31:  0.00  32:  0.00
  33:  0.00  34:  0.00  35:  0.00  36:  0.00  37:  0.00  38:  0.00  39:  0.00  40:  0.00
  41:  0.00  42:  0.00  43:  0.00  44:  0.00  45:  0.00  46:  0.00  47:  0.00  48:  0.00
  49:  0.00  50:  0.00  51:  0.00  52:  0.00  53:  0.00  54:  0.00  55:  0.00  56:  0.00
  57:  0.00  58:  0.00  59:  0.00  60:  0.00  61:  0.00  62:  0.00  63:  0.00  64:  0.00
  65:  0.00  66:  0.00  67:  0.00  68:  0.00  69:  0.00  70:  0.00  71:  0.00  72:  0.00
  73:  0.00  74:  0.00  75:  0.00  76:  0.00  77:  0.00  78:  0.00  79:  0.00  80:  0.00
  81:  0.00  82:  0.00  83:  0.00  84:  0.00  85:  0.00  86:  0.00  87:  0.00  88:  0.00
  89:  0.00  90:  0.00  91:  0.00  92:  0.00  93:  0.00  94:  0.00  95:  0.00  96:  0.00
  97:  0.00  98:  0.00  99:  0.00 100:  0.00 101:  0.00 102:  0.00 103:  0.00 104:  0.00
 105:  0.00 106:  0.00 107:  0.00 108:  0.00 109:  0.00 110:  0.00 111:  0.00 112:  0.00
 113:  0.00 114:  0.00 115:  0.00 116:  0.00 117:  0.00 118:  0.00 119:  0.00 120:  0.00
 121:  0.00 122:  0.00 123:  0.00 124:  0.00 125:  0.00 126:  0.00 127:  0.00 128:  0.00
 129:  0.00 130:  0.00 131:  0.00 132:  0.00 133:  0.00 134:  0.00 135:  0.00 136:  0.00
 137:  0.00 138:  0.00 139:  0.00 140:  0.00 141:  0.00 142:  0.00 143:  0.00 144:  0.00
 145:  0.00 146:  0.00 147:  0.00 148:  0.00 149:  0.00 150:  0.00 151:  0.00 152:  0.00
 153:  0.00 154:  0.00 155:  0.00 156:  0.00 157:  0.00 158:  0.00 159:  0.00 160:  0.00
 161:  0.00 162:  0.00 163:  0.00 164:  0.00 165:  0.00 166:  0.00 167:  0.00 168:  0.00
 169:  0.00 170:  0.00 171:  0.00 172:  0.00 173:  0.00 174:  0.00 175:  0.00 176:  0.00
 177:  0.00 178:  0.00 179:  0.00 180:  0.00 181:  0.00 182:  0.00 183:  0.00 184:  0.00
 185:  0.00 186:  0.00 187:  0.00 188:  0.00 189:  0.00 190:  0.00 191:  0.00 192:  0.00
 193:  0.00 194:  0.00 195:  0.00 196:  0.00 197:  0.00 198:  0.00 199:  0.00 200:  0.00
 201:  0.00 202:  0.00 203:  0.00 204:  0.00 205:  0.00 206:  0.00 207:  0.00 208:  0.00
 209:  0.00 210:  0.00 211:  0.00 212:  0.00 213:  0.00 214:  0.00 215:  0.00 216:  0.00
 217:  0.00 218:  0.00 219:  0.00 220:  0.00 221:  0.00 222:  0.00 223:  0.00 224:  0.00
 225:  0.00 226:  0.00 227:  0.00 228:  0.00 229:  0.00 230:  0.00 231:  0.00 232:  0.00
 233:  0.00 234:  0.00
 output can be read by thermo (or use thermo option).
 writing <g98.out> molden fake output.
 recommended (thermochemical) frequency scaling factor: 1.0
           -------------------------------------------------
          |             Thermodynamic Functions             |
           -------------------------------------------------

Molecule has no symmetry elements
It seems to be the C1 point group
c1  symmetry found (for desy threshold:  0.10E+00) used in thermo

          ...................................................
          :                      SETUP                      :
          :.................................................:
          :  # frequencies                         228      :
          :  # imaginary freq.                       0      :
          :  linear?                             false      :
          :  only rotor calc.                    false      :
          :  symmetry                               c1      :
          :  rotational number                       1      :
          :  scaling factor                  1.0000000      :
          :  rotor cutoff                   50.0000000 cm⁻¹ :
          :  imag. cutoff                  -20.0000000 cm⁻¹ :
          :.................................................:

    mode    ω/cm⁻¹     T·S(HO)/kcal·mol⁻¹    T·S(FR)/kcal·mol⁻¹   T·S(vib)
   ------------------------------------------------------------------------
       1     12.38    -2.26218 (  0.37%)    -1.47012 ( 99.63%)    -1.47308
       2     13.67    -2.20338 (  0.56%)    -1.44072 ( 99.44%)    -1.44496
       3     18.71    -2.01741 (  1.92%)    -1.34770 ( 98.08%)    -1.36058
       4     35.08    -1.64557 ( 19.50%)    -1.16153 ( 80.50%)    -1.25593
       5     39.41    -1.57681 ( 27.84%)    -1.12706 ( 72.16%)    -1.25229
       6     43.52    -1.51814 ( 36.47%)    -1.09763 ( 63.53%)    -1.25101
       7     49.56    -1.44155 ( 49.11%)    -1.05918 ( 50.89%)    -1.24696
       8     50.52    -1.43023 ( 51.03%)    -1.05349 ( 48.97%)    -1.24574
       9     55.43    -1.37552 ( 60.17%)    -1.02599 ( 39.83%)    -1.23630
      10     64.37    -1.28756 ( 73.31%)    -0.98170 ( 26.69%)    -1.20593
      11     67.21    -1.26223 ( 76.55%)    -0.96893 ( 23.45%)    -1.19345
      12     78.08    -1.17429 ( 85.60%)    -0.92451 ( 14.40%)    -1.13833
      13     86.80    -1.11236 ( 90.08%)    -0.89314 (  9.92%)    -1.09062
      14     95.76    -1.05512 ( 93.08%)    -0.86405 (  6.92%)    -1.04190
      15    111.08    -0.96898 ( 96.06%)    -0.82008 (  3.94%)    -0.96311
      16    113.38    -0.95714 ( 96.36%)    -0.81401 (  3.64%)    -0.95192
      17    133.40    -0.86359 ( 98.06%)    -0.76585 (  1.94%)    -0.86170
      18    151.62    -0.79062 ( 98.83%)    -0.72790 (  1.17%)    -0.78988
      19    154.16    -0.78121 ( 98.91%)    -0.72298 (  1.09%)    -0.78057
      20    176.65    -0.70467 ( 99.36%)    -0.68264 (  0.64%)    -0.70453
      21    186.12    -0.67565 ( 99.48%)    -0.66718 (  0.52%)    -0.67561
      22    196.12    -0.64674 ( 99.58%)    -0.65167 (  0.42%)    -0.64676
      23    198.02    -0.64143 ( 99.60%)    -0.64881 (  0.40%)    -0.64146
      24    208.76    -0.61254 ( 99.67%)    -0.63317 (  0.33%)    -0.61261
      25    222.57    -0.57783 ( 99.75%)    -0.61419 (  0.25%)    -0.57792
      26    224.41    -0.57340 ( 99.75%)    -0.61175 (  0.25%)    -0.57349
      27    229.24    -0.56198 ( 99.77%)    -0.60545 (  0.23%)    -0.56208
      28    249.64    -0.51672 ( 99.84%)    -0.58019 (  0.16%)    -0.51682
      29    257.63    -0.50024 ( 99.86%)    -0.57086 (  0.14%)    -0.50034
      30    265.31    -0.48497 ( 99.87%)    -0.56216 (  0.13%)    -0.48506
      31    272.47    -0.47122 ( 99.89%)    -0.55427 (  0.11%)    -0.47132
      32    292.40    -0.43531 ( 99.91%)    -0.53336 (  0.09%)    -0.43540
   ------------------------------------------------------------------------

   temp. (K)  partition function   enthalpy   heat capacity  entropy
                                   cal/mol     cal/K/mol   cal/K/mol   J/K/mol
 298.15  VIB  0.439E+17            22230.390    141.833    137.506
         ROT  0.689E+08              888.752      2.981     38.848
         INT  0.302E+25            23119.142    144.814    176.354
         TR   0.144E+29             1481.254      4.968     45.067
         TOT                       24600.3964   149.7818   221.4203   926.4226

       T/K    H(0)-H(T)+PV         H(T)/Eh          T*S/Eh         G(T)/Eh
   ------------------------------------------------------------------------
    298.15    0.392032E-01    0.641172E+00    0.105204E+00    0.535968E+00
   ------------------------------------------------------------------------

         :::::::::::::::::::::::::::::::::::::::::::::::::::::
         ::                  THERMODYNAMIC                  ::
         :::::::::::::::::::::::::::::::::::::::::::::::::::::
         :: total free energy        -119.845657087128 Eh   ::
         ::.................................................::
         :: total energy             -120.381624845073 Eh   ::
         :: zero point energy           0.601968467081 Eh   ::
         :: G(RRHO) w/o ZPVE           -0.066000709137 Eh   ::
         :: G(RRHO) contrib.            0.535967757944 Eh   ::
         :::::::::::::::::::::::::::::::::::::::::::::::::::::

optimized geometry written to: xtbopt.xyz


           -------------------------------------------------
          | TOTAL ENERGY             -120.381624845073 Eh   |
          | TOTAL ENTHALPY           -119.740453150920 Eh   |
          | TOTAL FREE ENERGY        -119.845657087128 Eh   |
          | GRADIENT NORM               0.000112377266 Eh/α |
           -------------------------------------------------

------------------------------------------------------------------------
 * finished run on 2025/07/19 at 13:23:01.293     
------------------------------------------------------------------------
 total:
 * wall-time:     0 d,  0 h,  0 min, 10.450 sec
 *  cpu-time:     0 d,  0 h,  6 min, 18.931 sec
 * ratio c/w:    36.261 speedup
 SCF:
 * wall-time:     0 d,  0 h,  0 min,  0.356 sec
 *  cpu-time:     0 d,  0 h,  0 min, 14.188 sec
 * ratio c/w:    39.853 speedup
 ANC optimizer:
 * wall-time:     0 d,  0 h,  0 min,  4.286 sec
 *  cpu-time:     0 d,  0 h,  2 min, 51.388 sec
 * ratio c/w:    39.991 speedup
 analytical hessian:
 * wall-time:     0 d,  0 h,  0 min,  5.759 sec
 *  cpu-time:     0 d,  0 h,  3 min, 12.360 sec
 * ratio c/w:    33.402 speedup

