$hessian                                                                        
        0.5120907156  -0.0105312099   0.0266047057  -0.0970165109  -0.0222433329
        0.0532143909  -0.0212611658  -0.0103699386   0.0257763317  -0.0034648942
        0.0008456995  -0.0011649261  -0.0014260585  -0.0005170706   0.0010653778
       -0.0001682381   0.0003187892  -0.0000675424  -0.0001503552  -0.0001574932
        0.0000759812   0.0000067858  -0.0000039269   0.0000036279  -0.0000068227
        0.0000200439  -0.0000002862  -0.0000065161   0.0000316934   0.0000091239
        0.0000521349  -0.0000782551  -0.0000150675   0.0003386875  -0.0004357837
        0.0003140324  -0.0001199505   0.0000460443  -0.0000687967   0.0000370923
       -0.0000453756   0.0000307363   0.0000244810   0.0000340036  -0.0000074138
       -0.0000053306  -0.0000237054   0.0000020600   0.0000297833  -0.0000106405
        0.0000086799  -0.0000001813   0.0000001874  -0.0000153300  -0.0000173247
        0.0000167353  -0.0000243393   0.0000314727  -0.0000526263   0.0000498664
        0.0000424342   0.0000159562  -0.0000242200  -0.0006664337  -0.0002780826
        0.0006194637  -0.0008256489   0.0013944663  -0.0032133500   0.0072440918
        0.0030901693  -0.0080650226  -0.0000970090   0.0005767295  -0.0011142442
       -0.0000140366   0.0000741455  -0.0004788760   0.0001488612  -0.0000899000
       -0.0000648062   0.0000979327   0.0000309062   0.0000082894  -0.0000659114
       -0.0000382938  -0.0000644836  -0.0000135424  -0.0000078158   0.0000185671
        0.0000572939  -0.0000272292   0.0000073887   0.0000092888  -0.0000058324
       -0.0000072792  -0.0000070463   0.0000059530   0.0000021458   0.0000001041
        0.0000023268  -0.0000000672   0.0000104467  -0.0000035594  -0.0000023318
        0.0000319452   0.0000387124   0.0000908245  -0.0000059751  -0.0000148291
       -0.0000295098   0.0000141364   0.0000050975   0.0000164741  -0.0000050641
       -0.0000067602  -0.0000067458   0.0000016968  -0.0000001186   0.0000092251
       -0.0000003387  -0.0000009639  -0.0000040603  -0.0000009751  -0.0000020085
        0.0000064864  -0.0000009660  -0.0000014869   0.0000018821   0.0000112429
        0.0000059359  -0.0000028391  -0.0000154360  -0.0000027220  -0.0000068357
        0.0000680653   0.0000501003   0.0000495488   0.0000251195   0.0004205403
       -0.0003184911  -0.0001478338   0.0000249902   0.0001652699  -0.0908432261
        0.0829095389   0.0495298292  -0.1511934475   0.0662935656  -0.1000418084
       -0.1539432378  -0.1109508741  -0.0434510573   0.0008439051  -0.0007437036
        0.0016171867   0.0000096549  -0.0000072742  -0.0000004421  -0.0000288651
       -0.0000121418   0.0000196016  -0.0000187269  -0.0000218922   0.0000107012
        0.0000010099  -0.0000163519   0.0000090365  -0.0000445880   0.0000903478
        0.0000205153   0.0000058215   0.0000201536   0.0000237506  -0.0000264061
        0.0000097207  -0.0000113846  -0.0000307040   0.0000303566  -0.0000121829
       -0.0000206742   0.0000362481  -0.0000105044  -0.0000040525   0.0000334874
        0.0000042581   0.0000028421   0.0000214613   0.0000100671  -0.0000666040
       -0.0000445073  -0.0001087233   0.0001104915  -0.0000260308   0.0000107696
        0.0002711061   0.0004267188  -0.0008028505  -0.0000442351  -0.0000465745
       -0.0000339650   0.0000131017  -0.0000148497   0.0000160755  -0.0000033039
        0.0000119317   0.0000052587  -0.0000002428  -0.0000020894  -0.0000084839
       -0.0000093266   0.0000036831   0.0000003308  -0.0000085880   0.0000011516
       -0.0000013196  -0.0000111994   0.0000038241  -0.0000085322   0.0000055112
        0.0000052664  -0.0000004702  -0.0000022571   0.0000009349  -0.0000091712
       -0.0000018135   0.0000001417  -0.0000027024  -0.0000023363  -0.0000006837
       -0.0000018978  -0.0000019845  -0.0000003737  -0.0000023267  -0.0000001237
        0.0000005733  -0.0000019879  -0.0000004947   0.0000013601  -0.0000006121
        0.0000044699  -0.0000179990   0.0000101012   0.0000845947  -0.0000290955
       -0.0001706405   0.0000704168  -0.0000471941   0.0000288525   0.0000192657
       -0.0000190952  -0.0000188868
       -0.0105312099   0.4902725158  -0.0020182443  -0.0263760059  -0.0790234714
        0.0461585768  -0.0023823478   0.0010636542   0.0031290455  -0.0001921136
        0.0067405041   0.0027265957   0.0002550210  -0.0000951222  -0.0000622213
       -0.0000144191  -0.0000598189  -0.0000112766   0.0000168339   0.0000060272
       -0.0000011985   0.0000029623  -0.0000227063   0.0000108457  -0.0000003720
        0.0000211566  -0.0000026328  -0.0000152347  -0.0000014584   0.0000002424
        0.0000379246  -0.0000176909  -0.0000337037  -0.0000363274  -0.0000069515
       -0.0000317877  -0.0000240853   0.0000223526  -0.0000194351   0.0000056764
       -0.0000230873   0.0000071809   0.0000195587   0.0000081594   0.0000202813
       -0.0000362497   0.0000033317  -0.0000307395  -0.0000028999   0.0000068659
        0.0000001568  -0.0000119353   0.0000271784  -0.0000098507  -0.0000030541
        0.0000207524   0.0000050571   0.0000535031  -0.0000264667   0.0000490885
       -0.0000054365  -0.0000419095  -0.0000264321  -0.0002437446  -0.0001995527
        0.0001635830   0.0017510429   0.0049574825   0.0033118217  -0.0030946904
       -0.0046642742   0.0129251706  -0.0005191589  -0.0018325169  -0.0008026658
        0.0004069141   0.0001355861   0.0000214315   0.0000162181  -0.0000865753
        0.0001015012  -0.0001029122  -0.0000183272  -0.0000081940   0.0001197769
       -0.0000335732  -0.0000571698  -0.0000519480   0.0000661145   0.0000739492
        0.0000058075  -0.0000401076  -0.0000229030  -0.0000008274  -0.0000034244
        0.0000223127   0.0000007580  -0.0000016036  -0.0000117102  -0.0000022481
        0.0000028943   0.0000073190   0.0000239170  -0.0000098366  -0.0000087653
        0.0000089761  -0.0000061646   0.0000051335  -0.0000033069  -0.0000088078
        0.0000006941   0.0000030409   0.0000013423   0.0000016219   0.0000015883
       -0.0000009809  -0.0000015247   0.0000001251   0.0000019320   0.0000031472
        0.0000000442  -0.0000012839  -0.0000010755  -0.0000007706  -0.0000012464
        0.0000012391   0.0000005096  -0.0000009107   0.0000025098   0.0000071021
       -0.0000004432  -0.0000004908  -0.0000028762  -0.0000023065   0.0000002349
       -0.0001349221  -0.0000677603  -0.0000682301  -0.0004663129  -0.0001692652
        0.0001017108   0.0000816337  -0.0001433049   0.0001608805   0.0856925166
       -0.1755964586  -0.0852441593   0.0666050241  -0.0861805348   0.0613015503
       -0.1112983815  -0.1515782092  -0.0399976466   0.0006996638  -0.0018872201
       -0.0014052502  -0.0000030333  -0.0000039034   0.0000038260  -0.0000056033
       -0.0000020239  -0.0000036555  -0.0000058022  -0.0000025736   0.0000011116
        0.0000020812   0.0000035234   0.0000018335  -0.0000267453   0.0000111599
        0.0000013998   0.0000089943   0.0000102182   0.0000001353   0.0000032445
        0.0000081979   0.0000013175   0.0000026916   0.0000057903   0.0000012976
        0.0000051739   0.0000051640  -0.0000019790   0.0000038205   0.0000090057
       -0.0000000789   0.0000111460   0.0000085132   0.0000084963  -0.0000154091
       -0.0000173961  -0.0000039299  -0.0000393970  -0.0012492056  -0.0006129629
       -0.0002519488  -0.0003214633   0.0004404644   0.0000416458  -0.0000167529
        0.0000297991   0.0000754914  -0.0000264688  -0.0000061738  -0.0000015124
        0.0000301530   0.0000241216   0.0000064177   0.0000007765  -0.0000181533
        0.0000007932   0.0000032258  -0.0000018816  -0.0000025245   0.0000011556
       -0.0000038165  -0.0000035588   0.0000040313  -0.0000059182  -0.0000008269
        0.0000058783  -0.0000018389  -0.0000012048   0.0000008350  -0.0000030435
        0.0000006192   0.0000011110  -0.0000001066  -0.0000004451   0.0000007066
       -0.0000001992   0.0000004839   0.0000017297   0.0000001264   0.0000004609
        0.0000018000  -0.0000003372  -0.0000031859   0.0000025098   0.0000028146
       -0.0000182202  -0.0000030564  -0.0000120090   0.0000283333  -0.0000045682
       -0.0002141272  -0.0000446711  -0.0000184969  -0.0000190536  -0.0000296567
        0.0000459459  -0.0000430528
        0.0266047057  -0.0020182443   0.4838353630   0.0584095076   0.0447401717
       -0.1666922559   0.0080885076   0.0033728080  -0.0052425017  -0.0002859873
        0.0028141387   0.0022463058   0.0001595581   0.0000470408  -0.0002457702
       -0.0000046177  -0.0001129787  -0.0000325415   0.0000590256   0.0000467818
       -0.0000242415  -0.0000241532   0.0000191487   0.0000086259  -0.0000084003
       -0.0000307168   0.0000124466   0.0000311180   0.0000044486  -0.0000115897
       -0.0000504516   0.0000565116   0.0000540512  -0.0000395015   0.0000112010
        0.0000355491  -0.0000136747  -0.0000426748  -0.0000168046  -0.0000035081
       -0.0000462832  -0.0000020105  -0.0000212015   0.0000171245  -0.0000324599
       -0.0000025396   0.0000226866  -0.0000071452  -0.0000218638   0.0000273176
       -0.0000313339   0.0000159523   0.0000283563   0.0000108666   0.0000483010
        0.0000165937   0.0000645276  -0.0000486041   0.0000243201  -0.0000128689
        0.0000292294  -0.0000426213   0.0000119188   0.0006763916   0.0001360465
       -0.0003564178  -0.0036129920   0.0032420563  -0.0009657705   0.0075013026
        0.0119160707  -0.0270293582   0.0009865925  -0.0008509888  -0.0004152043
        0.0003485839   0.0000132534  -0.0002565385   0.0001051272   0.0000258530
       -0.0000839872   0.0001292526  -0.0000140181  -0.0000244775  -0.0001943742
       -0.0000242812   0.0001168061   0.0000609757  -0.0000548071  -0.0001030299
       -0.0000706408   0.0000291955   0.0000172134  -0.0000050025  -0.0000012738
       -0.0000138730   0.0000045022  -0.0000025397   0.0000178553   0.0000067233
       -0.0000076925  -0.0000170057  -0.0000318202   0.0000116359   0.0000232405
       -0.0000248646   0.0000222161  -0.0000518730   0.0000114939   0.0000196390
       -0.0000042044   0.0000045727   0.0000026483  -0.0000038919  -0.0000058982
       -0.0000030638  -0.0000007501   0.0000011334  -0.0000003158  -0.0000044042
       -0.0000013071  -0.0000014697   0.0000042769   0.0000006447   0.0000006196
       -0.0000000221   0.0000006859  -0.0000006050  -0.0000039831  -0.0000172923
       -0.0000171569  -0.0000235567   0.0000148311   0.0000082416   0.0000100190
       -0.0000072632  -0.0000022648  -0.0000579900   0.0000563398   0.0001226122
        0.0000719165   0.0001568767   0.0001270196   0.0002123706   0.0486641313
       -0.0818723761  -0.0922026676  -0.1003561629   0.0617004493  -0.1350729258
       -0.0459577077  -0.0415428373  -0.0567784823  -0.0016204222  -0.0015772579
        0.0005793230   0.0000026655   0.0000058279  -0.0000027637   0.0000181963
        0.0000060822  -0.0000079658   0.0000141383   0.0000174672  -0.0000028775
       -0.0000039448   0.0000026312  -0.0000067503   0.0000299439  -0.0000574405
       -0.0000545709   0.0000037408  -0.0000014994   0.0000021961   0.0000138268
       -0.0000064723   0.0000090509   0.0000130651  -0.0000132604   0.0000164039
        0.0000081852  -0.0000203997   0.0000092102   0.0000032611  -0.0000337308
        0.0000014690  -0.0000153869  -0.0000185460  -0.0000249395   0.0000156814
        0.0000250115   0.0000325226  -0.0000388830  -0.0006448794  -0.0001422214
        0.0005437563   0.0004003326  -0.0010941477  -0.0000606035   0.0000040839
       -0.0000544787  -0.0000324661   0.0000156182  -0.0000332983   0.0000220139
        0.0000002974  -0.0000089657  -0.0000051783   0.0000063788   0.0000184485
        0.0000075694  -0.0000062749   0.0000005477   0.0000086718  -0.0000020408
        0.0000083612   0.0000137978  -0.0000036962   0.0000117923  -0.0000065090
       -0.0000106941   0.0000004213   0.0000002311  -0.0000003016   0.0000126346
       -0.0000018522   0.0000007087   0.0000042644   0.0000014312   0.0000013972
        0.0000043230  -0.0000000680   0.0000009060   0.0000024268  -0.0000059458
       -0.0000030657   0.0000040420  -0.0000005553   0.0000062303   0.0000073462
       -0.0000739814   0.0000091397  -0.0000511642  -0.0001072869  -0.0000334912
       -0.0001600025  -0.0000923131   0.0000192442   0.0000345576  -0.0000210162
       -0.0000253035  -0.0000466104
       -0.0970165109  -0.0263760059   0.0584095076   0.6587699324  -0.0078588512
       -0.0020738200  -0.3294251893   0.0173715357  -0.0207957394  -0.0325919510
       -0.0314181719   0.0774808861   0.0034212307  -0.0016177379  -0.0019359716
       -0.0013413297  -0.0006937009   0.0015856659   0.0004055402   0.0000782638
       -0.0002605592  -0.0001983378  -0.0003501646   0.0001208573  -0.0002853233
        0.0002288398   0.0001509360   0.0001887813   0.0000722357  -0.0004679266
       -0.0005068504  -0.0001006330  -0.0000708643  -0.0002719977   0.0002469181
       -0.0002279806  -0.0002913735  -0.0000941943  -0.0002658755   0.0000049909
       -0.0003288977   0.0000243901   0.0001858382   0.0001561984   0.0001245665
       -0.0002838316   0.0001654341  -0.0001780692  -0.0000372199   0.0000056677
       -0.0000680081  -0.0000239860   0.0000556363   0.0000609046   0.0001574794
        0.0001099873   0.0001104764   0.0002496909  -0.0000643937  -0.0002946304
        0.0003964698  -0.0003143895  -0.0000748081  -0.0480038321   0.0116596908
       -0.0236080306   0.0575297349   0.0117698790  -0.0310274979  -0.1439209919
        0.0250756597  -0.0541807528  -0.0269823243   0.0100019468  -0.0216098014
       -0.0008303881  -0.0014143017  -0.0011385302  -0.0007325371  -0.0002685451
        0.0013234782   0.0004186819  -0.0000013475   0.0000329598  -0.0001094002
        0.0000895582  -0.0001569414   0.0000897719  -0.0000149000  -0.0000747975
       -0.0000610820   0.0000186893   0.0000085280   0.0000106656  -0.0000029571
       -0.0000022872   0.0000009647  -0.0000023361   0.0000207230   0.0000063758
       -0.0000112730  -0.0000069305  -0.0000128152   0.0000011231   0.0000145611
       -0.0000170575   0.0000606947  -0.0000109309  -0.0000072459  -0.0000128244
        0.0000080158   0.0000054522  -0.0000041398  -0.0000078631  -0.0000025334
        0.0000068617  -0.0000165357   0.0000041772  -0.0000021662   0.0000154674
       -0.0000015322  -0.0000026156  -0.0000076394  -0.0000003438  -0.0000020681
        0.0000050670   0.0000008215  -0.0000019873  -0.0000055104  -0.0000094582
       -0.0000089220  -0.0000187781   0.0000156949  -0.0000013284   0.0000139419
       -0.0006903869  -0.0010067987   0.0010429526  -0.0013752014   0.0015740086
        0.0003975755   0.0000166639   0.0004266427  -0.0002736789  -0.0099704126
       -0.0031688831   0.0159424178   0.0081125268   0.0066729517  -0.0153620644
       -0.0147752396  -0.0102633459   0.0185786000  -0.0196685242   0.0010628142
       -0.0031801811   0.0000342447  -0.0000280469   0.0000270916   0.0000216122
       -0.0000034590  -0.0000262370   0.0000605233   0.0000574046   0.0000491915
       -0.0000369001   0.0000606678  -0.0000317440  -0.0001937319  -0.0000442726
        0.0001942121   0.0000014731   0.0000188452   0.0000327784   0.0000509173
       -0.0000135370   0.0000336607   0.0000363531  -0.0000534550   0.0000602395
        0.0000568225  -0.0000610504   0.0000146237   0.0000000014  -0.0000909845
        0.0000125981  -0.0000308079  -0.0000782912  -0.0000776743   0.0001203237
       -0.0002098829   0.0000843418  -0.0002995652   0.0003044444  -0.0006262801
       -0.0006295931  -0.0012262715   0.0028294320   0.0001431654   0.0004235588
       -0.0003721033  -0.0000918263  -0.0000441104   0.0000191326   0.0000009463
       -0.0000102188   0.0000058673   0.0000001444  -0.0000004302   0.0000132457
        0.0000096050  -0.0000033656  -0.0000003493   0.0000106915  -0.0000033116
        0.0000092718   0.0000117028  -0.0000034106   0.0000173801  -0.0000100327
       -0.0000041098   0.0000144167  -0.0000050069  -0.0000018850   0.0000053207
        0.0000013700   0.0000027154   0.0000073947   0.0000037606  -0.0000003548
        0.0000074996   0.0000057487   0.0000022392   0.0000025023  -0.0000030562
       -0.0000041642   0.0000019497   0.0000038743   0.0000029933   0.0000033784
       -0.0001215329   0.0000505869  -0.0000058110  -0.0000081617  -0.0005128405
       -0.0003370891   0.0001449313  -0.0001135261  -0.0001252471   0.0001657257
        0.0000841661   0.0000875317
       -0.0222433329  -0.0790234714   0.0447401717  -0.0078588512   0.2186586848
       -0.1717749628  -0.0161659486  -0.0523696769   0.0177151030  -0.0089806268
        0.0021784854  -0.0118360337  -0.0028299517   0.0045043142   0.0037668487
        0.0004279067   0.0004543332   0.0007754712  -0.0001519475  -0.0000866679
        0.0000232619  -0.0000760598   0.0000259384  -0.0001301540   0.0000885885
       -0.0000385939  -0.0000476876  -0.0001305530  -0.0000613989   0.0000532761
        0.0002153126   0.0001365724  -0.0000566786  -0.0002984160   0.0000209011
        0.0006449095   0.0000189160  -0.0000691217  -0.0001185819   0.0000505489
       -0.0000303968  -0.0000481892   0.0000425336   0.0000487009   0.0000433107
       -0.0000197762   0.0000423120  -0.0000850135   0.0000092701  -0.0000064654
        0.0000237189  -0.0000217228  -0.0000525172   0.0000075829   0.0000053648
       -0.0000516699   0.0000209340   0.0000010209   0.0000255162  -0.0000975386
        0.0000565696  -0.0000426624  -0.0001030055   0.0123511370  -0.0053931014
        0.0025678380  -0.0107066726  -0.0099310758   0.0257065592   0.0530439960
       -0.0800179506   0.0677227673   0.0039603380   0.0012578177   0.0004033436
        0.0000760084   0.0003117121  -0.0002895931  -0.0002275912  -0.0000653295
       -0.0001175932   0.0002446498   0.0000879449   0.0000352554  -0.0003038486
       -0.0000007430   0.0000663749   0.0001040402  -0.0001113024  -0.0001554384
       -0.0000512467   0.0000435817   0.0000295561   0.0000078706  -0.0000087488
       -0.0000295826  -0.0000037088   0.0000051376   0.0000171439   0.0000093556
       -0.0000136550  -0.0000271236  -0.0000342982   0.0000109259   0.0000296926
        0.0000247130   0.0000875319   0.0000430817   0.0000075601  -0.0000018720
       -0.0000226234   0.0000165164   0.0000049945   0.0000179705  -0.0000090574
       -0.0000104742  -0.0000013229   0.0000050459  -0.0000011745  -0.0000017498
        0.0000001008  -0.0000001354   0.0000059865   0.0000001007   0.0000002289
        0.0000016891   0.0000015225   0.0000001762   0.0000000249  -0.0000039557
       -0.0000011897  -0.0000223785  -0.0000009373   0.0000059709   0.0000052931
       -0.0000693860  -0.0001177780   0.0002033632  -0.0010078446  -0.0012205347
        0.0005272524  -0.0005538675  -0.0002140885   0.0000500942   0.0083292100
        0.0086076454  -0.0161491375  -0.0043320400  -0.0051602377   0.0130023230
       -0.0129576040  -0.0080529110   0.0175344188   0.0106574358   0.0001689177
        0.0012800591   0.0000257561  -0.0000220232   0.0000071902   0.0000136436
       -0.0000038494   0.0000059275   0.0000158372   0.0000042803   0.0000002882
        0.0000072197   0.0000105466   0.0000018854  -0.0000108170  -0.0000487890
        0.0000265034   0.0000004923   0.0000022632   0.0000262984   0.0000050841
       -0.0000046832   0.0000116719  -0.0000053843  -0.0000046502   0.0000105385
        0.0000013717  -0.0000063238  -0.0000017113  -0.0000021285  -0.0000166297
        0.0000047275  -0.0000085122  -0.0000012072  -0.0000091844  -0.0000096582
        0.0000674888   0.0000730776   0.0001789831   0.0000059866  -0.0001657225
       -0.0009561541   0.0056781171   0.0045103531   0.0001220447  -0.0000724033
       -0.0001407199  -0.0000564135   0.0000297902   0.0000077677   0.0000082108
       -0.0000165430  -0.0000093668  -0.0000063569   0.0000048810   0.0000235933
        0.0000013957   0.0000029321   0.0000019260   0.0000007750   0.0000028578
        0.0000011180   0.0000047780  -0.0000017677   0.0000011785   0.0000058625
       -0.0000035952   0.0000035324   0.0000004249   0.0000015205  -0.0000016012
       -0.0000031126  -0.0000011371  -0.0000022485  -0.0000012499  -0.0000003666
       -0.0000014615  -0.0000035214  -0.0000014869   0.0000004058  -0.0000045026
       -0.0000034791   0.0000050095   0.0000015467   0.0000059486   0.0000062473
       -0.0000633870   0.0000194795  -0.0001328892  -0.0000949133  -0.0002193145
       -0.0004390178   0.0001917838   0.0000992677   0.0002181062  -0.0000754855
       -0.0000405102   0.0000062888
        0.0532143909   0.0461585768  -0.1666922559  -0.0020738200  -0.1717749628
        0.5410370961   0.0483990468   0.0167743071  -0.0837027847   0.0252677122
       -0.0102644511   0.0194989631   0.0010068121   0.0045232279  -0.0040018557
        0.0017532394   0.0003352113  -0.0006761541   0.0001608932   0.0002619846
       -0.0001325368   0.0000558717  -0.0000614978  -0.0000976811  -0.0002024076
        0.0000356884   0.0001271321   0.0001871811   0.0001667030  -0.0002742837
       -0.0002154912  -0.0005446777   0.0001056285   0.0002072681  -0.0004072676
        0.0011029745  -0.0003571125   0.0001719270  -0.0001816781   0.0001264794
       -0.0002868415   0.0001189414   0.0000607373   0.0001340991   0.0000224394
       -0.0000420572  -0.0000020066  -0.0000582322  -0.0000228470  -0.0000298229
       -0.0000459206   0.0000143883   0.0000056320   0.0000368350   0.0000160865
        0.0000643675  -0.0000169482  -0.0000467141  -0.0003099223   0.0000141775
        0.0001499556   0.0001254361  -0.0002053503  -0.0266304081   0.0028256633
       -0.0085581256   0.0215669995   0.0242510500  -0.0556181818  -0.1170356422
        0.0684867370  -0.2028184308  -0.0097695932   0.0006891914   0.0009205284
        0.0018819549  -0.0001531536  -0.0016000668   0.0000627722   0.0000982233
       -0.0001756806  -0.0002981664  -0.0000186346   0.0000540120   0.0005926020
       -0.0000655628  -0.0001877181  -0.0002506962   0.0002434089   0.0003714541
        0.0001172101  -0.0001019828  -0.0000577042  -0.0000186902   0.0000165713
        0.0000551965   0.0000055924  -0.0000119665  -0.0000429037  -0.0000190965
        0.0000300910   0.0000726939   0.0000970035  -0.0000347990  -0.0000653198
       -0.0000519939  -0.0001713068  -0.0000678970  -0.0000131464  -0.0000010488
        0.0000469648  -0.0000388561  -0.0000179417  -0.0000363551   0.0000227086
        0.0000238576   0.0000000423  -0.0000121217   0.0000028547   0.0000051566
       -0.0000002399  -0.0000014766  -0.0000112210   0.0000011196   0.0000003437
       -0.0000046803  -0.0000022519   0.0000005798  -0.0000019716   0.0000106054
        0.0000043102   0.0000575710  -0.0000010116  -0.0000103812  -0.0000182404
        0.0000837948   0.0001193590  -0.0001193436   0.0013308297   0.0005093294
        0.0000873250  -0.0000180276   0.0000693165   0.0000933597   0.0133682300
        0.0027881499  -0.0173946583   0.0057097750   0.0091374282  -0.0213660977
        0.0029012168   0.0005887707   0.0043770026  -0.0229633383   0.0013172443
       -0.0016102763  -0.0000340805   0.0000515952   0.0000188426  -0.0000164728
        0.0000218821   0.0000126031  -0.0000051896  -0.0000095345   0.0000674636
       -0.0000178064  -0.0000389934  -0.0000109869   0.0000247160   0.0000856540
        0.0000901158  -0.0000380308  -0.0000237179   0.0000013186  -0.0000365751
        0.0000003535  -0.0000462287  -0.0000436066   0.0000334283  -0.0000061171
       -0.0000127588   0.0000446176  -0.0000313331  -0.0000018754   0.0000659290
        0.0000058259   0.0000129931  -0.0000078173   0.0000113247   0.0001778855
       -0.0000749089  -0.0002086654  -0.0003921639  -0.0000645333   0.0003821442
        0.0021989025   0.0046305564  -0.0026667106  -0.0000941677  -0.0000721969
        0.0001591615   0.0001095094  -0.0001560461   0.0000972884  -0.0000315546
        0.0000283975   0.0000048875   0.0000081447  -0.0000086913  -0.0000533711
       -0.0000059197  -0.0000033113  -0.0000031502  -0.0000049372  -0.0000044554
       -0.0000033525  -0.0000131566   0.0000055853  -0.0000052473  -0.0000133315
        0.0000116545  -0.0000048977  -0.0000016230  -0.0000009068  -0.0000019122
        0.0000038310   0.0000015874   0.0000011312  -0.0000002475   0.0000002690
       -0.0000003816   0.0000049396   0.0000018009  -0.0000017916   0.0000106496
        0.0000078476  -0.0000110233  -0.0000014226  -0.0000133704  -0.0000184613
        0.0001261812   0.0000617433   0.0000678585  -0.0005227864  -0.0004502042
        0.0002360530   0.0000985415   0.0000767422  -0.0005133894   0.0002226655
        0.0001091070   0.0000660615
       -0.0212611658  -0.0023823478   0.0080885076  -0.3294251893  -0.0161659486
        0.0483990468   0.6717039023  -0.0136071394  -0.0024681309  -0.1237827536
       -0.0181839466   0.0436279131  -0.0394702913  -0.0126335967   0.0304831651
       -0.0034255940   0.0038571309  -0.0002357503  -0.0017962199  -0.0018500717
        0.0010956314  -0.0001690479   0.0006098706  -0.0000381689   0.0003689365
       -0.0003436825  -0.0001893305  -0.0001636836   0.0000251605   0.0004727433
        0.0005521249   0.0008709518   0.0000630077  -0.0007163807  -0.0021829185
        0.0037238495   0.0007152099  -0.0003026652   0.0005593092   0.0002266349
        0.0003162613   0.0001447562  -0.0003236687  -0.0001246907  -0.0003366965
        0.0003762416  -0.0001879976   0.0003083234  -0.0000126177  -0.0001275275
        0.0000256814   0.0001235126  -0.0000921202   0.0000562392  -0.0000432247
        0.0001013482   0.0000804952  -0.0004496399   0.0002967970   0.0000178506
       -0.0010082388   0.0006726498   0.0002232607   0.0509586920  -0.0084065303
        0.0176789245  -0.0428934255  -0.0106997494   0.0276457921  -0.0413717344
        0.0318212727  -0.0703032570   0.0003196098   0.0008444195  -0.0024927936
       -0.0005376815  -0.0000778919   0.0001693277  -0.0000472882  -0.0001339460
        0.0001443987   0.0004131804   0.0000682399   0.0000183630  -0.0004182655
       -0.0000028120  -0.0000408516   0.0000895244  -0.0001186521  -0.0001122580
       -0.0000026613   0.0000094684   0.0000564509   0.0000277520  -0.0000179918
       -0.0000387854  -0.0000087334   0.0000028747   0.0000012364   0.0000080789
       -0.0000087711  -0.0000047845  -0.0000308462   0.0000099101   0.0000122631
        0.0000747534   0.0001158512   0.0001428346   0.0000214905   0.0000161464
       -0.0000717082   0.0000244489   0.0000094515   0.0000400540  -0.0000197135
       -0.0000128970  -0.0000020970   0.0000030523  -0.0000023113  -0.0000009553
        0.0000054736   0.0000033589   0.0000120585   0.0000128758   0.0000098669
        0.0000077096  -0.0000052650  -0.0000029914  -0.0000121267  -0.0000000225
        0.0000047514  -0.0000183868  -0.0000285656  -0.0000066818   0.0000067511
        0.0000330489  -0.0001601061   0.0001626656  -0.0008588750   0.0000672389
        0.0000667671   0.0000827054   0.0001125127  -0.0000945684  -0.0005230219
       -0.0005104937   0.0000789216   0.0009976307   0.0008774165  -0.0018028125
       -0.0005253027  -0.0001625063   0.0009764892  -0.1163403458   0.0466854222
       -0.1046417467   0.0001203180  -0.0001112368  -0.0001133895  -0.0001184415
       -0.0000943679   0.0001466661  -0.0000407899  -0.0000699771  -0.0000252250
        0.0000200623  -0.0001375961   0.0000335082   0.0003027862  -0.0002778582
       -0.0001583208   0.0000883599   0.0001292992   0.0001729538  -0.0000293695
        0.0000015939  -0.0000161206  -0.0000077937   0.0000467596   0.0000016131
       -0.0000288916   0.0000223809   0.0000022033   0.0000286537   0.0000319654
        0.0000050022   0.0000154320   0.0000166177   0.0000297921  -0.0001272859
        0.0005561307   0.0005799396  -0.0012074971   0.0017251501  -0.0030453121
       -0.0001212886  -0.0005011492   0.0005823911  -0.0000867472   0.0000515891
       -0.0001041164  -0.0000441209   0.0000072567   0.0000257879  -0.0000179045
        0.0000080621  -0.0000087773  -0.0000007561  -0.0000039389   0.0000100706
       -0.0000109349   0.0000055363   0.0000095530  -0.0000111498   0.0000092193
        0.0000001340  -0.0000016669  -0.0000005571  -0.0000044580   0.0000030401
       -0.0000240567   0.0000136155   0.0000025128   0.0000060107  -0.0000009103
       -0.0000110088  -0.0000064090  -0.0000094365  -0.0000073903  -0.0000032399
       -0.0000099855  -0.0000137774  -0.0000092567  -0.0000004349  -0.0000048850
       -0.0000058607   0.0000061118   0.0000013457   0.0000012404  -0.0000078475
       -0.0000658657  -0.0000330747   0.0000206704  -0.0000373195  -0.0002346076
        0.0000080237  -0.0000993635   0.0000455735   0.0000872950   0.0000323215
       -0.0000505862   0.0000834236
       -0.0103699386   0.0010636542   0.0033728080   0.0173715357  -0.0523696769
        0.0167743071  -0.0136071394   0.1946960598  -0.1958028785  -0.0429069288
       -0.0804903781   0.0782297593  -0.0073425910   0.0026838439   0.0025703495
       -0.0003256134   0.0003100415  -0.0000318428  -0.0000257847  -0.0002293266
        0.0001347910   0.0000334048   0.0001149247  -0.0000652175   0.0001321342
       -0.0000907380  -0.0000771575  -0.0001062653  -0.0000170108   0.0001783217
        0.0000538762   0.0004378424  -0.0000076877   0.0015082367  -0.0005715091
       -0.0005141253  -0.0003986233   0.0001771168  -0.0002395327   0.0001326457
       -0.0004084806   0.0003498482   0.0001794004   0.0002649971   0.0001513481
       -0.0004934051   0.0002331527  -0.0003651264   0.0000545171   0.0000110454
        0.0000160114  -0.0000648509  -0.0000277283   0.0000263561   0.0002863014
       -0.0000570751   0.0001366149   0.0001674050  -0.0003211532  -0.0010178088
        0.0008136553  -0.0009583313  -0.0002533444   0.0106496062  -0.0089897513
        0.0218191345  -0.0115124128  -0.0053023640   0.0048262030   0.0088732486
        0.0051911401  -0.0110215922   0.0009940688   0.0050156456   0.0039701918
       -0.0010653952  -0.0000892986  -0.0001336709  -0.0002645021   0.0001511408