84
 energy: -122.652405877416 gnorm: 0.000084531785 xtb: 6.7.1 (edcfbbe)
C           -1.09833985071896        0.34218747919251       -2.33292107791631
C           -1.78816482354033       -0.18049213054012       -1.11028398892634
C           -3.16738033423526       -0.19158628144120       -1.03053395858763
C           -3.82264988427847       -0.67356117063158        0.10479801457290
N           -5.21542886230348       -0.61430219208881        0.17838481630535
C           -5.93057147854243       -1.63135342468514        0.80469470324782
C           -7.12893933559530       -1.33318836842096        1.46331442524032
C           -7.85657300332434       -2.33683832467356        2.06776162994084
C           -7.40895894336558       -3.64925348526711        2.03112826084360
C           -6.22221338715744       -3.95111177968709        1.37809069181374
C           -5.48729037974868       -2.95750994222304        0.76589688482032
C           -5.90852895651986        0.41571667312588       -0.44130613836687
C           -7.07679699682387        0.06672409130854       -1.20396828139849
C           -7.72945455985173        1.00559017178786       -1.93557417998279
C           -7.28797704130778        2.34863321455323       -1.92909088975687
C           -6.17652151706875        2.74457997690719       -1.15901700695564
C           -5.76583937194522        4.08340207438096       -1.11790511231319
C           -4.69786173814859        4.49020363127064       -0.30595731196939
C           -4.06049362083803        3.57204799736417        0.48526503775301
C           -4.44883387529954        2.21925497104567        0.46104177719472
C           -5.47337214811285        1.77689394485250       -0.37529467313677
C           -3.06772275842812       -1.17189594815689        1.16776866197087
C           -1.69106631515776       -1.16327671858625        1.08934089119666
C           -1.03814181355028       -0.66525334720113       -0.03283335696540
C            0.44059883463083       -0.63906073573821       -0.07350041224300
C            1.14017062243867       -1.65960943806392       -0.70372967600173
C            2.51965622458792       -1.65857085499838       -0.74613342494667
C            3.23053682802725       -0.61125256629460       -0.16309787951334
N            4.62685495168571       -0.57369147704244       -0.18753740262681
C            5.34639312046898       -1.12246162841455       -1.24889588545048
C            4.86529543398759       -1.03283103923377       -2.55669637410146
C            5.59212946064046       -1.56357226547725       -3.60350815137155
C            6.81045586451327       -2.18165933434513       -3.37205791319346
C            7.29621361993121       -2.26657725334629       -2.07772203406872
C            6.57308598515253       -1.74814324926597       -1.02185838162209
C            5.30534391740495       -0.13366605291471        0.96464250004390
C            4.91854748901856       -0.60694648929732        2.20016840807424
C            5.58583360198304       -0.21230228215936        3.36215401671147
C            6.65016728958857        0.64453429879876        3.29055310688056
C            7.06351255861804        1.17120307940619        2.04954347429949
C            8.13989574134429        2.07862508215509        1.96007511990903
C            8.50572700546672        2.62108483242254        0.75963655289540
C            7.79777863509501        2.29028339635192       -0.40305424539779
C            6.75868343465102        1.40102033388052       -0.35435821167551
C            6.37515360533278        0.80062107148955        0.86252375146867
C            2.52611042559861        0.41384646378073        0.46839188508463
C            1.14410090393131        0.41021212848726        0.52521113955425
C            0.40377837702961        1.51829335717012        1.21174669374766
H           -0.59393491151070       -0.46826879030626       -2.85837475230149
H           -1.81122216482434        0.80658424651959       -3.00924003658333
H           -0.34045098547150        1.07448721643166       -2.05929466847142
H           -3.75877106680476        0.17749309253662       -1.85585580873057
H           -7.46421791469200       -0.30743095147063        1.50400494609580
H           -8.77657163054652       -2.09428135931853        2.57848689243743
H           -7.98043244227819       -4.43158198698903        2.50641428230045
H           -5.87338177881970       -4.97242906541175        1.33816136806478
H           -4.57584876118495       -3.19776496759288        0.23853247611800
H           -7.37353658114544       -0.97110018518810       -1.23246977955571
H           -8.58272878969421        0.73396267897931       -2.53885768423323
H           -7.81660147279865        3.08930113078097       -2.50883417991146
H           -6.29389439974223        4.81025651677427       -1.71714773797348
H           -4.39392988791415        5.52657407309252       -0.30533615727009
H           -3.24491325555412        3.86797748254036        1.12881982649045
H           -3.93730352946650        1.52727515452389        1.11170222258927
H           -3.56423196499922       -1.53371240838523        2.05607213705039
H           -1.10430097096188       -1.53930330069893        1.91505591020975
H            0.59148746015896       -2.47551366164763       -1.15244711045261
H            3.05025832411437       -2.47026222820307       -1.22087508931261
H            3.92512229320212       -0.53458391941103       -2.74397377103473
H            5.20844554891436       -1.48463326448802       -4.61033351241267
H            7.37687775170172       -2.59168760002779       -4.19430882068522
H            8.24377343450587       -2.74846828670437       -1.88641531471429
H            6.95191928213073       -1.82413181466124       -0.01326320103018
H            4.09334421361166       -1.30173231895009        2.26379294346058
H            5.26312551048165       -0.60732781828937        4.31416603679487
H            7.18306641766736        0.93799638396743        4.18308872024170
H            8.66759769417444        2.34146079881274        2.86594449728625
H            9.33153203499035        3.31510433060847        0.70200119870466
H            8.07553934681017        2.74428652614690       -1.34294572453011
H            6.21638711484829        1.16434733711886       -1.25679110168334
H            3.07847633945034        1.22600860778502        0.91960750239791
H           -0.38566085982853        1.91013684674566        0.57175093714273
H           -0.06840789967913        1.14844491653055        2.12166274748880
H            1.07953930507267        2.32716476025007        1.47791961473863
