$hessian                                                                        
        0.5156582159  -0.0194014631  -0.0011951840  -0.0732327285  -0.0296308196
       -0.0012934858   0.0006088492   0.0008442192   0.0005724499  -0.0110382053
       -0.0265161313  -0.0051625400   0.0007343938   0.0004712600   0.0002277528
        0.0001277026  -0.0001911933   0.0000376987   0.0000820234   0.0000486537
       -0.0000205554   0.0001028641   0.0000302049   0.0000178861   0.0000403426
        0.0000420680   0.0000485097  -0.0000345730   0.0000228371   0.0000032375
       -0.0000031700   0.0000139228  -0.0000037271  -0.0000033646   0.0000107268
        0.0000149812  -0.0000019263   0.0000040361  -0.0000086533  -0.0000082275
        0.0000054279   0.0000061402   0.0000020803  -0.0000025806  -0.0000060040
       -0.0000015952   0.0000031454   0.0000106140  -0.0000011424   0.0000030540
        0.0000005414   0.0000092230   0.0000001643  -0.0000011614  -0.0000124975
       -0.0000022626   0.0000026791   0.0000026057   0.0000006668  -0.0000006026
       -0.0000007251  -0.0000017989   0.0000012307   0.0000015376  -0.0000047313
       -0.0000058366  -0.0000002475   0.0000016821  -0.0000002690   0.0000012357
        0.0000014494   0.0000064216   0.0000097287   0.0000078326  -0.0000042090
        0.0000001784  -0.0000067591   0.0000058338   0.0000040840  -0.0000167355
       -0.0000098090   0.0000068447   0.0000111202   0.0000044703  -0.0492728758
        0.0171547206  -0.0297138092  -0.2661513828  -0.0138135311  -0.0570524826
       -0.1160697299   0.0578339962   0.0939168118   0.0034343761   0.0167697476
        0.0028887710   0.0004587153   0.0002905150  -0.0006122892   0.0002267743
       -0.0005622799  -0.0002214017   0.0005197047   0.0006920977  -0.0001806330
        0.0005128979  -0.0005304171   0.0007889938  -0.0050720745  -0.0022146788
       -0.0024416893  -0.0002016871  -0.0002232842  -0.0000226998  -0.0011464118
       -0.0009055067  -0.0004625531  -0.0001237277  -0.0000269973  -0.0001255983
        0.0000085583  -0.0000641501   0.0000379793  -0.0000355386  -0.0000167612
       -0.0000044982  -0.0000336223  -0.0000570724  -0.0000319545  -0.0000548217
        0.0000163243   0.0000126828  -0.0000159793  -0.0000062832   0.0000008148
       -0.0000004665  -0.0000146241  -0.0000072726   0.0000060239  -0.0000039848
       -0.0000246842   0.0000220118   0.0000029824   0.0000114163  -0.0000066495
       -0.0000131204  -0.0000012693  -0.0000074083  -0.0000067322   0.0000084393
        0.0000017576  -0.0000050075  -0.0000042077  -0.0000025977  -0.0000027103
        0.0000037386   0.0000022617  -0.0000013301  -0.0000011959   0.0000026485
       -0.0000027683  -0.0000013906  -0.0000018002  -0.0000026493   0.0000031707
       -0.0000009202  -0.0000030045  -0.0000017412   0.0000005452  -0.0000014274
       -0.0000020856  -0.0000024455  -0.0000005584  -0.0000013115   0.0000043840
       -0.0000020885   0.0000004198  -0.0000020917  -0.0000023961   0.0000014078
       -0.0000039950   0.0000002103  -0.0000012883  -0.0000020583  -0.0000002095
        0.0000004761  -0.0000009634  -0.0000018365  -0.0000002512   0.0000003060
       -0.0000006044  -0.0000010270   0.0000003620  -0.0000014714  -0.0000012477
       -0.0000040783  -0.0000014385   0.0000024726  -0.0000007004  -0.0000026615
       -0.0000020978  -0.0000047373  -0.0000035884   0.0000038634  -0.0000103691
        0.0000032097  -0.0000014412  -0.0000006840  -0.0000022645  -0.0000010938
       -0.0000030097  -0.0000054276   0.0000004256  -0.0000019228  -0.0000036063
       -0.0000090380  -0.0000129916  -0.0000023659   0.0000128317  -0.0000070936
       -0.0000029614  -0.0000108733
       -0.0194014631   0.4580802193  -0.0058602533  -0.0277825659  -0.1846829047
       -0.0136447055  -0.0038545849  -0.0217124697   0.0048003829  -0.0074240551
       -0.0076654597  -0.0023717150   0.0001102310  -0.0000653166   0.0000706303
        0.0000515720  -0.0001072866  -0.0001506545   0.0000435386  -0.0000405213
        0.0000264836  -0.0000867031  -0.0000427226   0.0000011672  -0.0000098126
       -0.0000199364  -0.0000300796   0.0000606289  -0.0000170060   0.0000033864
        0.0000088544   0.0000039418   0.0000035460   0.0000030645  -0.0000167063
       -0.0000068582   0.0000011909   0.0000038762   0.0000012641   0.0000059924
       -0.0000036573  -0.0000027898   0.0000089131  -0.0000030842  -0.0000002603
       -0.0000021555   0.0000006786   0.0000022779   0.0000008122   0.0000003215
       -0.0000023736   0.0000038354  -0.0000052181  -0.0000025152  -0.0000015744
       -0.0000005189   0.0000017926  -0.0000007263  -0.0000020219  -0.0000000456
       -0.0000033501  -0.0000022861   0.0000007372   0.0000015105  -0.0000002456
       -0.0000012684  -0.0000004233  -0.0000039946   0.0000000575  -0.0000004408
       -0.0000072012   0.0000010913  -0.0000068228  -0.0000026884  -0.0000012599
       -0.0000047564  -0.0000096723  -0.0000006343   0.0000051222  -0.0000006882
        0.0000017624   0.0000045919  -0.0000201921  -0.0000017877   0.0170978689
       -0.0946429062   0.0970570332  -0.0137515441  -0.0427729915  -0.0032181922
        0.0574974988  -0.0875971275  -0.0736402241  -0.0026243625  -0.0203879011
       -0.0045920437   0.0003438381  -0.0015697935   0.0029391004   0.0000101611
        0.0011375417  -0.0011483694  -0.0002650242   0.0003893763  -0.0006449183
        0.0007973119   0.0007180613   0.0003801524  -0.0009280424   0.0005912366
       -0.0001134000  -0.0000342967   0.0000763347  -0.0000695522   0.0001284372
        0.0001243607   0.0001820426   0.0000044591   0.0000706033   0.0000334858
       -0.0000386424   0.0000047227  -0.0000064887   0.0000009271   0.0000243537
       -0.0000174813   0.0000550685   0.0000238702   0.0000161573   0.0000113028
        0.0000186754  -0.0000029202   0.0000027814   0.0000135410  -0.0000043148
       -0.0000016855   0.0000092050   0.0000058874  -0.0000146700   0.0000108036
       -0.0000162592  -0.0000047977   0.0000194994   0.0000129996  -0.0000022574
        0.0000082995   0.0000001675  -0.0000048861   0.0000017814   0.0000004980
       -0.0000005381   0.0000049485   0.0000016778  -0.0000004345   0.0000009273
        0.0000019026   0.0000015950   0.0000023176  -0.0000000476  -0.0000038735
        0.0000021105  -0.0000014136  -0.0000013788   0.0000008961   0.0000003640
       -0.0000001616   0.0000019095   0.0000007997   0.0000007409   0.0000002588
       -0.0000001230  -0.0000007495   0.0000012366  -0.0000003795   0.0000003399
       -0.0000028193  -0.0000020059   0.0000003200   0.0000000532   0.0000008562
       -0.0000016941   0.0000026607  -0.0000004414   0.0000000920   0.0000040744
        0.0000021032   0.0000001237   0.0000001415   0.0000000995   0.0000006653
        0.0000019876   0.0000028874   0.0000005459   0.0000000624  -0.0000020859
       -0.0000021783  -0.0000009130   0.0000003786   0.0000006038   0.0000031075
        0.0000000032   0.0000007965   0.0000016622   0.0000015432  -0.0000037671
        0.0000073718   0.0000006077  -0.0000005245   0.0000032366  -0.0000001478
        0.0000022835   0.0000131370   0.0000017527  -0.0000031799   0.0000076256
       -0.0000084327  -0.0000042148   0.0000047475   0.0000018979   0.0000047190
        0.0000104742   0.0000074649
       -0.0011951840  -0.0058602533   0.5254974395  -0.0009130623  -0.0137419111
       -0.0666666115   0.0052312705   0.0255544371  -0.0019424713  -0.0045197290
       -0.0090484682  -0.0018772314  -0.0001983512  -0.0000899812  -0.0001528394
       -0.0000361777  -0.0000257829  -0.0000889634   0.0000167250  -0.0000012289
       -0.0000660198  -0.0000252757   0.0000060485  -0.0000568149  -0.0000136738
       -0.0000051493  -0.0000048608  -0.0000137083  -0.0000046109  -0.0000151687
       -0.0000088119   0.0000004097  -0.0000027462  -0.0000051292  -0.0000050817
       -0.0000001491  -0.0000022063   0.0000013506  -0.0000032294  -0.0000022416
       -0.0000039075  -0.0000006484  -0.0000015249  -0.0000030541   0.0000004111
       -0.0000010845   0.0000010098   0.0000001384  -0.0000033225  -0.0000007577
       -0.0000041057  -0.0000048764  -0.0000068884   0.0000027305   0.0000021047
        0.0000027599  -0.0000060294  -0.0000019754  -0.0000021776  -0.0000030370
       -0.0000008107   0.0000010769  -0.0000035404   0.0000007795   0.0000016345
       -0.0000021206  -0.0000042741   0.0000033920  -0.0000084717  -0.0000009056
       -0.0000017971  -0.0000031068  -0.0000032985  -0.0000012530  -0.0000070628
       -0.0000067940   0.0000017424  -0.0000071197   0.0000041642  -0.0000015046
       -0.0000168998  -0.0000225350  -0.0000011530  -0.0000082108  -0.0298876749
        0.0973468261  -0.2246025509  -0.0570862994  -0.0034725703  -0.0593111793
        0.0936367633  -0.0737098624  -0.1659585760  -0.0028804104  -0.0212941025
       -0.0028427686  -0.0002711818   0.0042292225  -0.0043077192  -0.0001296000
        0.0011763804   0.0011339538   0.0006375967   0.0003936644   0.0004946041
       -0.0003484630  -0.0009612081   0.0004601701  -0.0023987406  -0.0005310075
       -0.0003431836  -0.0000503043   0.0000702539   0.0000748893   0.0003820909
       -0.0000122166   0.0004021747   0.0000256578   0.0000069626  -0.0000012903
       -0.0000121931  -0.0000277840   0.0000666110   0.0000217162   0.0000177580
        0.0000162806   0.0000460992  -0.0000260646   0.0000544484   0.0000032363
        0.0000122995   0.0000065619  -0.0000136710  -0.0000156509   0.0000017415
        0.0000039326  -0.0000054446   0.0000160405   0.0000078256   0.0000097427
       -0.0000034448   0.0000060657   0.0000084612   0.0000140169   0.0000006547
        0.0000024820   0.0000040488  -0.0000037058   0.0000004165   0.0000075939
        0.0000032862  -0.0000009060   0.0000091668  -0.0000003874   0.0000015362
        0.0000048080   0.0000025783   0.0000017350   0.0000054535   0.0000013480
        0.0000024545   0.0000035960   0.0000001370  -0.0000000346   0.0000047134
       -0.0000007563  -0.0000010942   0.0000024131   0.0000026147  -0.0000006868
        0.0000060925  -0.0000011731  -0.0000022095  -0.0000008828   0.0000031233
       -0.0000029507   0.0000073304   0.0000000112   0.0000023248   0.0000004077
       -0.0000000836   0.0000005115  -0.0000022943   0.0000008300   0.0000019960
       -0.0000010007   0.0000005047  -0.0000024591  -0.0000014798   0.0000001986
        0.0000002976   0.0000022019   0.0000021311   0.0000037286   0.0000016726
        0.0000005294   0.0000016006   0.0000027826   0.0000010887  -0.0000017921
        0.0000042520   0.0000017838   0.0000036022   0.0000019157   0.0000004674
       -0.0000001984  -0.0000005749   0.0000001805  -0.0000050175   0.0000055427
        0.0000052033  -0.0000016125   0.0000017012   0.0000066395   0.0000074349
        0.0000001202  -0.0000017529   0.0000036359   0.0000035449   0.0000120117
        0.0000006443   0.0000028339
       -0.0732327285  -0.0277825659  -0.0009130623   0.4812204228  -0.0127822585
       -0.0219165138  -0.0669651683   0.0067695412  -0.0081978121  -0.1613472128
       -0.0132805567  -0.0422746653  -0.0249407094   0.0006699453  -0.0034237301
       -0.0023800175   0.0014038501   0.0021794961  -0.0007522556  -0.0002251772
       -0.0004203705   0.0000317718  -0.0000390634  -0.0000134452  -0.0001764061
        0.0001048492   0.0000865608   0.0001121729   0.0000019954  -0.0000362673
        0.0000429523   0.0000003097  -0.0000041399  -0.0000090964  -0.0000053445
       -0.0000023770   0.0000113368  -0.0000001921  -0.0000094595   0.0000046148
        0.0000026029  -0.0000034943   0.0000100409  -0.0000049819  -0.0000042335
        0.0000013699   0.0000016207   0.0000036815   0.0000035098   0.0000003052
        0.0000018692   0.0000113637  -0.0000023325  -0.0000044967  -0.0000084217
       -0.0000029702   0.0000032740   0.0000053065   0.0000013589  -0.0000026207
        0.0000033493  -0.0000040439  -0.0000003845   0.0000055692  -0.0000034780
       -0.0000099194   0.0000008457  -0.0000011209  -0.0000049154   0.0000038904
       -0.0000042829   0.0000012432   0.0000134534   0.0000053081  -0.0000110750
        0.0000124241  -0.0000120996  -0.0000089668  -0.0000196312  -0.0000398350
       -0.0000493166   0.0000120580  -0.0000061241  -0.0000111552   0.0008207100
        0.0027461998   0.0004442107  -0.0109966578  -0.0293001770  -0.0039530766
        0.0042740038   0.0164242887   0.0022196970  -0.1278787247   0.0573851486
        0.0892515931   0.0006932254  -0.0042718873   0.0067186665   0.0015360310
       -0.0073948848   0.0160421851  -0.0062867161   0.0136127271  -0.0268140479
       -0.0054419402   0.0004036660  -0.0044620373  -0.0095509609  -0.0041843498
       -0.0043176408   0.0006062591  -0.0002472630  -0.0003334852   0.0006602898
       -0.0002814001  -0.0003489623   0.0000844554   0.0002342296   0.0001092254
        0.0000669140  -0.0000536318   0.0002690046  -0.0000515032   0.0000001743
       -0.0000243541  -0.0000669126   0.0000778350   0.0000157077   0.0000366965
        0.0000238759  -0.0000276521   0.0000161950  -0.0000122984   0.0000562584
        0.0000123254   0.0000048880   0.0000721819  -0.0000507676   0.0000085520
        0.0000131209  -0.0000426365   0.0000276679   0.0000221518  -0.0000118288
        0.0000023280   0.0000067379  -0.0000173805  -0.0000032950   0.0000075531
       -0.0000038402   0.0000025982   0.0000149039  -0.0000065354   0.0000005954
        0.0000066672  -0.0000034022   0.0000017180   0.0000029768  -0.0000041135
       -0.0000009331   0.0000027242  -0.0000048460  -0.0000009324   0.0000037624
       -0.0000015182  -0.0000003810  -0.0000001580  -0.0000020693   0.0000005691
       -0.0000005810  -0.0000016819   0.0000006033  -0.0000000579   0.0000017754
       -0.0000004162  -0.0000004149  -0.0000022549   0.0000005119   0.0000013062
       -0.0000030354   0.0000013643  -0.0000000179  -0.0000016356   0.0000030421
        0.0000004275  -0.0000023028  -0.0000003599  -0.0000003241  -0.0000004852
        0.0000027496   0.0000022794  -0.0000007622  -0.0000005972   0.0000015022
       -0.0000011216   0.0000008133   0.0000040747  -0.0000034454   0.0000010133
        0.0000034756  -0.0000052949   0.0000032062   0.0000052329  -0.0000073290
        0.0000049095   0.0000034163  -0.0000060618  -0.0000009250   0.0000116849
       -0.0000097275   0.0000018875   0.0000026807  -0.0000128205   0.0000026981
        0.0000001218   0.0000054495   0.0000042883   0.0000099197  -0.0000088224
        0.0000043231   0.0000036562
       -0.0296308196  -0.1846829047  -0.0137419111  -0.0127822585   0.4839730064
        0.0175952043   0.0074927978  -0.0920315700   0.0514654430  -0.0102254060
       -0.0657343444  -0.0058880680   0.0090568618   0.0014700748   0.0040582682
        0.0015997371  -0.0007805720  -0.0011876571   0.0005769909   0.0001800378
        0.0001832005  -0.0000417388  -0.0000180504   0.0000235107   0.0001201236
       -0.0000695240  -0.0001044504   0.0000468715  -0.0000222737  -0.0000009230
        0.0000169934  -0.0000053936   0.0000101290   0.0000113458  -0.0000155270
       -0.0000115639   0.0000061880   0.0000049238   0.0000024131   0.0000057295
       -0.0000015567  -0.0000010520   0.0000094969  -0.0000037184  -0.0000021248
       -0.0000005523  -0.0000002192   0.0000034745   0.0000005832  -0.0000003562
        0.0000000125   0.0000066436  -0.0000019151  -0.0000029749  -0.0000038421
       -0.0000042324   0.0000011551   0.0000005578  -0.0000010957  -0.0000008747
       -0.0000009151  -0.0000038398   0.0000020533   0.0000016572  -0.0000007551
       -0.0000019949   0.0000017648  -0.0000031725   0.0000004343   0.0000009257
       -0.0000086489   0.0000021070   0.0000000020  -0.0000029790  -0.0000015265
        0.0000034986  -0.0000096412  -0.0000001608   0.0000388350   0.0000189267
        0.0000140075   0.0000140462  -0.0000166453   0.0000039186  -0.0037283383
       -0.0182696619   0.0020384258  -0.0039833060  -0.0059041126  -0.0016374938
       -0.0008644595  -0.0182574500  -0.0054073623   0.0577584009  -0.0805575553
       -0.0593993156   0.0018012541  -0.0181731492   0.0258997230  -0.0018422409
        0.0057965512  -0.0101964192   0.0008366312  -0.0002744194   0.0013900149
        0.0113812043   0.0011545025   0.0070158551  -0.0274597478  -0.0079538022
       -0.0125121590  -0.0003296248   0.0002411152   0.0001939976   0.0003042141
       -0.0002334585   0.0002405310  -0.0000210433   0.0000360343  -0.0000454754
       -0.0000657624  -0.0000117057  -0.0000008807  -0.0000290170   0.0000486891
       -0.0000011728   0.0000513244  -0.0000012873  -0.0000021996  -0.0000096939
        0.0000245925   0.0000026592  -0.0000046185   0.0000187879  -0.0000026695
       -0.0000153065   0.0000011308   0.0000074546  -0.0000301523   0.0000043533
       -0.0000105819   0.0000009299   0.0000102288   0.0000049883  -0.0000086618
        0.0000031863  -0.0000012862  -0.0000119350   0.0000026164   0.0000009762
       -0.0000052597   0.0000026888   0.0000010358  -0.0000041873   0.0000021961
        0.0000000662  -0.0000018278   0.0000023363  -0.0000003747  -0.0000075579
       -0.0000005143   0.0000000966  -0.0000034663   0.0000022348   0.0000006019
       -0.0000025263   0.0000017044   0.0000001452  -0.0000013074   0.0000018222
       -0.0000001773  -0.0000011821   0.0000018662  -0.0000001655  -0.0000005616
        0.0000002069  -0.0000009747  -0.0000005029   0.0000011388   0.0000005207
       -0.0000016464   0.0000025159  -0.0000003500  -0.0000005630   0.0000028772
        0.0000000109  -0.0000009715   0.0000017545   0.0000001436  -0.0000011587
        0.0000011990   0.0000012128  -0.0000011227   0.0000002969  -0.0000013899
       -0.0000020109   0.0000003823   0.0000007517  -0.0000023046   0.0000033062
       -0.0000007808  -0.0000010176   0.0000036477   0.0000002151  -0.0000020935
        0.0000053197   0.0000021700  -0.0000033554   0.0000065612  -0.0000011992
        0.0000005637   0.0000063974  -0.0000012222  -0.0000100512   0.0000043686
       -0.0000038359  -0.0000012926   0.0000052617   0.0000038224  -0.0000007650
        0.0000072112   0.0000020180
       -0.0012934858  -0.0136447055  -0.0666666115  -0.0219165138   0.0175952043
        0.5011955419  -0.0099313588   0.0515259401  -0.1656908877  -0.0366086717
       -0.0064630738  -0.0820094122   0.0123073491   0.0025041756   0.0071554474
        0.0025398551  -0.0012073466  -0.0017822844   0.0008640735   0.0000249108
        0.0004139100   0.0000563342   0.0000063026  -0.0000654635   0.0001790503
       -0.0000621257  -0.0001490090   0.0000607362   0.0000045645  -0.0000313324
        0.0000192883   0.0000027883  -0.0000090849   0.0000131321  -0.0000015551
       -0.0000217507   0.0000084625   0.0000096275  -0.0000050034   0.0000029427
        0.0000024760  -0.0000053305   0.0000039540  -0.0000047613  -0.0000076637
        0.0000011444   0.0000028449   0.0000022002   0.0000006696   0.0000023676
       -0.0000041444   0.0000095286  -0.0000000931  -0.0000012377  -0.0000094555
       -0.0000027692  -0.0000013985   0.0000033188   0.0000009279  -0.0000035605
        0.0000035188  -0.0000001305  -0.0000016550   0.0000047993  -0.0000030872
       -0.0000082498  -0.0000010350   0.0000005672  -0.0000083907   0.0000016375
       -0.0000000684  -0.0000032797   0.0000160128   0.0000053657  -0.0000065586
        0.0000142024   0.0000043238  -0.0000203022   0.0000624962   0.0000229895
       -0.0000003240   0.0000038082   0.0000030923  -0.0000166371   0.0058854017
        0.0260356959   0.0002009623  -0.0033909999  -0.0077666645  -0.0010571398
       -0.0040072727  -0.0220026050  -0.0040265961   0.0899005866  -0.0594676503
       -0.1344566063   0.0004418718   0.0019995230   0.0002714993   0.0009093877
        0.0086003053  -0.0253562600  -0.0043874452   0.0051564305  -0.0114403722
       -0.0260119149  -0.0015343241  -0.0151880465  -0.0056274828  -0.0017151103
       -0.0019702222   0.0003048167   0.0004799404   0.0000149978  -0.0001096795
       -0.0001118894   0.0004775649  -0.0000712331   0.0000717612  -0.0000390739
       -0.0000328572  -0.0000774514   0.0000600865  -0.0000255686   0.0000339916
        0.0000376497  -0.0000368960   0.0000018050   0.0000359205   0.0000058129
        0.0000064987   0.0000017650  -0.0000129242   0.0000040442   0.0000090925
       -0.0000231669  -0.0000088827   0.0000263388  -0.0000133605  -0.0000113696
        0.0000091301  -0.0000220493   0.0000034905   0.0000140121  -0.0000100448
       -0.0000059649   0.0000050222  -0.0000105461  -0.0000108216   0.0000085107
       -0.0000065226  -0.0000025359   0.0000107169  -0.0000050277  -0.0000028096
        0.0000042072  -0.0000022418   0.0000018998   0.0000022942  -0.0000016328
       -0.0000017605   0.0000009220  -0.0000033245  -0.0000013839   0.0000029793
       -0.0000016094   0.0000008579  -0.0000000501  -0.0000011902   0.0000021988
        0.0000021439  -0.0000025013   0.0000015557  -0.0000002959   0.0000036626
       -0.0000005968   0.0000015700  -0.0000029192   0.0000008886   0.0000015832
       -0.0000033881   0.0000015232   0.0000016889  -0.0000022158   0.0000004181
        0.0000022695  -0.0000022112  -0.0000001956   0.0000013738  -0.0000014821
       -0.0000017199   0.0000025934  -0.0000003667  -0.0000010492   0.0000021146
       -0.0000009844  -0.0000018330   0.0000075117  -0.0000047028  -0.0000005177
        0.0000055138  -0.0000047703   0.0000015586   0.0000060809  -0.0000061526
        0.0000027797   0.0000039261  -0.0000103444  -0.0000003742   0.0000098580
       -0.0000107741  -0.0000036626   0.0000078195   0.0000002971   0.0000013692
        0.0000122236   0.0000019498  -0.0000013944   0.0000135106  -0.0000017772
       -0.0000047213   0.0000116819
        0.0006088492  -0.0038545849   0.0052312705  -0.0669651683   0.0074927978
       -0.0099313588   0.5204430701   0.0056008226  -0.0086551456  -0.0064498600
        0.0111112652  -0.0249389308   0.0006250427  -0.0001997835   0.0005360029
        0.0001591644   0.0001341496  -0.0000955709   0.0000830202  -0.0000781069
        0.0000282904  -0.0000024876  -0.0000479149   0.0000613075   0.0000338300
        0.0000213085   0.0000407813   0.0000394078  -0.0000006227   0.0000367709
        0.0000243474   0.0000120123   0.0000023655   0.0000002457  -0.0000080236
        0.0000170184   0.0000010904   0.0000058503  -0.0000059156  -0.0000056672
        0.0000039324   0.0000072376   0.0000073593  -0.0000039532  -0.0000057770
       -0.0000021583   0.0000028808   0.0000125231  -0.0000010210   0.0000025164
        0.0000023511   0.0000114445  -0.0000007302  -0.0000036405  -0.0000126540
       -0.0000025954   0.0000030571   0.0000018556   0.0000005064  -0.0000021721
       -0.0000030410  -0.0000049057   0.0000032087   0.0000007587  -0.0000032619
       -0.0000063391   0.0000010832   0.0000003318   0.0000014174   0.0000014750
       -0.0000075464   0.0000112663   0.0000022312   0.0000049816  -0.0000048732
       -0.0000055068  -0.0000235782   0.0000178163   0.0000061512  -0.0000176635
       -0.0000029767   0.0000231082  -0.0000109280   0.0000133786   0.0001171259
       -0.0017122563  -0.0000013012   0.0005000336  -0.0004549631   0.0005854389
        0.0003143738   0.0003379954  -0.0004641262   0.0010116812  -0.0072060307
        0.0169739871  -0.0646339236  -0.0658914263  -0.0056344575  -0.1154544072
        0.0589165801   0.0925933692  -0.2647928668  -0.0056004309  -0.0609698858
       -0.0048363276  -0.0000261958  -0.0036788601   0.0005191202   0.0009419855
       -0.0001375715  -0.0009109132   0.0002918528  -0.0010930476  -0.0001499516
        0.0001347329  -0.0001975128   0.0000335123   0.0000811483  -0.0000284354
       -0.0001413514  -0.0000617874  -0.0001327652  -0.0000280872   0.0000128318
       -0.0000332149  -0.0000128161  -0.0000180702  -0.0000386088  -0.0000315717
        0.0000398493   0.0000129029   0.0000065394   0.0000220828  -0.0000158781
       -0.0000053330   0.0000022763  -0.0000230171  -0.0000263111   0.0000155195
       -0.0000271712  -0.0000018258   0.0000158774   0.0000000037  -0.0000175484
       -0.0000097953  -0.0000033417  -0.0000144023  -0.0000002408   0.0000065696
       -0.0000027300   0.0000006669  -0.0000094062  -0.0000047413   0.0000015227
        0.0000019285  -0.0000000970  -0.0000001272  -0.0000017626  -0.0000021235
       -0.0000002056   0.0000004718  -0.0000040210   0.0000007070   0.0000035158
       -0.0000021297  -0.0000021822  -0.0000016679   0.0000002875  -0.0000008278
       -0.0000039285  -0.0000018903   0.0000005853  -0.0000022702   0.0000033976
       -0.0000004174  -0.0000008624  -0.0000014633  -0.0000006849   0.0000000425
       -0.0000036538   0.0000017763  -0.0000031783  -0.0000009800   0.0000026279
       -0.0000021094   0.0000002419   0.0000002357  -0.0000026571   0.0000000751
        0.0000023285  -0.0000022680  -0.0000005416   0.0000006063  -0.0000029771
       -0.0000049222   0.0000014568   0.0000007160  -0.0000006025   0.0000006321
       -0.0000058386  -0.0000026016  -0.0000005817   0.0000017960  -0.0000103168
        0.0000082710  -0.0000024873   0.0000018592   0.0000050603  -0.0000101197
        0.0000016816   0.0000044490  -0.0000049611  -0.0000109972   0.0000033517
       -0.0000168223  -0.0000158899   0.0000058012   0.0000105927  -0.0000085607
        0.0000042561  -0.0000121859
        0.0008442192  -0.0217124697   0.0255544371   0.0067695412  -0.0920315700
        0.0515259401   0.0056008226   0.5088452094   0.0307549913   0.0018326558
       -0.0001634750   0.0008924360  -0.0003567106  -0.0000551483  -0.0002192264
       -0.0000822291  -0.0000099685   0.0000530039  -0.0000125481  -0.0000432469
       -0.0000284738  -0.0000589369  -0.0000147366  -0.0000053348  -0.0000179300
       -0.0000196546   0.0000043455   0.0000219454  -0.0000237704   0.0000105576
        0.0000086087  -0.0000009941   0.0000033853   0.0000008815  -0.0000176156
        0.0000049495  -0.0000007290   0.0000001783   0.0000021473   0.0000024877
       -0.0000018645  -0.0000014453   0.0000052955  -0.0000013944  -0.0000003392
        0.0000001785  -0.0000013447   0.0000015113   0.0000003303  -0.0000008553
        0.0000000188   0.0000001416  -0.0000014588  -0.0000005559   0.0000023518
       -0.0000023213   0.0000017223  -0.0000009638  -0.0000018678  -0.0000009800
       -0.0000036060  -0.0000018666   0.0000011792  -0.0000008048   0.0000003603
       -0.0000001561  -0.0000022102  -0.0000024469   0.0000001364  -0.0000002317
       -0.0000069311   0.0000037092  -0.0000082314  -0.0000045832  -0.0000030291
       -0.0000071530  -0.0000084150   0.0000049765   0.0000017062  -0.0000041224
       -0.0000065730  -0.0000115830  -0.0000167298  -0.0000099959  -0.0015551132
       -0.0064334941   0.0008139963   0.0006496119   0.0005632553   0.0005308051
       -0.0000590280   0.0011058451   0.0012923499  -0.0000746321   0.0049784557
       -0.0083816764  -0.0660354038  -0.2592806327  -0.0218939145   0.0588977164
       -0.0931659303  -0.0771173426  -0.0056641789  -0.0441109230  -0.0028868738
       -0.0006336113   0.0004471716  -0.0003034870  -0.0005682369   0.0007527322
       -0.0009208892   0.0004147538   0.0002003328   0.0002346331   0.0000153775
        0.0000418593   0.0001038595   0.0000135231   0.0000511315   0.0000167431
        0.0000270719   0.0000077745  -0.0000250441   0.0000347000   0.0000168346
       -0.0000038610   0.0000241920  -0.0000075553   0.0000197488   0.0000088186
        0.0000092711   0.0000063518  -0.0000023150   0.0000023895  -0.0000156545
       -0.0000005159   0.0000094091  -0.0000114338  -0.0000173129   0.0000293410
        0.0000021747  -0.0000096736   0.0000128057  -0.0000065306  -0.0000045936
        0.0000040510  -0.0000032335  -0.0000011868   0.0000073211  -0.0000001919
       -0.0000012546   0.0000047688  -0.0000025064   0.0000017584   0.0000038629
       -0.0000006933  -0.0000012140   0.0000012167   0.0000005841  -0.0000053925
        0.0000005627   0.0000025137  -0.0000005046   0.0000048980   0.0000016198
       -0.0000012088   0.0000016252   0.0000042260  -0.0000010626  -0.0000004578
       -0.0000005490  -0.0000006871   0.0000003935   0.0000010021  -0.0000020369
        0.0000010333  -0.0000015940  -0.0000000799   0.0000012479  -0.0000001122
       -0.0000008316   0.0000013074   0.0000002231   0.0000006560   0.0000014672
        0.0000005823   0.0000007432   0.0000001325  -0.0000002727   0.0000014060
        0.0000023401   0.0000002044   0.0000005576   0.0000019120  -0.0000005541
        0.0000003391   0.0000006708   0.0000003166   0.0000001686   0.0000017545
       -0.0000014838   0.0000025820   0.0000024985  -0.0000011575  -0.0000010736
        0.0000051090  -0.0000009146  -0.0000001632   0.0000006932  -0.0000045300
        0.0000046940   0.0000051896   0.0000005994   0.0000057155   0.0000148369
        0.0000006318  -0.0000004992   0.0000045870   0.0000011175   0.0000101267
        0.0000000078   0.0000068794
        0.0005724499   0.0048003829  -0.0019424713  -0.0081978121   0.0514654430
       -0.1656908877  -0.0086551456   0.0307549913   0.4701485194  -0.0076463102
        0.0058125349  -0.0139563598   0.0000750413  -0.0000033690  -0.0000522593
        0.0000392794  -0.0000821430  -0.0002099487   0.0000316973   0.0000018439
       -0.0000422382   0.0000105152   0.0000051760  -0.0000378261  -0.0000068342
       -0.0000036064  -0.0000238338  -0.0000021111  -0.0000075186  -0.0000391395
       -0.0000042850  -0.0000040767  -0.0000098871  -0.0000052316  -0.0000016516
       -0.0000080234  -0.0000014119  -0.0000000778  -0.0000065459  -0.0000033067
        0.0000001301  -0.0000073330  -0.0000009455  -0.0000021994  -0.0000043441
       -0.0000025993   0.0000006600  -0.0000019297   0.0000011553   0.0000012083
       -0.0000044944   0.0000007620  -0.0000001001  -0.0000023989  -0.0000025398
       -0.0000003315  -0.0000037907   0.0000000271  -0.0000015196  -0.0000057984
        0.0000008608  -0.0000003583  -0.0000043507   0.0000014178   0.0000013247