$hessian                                                                        
        0.4865615187   0.0262210683   0.0263180048  -0.1293808229   0.0456229691
        0.0467484695   0.0024445840   0.0001942521  -0.0013842099  -0.0281032064
        0.0124427807   0.0087731481  -0.0040268119  -0.0001111808  -0.0026687673
       -0.0009979453   0.0005483167   0.0006040127  -0.0002770212  -0.0001200402
       -0.0002009053  -0.0000078474  -0.0000086088   0.0000245361  -0.0000774232
        0.0000616120   0.0000671639   0.0000104974  -0.0000022029   0.0000150532
        0.0000062540   0.0000087798  -0.0000030937  -0.0000172285  -0.0000067907
        0.0000172784   0.0000011750   0.0000031343  -0.0000065558  -0.0000102723
       -0.0000006055  -0.0000045986   0.0000001810  -0.0000135949   0.0000097987
        0.0000067085   0.0000049262  -0.0000061424  -0.0000033807   0.0000036063
       -0.0000032398   0.0000153540  -0.0000027722   0.0000061587  -0.0000200186
        0.0000009530  -0.0000014647  -0.0000009104  -0.0000000443  -0.0000018611
       -0.0000013400  -0.0000017488   0.0000044618   0.0000041141  -0.0000009343
        0.0000005877  -0.0000016116  -0.0000005465   0.0000000102  -0.0000020882
       -0.0000015771   0.0000107544   0.0000005650   0.0000007948  -0.0000042211
       -0.0000089742  -0.0000101012   0.0000153205  -0.0000053108  -0.0000306361
       -0.0000171553  -0.0000015055  -0.0000050179  -0.0000009732  -0.0480481035
       -0.0135067576   0.0282734516  -0.0592548043  -0.0607104894  -0.0068724765
       -0.2155417788  -0.0123269791  -0.1060504079  -0.0057475122   0.0037162374
        0.0060733904   0.0010458611  -0.0011039242  -0.0003523597   0.0004164404
       -0.0017832573  -0.0005539656   0.0003198530  -0.0004140015  -0.0003356260
        0.0005858856   0.0000056110   0.0007352372   0.0002992669   0.0012233036
        0.0009739593   0.0000244205   0.0000396820  -0.0002527817  -0.0001864490
       -0.0000266415   0.0000900267   0.0000286981   0.0000766256   0.0000335156
       -0.0000124643  -0.0000000304   0.0000364971   0.0000249923  -0.0000022618
       -0.0000529573  -0.0000046228  -0.0000010833  -0.0000095438  -0.0000063757
       -0.0000672720  -0.0000052482  -0.0000210120   0.0000231202   0.0000071753
        0.0000011761   0.0000023514  -0.0000056986  -0.0000047162   0.0000275691
       -0.0000248794  -0.0000058672   0.0000199494   0.0000037220  -0.0000142850
       -0.0000116466  -0.0000052919  -0.0000087009   0.0000017919   0.0000057260
        0.0000013985   0.0000022822  -0.0000047743  -0.0000007745   0.0000014975
        0.0000024526   0.0000010564   0.0000013196  -0.0000007121   0.0000005573
        0.0000004369   0.0000026531  -0.0000001451   0.0000046122  -0.0000042717
       -0.0000011581   0.0000015090   0.0000030379  -0.0000021962  -0.0000022360
        0.0000001965  -0.0000001273   0.0000007205  -0.0000003344   0.0000041587
        0.0000008145   0.0000027087   0.0000001055   0.0000005548   0.0000025084
       -0.0000029197   0.0000030125  -0.0000012408   0.0000021417   0.0000002288
        0.0000000667   0.0000010952   0.0000001740  -0.0000010599  -0.0000053491
        0.0000008050   0.0000036916   0.0000029804   0.0000002282   0.0000001275
        0.0000031298   0.0000010794  -0.0000028208   0.0000008915   0.0000002139
       -0.0000043760   0.0000027300  -0.0000008857   0.0000022710  -0.0000093416
        0.0000082812  -0.0000028133   0.0000034073   0.0000005415  -0.0000052875
        0.0000078751  -0.0000060754  -0.0000008767   0.0000069478   0.0000085959
       -0.0000153100  -0.0000202523   0.0000030286   0.0000109511   0.0000066541
       -0.0000094267  -0.0000098231
        0.0262210683   0.5066769688  -0.0156891293   0.0454122162  -0.0950384262
       -0.0293789536   0.0190888171  -0.0232317992  -0.0160761959   0.0029658591
       -0.0007437364   0.0000592711  -0.0004961821   0.0003042793  -0.0000846581
       -0.0000451447   0.0000365794   0.0000030561  -0.0000340683  -0.0000194782
       -0.0000338178  -0.0000460016  -0.0000106625   0.0000151475  -0.0000125389
       -0.0000096496   0.0000060512   0.0000067965  -0.0000126239  -0.0000016772
        0.0000023048  -0.0000009678  -0.0000027933   0.0000001028  -0.0000086359
        0.0000023879  -0.0000006216  -0.0000016490  -0.0000017980   0.0000035242
       -0.0000024628  -0.0000014234   0.0000021222   0.0000025547  -0.0000028100
       -0.0000008579  -0.0000020156  -0.0000007338  -0.0000011924  -0.0000009354
       -0.0000014502  -0.0000022075  -0.0000025014  -0.0000013427   0.0000039206
        0.0000003144   0.0000007664  -0.0000061890   0.0000025982   0.0000007487
       -0.0000007202  -0.0000008312   0.0000008135  -0.0000019130   0.0000010212
       -0.0000002393  -0.0000015858  -0.0000019876  -0.0000001670  -0.0000011516
       -0.0000051794   0.0000008207  -0.0000056724  -0.0000015556  -0.0000017069
       -0.0000063683  -0.0000070356   0.0000046648  -0.0000034360  -0.0000050068
       -0.0000068166  -0.0000082230  -0.0000088461   0.0000003453  -0.0138264721
       -0.0821985688   0.0862774506  -0.0605266918  -0.2625085207  -0.0212583203
       -0.0124995734  -0.0444541118  -0.0063124909  -0.0061536710   0.0048748559
        0.0047286057   0.0012285004   0.0008027426   0.0001153208  -0.0005889550
       -0.0064581671  -0.0013977360   0.0007017725   0.0008107973  -0.0007421232
       -0.0000110203   0.0000957000  -0.0002808684  -0.0014045803   0.0009940512
        0.0000464122   0.0000855857  -0.0000424037  -0.0000048861  -0.0001073879
        0.0000480208   0.0000090022   0.0000175151   0.0000352027   0.0000167468
        0.0000204816   0.0000012365  -0.0000260470   0.0000093977  -0.0000052337
        0.0000208090   0.0000106639   0.0000054501  -0.0000011347   0.0000109468
        0.0000078256  -0.0000112361  -0.0000044016   0.0000130031   0.0000092121
        0.0000059735   0.0000081104  -0.0000016817   0.0000023052   0.0000080172
        0.0000017089  -0.0000067493   0.0000131709   0.0000020817  -0.0000010731
        0.0000074582  -0.0000022643  -0.0000021111  -0.0000002794   0.0000010096
        0.0000011795   0.0000040202  -0.0000007376  -0.0000011804   0.0000006331
        0.0000013334  -0.0000011232   0.0000030470  -0.0000013059  -0.0000018871
        0.0000005536  -0.0000020466  -0.0000005992   0.0000015509  -0.0000004292
       -0.0000003443  -0.0000012184  -0.0000004178   0.0000018108   0.0000002770
       -0.0000022139  -0.0000000836   0.0000011436  -0.0000005936   0.0000009715
       -0.0000038079  -0.0000029659   0.0000002257   0.0000030171   0.0000006187
       -0.0000000242   0.0000026954   0.0000000270   0.0000025495  -0.0000006567
       -0.0000004667  -0.0000000788   0.0000014947   0.0000005392   0.0000007998
       -0.0000004330  -0.0000010717  -0.0000013879   0.0000012533   0.0000015024
       -0.0000005265  -0.0000016393   0.0000009107   0.0000010415   0.0000027177
        0.0000000288  -0.0000002026   0.0000001450   0.0000023968  -0.0000005117
        0.0000018038   0.0000011471   0.0000018118   0.0000027326   0.0000007989
        0.0000020718   0.0000085855  -0.0000002345   0.0000016708  -0.0000016947
        0.0000005270  -0.0000000073   0.0000016180   0.0000002814   0.0000007115
        0.0000054745   0.0000044409
        0.0263180048  -0.0156891293   0.5041443568   0.0455755405  -0.0285772636
       -0.0981350269   0.0032222901  -0.0064415669  -0.0029743497  -0.0088287256
        0.0051311029   0.0053271637  -0.0021958091  -0.0001724437  -0.0011297222
       -0.0005280789   0.0002444288   0.0003893113  -0.0001843455  -0.0000520021
       -0.0001641102  -0.0000493002   0.0000045183  -0.0000082530  -0.0000587385
        0.0000255453   0.0000332060  -0.0000367805  -0.0000024185  -0.0000248798
       -0.0000075098  -0.0000008994  -0.0000097899  -0.0000071898   0.0000012392
        0.0000028557  -0.0000037318  -0.0000043266  -0.0000056094  -0.0000015364
       -0.0000008731  -0.0000047289  -0.0000013686   0.0000032000   0.0000003310
       -0.0000023917   0.0000000367  -0.0000005908  -0.0000008005   0.0000006806
        0.0000013733  -0.0000109602  -0.0000002484  -0.0000034522   0.0000124960
       -0.0000005494  -0.0000032136  -0.0000021362  -0.0000024206   0.0000007238
       -0.0000013956   0.0000003780  -0.0000021549  -0.0000026731   0.0000001244
       -0.0000015224  -0.0000054212   0.0000006387  -0.0000031339  -0.0000019631
       -0.0000005074  -0.0000035222  -0.0000066072  -0.0000007854  -0.0000026221
       -0.0000126271   0.0000006934  -0.0000024067  -0.0000114559  -0.0000115974
       -0.0000235062  -0.0000278981   0.0000025284  -0.0000069361   0.0287858224
        0.0857836588  -0.2382873439  -0.0066274639  -0.0212078664  -0.0463269084
       -0.1062909136  -0.0064235414  -0.1083677848   0.0224349700  -0.0131581286
       -0.0178790050   0.0005482225  -0.0000401458   0.0001189330  -0.0003165268
       -0.0010273483   0.0005793310  -0.0003925094   0.0007545781   0.0008272290
       -0.0009492179   0.0001561128   0.0008489335  -0.0004671033   0.0006220495
        0.0005092102  -0.0001215481  -0.0000869256   0.0002524492   0.0000111489
        0.0001451864   0.0000583503   0.0000565607   0.0000127583   0.0000249000
        0.0000760677   0.0000060711   0.0000812638  -0.0000005777  -0.0000027249
        0.0000417431   0.0000124316  -0.0000151488   0.0000123564   0.0000243380
       -0.0000066446  -0.0000015291  -0.0000105745   0.0000142497   0.0000120009
        0.0000194140   0.0000026611   0.0000162311   0.0000171882  -0.0000001407
        0.0000050158   0.0000083408   0.0000129118   0.0000128623   0.0000069606
        0.0000045236   0.0000013087  -0.0000014417  -0.0000015465   0.0000083161
        0.0000049506   0.0000040618   0.0000104534   0.0000008740   0.0000004529
        0.0000063730   0.0000012589   0.0000012130   0.0000035524   0.0000016375
       -0.0000011402   0.0000009555   0.0000025301  -0.0000015473   0.0000037729
       -0.0000003622   0.0000004263  -0.0000002687   0.0000011030   0.0000001160
        0.0000011194  -0.0000009264  -0.0000011184  -0.0000005548  -0.0000021745
        0.0000003473   0.0000049322   0.0000004425  -0.0000014182  -0.0000008782
        0.0000013836  -0.0000027572  -0.0000005189  -0.0000002418   0.0000001957
       -0.0000002161   0.0000006177  -0.0000003520   0.0000033233  -0.0000000201
       -0.0000006578   0.0000002853   0.0000006449   0.0000003753   0.0000010000
        0.0000010183  -0.0000007905   0.0000011894   0.0000017289  -0.0000001579
        0.0000050818  -0.0000006739   0.0000029916   0.0000036806   0.0000011961
       -0.0000043435  -0.0000018184   0.0000043573  -0.0000034794   0.0000090255
        0.0000041026   0.0000028081   0.0000003314   0.0000074714  -0.0000036150
        0.0000031526   0.0000009490  -0.0000006807   0.0000054856   0.0000056573
        0.0000063875   0.0000028870
       -0.1293808229   0.0454122162   0.0455755405   0.4651498774   0.0083791125
       -0.0101358093  -0.0731130263  -0.0333356704  -0.0032103585  -0.1461080125
       -0.0103626021  -0.0552297954  -0.0256102040   0.0007217387  -0.0076140191
       -0.0028294696   0.0017159213   0.0018026158  -0.0007575767  -0.0003034839
       -0.0004866941   0.0000320879  -0.0000465891   0.0000094206  -0.0001878478
        0.0001346214   0.0000964535   0.0001022589   0.0000072928  -0.0000128683
        0.0000447851   0.0000062055  -0.0000042217  -0.0000180902  -0.0000064538
        0.0000085866   0.0000129241   0.0000009459  -0.0000119310  -0.0000029568
        0.0000025742  -0.0000034477   0.0000079831  -0.0000121594   0.0000073233
        0.0000068440   0.0000035051  -0.0000087022   0.0000013171   0.0000019108
       -0.0000043115   0.0000185217  -0.0000038762   0.0000063652  -0.0000192306
        0.0000011978   0.0000006821   0.0000038139   0.0000008798  -0.0000047648
        0.0000024317  -0.0000049787   0.0000036253   0.0000073095  -0.0000028331
       -0.0000042283   0.0000004108  -0.0000006223  -0.0000018344   0.0000014226
       -0.0000026820   0.0000086865   0.0000145792   0.0000059512  -0.0000118538
        0.0000069467  -0.0000163283   0.0000030462  -0.0000168047  -0.0000565382
       -0.0000473949   0.0000138358  -0.0000088150  -0.0000042487  -0.0053485864
        0.0019367532   0.0066719367   0.0039035794  -0.0017020274  -0.0024379109
       -0.0241223987   0.0132417977   0.0112046959  -0.0457090317  -0.0116331806
        0.0242437688  -0.0109902405  -0.0260793678  -0.0046246426   0.0047786228
        0.0190925425   0.0029309959  -0.0011598018  -0.0041717728   0.0011080694
       -0.0007020725   0.0010906374  -0.0027668471  -0.0090197452  -0.0039197138
       -0.0061492870   0.0007201002  -0.0001804447  -0.0009496797   0.0006195664
       -0.0002458102  -0.0003427831   0.0000463648   0.0002260283   0.0000784873
       -0.0000948725  -0.0000396762   0.0002194451  -0.0000314943  -0.0000047992
       -0.0000524270   0.0000045330   0.0000007260   0.0000459846  -0.0000658439
        0.0000430876   0.0000027271   0.0000199105   0.0000379404  -0.0000213116
       -0.0000001664   0.0000090598   0.0000566976  -0.0000522132   0.0000175958
       -0.0000080149  -0.0000401360   0.0000284988   0.0000156554  -0.0000189295
       -0.0000059427   0.0000017360  -0.0000199924  -0.0000023517   0.0000069098
       -0.0000048076   0.0000036651   0.0000089045  -0.0000078283   0.0000006130
        0.0000047107  -0.0000048165   0.0000015923  -0.0000004710  -0.0000025537
       -0.0000010388   0.0000024776  -0.0000029066   0.0000033869  -0.0000009301
       -0.0000036409   0.0000003641   0.0000031365  -0.0000034535  -0.0000018205
        0.0000001151  -0.0000015495   0.0000006031   0.0000004621   0.0000020526
       -0.0000011241  -0.0000010213  -0.0000025049  -0.0000000223   0.0000017465
       -0.0000039982   0.0000014717   0.0000000634  -0.0000016457   0.0000013637
        0.0000001337  -0.0000021839   0.0000002373   0.0000004551  -0.0000028556
        0.0000015262   0.0000045936  -0.0000007873   0.0000012268   0.0000013233
       -0.0000008437   0.0000002053  -0.0000010431  -0.0000035023   0.0000009921
        0.0000009182  -0.0000038443   0.0000013253   0.0000033602  -0.0000126314
        0.0000078567   0.0000017112  -0.0000056417   0.0000017712   0.0000081699
       -0.0000071032  -0.0000027006   0.0000017829  -0.0000121147   0.0000046781
       -0.0000103929  -0.0000040730   0.0000059189   0.0000138029  -0.0000072255
       -0.0000021127  -0.0000040765
        0.0456229691  -0.0950384262  -0.0285772636   0.0083791125   0.4827393262
       -0.0231609536  -0.0347939689  -0.1829374483  -0.0113396357  -0.0077444397
       -0.0651399677  -0.0020567916   0.0089835963   0.0009818129   0.0049128625
        0.0014437790  -0.0006972071  -0.0008985453   0.0004792691   0.0001908909
        0.0001531390  -0.0000379583  -0.0000101679   0.0000085235   0.0001101313
       -0.0000705177  -0.0000827362   0.0000363562  -0.0000230301  -0.0000097022
        0.0000146699  -0.0000061084   0.0000043550   0.0000096865  -0.0000149834
       -0.0000103525   0.0000052260   0.0000024811  -0.0000014440   0.0000065567
       -0.0000027498  -0.0000033885   0.0000053176  -0.0000009861  -0.0000010142
        0.0000001670   0.0000000389  -0.0000020657  -0.0000009661  -0.0000002306
       -0.0000013995   0.0000055551  -0.0000034035   0.0000006356  -0.0000037669
       -0.0000004436   0.0000028194  -0.0000043766   0.0000011813   0.0000000155
        0.0000004617  -0.0000021707   0.0000018097   0.0000017718  -0.0000000095
       -0.0000028846  -0.0000013788  -0.0000046754   0.0000000460  -0.0000007767
       -0.0000074313   0.0000008135   0.0000004805  -0.0000016949  -0.0000019749
        0.0000027416  -0.0000075073  -0.0000011537   0.0000322110   0.0000184286
        0.0000023420   0.0000023667  -0.0000146386   0.0000024710  -0.0074670968
        0.0056113664   0.0045033467   0.0203110713  -0.0190423189  -0.0154052910
        0.0011604443  -0.0001974306   0.0001427981  -0.0116935483  -0.0791417776
        0.0815547792  -0.0037416479  -0.0045637535  -0.0018679968  -0.0020139273
       -0.0182337151  -0.0038362728  -0.0054398226  -0.0186907684   0.0031922938
        0.0115802534   0.0007284726   0.0091040490  -0.0248092219  -0.0067407526
       -0.0166912446  -0.0005472921   0.0003685492   0.0001488362   0.0002047574
       -0.0002444528   0.0001666561   0.0000168945   0.0000688445  -0.0000439329
       -0.0000373621  -0.0000411387   0.0000221141  -0.0000217717   0.0000461430
        0.0000074525  -0.0000024979   0.0000122297   0.0000052904   0.0000415013
        0.0000021885   0.0000123268  -0.0000083268   0.0000257744   0.0000036997
       -0.0000105121   0.0000015496   0.0000162928  -0.0000252122   0.0000059962
       -0.0000064174  -0.0000009572   0.0000155628   0.0000039386  -0.0000066225
        0.0000059328  -0.0000031458  -0.0000128644   0.0000003953   0.0000027710
       -0.0000027700   0.0000042771   0.0000046321  -0.0000046506   0.0000015828
        0.0000019208  -0.0000034640   0.0000038594  -0.0000026777  -0.0000043079
       -0.0000003391  -0.0000020306  -0.0000015451   0.0000028872  -0.0000003303
       -0.0000011627  -0.0000004037   0.0000004309   0.0000002267  -0.0000005680
       -0.0000020982  -0.0000012449   0.0000023416  -0.0000010816   0.0000008989
       -0.0000032028  -0.0000028448  -0.0000002559   0.0000024576   0.0000015529
       -0.0000007388   0.0000032000   0.0000017953   0.0000015618   0.0000000608
        0.0000004304  -0.0000010835   0.0000030548   0.0000019285  -0.0000006262
       -0.0000002406   0.0000014147  -0.0000007855   0.0000001690   0.0000031546
       -0.0000010522  -0.0000010033   0.0000006218  -0.0000012969   0.0000043150
        0.0000020289  -0.0000012673   0.0000040392   0.0000029102  -0.0000015283
        0.0000024400   0.0000032343  -0.0000024976   0.0000058166   0.0000047376
        0.0000013498   0.0000066663   0.0000009418  -0.0000069747   0.0000013421
       -0.0000002767   0.0000005177   0.0000038857   0.0000038223   0.0000016653
        0.0000061036   0.0000049121
        0.0467484695  -0.0293789536  -0.0981350269  -0.0101358093  -0.0231609536
        0.5237848759  -0.0033495596  -0.0108280113  -0.0690060859  -0.0530375419
       -0.0027816030  -0.1004952741   0.0087095834   0.0019031350   0.0062621245
        0.0022453080  -0.0012452658  -0.0013099002   0.0006991065   0.0001400971
        0.0005136913   0.0000594026   0.0000173280  -0.0000873687   0.0001676718
       -0.0001129073  -0.0001744198   0.0000955777  -0.0000078662  -0.0000231542
        0.0000145638  -0.0000078301   0.0000059293   0.0000237472  -0.0000062537
       -0.0000360245   0.0000092934   0.0000076444   0.0000074823   0.0000108309
       -0.0000015078  -0.0000016104   0.0000056913   0.0000015898   0.0000004559
       -0.0000025080   0.0000002350  -0.0000023850   0.0000037921   0.0000008744
        0.0000013336   0.0000050274  -0.0000009603   0.0000034912  -0.0000039835
        0.0000011140  -0.0000011465   0.0000040211   0.0000002017  -0.0000022097
        0.0000058560  -0.0000016877  -0.0000030335   0.0000049455  -0.0000022790
       -0.0000050023   0.0000044404  -0.0000006775  -0.0000062734   0.0000025720
        0.0000008302  -0.0000086457   0.0000149402   0.0000029756  -0.0000006819
        0.0000277381   0.0000105300  -0.0000375316   0.0000512305   0.0000409218
        0.0000229925   0.0000169721   0.0000000858  -0.0000177973   0.0221539259
       -0.0125296370  -0.0191273627   0.0023035703  -0.0036269837  -0.0021719332
       -0.0103363090   0.0067524307   0.0067075286   0.0236768118   0.0812929600
       -0.2199505750  -0.0059122366  -0.0143092624  -0.0022528176  -0.0034326654
       -0.0169755761  -0.0028068318   0.0077216668   0.0271317161   0.0005887440
       -0.0237816815   0.0002502015  -0.0199917596  -0.0062226124  -0.0025435697
       -0.0036043949   0.0016495011  -0.0001189697   0.0006885353   0.0000221346
       -0.0000225681   0.0002679400  -0.0000414409   0.0001159263   0.0000083507
       -0.0000070770  -0.0000445320   0.0001803216  -0.0000367719   0.0000248055
        0.0000156342  -0.0000012614  -0.0000036024   0.0000251478  -0.0000422103
        0.0000447083   0.0000228843   0.0000331766  -0.0000322525  -0.0000228301
       -0.0000167097  -0.0000002369   0.0000423630  -0.0000150117  -0.0000118855
        0.0000197563  -0.0000297119   0.0000037002   0.0000079478  -0.0000033180
        0.0000064088   0.0000113090  -0.0000029911  -0.0000049542   0.0000005136
       -0.0000112923  -0.0000001520   0.0000134422  -0.0000022683  -0.0000007889
        0.0000024608  -0.0000047249  -0.0000005166   0.0000046695   0.0000004336
        0.0000006978   0.0000024008  -0.0000029148  -0.0000017609   0.0000036291
       -0.0000014710   0.0000001445   0.0000027227  -0.0000015722  -0.0000006288
        0.0000042624  -0.0000026204  -0.0000020639   0.0000003400   0.0000012174
       -0.0000004696   0.0000033110  -0.0000007291   0.0000002342  -0.0000002638
       -0.0000022207  -0.0000009473  -0.0000011853  -0.0000029491   0.0000010836
        0.0000000287  -0.0000031878  -0.0000016328   0.0000005825   0.0000004426
        0.0000032104   0.0000037375  -0.0000007350   0.0000031210   0.0000009613
       -0.0000012867   0.0000019416   0.0000024519  -0.0000062761  -0.0000005014
        0.0000043035  -0.0000043065   0.0000031022   0.0000004745  -0.0000029947
       -0.0000012154   0.0000005446  -0.0000133270  -0.0000020560   0.0000087373
       -0.0000170013   0.0000006383   0.0000048546  -0.0000037403   0.0000049087
        0.0000137851   0.0000104315   0.0000019957   0.0000018453  -0.0000070643
        0.0000020222   0.0000146277
        0.0024445840   0.0190888171   0.0032222901  -0.0731130263  -0.0347939689
       -0.0033495596   0.5168964013  -0.0223330113  -0.0039077571  -0.0111229068
       -0.0245240629  -0.0062194672   0.0003985226   0.0005720608   0.0002020067
        0.0000915009  -0.0001709979   0.0001034816   0.0000615907   0.0000387211
       -0.0000081502   0.0000824612   0.0000244914   0.0000390168   0.0000324231
        0.0000443900   0.0000453503  -0.0000221813   0.0000175355   0.0000038028
       -0.0000010533   0.0000129822  -0.0000040462  -0.0000068011   0.0000075144
        0.0000128331   0.0000013460   0.0000036850  -0.0000093810  -0.0000083888
        0.0000052149  -0.0000028650   0.0000009231  -0.0000084586   0.0000061479
        0.0000057339   0.0000048829  -0.0000055241  -0.0000013556   0.0000024095
       -0.0000047887   0.0000124766  -0.0000011103   0.0000031686  -0.0000155519
        0.0000014914  -0.0000028890   0.0000024334   0.0000010558  -0.0000030545
       -0.0000000802  -0.0000019194   0.0000033215   0.0000030637  -0.0000019358
       -0.0000006963   0.0000003149   0.0000018606   0.0000013470  -0.0000008283
        0.0000050735   0.0000080159   0.0000094091   0.0000057876  -0.0000041624
       -0.0000009909  -0.0000060179   0.0000099439   0.0000045461  -0.0000176871
       -0.0000055289   0.0000102608   0.0000068247   0.0000077318   0.0005238554
        0.0003783621  -0.0004429043  -0.0024838005   0.0034855538   0.0023808725
        0.0008713073   0.0011140251   0.0005236950  -0.0005601662  -0.0056049898
        0.0002536971  -0.2307049075  -0.0062736466  -0.0968966255  -0.1522046043
        0.0793714040   0.0906463375  -0.0458994345  -0.0073388730   0.0161540721
        0.0007888245  -0.0003284064   0.0009477742  -0.0045267252  -0.0015257420
       -0.0029308759  -0.0001562671  -0.0002008137  -0.0000174054  -0.0011549248
       -0.0008891198  -0.0005843720  -0.0000944011  -0.0000125557  -0.0001260458
        0.0000084990  -0.0000652191   0.0000301896  -0.0000370187  -0.0000195394
       -0.0000101517  -0.0000095811  -0.0000013610   0.0000009472  -0.0000346106
       -0.0000522998  -0.0000399334  -0.0000509787   0.0000202310   0.0000077232
        0.0000022172  -0.0000124735  -0.0000064901   0.0000034473  -0.0000052253
       -0.0000267723   0.0000188046   0.0000091565   0.0000114191  -0.0000074200
       -0.0000110246  -0.0000016183  -0.0000087221  -0.0000053918   0.0000067675
        0.0000026591  -0.0000029861  -0.0000042289  -0.0000037958  -0.0000025551
        0.0000029581   0.0000018728  -0.0000004372  -0.0000013300   0.0000007009
       -0.0000020036   0.0000003329   0.0000001096   0.0000027339  -0.0000043226
       -0.0000025017   0.0000003287   0.0000014010  -0.0000022621  -0.0000015730
       -0.0000016539   0.0000001913   0.0000007983  -0.0000010760   0.0000021013
        0.0000004938   0.0000009287  -0.0000017235  -0.0000008812   0.0000017890
       -0.0000028322   0.0000016090  -0.0000012282  -0.0000006611   0.0000014874
        0.0000002619   0.0000001846   0.0000003704  -0.0000008546  -0.0000035768
       -0.0000005240   0.0000022476  -0.0000003618   0.0000001328  -0.0000008440
        0.0000000483  -0.0000020866  -0.0000026726   0.0000000481  -0.0000009936
       -0.0000027516  -0.0000036882  -0.0000030712   0.0000036237  -0.0000097687
        0.0000050289  -0.0000017039   0.0000011180   0.0000000380  -0.0000015547
       -0.0000017276  -0.0000036129  -0.0000000529  -0.0000034340  -0.0000055436
       -0.0000110542  -0.0000126364  -0.0000011755   0.0000111820  -0.0000082841
       -0.0000032572  -0.0000102852
        0.0001942521  -0.0232317992  -0.0064415669  -0.0333356704  -0.1829374483
       -0.0108280113  -0.0223330113   0.4603501309  -0.0049275093  -0.0064038836
       -0.0065288118  -0.0036593690   0.0000090769  -0.0001774417   0.0000896004
        0.0000420033  -0.0001418346  -0.0001390896   0.0000434311  -0.0000371517
        0.0000344065  -0.0000775423  -0.0000427224  -0.0000055293  -0.0000060214
       -0.0000256485  -0.0000351463   0.0000661893  -0.0000184793   0.0000073589
        0.0000121636   0.0000021701   0.0000021275   0.0000031504  -0.0000187605
       -0.0000070193   0.0000017676   0.0000037180   0.0000009768   0.0000064600
       -0.0000029060  -0.0000051516   0.0000078516  -0.0000014716   0.0000008678
        0.0000017894   0.0000024722  -0.0000042210  -0.0000019523   0.0000013648
       -0.0000016277   0.0000083806  -0.0000071817   0.0000015348  -0.0000072015
        0.0000031181   0.0000002392  -0.0000055238   0.0000018147  -0.0000004159
       -0.0000006148  -0.0000026368   0.0000016382   0.0000004942   0.0000014675
       -0.0000005573   0.0000000670  -0.0000045264   0.0000011623  -0.0000014193
       -0.0000085989   0.0000013455  -0.0000042550   0.0000007662  -0.0000001081
       -0.0000029148  -0.0000109126  -0.0000006356   0.0000056760   0.0000009290
        0.0000015448   0.0000065469  -0.0000210179   0.0000032447  -0.0007131243
        0.0009373245   0.0006118584   0.0023789089  -0.0018814705  -0.0020266638
       -0.0009040297   0.0004539384   0.0002531116  -0.0055130008  -0.0189913356
        0.0010205924  -0.0060077838  -0.0421376859  -0.0028004951   0.0793304922
       -0.0983714626  -0.0646677668  -0.0072583879  -0.0891527539   0.0930488567
        0.0009174176   0.0008626892   0.0005122268  -0.0005871918   0.0006101441
       -0.0001744788  -0.0000149628   0.0000929531  -0.0000926008   0.0001764102
        0.0001409194   0.0002139617   0.0000026342   0.0000860242   0.0000293618
       -0.0000496412   0.0000003090  -0.0000028405   0.0000064783   0.0000243877
       -0.0000235385   0.0000018650   0.0000125200  -0.0000001795   0.0000502685
        0.0000247831   0.0000230437   0.0000114952   0.0000166046  -0.0000053766
       -0.0000045796   0.0000100870   0.0000093246  -0.0000180726   0.0000109929
       -0.0000185439  -0.0000107602   0.0000223897   0.0000095959  -0.0000039326
        0.0000096788  -0.0000021546  -0.0000068245   0.0000004972  -0.0000012967
       -0.0000017595   0.0000059783   0.0000014043  -0.0000017763   0.0000008454
        0.0000010691  -0.0000012504   0.0000039987  -0.0000002470  -0.0000007867
        0.0000010716  -0.0000033134  -0.0000013946   0.0000018878  -0.0000024739
       -0.0000006254  -0.0000003970   0.0000011224   0.0000018731  -0.0000003656
       -0.0000019579  -0.0000001301   0.0000017229  -0.0000022135   0.0000022621
       -0.0000052574  -0.0000013891   0.0000006400   0.0000018390   0.0000016294
       -0.0000015506   0.0000037482  -0.0000001943   0.0000022948   0.0000026649
       -0.0000005792  -0.0000002324   0.0000020189   0.0000008597  -0.0000012969
       -0.0000007100   0.0000004639  -0.0000001525   0.0000026355   0.0000025332
       -0.0000005501  -0.0000013321  -0.0000018483   0.0000001037   0.0000042340
       -0.0000000260   0.0000005384   0.0000014213   0.0000022768  -0.0000049632
        0.0000051972  -0.0000007890  -0.0000011008   0.0000046339   0.0000018046
        0.0000020444   0.0000135753   0.0000010017  -0.0000047635   0.0000056266
       -0.0000104186  -0.0000038795   0.0000043842  -0.0000004253   0.0000034885
        0.0000104420   0.0000056235
       -0.0013842099  -0.0160761959  -0.0029743497  -0.0032103585  -0.0113396357
       -0.0690060859  -0.0039077571  -0.0049275093   0.5227984244  -0.0063618466
       -0.0137536299  -0.0032720358  -0.0000023916  -0.0001483952  -0.0001806286
       -0.0000668675  -0.0000424748  -0.0000233836   0.0000157570   0.0000196020
       -0.0000651379   0.0000202365   0.0000189674  -0.0000512144  -0.0000066406
        0.0000070568   0.0000044853  -0.0000299527   0.0000041078  -0.0000201363
       -0.0000112183   0.0000007568  -0.0000062232  -0.0000052277   0.0000033292
        0.0000009360  -0.0000012287  -0.0000008774  -0.0000046938  -0.0000034649
       -0.0000016864  -0.0000036041  -0.0000055330  -0.0000011029  -0.0000002477
       -0.0000014775  -0.0000040091  -0.0000003005  -0.0000009721  -0.0000009858
       -0.0000023589  -0.0000050402   0.0000007598  -0.0000003905   0.0000038413
       -0.0000017758  -0.0000033824  -0.0000017632  -0.0000004934  -0.0000007325
        0.0000001785   0.0000007764  -0.0000029692   0.0000001828  -0.0000010494