$hessian                                                                        
        0.4809973851   0.0347611616  -0.0226389006  -0.1170703790   0.0551364899
       -0.0306091526   0.0026479411  -0.0007019878  -0.0003255803  -0.0051266411
        0.0076775616  -0.0004269454  -0.0302397187   0.0103305377  -0.0096846482
       -0.0010927054  -0.0012377460  -0.0017456790  -0.0008642355  -0.0010904115
        0.0010834762   0.0003132836   0.0005127237   0.0004171696   0.0002886745
       -0.0001625927   0.0008974572  -0.0007249842   0.0009861435  -0.0001906889
        0.0000606327   0.0000357938   0.0000193121  -0.0000429120   0.0000095616
        0.0000324847  -0.0000292689   0.0000048448   0.0000158455  -0.0000337339
        0.0000139626   0.0000203777  -0.0000040196   0.0000016231  -0.0000088264
        0.0000118422   0.0000050306  -0.0000151861   0.0000193070  -0.0000033541
        0.0000007194   0.0000331718  -0.0000202127  -0.0000151559   0.0000082981
       -0.0000070439  -0.0000106486  -0.0000971987   0.0000673890  -0.0000403147
       -0.0004776597  -0.0002523061  -0.0001718242   0.0001919343   0.0000109661
       -0.0001260749  -0.0000528702   0.0000167848   0.0000626644   0.0000399317
       -0.0000275375   0.0000338097   0.0000079794  -0.0000111926  -0.0000323418
       -0.0000023524   0.0000113986   0.0000219849  -0.0000008022  -0.0000126495
       -0.0000028485   0.0000201554  -0.0000243202  -0.0000124183  -0.0000294725
        0.0000260095  -0.0000273009   0.0000130711  -0.0000175966  -0.0000250879
        0.0000252312   0.0000277450   0.0000187261  -0.0000419970   0.0000093861
       -0.0000680853  -0.0000149612   0.0000470831   0.0000247058   0.0000026436
        0.0000036825   0.0000120544   0.0000135751  -0.0000290156  -0.0000036320
       -0.0000289626   0.0000439352   0.0000057589   0.0000346436   0.0000107625
       -0.0000108223   0.0000293057   0.0000060041  -0.0000604637  -0.0000615794
       -0.0000104045   0.0000405382   0.0000121238   0.0000433958  -0.0000473547
        0.0000002110  -0.0000088133   0.0000076639   0.0000065378   0.0000089310
       -0.0000057045  -0.0000024500   0.0000012871   0.0000011762   0.0000059559
        0.0000022028  -0.0000016158  -0.0000163336   0.0000068367   0.0000035868
       -0.0000049342  -0.0000079658   0.0000084681   0.0000022564   0.0000039325
       -0.0000033179  -0.0000019711  -0.0000032634   0.0000028181   0.0000109986
       -0.0000044178  -0.0000014604   0.0000004818   0.0000132620  -0.0000065502
        0.0000331884  -0.0000288686   0.0000118683   0.0000425395  -0.0000160146
        0.0000632616  -0.0000671718  -0.0000086498  -0.0000147670  -0.0000015992
       -0.0000167287   0.0000179393   0.0000182114   0.0000180492   0.0000000146
        0.0000028430  -0.0000028347   0.0000017367  -0.0000013011  -0.0000068129
        0.0000028243   0.0000047357  -0.0000024993   0.0000027540   0.0000033123
        0.0000006112  -0.0000002115   0.0000015056   0.0000042341   0.0000006750
        0.0000030848   0.0000028839  -0.0000033223   0.0000047875   0.0000087303
       -0.0000045015  -0.0000074727  -0.0000072759   0.0000017169  -0.0000101891
        0.0000067123  -0.0000096582   0.0000043887  -0.0000054885   0.0000057809
        0.0000027898   0.0000034157  -0.0000012903   0.0000055178   0.0000055819
       -0.0000010746  -0.0000031431   0.0000008226  -0.0000005278  -0.0000027958
       -0.0000016043   0.0000029605  -0.0000005592  -0.0000030388  -0.0000005319
        0.0000034066   0.0000056211  -0.0000010350  -0.0000080610  -0.0000065021
        0.0000017294   0.0000421777   0.0000287562  -0.0000109742  -0.0000699816
       -0.0000197858   0.0000118197   0.0000187265   0.0000068458  -0.0000470594
       -0.0000207158  -0.0000095925   0.0000114077  -0.2237176707  -0.1009578734
       -0.0147647790  -0.0451601725   0.0194144863   0.0161459445  -0.0615219460
       -0.0226140414   0.0606509799   0.0007888122  -0.0004383972   0.0006060419
        0.0005080073  -0.0007991480   0.0014010297   0.0002446415  -0.0002801954
        0.0003675040   0.0000798397  -0.0002041722  -0.0004659341   0.0002792991
        0.0006158282   0.0005313604   0.0007966855  -0.0011213338  -0.0003256086
       -0.0001029027   0.0001273103  -0.0003745492  -0.0001976218  -0.0001494301
        0.0000580487  -0.0006487706   0.0003617192  -0.0003129495  -0.0000113790
        0.0000083022   0.0000131232  -0.0000057024  -0.0000052330   0.0000038867
       -0.0000018142  -0.0000002625   0.0000049779   0.0000069009  -0.0000106540
       -0.0000106807  -0.0000014799  -0.0000000185   0.0000042698   0.0000029872
       -0.0000193659  -0.0000051824   0.0000014381   0.0000026810  -0.0000002829
       -0.0000016311  -0.0000012031   0.0000048958  -0.0000011822  -0.0000101700
       -0.0000166187   0.0000023170   0.0000014952   0.0000028442  -0.0000144075
       -0.0000163451  -0.0000074623  -0.0000168456  -0.0000108966  -0.0000080041
        0.0000075566   0.0000016867  -0.0000016846  -0.0000009771   0.0000060863
        0.0000032633  -0.0000033438   0.0000155061   0.0000144783   0.0000020559
       -0.0000021014   0.0000200688  -0.0000101210  -0.0000172853   0.0000208442
        0.0000089435  -0.0000307514  -0.0000063127   0.0000003732  -0.0000040048
       -0.0000034253   0.0000116673  -0.0000015843  -0.0000031911  -0.0000068032
       -0.0000036640   0.0000024120   0.0000002840   0.0000008751  -0.0000022967
       -0.0000002956  -0.0000042178   0.0000027433  -0.0000036490  -0.0000030174
        0.0000028232  -0.0000055220  -0.0000002057   0.0000020013  -0.0000064655
       -0.0000008449   0.0000022606  -0.0000057182   0.0000019545   0.0000005901
       -0.0000012480   0.0000015817  -0.0000013835  -0.0000002004  -0.0000012701
        0.0000001370  -0.0000049749  -0.0000020162  -0.0000018518   0.0000012917
       -0.0000035461   0.0000006773   0.0000004305  -0.0000022152  -0.0000006995
       -0.0000007410  -0.0000012905   0.0000017781  -0.0000027556   0.0000024186
       -0.0000032761  -0.0000028296   0.0000017332  -0.0000048131  -0.0000010428
       -0.0000029754   0.0000001133   0.0000008353  -0.0000007466   0.0000007304
       -0.0000037690   0.0000034586  -0.0000021918   0.0000010293  -0.0000005618
       -0.0000000951  -0.0000014833  -0.0000019612   0.0000009967  -0.0000077877
       -0.0000022391  -0.0000020346  -0.0000045458   0.0000012648  -0.0000018610
        0.0000013121   0.0000003639   0.0000000362   0.0000012380   0.0000011353
        0.0000003441  -0.0000034091  -0.0000018818   0.0000003914   0.0000013752
        0.0000006064  -0.0000000990   0.0000015715   0.0000009255   0.0000006038
       -0.0000037410  -0.0000021942  -0.0000013232  -0.0000045563  -0.0000004710
        0.0000006466   0.0000017922   0.0000004293  -0.0000001649   0.0000013869
        0.0000013179   0.0000001019  -0.0000005864  -0.0000033344   0.0000022488
        0.0000023662  -0.0000002109  -0.0000001451
        0.0347611616   0.4976053366   0.0222498960   0.0481857132  -0.1085837642
        0.0242192253   0.0079044592  -0.0094812713   0.0087146068   0.0187098917
       -0.0238069189   0.0035377363  -0.0043912515   0.0079502729  -0.0025373141
       -0.0011935172  -0.0007519201  -0.0002532656  -0.0001748696  -0.0004483067
        0.0004029751   0.0004624719   0.0004188315   0.0001979319   0.0004187030
        0.0002586080   0.0002818754  -0.0010498393  -0.0010512759  -0.0007478704
        0.0000131061  -0.0000543229   0.0000224036  -0.0000335958   0.0000446631
        0.0000783145  -0.0000521914   0.0000105235   0.0000185811  -0.0000125505
        0.0000167990   0.0000322399   0.0000253323   0.0000031338   0.0000208970
        0.0000276314   0.0000099103  -0.0000126037   0.0000342640  -0.0000136741
        0.0000077208   0.0000772793  -0.0000013383  -0.0000181447   0.0000625510
        0.0000457733   0.0000020039  -0.0001063992   0.0000433120  -0.0000630363
       -0.0007583502  -0.0003724790  -0.0000171108   0.0003938333  -0.0000219624
       -0.0002565833  -0.0000614668   0.0000650931   0.0001407189  -0.0000986559
        0.0000786338   0.0000634007  -0.0000385558  -0.0000311037  -0.0000451619
        0.0000170832  -0.0000273430   0.0000047197   0.0000109849   0.0000035640
        0.0000086921   0.0000042946  -0.0000116242  -0.0000073206  -0.0000199968
       -0.0000263421  -0.0000539273   0.0000248731  -0.0000239659  -0.0000121914
        0.0000087455  -0.0000531237  -0.0000399396   0.0000636114   0.0000160377
        0.0000274615   0.0000042655   0.0000256301   0.0000158265   0.0000636694
        0.0000004033   0.0000336121  -0.0000192167   0.0000033611   0.0000135688
        0.0000891842  -0.0000219506   0.0000098849   0.0000933217   0.0000263252
       -0.0000294325   0.0000584343   0.0000288178  -0.0001752617  -0.0001323923
        0.0000057902   0.0000705954   0.0000012698   0.0000409722  -0.0000583848
       -0.0000005109  -0.0000167798   0.0000100962   0.0000071629   0.0000097292
       -0.0000058222  -0.0000064246   0.0000044199  -0.0000007299   0.0000041564
       -0.0000048404   0.0000043997  -0.0000160241   0.0000141084   0.0000012275
       -0.0000128264  -0.0000146992   0.0000149159   0.0000048738   0.0000035589
       -0.0000067021  -0.0000050004  -0.0000057011   0.0000061987   0.0000107002
       -0.0000089299  -0.0000006983  -0.0000191100   0.0000105703   0.0000024359
        0.0000703375  -0.0000470206   0.0000238487   0.0001334689  -0.0000361448
        0.0001315510  -0.0001274495   0.0000227984  -0.0000755107   0.0000188238
       -0.0000627326   0.0000733514  -0.0000119751   0.0000109819  -0.0000078376
        0.0000020743  -0.0000127275   0.0000046795  -0.0000032311  -0.0000065350
        0.0000031462  -0.0000028022  -0.0000033623   0.0000007564  -0.0000041457
        0.0000041387  -0.0000054536  -0.0000017158   0.0000023755  -0.0000045838
       -0.0000030037   0.0000034656  -0.0000045236   0.0000077534   0.0000030568
       -0.0000014476  -0.0000192326  -0.0000110649  -0.0000012902  -0.0000034839
        0.0000134215  -0.0000113021  -0.0000012578  -0.0000075238   0.0000075773
        0.0000000557   0.0000095141  -0.0000058265  -0.0000006685   0.0000000849
       -0.0000014371  -0.0000030743  -0.0000025533  -0.0000005402  -0.0000030824
       -0.0000027135   0.0000002928  -0.0000037009  -0.0000029590  -0.0000002258
        0.0000092591   0.0000071129   0.0000012273  -0.0000109967  -0.0000098850
        0.0000018730   0.0000542560   0.0000383068  -0.0000293386  -0.0001046955
       -0.0000447000  -0.0000777637   0.0000000367  -0.0000183449   0.0001963984
       -0.0000021391   0.0000178613  -0.0000814498  -0.1013662344  -0.0983245319
       -0.0088679362   0.0192751466  -0.1908140924  -0.1162227035  -0.0225930960
       -0.0691344244   0.0697972102   0.0006661144   0.0001807990  -0.0003005191
       -0.0002124309  -0.0007292772   0.0022614769  -0.0001129897   0.0007251439
       -0.0009448050   0.0000245132   0.0006624983   0.0009222443   0.0012525486
       -0.0047487520  -0.0027979234   0.0012035134   0.0004210252   0.0007233173
       -0.0001113022   0.0001060512  -0.0000411770  -0.0001896845  -0.0000326644
        0.0000529614  -0.0008407758  -0.0000555509  -0.0004647691  -0.0000234849
       -0.0000182506  -0.0000116722  -0.0000142693   0.0000033234  -0.0000108165
       -0.0000212063  -0.0000190930  -0.0000038301   0.0000067472  -0.0000093491
       -0.0000166391  -0.0000060661   0.0000006453   0.0000027446   0.0000048041
       -0.0000252048  -0.0000122097  -0.0000128105  -0.0000017842   0.0000042276
       -0.0000090426   0.0000105489  -0.0000040673   0.0000002553  -0.0000148837
       -0.0000256297  -0.0000142725   0.0000005534   0.0000002133  -0.0000291019
       -0.0000257073  -0.0000107926  -0.0000549220  -0.0000090116   0.0000081952
       -0.0000168258   0.0000105812  -0.0000049114  -0.0000141308   0.0000169617
        0.0000077932  -0.0000030043   0.0000263637   0.0000242963  -0.0000074738
       -0.0000063551   0.0000167794  -0.0000256031  -0.0000054862  -0.0000526806
       -0.0000210975   0.0000176700  -0.0000022425  -0.0000278346  -0.0000130431
       -0.0000190252  -0.0000307269   0.0000085271  -0.0000108318  -0.0000065513
       -0.0000075466   0.0000021034  -0.0000044034   0.0000045137  -0.0000034484
       -0.0000014870   0.0000015324  -0.0000005938  -0.0000025779   0.0000003575
       -0.0000004800  -0.0000019683   0.0000009943   0.0000004668  -0.0000009062
        0.0000014994  -0.0000016151   0.0000003518   0.0000019975  -0.0000009702
        0.0000000378   0.0000025322  -0.0000016107   0.0000052819  -0.0000035024
       -0.0000002284   0.0000049725  -0.0000057970   0.0000035653   0.0000019588
        0.0000019702  -0.0000008308  -0.0000000495  -0.0000018322   0.0000003546
       -0.0000003678  -0.0000015157   0.0000019355  -0.0000007629  -0.0000001443
       -0.0000005358   0.0000002315   0.0000005790   0.0000003376   0.0000036951
        0.0000038300   0.0000014504  -0.0000006935  -0.0000002405   0.0000028535
       -0.0000000749   0.0000001409  -0.0000004783   0.0000002264  -0.0000017327
        0.0000003380   0.0000049863   0.0000017126  -0.0000006017   0.0000005275
        0.0000015908  -0.0000014845  -0.0000020943   0.0000012255  -0.0000003769
       -0.0000013290   0.0000038308   0.0000007671   0.0000000453   0.0000012004
       -0.0000025276  -0.0000008962   0.0000016049  -0.0000005680  -0.0000006114
        0.0000023457   0.0000011330   0.0000007268   0.0000003772   0.0000004240
       -0.0000012804   0.0000008345  -0.0000002213  -0.0000012295   0.0000001980
       -0.0000000851   0.0000011128   0.0000007735   0.0000000329   0.0000005974
        0.0000009863  -0.0000013420  -0.0000011971   0.0000011469  -0.0000005622
       -0.0000012219   0.0000059134  -0.0000023109
       -0.0226389006   0.0222498960   0.5111525520  -0.0280695374   0.0257671610
       -0.0757997685  -0.0168720340   0.0200685268  -0.0163491197   0.0101676139
       -0.0116916342   0.0033189629  -0.0048957535   0.0008556892  -0.0001755086
        0.0003117965   0.0002931500  -0.0005660030  -0.0001651274  -0.0002037275
       -0.0000075123  -0.0000945725   0.0000343847   0.0000743362   0.0000521225
        0.0002043943   0.0001392193   0.0001477641  -0.0004616672   0.0000049047
        0.0000045525  -0.0000062185  -0.0000019270   0.0000577582   0.0000278692
        0.0000206064  -0.0000054445  -0.0000021336  -0.0000018161   0.0000175407
        0.0000054696  -0.0000132410   0.0000171680   0.0000396253   0.0000117451
        0.0000037696   0.0000109776  -0.0000027741   0.0000082577   0.0000095081
        0.0000076030   0.0000088903  -0.0000166863  -0.0000172225  -0.0000089228
        0.0000145397   0.0000140266   0.0000051966   0.0000157600  -0.0000002195
       -0.0000485415   0.0000266625   0.0000507154   0.0000653798  -0.0000029809
       -0.0000327626  -0.0000766234   0.0000111863  -0.0000457027   0.0001128010
        0.0000009718   0.0000721791  -0.0000132660  -0.0000510670  -0.0000803956
       -0.0000017519   0.0000067772   0.0000061641  -0.0000435846  -0.0000061610
       -0.0000300440  -0.0000204038   0.0000219489   0.0000035324  -0.0000637828
       -0.0000412596   0.0000172544   0.0000443235  -0.0000421363   0.0000102563
        0.0000195315   0.0000187028   0.0000464575  -0.0000486033  -0.0000290520
        0.0000382571  -0.0000085020  -0.0000141996  -0.0000384218  -0.0000531821
        0.0000051268  -0.0000351096   0.0000053340  -0.0000093370  -0.0000105984
       -0.0000506348   0.0000608449   0.0000120753   0.0000459298  -0.0000013456
        0.0000067754  -0.0000083610   0.0000001338  -0.0000219418  -0.0000191394
       -0.0000106945   0.0000115001   0.0000022258   0.0000031100  -0.0000049750
       -0.0000018907  -0.0000023501  -0.0000023022  -0.0000007754   0.0000004295
       -0.0000013318  -0.0000012338   0.0000006853   0.0000011049   0.0000012636
       -0.0000002808  -0.0000015917  -0.0000026401  -0.0000001387   0.0000003871
        0.0000026382  -0.0000017130  -0.0000003925  -0.0000028634   0.0000011393
        0.0000000430   0.0000002756   0.0000003699   0.0000016661   0.0000017860
       -0.0000010286  -0.0000025775   0.0000016799   0.0000013024  -0.0000026235
       -0.0000008340   0.0000062117   0.0000040165   0.0000032155  -0.0000026397
       -0.0000058279  -0.0000059499  -0.0000122566   0.0000059828  -0.0000031771
        0.0000115548  -0.0000060496   0.0000070053  -0.0000005130   0.0000015961
        0.0000044056   0.0000015425   0.0000007605  -0.0000011588   0.0000007129
        0.0000005486   0.0000009263   0.0000018263  -0.0000023585   0.0000027628
       -0.0000012033  -0.0000000265   0.0000014404  -0.0000001025  -0.0000001916
        0.0000012581  -0.0000001974  -0.0000003460  -0.0000030391   0.0000013864
       -0.0000015990   0.0000042963  -0.0000014035   0.0000023017  -0.0000015484
       -0.0000002017  -0.0000000189   0.0000017328   0.0000021732  -0.0000024344
        0.0000006879   0.0000004909   0.0000022636  -0.0000011259  -0.0000006094
       -0.0000014683  -0.0000003883  -0.0000004908  -0.0000009504  -0.0000006777
       -0.0000006488  -0.0000021281  -0.0000001630  -0.0000006744  -0.0000006407
        0.0000016736  -0.0000014849  -0.0000003010  -0.0000000987   0.0000022682
       -0.0000024964   0.0000046428   0.0000022475   0.0000035974   0.0000051337
       -0.0000027239   0.0000029200   0.0000001150   0.0000052554   0.0000111029
       -0.0000034869  -0.0000061708  -0.0000072562  -0.0145652136  -0.0088800359
       -0.0451100136   0.0160902287  -0.1165691105  -0.1342122226   0.0604062703
        0.0699645671  -0.2380828479  -0.0007916828  -0.0003283258   0.0006507854
        0.0006080007   0.0029428048  -0.0054772944  -0.0008350402   0.0006595329
        0.0009840942   0.0004541568  -0.0009284255   0.0008332056   0.0009241502
       -0.0037464166  -0.0014956387   0.0006230595  -0.0001207642   0.0003183037
       -0.0001126080  -0.0000727237   0.0000370117   0.0000263057  -0.0000264377
        0.0000392800  -0.0007704380   0.0000074075  -0.0002718812  -0.0000336195
       -0.0000208425  -0.0000302872  -0.0000126323  -0.0000107033  -0.0000074410
       -0.0000091981  -0.0000227341  -0.0000048443  -0.0000022359  -0.0000014153
        0.0000005537  -0.0000021394  -0.0000084060   0.0000054611  -0.0000022791
       -0.0000064003  -0.0000017842  -0.0000012675  -0.0000084545   0.0000014813
       -0.0000026532  -0.0000005352  -0.0000005394  -0.0000017569  -0.0000040260
       -0.0000047402  -0.0000059450  -0.0000028325  -0.0000047375  -0.0000077522
       -0.0000032614  -0.0000008553  -0.0000042030  -0.0000038068   0.0000012999
        0.0000150039   0.0000015677   0.0000061407   0.0000169586  -0.0000056227
        0.0000045009   0.0000118704  -0.0000053418   0.0000041061   0.0000387015
       -0.0000107686  -0.0000272630   0.0000164648   0.0000555822   0.0000058145
        0.0000092131  -0.0000041973   0.0000182772   0.0000089793   0.0000052244
        0.0000091789   0.0000099836  -0.0000001080   0.0000060002  -0.0000008932
       -0.0000012740   0.0000058797   0.0000029357  -0.0000000261   0.0000000792
        0.0000016074  -0.0000013480   0.0000002715   0.0000017861  -0.0000008590
        0.0000009928   0.0000004756  -0.0000008570   0.0000012678  -0.0000006809
       -0.0000012408   0.0000011197  -0.0000004061  -0.0000008007   0.0000014215
       -0.0000001379  -0.0000009394   0.0000009456   0.0000006192  -0.0000011068
        0.0000013161  -0.0000026795   0.0000000859   0.0000000087   0.0000000046
       -0.0000012213   0.0000004375   0.0000002407   0.0000004799   0.0000003413
       -0.0000007721   0.0000006588   0.0000018325  -0.0000011087   0.0000010656
        0.0000004658  -0.0000009923   0.0000015333  -0.0000001276  -0.0000022934
       -0.0000008287   0.0000009925   0.0000003627   0.0000014060   0.0000015160
       -0.0000007965   0.0000010867   0.0000006341  -0.0000004685   0.0000010369
        0.0000016169  -0.0000019353  -0.0000009319   0.0000016231  -0.0000027538
       -0.0000006332   0.0000002504  -0.0000012945  -0.0000001066   0.0000001250
        0.0000008857  -0.0000000341   0.0000002070   0.0000012274  -0.0000001807
        0.0000012941  -0.0000008039  -0.0000008467  -0.0000001215   0.0000000988
        0.0000000723   0.0000002060   0.0000006779   0.0000003501   0.0000006854
       -0.0000005294  -0.0000004556  -0.0000000933  -0.0000003665  -0.0000005937
        0.0000002716   0.0000006393   0.0000000216   0.0000000836  -0.0000000337
       -0.0000002748   0.0000013483  -0.0000000449  -0.0000018173   0.0000001606
        0.0000015716  -0.0000012912   0.0000024051
       -0.1170703790   0.0481857132  -0.0280695374   0.4644252641   0.0079230824
        0.0023462165  -0.0677785223  -0.0095236371   0.0248132248  -0.0642889640
        0.0054260537   0.0046619928  -0.1486534758  -0.0485770680  -0.0037496056
       -0.0257246249  -0.0087874801   0.0029476760  -0.0012024641   0.0008113665
        0.0030045258  -0.0010043971  -0.0000852911   0.0004681920   0.0027089515
        0.0000447989   0.0012765547  -0.0052004661  -0.0104433142  -0.0066317373
        0.0000482670  -0.0001155910   0.0000501492   0.0001020777   0.0000267871
       -0.0000498678   0.0000300114  -0.0000043796  -0.0000287879   0.0000059216
        0.0000139943   0.0000095318  -0.0000212903   0.0000258806   0.0000108660
       -0.0000191442   0.0000153686   0.0000238960  -0.0000360226   0.0000160343
        0.0000180498  -0.0000491038   0.0000266561   0.0000289287  -0.0001234467
       -0.0001222367  -0.0000733621   0.0000819838   0.0001675325   0.0000159074
        0.0003150737   0.0003206838  -0.0002651595  -0.0002082354   0.0000620101
        0.0001972600   0.0000709064  -0.0000402860   0.0000093993  -0.0000385731
        0.0000182493  -0.0000374638  -0.0000142354   0.0000443679   0.0000208043
       -0.0000329782   0.0000343225  -0.0000032079  -0.0000006399  -0.0000049547
       -0.0000104986  -0.0000177744   0.0000062038  -0.0000189435  -0.0000221556
        0.0000204070   0.0000193090  -0.0000233553   0.0000199909  -0.0000078204
        0.0000299721  -0.0000082993   0.0000107632  -0.0000269731  -0.0000324302
       -0.0000157684  -0.0000422015   0.0000097152  -0.0000084320   0.0000052001
       -0.0000127137  -0.0000017362  -0.0000233439  -0.0000386484  -0.0000615689
        0.0000037056  -0.0000140448  -0.0000271077  -0.0000687886  -0.0000140233
        0.0000101420  -0.0000410439  -0.0000273369   0.0001315836   0.0000916912
       -0.0000005195  -0.0000778048   0.0000041644  -0.0000023709   0.0000272014
        0.0000046136   0.0000104278  -0.0000084183   0.0000025382  -0.0000022408
       -0.0000014865   0.0000045608  -0.0000031279   0.0000024634  -0.0000004668
        0.0000071092  -0.0000055723   0.0000084621  -0.0000066880  -0.0000008468
        0.0000011644   0.0000095403  -0.0000036256   0.0000045916  -0.0000050348
        0.0000043085   0.0000024866   0.0000055647  -0.0000054280  -0.0000019916
        0.0000042360   0.0000001995   0.0000130316  -0.0000023608  -0.0000047670
       -0.0000213889   0.0000059348  -0.0000162879  -0.0001006842   0.0000267561
       -0.0000627171   0.0000842047  -0.0000143462   0.0000557138  -0.0000114386
        0.0000232828  -0.0000351545   0.0000204848   0.0000000647   0.0000027341
       -0.0000059630   0.0000093898  -0.0000067583   0.0000056254   0.0000024699
       -0.0000001267   0.0000050762  -0.0000078568   0.0000038913   0.0000033100
       -0.0000035155   0.0000011153   0.0000014024  -0.0000019280   0.0000044197
        0.0000050977  -0.0000020270  -0.0000015634   0.0000040746  -0.0000030145
        0.0000037719   0.0000001975   0.0000116442  -0.0000039870   0.0000009193
       -0.0000119834   0.0000099694   0.0000041283   0.0000025908  -0.0000029201
        0.0000017441  -0.0000045552   0.0000057520   0.0000076039   0.0000033245
        0.0000021023   0.0000034034   0.0000027540   0.0000012300   0.0000018735
       -0.0000008708   0.0000036157   0.0000055462  -0.0000002490   0.0000010634
       -0.0000015400  -0.0000001976  -0.0000019910   0.0000097181   0.0000014254
        0.0000020726  -0.0000319513  -0.0000145145   0.0000208649  -0.0000023570
        0.0000207511   0.0000610504  -0.0000020740   0.0000241028  -0.0002652104
       -0.0000025742  -0.0000197444   0.0001000601  -0.0246407240   0.0152514758
       -0.0104517753  -0.0036564674   0.0047610622  -0.0000145648   0.0040843392
       -0.0029045389   0.0005315212  -0.0103050784  -0.0108198096   0.0233314251
        0.0045186911   0.0072887741  -0.0181402093  -0.0014934656  -0.0003158688
        0.0044362862  -0.0005298628   0.0059445823   0.0054080871  -0.0020570092
        0.0171630501   0.0114869009  -0.0022019164  -0.0223976046  -0.0163405323
        0.0007507647  -0.0003046799  -0.0012389733  -0.0006307743  -0.0004365309
       -0.0000676602  -0.0002620603   0.0013279986   0.0001755705  -0.0000417959
       -0.0000156185   0.0000215976   0.0000103337  -0.0000113480  -0.0000003776
        0.0000085065   0.0000035642  -0.0000098047  -0.0000051532   0.0000083829
        0.0000117271   0.0000033457  -0.0000041905  -0.0000123415  -0.0000047987
        0.0000121757   0.0000130220   0.0000119388  -0.0000070069  -0.0000055993
        0.0000072360  -0.0000054251  -0.0000032980  -0.0000060865   0.0000112584
        0.0000149421   0.0000110230  -0.0000047436  -0.0000089375   0.0000080896
        0.0000126619   0.0000167497   0.0000676982   0.0000155045  -0.0000231865
        0.0000357933  -0.0000066835   0.0000090596   0.0000154634  -0.0000059584
        0.0000019722   0.0000079868  -0.0000076144  -0.0000069044   0.0000386209
        0.0000036434  -0.0000016591   0.0000333157   0.0000104748   0.0000022217
        0.0000173069   0.0000113047   0.0000086914   0.0000172788   0.0000179944
        0.0000149113   0.0000330642  -0.0000078364   0.0000176629   0.0000092091
        0.0000016920  -0.0000191193   0.0000025459  -0.0000016381   0.0000071427
       -0.0000002551   0.0000014456   0.0000033105   0.0000002925   0.0000012489
        0.0000021637  -0.0000017085  -0.0000002005   0.0000017482  -0.0000023877
        0.0000012604   0.0000006127  -0.0000036515  -0.0000007339   0.0000007127
       -0.0000039036  -0.0000010390   0.0000001876  -0.0000033123   0.0000024128
        0.0000031668  -0.0000111923   0.0000037982  -0.0000007559  -0.0000041368
       -0.0000047868  -0.0000028866  -0.0000028450   0.0000018966  -0.0000009841
       -0.0000026691  -0.0000005928  -0.0000042568  -0.0000014191   0.0000002814
       -0.0000023794  -0.0000032004  -0.0000023214  -0.0000037135  -0.0000027775
       -0.0000024319  -0.0000011359  -0.0000021912  -0.0000011608  -0.0000029663
       -0.0000041944   0.0000001956  -0.0000005602  -0.0000027165   0.0000010322
       -0.0000005255  -0.0000032074  -0.0000013266  -0.0000004428  -0.0000035179
       -0.0000004900   0.0000001889  -0.0000019468  -0.0000023979   0.0000011434
       -0.0000000451  -0.0000026505   0.0000017003   0.0000001146  -0.0000007523
        0.0000035879   0.0000001180  -0.0000023137   0.0000027453  -0.0000009631
       -0.0000027704   0.0000013360  -0.0000011774  -0.0000011900   0.0000008571
       -0.0000005468  -0.0000023069   0.0000006706  -0.0000012315  -0.0000001333
        0.0000022784  -0.0000012592  -0.0000007719   0.0000008443  -0.0000007473
       -0.0000004886   0.0000024254  -0.0000014813  -0.0000006561   0.0000011380
       -0.0000032195  -0.0000022676   0.0000019392
        0.0551364899  -0.1085837642   0.0257671610   0.0079230824   0.4823354588
        0.0160553817  -0.0111457912  -0.0747872393   0.0324904063   0.0039273532
       -0.1387125566  -0.0588583155  -0.0519518717  -0.0893868560  -0.0077271682
        0.0018859725   0.0050958159   0.0021746659   0.0009495668   0.0018311981
       -0.0035469574  -0.0005848856  -0.0004666675  -0.0004237496  -0.0007042373
       -0.0008049768  -0.0055760483  -0.0203907920  -0.0168446726  -0.0045360646
       -0.0009250862  -0.0001808966  -0.0001495501   0.0000318705  -0.0000500821
       -0.0000245003   0.0000579773  -0.0000051139  -0.0000096376   0.0000089498
        0.0000079494   0.0000001894   0.0000060946   0.0000189675   0.0000269409
       -0.0000045627   0.0000118513   0.0000275868  -0.0000149742   0.0000060804
        0.0000244858  -0.0000257881   0.0000459959   0.0000037662  -0.0001167923
       -0.0000604033   0.0000244365   0.0001046103  -0.0004250388  -0.0000180736
        0.0007774775   0.0000917654   0.0004657051  -0.0002310167  -0.0000642827
        0.0001557195   0.0000653616  -0.0000352219  -0.0000012547  -0.0000381286
        0.0000527853  -0.0000922709   0.0000113141   0.0000456414   0.0000811556
       -0.0000140937   0.0000046613  -0.0000235145   0.0000172522  -0.0000084248
       -0.0000004630  -0.0000029832  -0.0000430645  -0.0000090908   0.0000158671
        0.0000173834  -0.0000042650  -0.0000354227   0.0000572047   0.0000031902
        0.0000022233   0.0000015306  -0.0000043372   0.0000657490   0.0000050401
       -0.0000167194   0.0000096554   0.0000034478  -0.0000250622   0.0000348116
       -0.0000254209  -0.0000032415  -0.0000211559  -0.0000376216  -0.0000579330
        0.0000180838  -0.0000641439  -0.0000074506  -0.0001093145  -0.0000153728
        0.0000157883  -0.0000244364  -0.0000227471   0.0001477895   0.0000891677
        0.0000060659  -0.0000685694  -0.0000034014  -0.0000189138   0.0000375012
        0.0000039388   0.0000104483  -0.0000075748  -0.0000004364  -0.0000031645
       -0.0000002406   0.0000086029  -0.0000046935  -0.0000001793  -0.0000025912
        0.0000028099  -0.0000027989   0.0000135521  -0.0000076454  -0.0000017539
        0.0000025674   0.0000091562  -0.0000061728   0.0000055412  -0.0000066109
        0.0000039044   0.0000027924   0.0000025801  -0.0000040144  -0.0000035326
        0.0000036875  -0.0000003885   0.0000097109  -0.0000092275  -0.0000003481