      -----------------------------------------------------------      
     |                   =====================                   |     
     |                           x T B                           |     
     |                   =====================                   |     
     |                         S. Grimme                         |     
     |          Mulliken Center for Theoretical Chemistry        |     
     |                    University of Bonn                     |     
      -----------------------------------------------------------      

   * xtb version 6.7.1 (edcfbbe) compiled by 'albert@albert-system' on 2024-07-22

   xtb is free software: you can redistribute it and/or modify it under
   the terms of the GNU Lesser General Public License as published by
   the Free Software Foundation, either version 3 of the License, or
   (at your option) any later version.
   
   xtb is distributed in the hope that it will be useful,
   but WITHOUT ANY WARRANTY; without even the implied warranty of
   MERCHANTABILITY or FITNESS FOR A PARTICULAR PURPOSE.  See the
   GNU Lesser General Public License for more details.
   
   Cite this work as:
   * C. Bannwarth, E. Caldeweyher, S. Ehlert, A. Hansen, P. Pracht,
     J. Seibert, S. Spicher, S. Grimme, WIREs Comput. Mol. Sci., 2020, 11,
     e01493. DOI: 10.1002/wcms.1493
   
   for GFN2-xTB:
   * C. Bannwarth, S. Ehlert and S. Grimme., J. Chem. Theory Comput., 2019,
     15, 1652-1671. DOI: 10.1021/acs.jctc.8b01176
   for GFN1-xTB:
   * S. Grimme, C. Bannwarth, P. Shushkov, J. Chem. Theory Comput., 2017,
     13, 1989-2009. DOI: 10.1021/acs.jctc.7b00118
   for GFN0-xTB:
   * P. Pracht, E. Caldeweyher, S. Ehlert, S. Grimme, ChemRxiv, 2019, preprint.
     DOI: 10.26434/chemrxiv.8326202.v1
   for GFN-FF:
   * S. Spicher and S. Grimme, Angew. Chem. Int. Ed., 2020, 59, 15665-15673.
     DOI: 10.1002/anie.202004239
   
   for ALPB and GBSA implicit solvation:
   * S. Ehlert, M. Stahn, S. Spicher, S. Grimme, J. Chem. Theory Comput.,
     2021, 17, 4250-4261. DOI: 10.1021/acs.jctc.1c00471
   
   for ddCOSMO and CPCM-X implicit solvation:
   * M. Stahn, S. Ehlert, S. Grimme, J. Phys. Chem. A,
     2023, XX, XXXX-XXXX. DOI: 10.1021/acs.jpca.3c04382
   
   for DFT-D4:
   * E. Caldeweyher, C. Bannwarth and S. Grimme, J. Chem. Phys., 2017,
     147, 034112. DOI: 10.1063/1.4993215
   * E. Caldeweyher, S. Ehlert, A. Hansen, H. Neugebauer, S. Spicher,
     C. Bannwarth and S. Grimme, J. Chem. Phys., 2019, 150, 154122.
     DOI: 10.1063/1.5090222
   * E. Caldeweyher, J.-M. Mewes, S. Ehlert and S. Grimme, Phys. Chem. Chem. Phys.
     2020, 22, 8499-8512. DOI: 10.1039/D0CP00502A
   
   for sTDA-xTB:
   * S. Grimme and C. Bannwarth, J. Chem. Phys., 2016, 145, 054103.
     DOI: 10.1063/1.4959605
   
   in the mass-spec context:
   * V. Asgeirsson, C. Bauer and S. Grimme, Chem. Sci., 2017, 8, 4879.
     DOI: 10.1039/c7sc00601b
   * J. Koopman and S. Grimme, ACS Omega 2019, 4, 12, 15120-15133.
     DOI: 10.1021/acsomega.9b02011
   
   for metadynamics refer to:
   * S. Grimme, J. Chem. Theory Comput., 2019, 155, 2847-2862
     DOI: 10.1021/acs.jctc.9b00143
   
   for SPH calculations refer to:
   * S. Spicher and S. Grimme, J. Chem. Theory Comput., 2021, 17, 1701-1714
     DOI: 10.1021/acs.jctc.0c01306
   
   for ONIOM refer to:
   * C. Plett, A. Katbashev, S. Ehlert, S. Grimme, M. Bursch,
     Phys. Chem. Chem. Phys., 2023, 25, 17860-17868. DOI: 10.1039/D3CP02178E
   
   for DIPRO refer to:
   * J. Kohn, N. Gildemeister, S. Grimme, D. Fazzi, A. Hansen,
     J. Chem. Phys., 2023, just accepted.
   
   for PTB refer to:
   * S. Grimme, M. Mueller, A. Hansen, J. Chem. Phys., 2023, 158, 124111.
     DOI: 10.1063/5.0137838
   
   with help from (in alphabetical order)
   P. Atkinson, C. Bannwarth, F. Bohle, G. Brandenburg, E. Caldeweyher
   M. Checinski, S. Dohm, S. Ehlert, S. Ehrlich, I. Gerasimov, C. Hölzer
   A. Katbashev, J. Kohn, J. Koopman, C. Lavigne, S. Lehtola, F. März, M. Müller,
   F. Musil, H. Neugebauer, J. Pisarek, C. Plett, P. Pracht, F. Pultar,
   J. Seibert, P. Shushkov, S. Spicher, M. Stahn, M. Steiner, T. Strunk,
   J. Stückrath, T. Rose, and J. Unsleber
   
 * started run on 2025/08/22 at 12:05:27.074     
   ID    Z sym.   atoms
    1    6 C      1-6, 8-13, 15-25, 27-32, 34-39, 41-44, 46
    2    8 O      7
    3    7 N      14, 26, 33, 40, 45
    4    1 H      47-69

           -------------------------------------------------
          |                Calculation Setup                |
           -------------------------------------------------

          program call               : xtb data2507/toluene/pDPAPQ-PXZ/pDPAPQ-PXZ_toluene_T1_crest.xyz --gfn 2 --uhf 2 --gbsa toluene --ohess vtight --parallel 40 --molden --ceasefiles --namespace data2507/toluene/pDPAPQ-PXZ/pDPAPQ-PXZ_toluene_T1_finalOpt
          calculation namespace      : data2507/toluene/pDPAPQ-PXZ/pDPAPQ-PXZ_toluene_T1_finalOpt
          coordinate file            : data2507/toluene/pDPAPQ-PXZ/pDPAPQ-PXZ_toluene_T1_crest.xyz
          omp threads                :                    40


           -------------------------------------------------
          |                 G F N 2 - x T B                 |
           -------------------------------------------------

        Reference                      10.1021/acs.jctc.8b01176
      * Hamiltonian:
        H0-scaling (s, p, d)           1.850000    2.230000    2.230000
        zeta-weighting                 0.500000
      * Dispersion:
        s8                             2.700000
        a1                             0.520000
        a2                             5.000000
        s9                             5.000000
      * Repulsion:
        kExp                           1.500000    1.000000
        rExp                           1.000000
      * Coulomb:
        alpha                          2.000000
        third order                    shell-resolved
        anisotropic                    true
        a3                             3.000000
        a5                             4.000000
        cn-shift                       1.200000
        cn-exp                         4.000000
        max-rad                        5.000000

      * Solvation model:               GBSA
        Solvent                        toluene
        Parameter file                 internal GFN2-xTB/GBSA
        Dielectric constant                7.0000E+00
        Reference state                gsolv [1 M gas/solution]
        Free energy shift                  4.5239E-03 Eh       2.8388E+00 kcal/mol
        Temperature                        2.9815E+02 K
        Density                            8.6700E-01 kg/L
        Solvent mass                       9.2140E+01 g/mol
        Interaction kernel             Still
        Born radius scaling (c1)           1.5686E+00
        Born radii integrator          GBOBC
        Born offset                        0.0000E+00 a0       0.0000E+00 AA
        H-bond correction              false
        Ion screening                  false
        Surface tension                    1.0000E-05 Eh       1.5569E+01 dyn/cm
        Grid points                               230 per atom

          ...................................................
          :                      SETUP                      :
          :.................................................:
          :  # basis functions                 207          :
          :  # atomic orbitals                 207          :
          :  # shells                          115          :
          :  # electrons                       214          :
          :  max. iterations                   250          :
          :  Hamiltonian                  GFN2-xTB          :
          :  restarted?                      false          :
          :  GBSA solvation                   true          :
          :  PC potential                    false          :
          :  electronic temp.          300.0000000     K    :
          :  accuracy                    1.0000000          :
          :  -> integral cutoff          0.2500000E+02      :
          :  -> integral neglect         0.1000000E-07      :
          :  -> SCF convergence          0.1000000E-05 Eh   :
          :  -> wf. convergence          0.1000000E-03 e    :
          :  Broyden damping             0.4000000          :
          :  net charge                          0          :
          :  unpaired electrons                  2          :
          ...................................................

 iter      E             dE          RMSdq      gap      omega  full diag
   1   -117.9809298 -0.117981E+03  0.429E+00    0.24       0.0  T
   2   -117.9578267  0.231031E-01  0.277E+00    0.27       1.0  T
   3   -117.5121094  0.445717E+00  0.246E+00    0.57       1.0  T
   4   -118.0744670 -0.562358E+00  0.875E-01    0.41       1.0  T
   5   -118.0427310  0.317360E-01  0.967E-01    0.15       1.0  T
   6   -118.1437348 -0.101004E+00  0.240E-01    0.08       1.0  T
   7   -118.1323594  0.113754E-01  0.354E-01    0.05       1.0  T
   8   -118.1451536 -0.127942E-01  0.183E-01    0.06       1.0  T
   9   -118.1449417  0.211877E-03  0.176E-01    0.05       1.0  T
  10   -118.1489611 -0.401934E-02  0.658E-02    0.07       1.0  T
  11   -118.1485582  0.402897E-03  0.708E-02    0.05       1.0  T
  12   -118.1490896 -0.531402E-03  0.367E-02    0.06       1.0  T
  13   -118.1492826 -0.192970E-03  0.554E-03    0.06       2.2  T
  14   -118.1492836 -0.103361E-05  0.465E-03    0.06       2.6  T
  15   -118.1492859 -0.233735E-05  0.213E-03    0.06       5.7  T
  16   -118.1492865 -0.618940E-06  0.211E-04    0.06      56.9  T
  17   -118.1492865  0.677517E-08  0.264E-04    0.06      45.5  T

   *** convergence criteria satisfied after 17 iterations ***

         #    Occupation            Energy/Eh            Energy/eV
      -------------------------------------------------------------
         1        2.0000           -0.7528776             -20.4868
       ...           ...                  ...                  ...
       102        2.0000           -0.3943858             -10.7318
       103        2.0000           -0.3874338             -10.5426
       104        2.0000           -0.3738687             -10.1735
       105        2.0000           -0.3722397             -10.1292
       106        1.5945           -0.3596704              -9.7871
       107        1.4055           -0.3589433              -9.7673
       108        0.7490           -0.3017359              -8.2107 (HOMO)
       109        0.2510           -0.2996587              -8.1541 (LUMO)
       110                         -0.2677718              -7.2864
       111                         -0.2569345              -6.9915
       112                         -0.2518413              -6.8529
       113                         -0.2454530              -6.6791
       ...                                ...                  ...
       207                          0.7301894              19.8695
      -------------------------------------------------------------
                  HL-Gap            0.0020772 Eh            0.0565 eV
             Fermi-level           -0.3300021 Eh           -8.9798 eV
 
 transition dipole moment (au) for excitation:         107         108
     X       Y       Z   
   0.1179   0.0264  -0.0326  total (au/Debye):    0.125   0.318
 dE (eV)             :    1.557
 oscillator strength :  0.84474E-03

 SCC (total)                   0 d,  0 h,  0 min,  0.179 sec
 SCC setup                      ...        0 min,  0.008 sec (  4.330%)
 Dispersion                     ...        0 min,  0.003 sec (  1.721%)
 classical contributions        ...        0 min,  0.000 sec (  0.091%)
 integral evaluation            ...        0 min,  0.007 sec (  3.939%)
 iterations                     ...        0 min,  0.127 sec ( 71.305%)
 molecular gradient             ...        0 min,  0.010 sec (  5.696%)
 printout                       ...        0 min,  0.023 sec ( 12.864%)

         :::::::::::::::::::::::::::::::::::::::::::::::::::::
         ::                     SUMMARY                     ::
         :::::::::::::::::::::::::::::::::::::::::::::::::::::
         :: total energy            -116.102739593296 Eh    ::
         :: total w/o Gsasa/hb      -116.057982804522 Eh    ::
         :: gradient norm              0.011448822425 Eh/a0 ::
         :: HOMO-LUMO gap              0.056522419351 eV    ::
         ::.................................................::
         :: SCC energy              -118.149473824471 Eh    ::
         :: -> isotropic ES            0.048718681531 Eh    ::
         :: -> anisotropic ES          0.009023485909 Eh    ::
         :: -> anisotropic XC          0.069243530985 Eh    ::
         :: -> dispersion             -0.101137450921 Eh    ::
         :: -> Gsolv                  -0.051224316381 Eh    ::
         ::    -> Gelec               -0.006467527607 Eh    ::
         ::    -> Gsasa               -0.049280668646 Eh    ::
         ::    -> Ghb                  0.000000000000 Eh    ::
         ::    -> Gshift               0.004523879872 Eh    ::
         :: repulsion energy           2.046734231174 Eh    ::
         :: add. restraining           0.000000000000 Eh    ::
         :: total charge               0.000000000000 e     ::
         :::::::::::::::::::::::::::::::::::::::::::::::::::::

      ----------------------------------------------------------- 
     |                   =====================                   |
     |                        A N C O P T                        |
     |                   =====================                   |
     |               Approximate Normal Coordinate               |
     |                Rational Function Optimizer                |
      ----------------------------------------------------------- 

Optimization log is written to '/dev/null'
      ----------------------------------------------------------- 
     |                   =====================                   |
     |                        A N C O P T                        |
     |                   =====================                   |
     |               Approximate Normal Coordinate               |
     |                Rational Function Optimizer                |
      ----------------------------------------------------------- 

          ...................................................
          :                      SETUP                      :
          :.................................................:
          :   optimization level         verytight          :
          :   max. optcycles                  1380          :
          :   ANC micro-cycles                  20          :
          :   degrees of freedom               201          :
          :.................................................:
          :   RF solver                   davidson          :
          :   write xtbopt.log                true          :
          :   linear?                        false          :
          :   energy convergence         0.1000000E-06 Eh   :
          :   grad. convergence          0.2000000E-03 Eh/α :
          :   maxmium RF displ.          1.0000000          :
          :   Hlow (freq-cutoff)         0.1000000E-01      :
          :   Hmax (freq-cutoff)         5.0000000          :
          :   S6 in model hess.         20.0000000          :
          ...................................................

generating ANC from exact Hessian ...
Using Lindh-Hessian (1995)
 Shifting diagonal of input Hessian by   9.878706164794361E-003
 Lowest  eigenvalues of input Hessian
    0.000000    0.000000    0.000000    0.000000    0.000000    0.000000
    0.010000    0.010025    0.010432    0.010547    0.010615    0.010947
    0.011208    0.011303    0.011385    0.012098    0.012847    0.013563
 Highest eigenvalues
    2.136361    2.138558    2.175799    2.207703    2.232061    2.326108
 

........................................................................
.............................. CYCLE    1 ..............................
........................................................................

 iter      E             dE          RMSdq      gap      omega  full diag
   1   -118.1492865 -0.118149E+03  0.187E-04    0.06       0.0  T
   2   -118.1492859  0.591475E-06  0.197E-03    0.06       6.1  T
   3   -118.1492865 -0.591641E-06  0.192E-04    0.06      62.7  T
   4   -118.1492865 -0.386667E-08  0.479E-05    0.06     251.4  T
     SCC iter.                  ...        0 min,  0.033 sec
     gradient                   ...        0 min,  0.010 sec
 * total energy  :  -116.1027396 Eh     change       -0.8077151E-08 Eh
   gradient norm :     0.0114196 Eh/α   predicted     0.0000000E+00 (-100.00%)
   displ. norm   :     0.0341259 α      lambda       -0.8139628E-04
   maximum displ.:     0.0121508 α      in ANC's #14, #19, #7, ...

........................................................................
.............................. CYCLE    2 ..............................
........................................................................

 iter      E             dE          RMSdq      gap      omega  full diag
   1   -118.1415145 -0.118142E+03  0.128E-01    0.05       0.0  T
   2   -118.0997798  0.417347E-01  0.558E-01    0.15       1.0  T
   3   -118.1398921 -0.401123E-01  0.169E-01    0.06       1.0  T
   4   -118.1432719 -0.337983E-02  0.650E-02    0.06       1.0  T
   5   -118.1438057 -0.533815E-03  0.199E-02    0.06       1.0  T
   6   -118.1438006  0.510871E-05  0.206E-02    0.05       1.0  T
   7   -118.1437556  0.450053E-04  0.255E-02    0.05       1.0  T
   8   -118.1438356 -0.799313E-04  0.110E-02    0.06       1.1  T
   9   -118.1438523 -0.167207E-04  0.306E-03    0.06       3.9  T
  10   -118.1438536 -0.136662E-05  0.137E-04    0.06      87.8  T
  11   -118.1438536  0.913190E-10  0.960E-05    0.06     125.4  T
  12   -118.1438536  0.294847E-09  0.986E-05    0.06     122.0  T
     SCC iter.                  ...        0 min,  0.092 sec
     gradient                   ...        0 min,  0.010 sec
 * total energy  :  -116.1028269 Eh     change       -0.8729374E-04 Eh
   gradient norm :     0.0073375 Eh/α   predicted    -0.5738671E-04 ( -34.26%)
   displ. norm   :     0.0528723 α      lambda       -0.9531566E-04
   maximum displ.:     0.0224335 α      in ANC's #7, #14, #16, ...

........................................................................
.............................. CYCLE    3 ..............................
........................................................................

 iter      E             dE          RMSdq      gap      omega  full diag
   1   -118.1332484 -0.118133E+03  0.204E-01    0.05       0.0  T
   2   -118.0794247  0.538237E-01  0.662E-01    0.22       1.0  T
   3   -118.1255755 -0.461508E-01  0.311E-01    0.06       1.0  T
   4   -118.1360200 -0.104445E-01  0.147E-01    0.06       1.0  T
   5   -118.1387306 -0.271061E-02  0.491E-02    0.06       1.0  T
   6   -118.1389203 -0.189668E-03  0.323E-02    0.05       1.0  T
   7   -118.1387811  0.139222E-03  0.423E-02    0.05       1.0  T
   8   -118.1389947 -0.213608E-03  0.192E-02    0.05       1.0  T
   9   -118.1390480 -0.532982E-04  0.414E-03    0.05       2.9  T
  10   -118.1390501 -0.215693E-05  0.142E-03    0.05       8.5  T
  11   -118.1390504 -0.278212E-06  0.118E-04    0.05     101.8  T
  12   -118.1390504  0.412705E-08  0.184E-04    0.05      65.5  T
     SCC iter.                  ...        0 min,  0.091 sec
     gradient                   ...        0 min,  0.009 sec
 * total energy  :  -116.1028850 Eh     change       -0.5811734E-04 Eh
   gradient norm :     0.0033979 Eh/α   predicted    -0.4906639E-04 ( -15.57%)
   displ. norm   :     0.0258335 α      lambda       -0.1830625E-04
   maximum displ.:     0.0127813 α      in ANC's #7, #10, #14, ...

........................................................................
.............................. CYCLE    4 ..............................
........................................................................

 iter      E             dE          RMSdq      gap      omega  full diag
   1   -118.1384384 -0.118138E+03  0.743E-02    0.05       0.0  T
   2   -118.1050801  0.333582E-01  0.484E-01    0.10       1.0  T
   3   -118.1391527 -0.340726E-01  0.932E-03    0.05       1.3  T
   4   -118.1391487  0.398643E-05  0.942E-03    0.05       1.3  T
   5   -118.1391457  0.298726E-05  0.103E-02    0.05       1.2  T
   6   -118.1391507 -0.500228E-05  0.740E-03    0.05       1.6  T
   7   -118.1391484  0.234221E-05  0.724E-03    0.05       1.7  T
   8   -118.1391532 -0.480242E-05  0.474E-03    0.05       2.5  T
   9   -118.1391560 -0.287264E-05  0.179E-03    0.05       6.7  T
  10   -118.1391565 -0.461013E-06  0.103E-04    0.05     116.7  T
  11   -118.1391565  0.302730E-08  0.157E-04    0.05      76.5  T
     SCC iter.                  ...        0 min,  0.084 sec
     gradient                   ...        0 min,  0.009 sec
 * total energy  :  -116.1028986 Eh     change       -0.1356371E-04 Eh
   gradient norm :     0.0024230 Eh/α   predicted    -0.9165267E-05 ( -32.43%)
   displ. norm   :     0.0365146 α      lambda       -0.1632917E-04
   maximum displ.:     0.0177303 α      in ANC's #7, #10, #8, ...

........................................................................
.............................. CYCLE    5 ..............................
........................................................................

 iter      E             dE          RMSdq      gap      omega  full diag
   1   -118.1398933 -0.118140E+03  0.642E-02    0.05       0.0  T
   2   -118.1114631  0.284303E-01  0.446E-01    0.09       1.0  T
   3   -118.1398011 -0.283380E-01  0.604E-02    0.05       1.0  T
   4   -118.1403071 -0.506019E-03  0.226E-02    0.05       1.0  T
   5   -118.1403318 -0.246986E-04  0.118E-02    0.05       1.0  T
   6   -118.1403464 -0.146443E-04  0.717E-03    0.05       1.7  T
   7   -118.1403397  0.674255E-05  0.838E-03    0.05       1.4  T
   8   -118.1403503 -0.106148E-04  0.147E-03    0.05       8.2  T
   9   -118.1403504 -0.148006E-06  0.102E-03    0.05      11.8  T
  10   -118.1403505 -0.663485E-07  0.735E-04    0.05      16.4  T
  11   -118.1403506 -0.733306E-07  0.222E-04    0.05      54.2  T
     SCC iter.                  ...        0 min,  0.084 sec
     gradient                   ...        0 min,  0.009 sec
 * total energy  :  -116.1029088 Eh     change       -0.1018929E-04 Eh
   gradient norm :     0.0015146 Eh/α   predicted    -0.8183872E-05 ( -19.68%)
   displ. norm   :     0.0342687 α      lambda       -0.4649563E-05
   maximum displ.:     0.0151587 α      in ANC's #7, #8, #10, ...

........................................................................
.............................. CYCLE    6 ..............................
........................................................................

 iter      E             dE          RMSdq      gap      omega  full diag
   1   -118.1411967 -0.118141E+03  0.256E-02    0.05       0.0  T
   2   -118.1395627  0.163401E-02  0.112E-01    0.06       1.0  T
   3   -118.1394112  0.151568E-03  0.109E-01    0.05       1.0  T
   4   -118.1412175 -0.180638E-02  0.132E-02    0.05       1.0  T
   5   -118.1412190 -0.152154E-05  0.109E-02    0.05       1.1  T
   6   -118.1412267 -0.761081E-05  0.153E-03    0.05       7.9  T
   7   -118.1412268 -0.128007E-06  0.516E-04    0.05      23.3  T
   8   -118.1412268 -0.219228E-07  0.273E-04    0.05      44.2  T
     SCC iter.                  ...        0 min,  0.062 sec
     gradient                   ...        0 min,  0.009 sec
 * total energy  :  -116.1029130 Eh     change       -0.4188953E-05 Eh
   gradient norm :     0.0010886 Eh/α   predicted    -0.2328339E-05 ( -44.42%)
   displ. norm   :     0.0246112 α      lambda       -0.2495184E-05
   maximum displ.:     0.0110012 α      in ANC's #8, #7, #10, ...

........................................................................
.............................. CYCLE    7 ..............................
........................................................................

 iter      E             dE          RMSdq      gap      omega  full diag
   1   -118.1410081 -0.118141E+03  0.176E-02    0.05       0.0  T
   2   -118.1352920  0.571613E-02  0.194E-01    0.05       1.0  T
   3   -118.1410232 -0.573117E-02  0.142E-02    0.05       1.0  T
   4   -118.1410383 -0.151422E-04  0.809E-03    0.05       1.5  T
   5   -118.1410413 -0.295217E-05  0.422E-03    0.05       2.9  T
   6   -118.1410421 -0.798819E-06  0.243E-03    0.05       4.9  T
   7   -118.1410426 -0.564690E-06  0.903E-04    0.05      13.3  T
   8   -118.1410428 -0.136512E-06  0.171E-04    0.05      70.2  T
     SCC iter.                  ...        0 min,  0.062 sec
     gradient                   ...        0 min,  0.010 sec
 * total energy  :  -116.1029157 Eh     change       -0.2794114E-05 Eh
   gradient norm :     0.0007043 Eh/α   predicted    -0.1261663E-05 ( -54.85%)
   displ. norm   :     0.0420778 α      lambda       -0.2338362E-05
   maximum displ.:     0.0195035 α      in ANC's #8, #7, #10, ...

........................................................................
.............................. CYCLE    8 ..............................
........................................................................

 iter      E             dE          RMSdq      gap      omega  full diag
   1   -118.1406568 -0.118141E+03  0.154E-02    0.05       0.0  T
   2   -118.1387936  0.186314E-02  0.111E-01    0.05       1.0  T
   3   -118.1406136 -0.181997E-02  0.217E-02    0.05       1.0  T
   4   -118.1406619 -0.482492E-04  0.115E-02    0.05       1.1  T
   5   -118.1406680 -0.611253E-05  0.378E-03    0.05       3.2  T
   6   -118.1406689 -0.940981E-06  0.191E-03    0.05       6.3  T
   7   -118.1406693 -0.390142E-06  0.562E-04    0.05      21.4  T
   8   -118.1406693 -0.473041E-07  0.170E-04    0.05      71.0  T
     SCC iter.                  ...        0 min,  0.062 sec
     gradient                   ...        0 min,  0.010 sec
 * total energy  :  -116.1029182 Eh     change       -0.2494900E-05 Eh
   gradient norm :     0.0008802 Eh/α   predicted    -0.1178076E-05 ( -52.78%)
   displ. norm   :     0.0433875 α      lambda       -0.1786225E-05
   maximum displ.:     0.0204430 α      in ANC's #8, #2, #5, ...

........................................................................
.............................. CYCLE    9 ..............................
........................................................................

 iter      E             dE          RMSdq      gap      omega  full diag
   1   -118.1404891 -0.118140E+03  0.133E-02    0.05       0.0  T
   2   -118.1396686  0.820447E-03  0.743E-02    0.05       1.0  T
   3   -118.1404411 -0.772545E-03  0.201E-02    0.05       1.0  T
   4   -118.1404849 -0.438000E-04  0.123E-02    0.06       1.0  T
   5   -118.1404928 -0.785193E-05  0.411E-03    0.05       2.9  T
   6   -118.1404945 -0.171200E-05  0.940E-04    0.05      12.8  T
   7   -118.1404946 -0.441887E-07  0.401E-04    0.05      30.0  T
   8   -118.1404946 -0.221567E-07  0.843E-05    0.05     142.8  T
     SCC iter.                  ...        0 min,  0.062 sec
     gradient                   ...        0 min,  0.010 sec
 * total energy  :  -116.1029202 Eh     change       -0.1998711E-05 Eh
   gradient norm :     0.0009039 Eh/α   predicted    -0.9013797E-06 ( -54.90%)
   displ. norm   :     0.0515490 α      lambda       -0.1913003E-05
   maximum displ.:     0.0247575 α      in ANC's #8, #2, #5, ...

........................................................................
.............................. CYCLE   10 ..............................
........................................................................

 iter      E             dE          RMSdq      gap      omega  full diag
   1   -118.1405438 -0.118141E+03  0.165E-02    0.06       0.0  T
   2   -118.1392195  0.132433E-02  0.952E-02    0.05       1.0  T
   3   -118.1404262 -0.120666E-02  0.301E-02    0.05       1.0  T
   4   -118.1405466 -0.120474E-03  0.113E-02    0.06       1.1  T
   5   -118.1405535 -0.683928E-05  0.186E-03    0.05       6.5  T
   6   -118.1405536 -0.118935E-06  0.172E-03    0.05       7.0  T
   7   -118.1405538 -0.196538E-06  0.446E-04    0.05      27.0  T
   8   -118.1405538 -0.203580E-07  0.156E-04    0.05      77.0  T
     SCC iter.                  ...        0 min,  0.063 sec
     gradient                   ...        0 min,  0.009 sec
 * total energy  :  -116.1029221 Eh     change       -0.1857412E-05 Eh
   gradient norm :     0.0006426 Eh/α   predicted    -0.9595033E-06 ( -48.34%)
   displ. norm   :     0.0275178 α      lambda       -0.8758693E-06
   maximum displ.:     0.0135307 α      in ANC's #8, #2, #5, ...

........................................................................
.............................. CYCLE   11 ..............................
........................................................................

 iter      E             dE          RMSdq      gap      omega  full diag
   1   -118.1407092 -0.118141E+03  0.834E-03    0.05       0.0  T
   2   -118.1406284  0.808370E-04  0.242E-02    0.05       1.0  T
   3   -118.1405804  0.480086E-04  0.300E-02    0.05       1.0  T
   4   -118.1407098 -0.129380E-03  0.525E-03    0.05       2.3  T
   5   -118.1407099 -0.126962E-06  0.367E-03    0.05       3.3  T
   6   -118.1407108 -0.925649E-06  0.902E-04    0.05      13.3  T
   7   -118.1407109 -0.991572E-07  0.147E-04    0.05      81.9  T
     SCC iter.                  ...        0 min,  0.055 sec
     gradient                   ...        0 min,  0.010 sec
 * total energy  :  -116.1029230 Eh     change       -0.8601018E-06 Eh
   gradient norm :     0.0002962 Eh/α   predicted    -0.4404080E-06 ( -48.80%)
   displ. norm   :     0.0145755 α      lambda       -0.3878725E-06
   maximum displ.:     0.0077229 α      in ANC's #2, #5, #8, ...

........................................................................
.............................. CYCLE   12 ..............................
........................................................................

 iter      E             dE          RMSdq      gap      omega  full diag
   1   -118.1408256 -0.118141E+03  0.534E-03    0.05       0.0  T
   2   -118.1405458  0.279805E-03  0.430E-02    0.06       1.0  T
   3   -118.1408182 -0.272366E-03  0.904E-03    0.05       1.3  T
   4   -118.1408272 -0.898982E-05  0.283E-03    0.05       4.3  T
   5   -118.1408275 -0.316014E-06  0.193E-03    0.05       6.2  T
   6   -118.1408277 -0.192447E-06  0.759E-04    0.05      15.9  T
   7   -118.1408278 -0.787823E-07  0.173E-04    0.05      69.5  T
     SCC iter.                  ...        0 min,  0.054 sec
     gradient                   ...        0 min,  0.009 sec
 * total energy  :  -116.1029234 Eh     change       -0.4507703E-06 Eh
   gradient norm :     0.0002218 Eh/α   predicted    -0.2015103E-06 ( -55.30%)
   displ. norm   :     0.0180213 α      lambda       -0.3681351E-06
   maximum displ.:     0.0097831 α      in ANC's #2, #5, #8, ...

........................................................................
.............................. CYCLE   13 ..............................
........................................................................

 iter      E             dE          RMSdq      gap      omega  full diag
   1   -118.1408968 -0.118141E+03  0.605E-03    0.05       0.0  T
   2   -118.1404859  0.410955E-03  0.521E-02    0.06       1.0  T
   3   -118.1408917 -0.405837E-03  0.823E-03    0.05       1.5  T
   4   -118.1408987 -0.699629E-05  0.362E-03    0.05       3.3  T
   5   -118.1408995 -0.747910E-06  0.119E-03    0.05      10.1  T
   6   -118.1408997 -0.210092E-06  0.387E-04    0.05      31.1  T
   7   -118.1408997 -0.861945E-09  0.243E-04    0.05      49.6  T
     SCC iter.                  ...        0 min,  0.055 sec
     gradient                   ...        0 min,  0.009 sec
 * total energy  :  -116.1029238 Eh     change       -0.4214689E-06 Eh
   gradient norm :     0.0002975 Eh/α   predicted    -0.1850398E-06 ( -56.10%)
   displ. norm   :     0.0204862 α      lambda       -0.3552041E-06
   maximum displ.:     0.0113406 α      in ANC's #2, #5, #7, ...

........................................................................
.............................. CYCLE   14 ..............................
........................................................................

 iter      E             dE          RMSdq      gap      omega  full diag
   1   -118.1409129 -0.118141E+03  0.488E-03    0.05       0.0  T
   2   -118.1408540  0.589512E-04  0.201E-02    0.06       1.0  T
   3   -118.1408932 -0.392347E-04  0.120E-02    0.05       1.0  T
   4   -118.1409125 -0.193199E-04  0.411E-03    0.05       2.9  T
   5   -118.1409133 -0.737052E-06  0.153E-03    0.05       7.8  T
   6   -118.1409135 -0.220137E-06  0.301E-04    0.05      40.0  T
   7   -118.1409135 -0.102844E-07  0.830E-05    0.05     145.1  T
     SCC iter.                  ...        0 min,  0.055 sec
     gradient                   ...        0 min,  0.009 sec
 * total energy  :  -116.1029243 Eh     change       -0.4458052E-06 Eh
   gradient norm :     0.0003239 Eh/α   predicted    -0.1782028E-06 ( -60.03%)
   displ. norm   :     0.0261230 α      lambda       -0.4283565E-06
   maximum displ.:     0.0147001 α      in ANC's #2, #5, #7, ...

........................................................................
.............................. CYCLE   15 ..............................
........................................................................

 iter      E             dE          RMSdq      gap      omega  full diag
   1   -118.1408945 -0.118141E+03  0.598E-03    0.05       0.0  T
   2   -118.1408138  0.806816E-04  0.234E-02    0.05       1.0  T
   3   -118.1408798 -0.659266E-04  0.107E-02    0.05       1.1  T
   4   -118.1408934 -0.135951E-04  0.551E-03    0.05       2.2  T
   5   -118.1408950 -0.163066E-05  0.193E-03    0.05       6.2  T
   6   -118.1408952 -0.230162E-06  0.418E-04    0.05      28.8  T
   7   -118.1408952 -0.211780E-07  0.135E-04    0.05      89.0  T
     SCC iter.                  ...        0 min,  0.055 sec
     gradient                   ...        0 min,  0.010 sec
 * total energy  :  -116.1029248 Eh     change       -0.4981188E-06 Eh
   gradient norm :     0.0002625 Eh/α   predicted    -0.2153814E-06 ( -56.76%)
   displ. norm   :     0.0264505 α      lambda       -0.3553579E-06
   maximum displ.:     0.0153738 α      in ANC's #2, #5, #7, ...

........................................................................
.............................. CYCLE   16 ..............................
........................................................................

 iter      E             dE          RMSdq      gap      omega  full diag
   1   -118.1408049 -0.118141E+03  0.591E-03    0.05       0.0  T
   2   -118.1407182  0.866938E-04  0.241E-02    0.05       1.0  T
   3   -118.1407954 -0.772091E-04  0.887E-03    0.05       1.4  T
   4   -118.1408038 -0.837732E-05  0.563E-03    0.05       2.1  T
   5   -118.1408054 -0.161047E-05  0.113E-03    0.05      10.7  T
   6   -118.1408056 -0.117828E-06  0.432E-04    0.05      27.8  T
   7   -118.1408056 -0.162116E-07  0.139E-04    0.05      86.4  T
     SCC iter.                  ...        0 min,  0.055 sec
     gradient                   ...        0 min,  0.010 sec
 * total energy  :  -116.1029252 Eh     change       -0.3948209E-06 Eh
   gradient norm :     0.0002108 Eh/α   predicted    -0.1783310E-06 ( -54.83%)
   displ. norm   :     0.0218327 α      lambda       -0.2585377E-06
   maximum displ.:     0.0130659 α      in ANC's #2, #5, #7, ...

........................................................................
.............................. CYCLE   17 ..............................
........................................................................

 iter      E             dE          RMSdq      gap      omega  full diag
   1   -118.1407221 -0.118141E+03  0.466E-03    0.05       0.0  T
   2   -118.1407161  0.606844E-05  0.722E-03    0.05       1.7  T
   3   -118.1406792  0.368643E-04  0.170E-02    0.05       1.0  T
   4   -118.1407194 -0.402057E-04  0.591E-03    0.05       2.0  T
   5   -118.1407222 -0.283276E-05  0.902E-04    0.05      13.3  T
   6   -118.1407223 -0.543216E-07  0.185E-04    0.05      64.9  T
   7   -118.1407223 -0.284459E-08  0.811E-05    0.05     148.4  T
     SCC iter.                  ...        0 min,  0.055 sec
     gradient                   ...        0 min,  0.009 sec
 * total energy  :  -116.1029255 Eh     change       -0.3030583E-06 Eh
   gradient norm :     0.0001925 Eh/α   predicted    -0.1309283E-06 ( -56.80%)
   displ. norm   :     0.0217786 α      lambda       -0.2569098E-06
   maximum displ.:     0.0132499 α      in ANC's #2, #5, #1, ...

........................................................................
.............................. CYCLE   18 ..............................
........................................................................

 iter      E             dE          RMSdq      gap      omega  full diag
   1   -118.1406666 -0.118141E+03  0.487E-03    0.05       0.0  T
   2   -118.1406601  0.654946E-05  0.824E-03    0.05       1.5  T
   3   -118.1406272  0.328046E-04  0.163E-02    0.05       1.0  T
   4   -118.1406631 -0.358601E-04  0.595E-03    0.05       2.0  T
   5   -118.1406669 -0.380231E-05  0.306E-04    0.05      39.3  T
   6   -118.1406669 -0.415152E-08  0.191E-04    0.05      63.0  T
   7   -118.1406669 -0.285603E-08  0.787E-05    0.05     152.9  T
     SCC iter.                  ...        0 min,  0.055 sec
     gradient                   ...        0 min,  0.010 sec
 * total energy  :  -116.1029258 Eh     change       -0.3038850E-06 Eh
   gradient norm :     0.0001733 Eh/α   predicted    -0.1294179E-06 ( -57.41%)
   displ. norm   :     0.0227185 α      lambda       -0.2467466E-06
   maximum displ.:     0.0139789 α      in ANC's #2, #5, #1, ...

........................................................................
.............................. CYCLE   19 ..............................
........................................................................

 iter      E             dE          RMSdq      gap      omega  full diag
   1   -118.1406552 -0.118141E+03  0.498E-03    0.05       0.0  T
   2   -118.1406477  0.756568E-05  0.870E-03    0.05       1.4  T
   3   -118.1406124  0.352507E-04  0.170E-02    0.05       1.0  T
   4   -118.1406527 -0.403298E-04  0.537E-03    0.05       2.2  T
   5   -118.1406555 -0.270771E-05  0.142E-03    0.05       8.5  T
   6   -118.1406556 -0.131569E-06  0.310E-04    0.05      38.8  T
   7   -118.1406556 -0.106413E-07  0.639E-05    0.05     188.3  T
     SCC iter.                  ...        0 min,  0.055 sec
     gradient                   ...        0 min,  0.010 sec
 * total energy  :  -116.1029261 Eh     change       -0.2862164E-06 Eh
   gradient norm :     0.0001623 Eh/α   predicted    -0.1239924E-06 ( -56.68%)
   displ. norm   :     0.0197109 α      lambda       -0.1884327E-06
   maximum displ.:     0.0121814 α      in ANC's #2, #5, #1, ...

........................................................................
.............................. CYCLE   20 ..............................
........................................................................

 iter      E             dE          RMSdq      gap      omega  full diag
   1   -118.1406973 -0.118141E+03  0.389E-03    0.05       0.0  T
   2   -118.1406955  0.181115E-05  0.468E-03    0.05       2.6  T
   3   -118.1406732  0.223158E-04  0.128E-02    0.05       1.0  T
   4   -118.1406935 -0.203708E-04  0.577E-03    0.06       2.1  T
   5   -118.1406973 -0.376143E-05  0.122E-03    0.05       9.9  T
   6   -118.1406974 -0.990701E-07  0.221E-04    0.05      54.6  T
   7   -118.1406974 -0.568465E-08  0.535E-05    0.05     224.9  T
     SCC iter.                  ...        0 min,  0.055 sec
     gradient                   ...        0 min,  0.010 sec
 * total energy  :  -116.1029263 Eh     change       -0.2224271E-06 Eh
   gradient norm :     0.0001709 Eh/α   predicted    -0.9518666E-07 ( -57.21%)
   displ. norm   :     0.0185402 α      lambda       -0.1643861E-06
   maximum displ.:     0.0115045 α      in ANC's #2, #5, #1, ...
 * RMSD in coord.:     0.0523852 α      energy gain  -0.1866929E-03 Eh

generating ANC from exact Hessian ...
Using Lindh-Hessian (1995)
 Shifting diagonal of input Hessian by   9.879065877941191E-003
 Lowest  eigenvalues of input Hessian
    0.000000    0.000000    0.000000    0.000000    0.000000    0.000000
    0.010000    0.010026    0.010428    0.010542    0.010612    0.010939
    0.011189    0.011297    0.011378    0.012093    0.012814    0.013544
 Highest eigenvalues
    2.129952    2.132732    2.158394    2.198727    2.228538    2.302548
 

........................................................................
.............................. CYCLE   21 ..............................
........................................................................

 iter      E             dE          RMSdq      gap      omega  full diag
   1   -118.1407380 -0.118141E+03  0.344E-03    0.05       0.0  T
   2   -118.1407314  0.667760E-05  0.690E-03    0.05       1.7  T
   3   -118.1407243  0.710095E-05  0.979E-03    0.05       1.2  T
   4   -118.1407373 -0.130874E-04  0.342E-03    0.05       3.5  T
   5   -118.1407381 -0.727186E-06  0.496E-04    0.05      24.3  T
   6   -118.1407381 -0.225449E-07  0.221E-04    0.05      54.6  T
     SCC iter.                  ...        0 min,  0.046 sec
     gradient                   ...        0 min,  0.009 sec
 * total energy  :  -116.1029265 Eh     change       -0.1909609E-06 Eh
   gradient norm :     0.0001828 Eh/α   predicted     0.0000000E+00 (-100.00%)
   displ. norm   :     0.0002742 α      lambda        0.0000000E+00
   maximum displ.:     0.0002342 α      in ANC's #201, #179, #189, ...

........................................................................
.............................. CYCLE   22 ..............................
........................................................................

 iter      E             dE          RMSdq      gap      omega  full diag
   1   -118.1407343 -0.118141E+03  0.241E-03    0.05       0.0  T
   2   -118.1407239  0.104884E-04  0.929E-03    0.05       1.3  T
   3   -118.1407153  0.851326E-05  0.113E-02    0.05       1.1  T
   4   -118.1407346 -0.192499E-04  0.111E-03    0.05      10.9  T
   5   -118.1407346 -0.587789E-07  0.601E-04    0.05      20.0  T
   6   -118.1407347 -0.123915E-07  0.247E-04    0.05      48.7  T
     SCC iter.                  ...        0 min,  0.047 sec
     gradient                   ...        0 min,  0.010 sec
 * total energy  :  -116.1029265 Eh     change       -0.2421203E-07 Eh
   gradient norm :     0.0000791 Eh/α   predicted     0.1857156E-08 (-107.67%)
   displ. norm   :     0.0029019 α      lambda       -0.5272068E-07
   maximum displ.:     0.0013928 α      in ANC's #2, #14, #7, ...

   *** GEOMETRY OPTIMIZATION CONVERGED AFTER 22 ITERATIONS ***

------------------------------------------------------------------------
 total energy gain   :        -0.0001869 Eh       -0.1173 kcal/mol
 total RMSD          :         0.0523854 a0        0.0277 Å
 total power (kW/mol):        -0.0223058 (step)   -0.2792 (real)
------------------------------------------------------------------------

 ANCopt (total)                0 d,  0 h,  0 min,  1.758 sec
 optimizer setup                ...        0 min,  0.000 sec (  0.010%)
 model hessian                  ...        0 min,  0.054 sec (  3.087%)
 ANC generation                 ...        0 min,  0.008 sec (  0.460%)
 coordinate transformation      ...        0 min,  0.002 sec (  0.118%)
 single point calculation       ...        0 min,  1.680 sec ( 95.601%)
 optimization log               ...        0 min,  0.005 sec (  0.289%)
 hessian update                 ...        0 min,  0.003 sec (  0.173%)
 rational function              ...        0 min,  0.002 sec (  0.139%)

================
 final structure:
================
69
 xtb: 6.7.1 (edcfbbe)
C            7.43012947642901       -2.08462494725177        2.77865288770519
C            6.04691767579701       -2.03288643625939        2.85709399683866
C            5.32521044717098       -1.22058286522778        2.00247927651408
C            5.97686013253414       -0.44734108613409        1.04266452600360
C            7.38207325807063       -0.48841176445242        0.98751182708256
C            8.09715565253303       -1.30593750402866        1.84794325629036
O            8.09502560669026        0.27129369296813        0.10274833921160
C            7.39947902779162        1.08425649063936       -0.74795852839456
C            8.13347593640467        1.85448700130607       -1.63564956871856
C            7.48472621735312        2.68270783572069       -2.53596808872897
C            6.09928047173109        2.72882834654311       -2.55568729574380
C            5.35879801907954        1.96449653587148       -1.67320960771063
C            5.99343726731121        1.14108042398579       -0.74425226565010
N            5.28504733982128        0.36816790603745        0.16167769675883
C            3.86542723614997        0.39942326053631        0.18102528264975
C            3.21048940094660        1.52484931086205        0.67314823805078
C            1.82555205074668        1.63585124917756        0.72428935101184
C            1.05991751882990        0.56860603124834        0.25908395969385
C            1.73632426792304       -0.57767149040282       -0.24046944472129
C            0.83466587892488       -1.57378276017054       -0.67531545253541
C            1.33917700218662       -2.75433337492995       -1.19792910699476
C            2.72614219674058       -2.89812172874373       -1.27392598032378
C            3.60879881454455       -1.92159313845218       -0.84855167148814
C            3.12537598234738       -0.71307907960051       -0.30437721237874
C           -0.48350849345712       -1.04395011047673       -0.44243768244430
N           -1.66147173762355       -1.54601225888065       -0.66072621685435
C           -2.75513302934176       -0.82564403062844       -0.35124558032605
C           -4.03644541596335       -1.32379738774943       -0.58149476032121
C           -5.17319706453616       -0.59179293578481       -0.27743217503389
C           -6.48932046659545       -1.14547686204530       -0.61604623780668
C           -7.45800415236330       -0.38555262671498       -1.27495804804539
C           -8.67324398063035       -0.97082368113303       -1.58160174973580
N           -8.98052131457554       -2.22517460558782       -1.28737153593806
C           -8.05906635393663       -2.95262598589434       -0.67396093218773
C           -6.81012257674476       -2.47249418199637       -0.32320051073606
C           -5.03281643567775        0.69117333254636        0.30477622642880
C           -6.20358081407528        1.46890349773023        0.74050335839457
C           -6.33982295582018        2.81577443097154        0.40594597792698
C           -7.44999444845060        3.50702293188308        0.85937708012919
N           -8.39630661085201        2.96350031672653        1.60882612595555
C           -8.26079140392148        1.68894318443112        1.94034145762992
C           -7.19601278365778        0.90106827351375        1.53926619244205
C           -3.77444521120098        1.20896746997128        0.53331871185219
C           -2.60914851194760        0.49353307622245        0.21889576294154
N           -1.39907813396491        1.00281126665030        0.44275644350526
C           -0.33057266062454        0.29565117342251        0.13943380097301
H            7.99134735469536       -2.72144624923363        3.44364346821493
H            5.52264880235081       -2.62667107673541        3.58938797033035
H            4.25009785173584       -1.17823580983655        2.07127201708461
H            9.17272322528976       -1.31374934654071        1.77175113828364
H            9.20917076330635        1.78614749541552       -1.60494606453757
H            8.06095984160897        3.28182418240834       -3.22277201040141
H            5.58776954614314        3.36158362212025       -3.26404101048654
H            4.28133551988388        1.99597621087558       -1.69775417557496
H            3.81452974919579        2.34485361010823        1.03604198345099
H            1.36152708980108        2.52604718809192        1.11849394236976
H            0.68341228127337       -3.54034018955093       -1.53925502199680
H            3.12656646889905       -3.81429743124606       -1.68383790539861
H            4.67220813430227       -2.09046019030727       -0.93353867286048
H           -4.12288759294644       -2.29748241291462       -1.04016433814416
H           -7.25891137107049        0.63717362406392       -1.55579075071600
H           -9.44615790812044       -0.40987952235845       -2.09175823903257
H           -8.34528374520964       -3.97339211166521       -0.45336460931641
H           -6.10210446190568       -3.10639999619264        0.18875706520350
H           -5.60112769991865        3.30355160996308       -0.21181871916841
H           -7.59529812085653        4.55106291268714        0.61205611294361
H           -9.04990375317239        1.28257843763091        2.56024027423082
H           -7.12955728703061       -0.13069291972684        1.84868484322647
H           -3.65853420715044        2.17811793162348        0.99513040772312
 
 Bond Distances (Angstroems)
 ---------------------------
C1-C2=1.3864         C1-C6=1.3847         C1-H47=1.0783        C2-C1=1.3864         C2-C3=1.3824         C2-H48=1.0787        
C3-C2=1.3824         C3-C4=1.3942         C3-H49=1.0781        C4-C3=1.3942         C4-C5=1.4069         C4-N14=1.3856        
C5-C4=1.4069         C5-C6=1.3857         C5-O7=1.3668         C6-C1=1.3847         C6-C5=1.3857         C6-H50=1.0783        
O7-C5=1.3668         O7-C8=1.3669         C8-O7=1.3669         C8-C9=1.3856         C8-C13=1.4072        C9-C8=1.3856         
C9-C10=1.3847        C9-H51=1.0783        C10-C9=1.3847        C10-C11=1.3864       C10-H52=1.0783       C11-C10=1.3864       
C11-C12=1.3825       C11-H53=1.0788       C12-C11=1.3825       C12-C13=1.3942       C12-H54=1.0782       C13-C8=1.4072        
C13-C12=1.3942       C13-N14=1.3856       N14-C4=1.3856        N14-C13=1.3856       N14-C15=1.4201       C15-N14=1.4201       
C15-C16=1.3920       C15-C24=1.4216       C16-C15=1.3920       C16-C17=1.3903       C16-H55=1.0812       C17-C16=1.3903       
C17-C18=1.3934       C17-H56=1.0785       C18-C17=1.3934       C18-C19=1.4216       C18-C46=1.4221       C19-C18=1.4216       
C19-C20=1.4122       C19-C24=1.3971       C20-C19=1.4122       C20-C21=1.3861       C20-C25=1.4396       C21-C20=1.3861       
C21-C22=1.3965       C21-H57=1.0790       C22-C21=1.3965       C22-C23=1.3833       C22-H58=1.0806       C23-C22=1.3833       
C23-C24=1.4108       C23-H59=1.0801       C24-C15=1.4216       C24-C19=1.3971       C24-C23=1.4108       C25-C20=1.4396       
C25-N26=1.2990       C25-C46=1.4685       N26-C25=1.2990       N26-C27=1.3457       C27-N26=1.3457       C27-C28=1.3939       
C27-C44=1.4445       C28-C27=1.3939       C28-C29=1.3858       C28-H60=1.0798       C29-C28=1.3858       C29-C30=1.4674       
C29-C36=1.4159       C30-C29=1.4674       C30-C31=1.3964       C30-C35=1.3963       C31-C30=1.3964       C31-C32=1.3833       
C31-H61=1.0791       C32-C31=1.3833       C32-N33=1.3245       C32-H62=1.0827       N33-C32=1.3245       N33-C34=1.3246       
C34-N33=1.3246       C34-C35=1.3833       C34-H63=1.0828       C35-C30=1.3963       C35-C34=1.3833       C35-H64=1.0795       
C36-C29=1.4159       C36-C37=1.4715       C36-C43=1.3798       C37-C36=1.4715       C37-C38=1.3945       C37-C42=1.3948       
C38-C37=1.3945       C38-C39=1.3842       C38-H65=1.0795       C39-C38=1.3842       C39-N40=1.3239       C39-H66=1.0827       
N40-C39=1.3239       N40-C41=1.3239       C41-N40=1.3239       C41-C42=1.3840       C41-H67=1.0826       C42-C37=1.3948       
C42-C41=1.3840       C42-H68=1.0792       C43-C36=1.3798       C43-C44=1.4031       C43-H69=1.0798       C44-C27=1.4445       
C44-C43=1.4031       C44-N45=1.3318       N45-C44=1.3318       N45-C46=1.3167       C46-C18=1.4221       C46-C25=1.4685       
C46-N45=1.3167       H47-C1=1.0783        H48-C2=1.0787        H49-C3=1.0781        H50-C6=1.0783        H51-C9=1.0783        
H52-C10=1.0783       H53-C11=1.0788       H54-C12=1.0782       H55-C16=1.0812       H56-C17=1.0785       H57-C21=1.0790       
H58-C22=1.0806       H59-C23=1.0801       H60-C28=1.0798       H61-C31=1.0791       H62-C32=1.0827       H63-C34=1.0828       
H64-C35=1.0795       H65-C38=1.0795       H66-C39=1.0827       H67-C41=1.0826       H68-C42=1.0792       H69-C43=1.0798       
 C  H  Rav=1.0797 sigma=0.0016  Rmin=1.0781  Rmax=1.0828    23
 C  C  Rav=1.4023 sigma=0.0240  Rmin=1.3798  Rmax=1.4715    42
 N  C  Rav=1.3438 sigma=0.0353  Rmin=1.2990  Rmax=1.4201    11
 O  C  Rav=1.3669 sigma=0.0000  Rmin=1.3668  Rmax=1.3669     2
 
 selected bond angles (degree)
 --------------------
C6-C1-C2=119.84                H47-C1-C2=120.43               H47-C1-C6=119.73               C3-C2-C1=120.52                
H48-C2-C1=120.18               H48-C2-C3=119.30               C4-C3-C2=120.50                H49-C3-C2=120.28               
H49-C3-C4=119.22               C5-C4-C3=118.53                N14-C4-C3=122.06               N14-C4-C5=119.40               
C6-C5-C4=120.55                O7-C5-C4=122.01                O7-C5-C6=117.43                C5-C6-C1=120.04                
H50-C6-C1=121.59               H50-C6-C5=118.37               C8-O7-C5=117.91                C9-C8-O7=117.37                
C13-C8-O7=122.06               C13-C8-C9=120.57               C10-C9-C8=120.06               H51-C9-C8=118.36               
H51-C9-C10=121.59              C11-C10-C9=119.82              H52-C10-C9=119.74              H52-C10-C11=120.43             
 
 selected dihedral angles (degree)
 ---------------------------------
C3-C2-C1-C6=  0.74            C3-C2-C1-H47=180.22           H48-C2-C1-C6=180.86           H48-C2-C1-H47=  0.35          
C4-C3-C2-C1=  0.42            C4-C3-C2-H48=180.29           H49-C3-C2-C1=180.42           H49-C3-C2-H48=  0.29          
C5-C4-C3-C2=358.45            C5-C4-C3-H49=178.45           N14-C4-C3-C2=179.38           N14-C4-C3-H49=359.38          
C6-C5-C4-C3=  1.58            C6-C5-C4-N14=180.67           O7-C5-C4-C3=182.03            O7-C5-C4-N14=  1.12           
C5-C6-C1-C2=359.29            C5-C6-C1-H47=179.80           H50-C6-C1-C2=179.13           H50-C6-C1-H47=359.65          
C1-C6-C5-C4=359.54            C1-C6-C5-O7=179.11            H50-C6-C5-C4=179.69           H50-C6-C5-O7=359.26           
C8-O7-C5-C4=359.75            C8-O7-C5-C6=180.19            C9-C8-O7-C5=179.69            C13-C8-O7-C5=359.15           
C10-C9-C8-O7=179.03           C10-C9-C8-C13=359.55          H51-C9-C8-O7=359.23           H51-C9-C8-C13=179.76          
C11-C10-C9-C8=359.35          C11-C10-C9-H51=179.14         H52-C10-C9-C8=179.84          H52-C10-C9-H51=359.63         
           -------------------------------------------------
          |                Final Singlepoint                |
           -------------------------------------------------

          ...................................................
          :                      SETUP                      :
          :.................................................:
          :  # basis functions                 207          :
          :  # atomic orbitals                 207          :
          :  # shells                          115          :
          :  # electrons                       214          :
          :  max. iterations                   250          :
          :  Hamiltonian                  GFN2-xTB          :
          :  restarted?                      false          :
          :  GBSA solvation                   true          :
          :  PC potential                    false          :
          :  electronic temp.          300.0000000     K    :
          :  accuracy                    1.0000000          :
          :  -> integral cutoff          0.2500000E+02      :
          :  -> integral neglect         0.1000000E-07      :
          :  -> SCF convergence          0.1000000E-05 Eh   :
          :  -> wf. convergence          0.1000000E-03 e    :
          :  Broyden damping             0.4000000          :
          :  net charge                          0          :
          :  unpaired electrons                  2          :
          ...................................................

 iter      E             dE          RMSdq      gap      omega  full diag
   1   -118.1407347 -0.118141E+03  0.492E-05    0.05       0.0  T
   2   -118.1407347  0.100582E-08  0.114E-04    0.05     105.8  T
   3   -118.1407347  0.128452E-08  0.128E-04    0.05      94.2  T

   *** convergence criteria satisfied after 3 iterations ***

         #    Occupation            Energy/Eh            Energy/eV
      -------------------------------------------------------------
         1        2.0000           -0.7538480             -20.5132
       ...           ...                  ...                  ...
       102        2.0000           -0.3943510             -10.7308
       103        2.0000           -0.3875745             -10.5464
       104        2.0000           -0.3738869             -10.1740
       105        2.0000           -0.3720352             -10.1236
       106        1.5816           -0.3602642              -9.8033
       107        1.4184           -0.3596382              -9.7863
       108        0.7388           -0.3014438              -8.2027 (HOMO)
       109        0.2612           -0.2994686              -8.1490 (LUMO)
       110                         -0.2673214              -7.2742
       111                         -0.2581256              -7.0240
       112                         -0.2518871              -6.8542
       113                         -0.2461656              -6.6985
       ...                                ...                  ...
       207                          0.7228807              19.6706
      -------------------------------------------------------------
                  HL-Gap            0.0019752 Eh            0.0537 eV
             Fermi-level           -0.3302037 Eh           -8.9853 eV
 
 transition dipole moment (au) for excitation:         107         108
     X       Y       Z   
   0.1336   0.0331  -0.0450  total (au/Debye):    0.145   0.368
 dE (eV)             :    1.584
 oscillator strength :  0.11506E-02

 SCC (total)                   0 d,  0 h,  0 min,  0.060 sec
 SCC setup                      ...        0 min,  0.001 sec (  1.218%)
 Dispersion                     ...        0 min,  0.001 sec (  1.190%)
 classical contributions        ...        0 min,  0.000 sec (  0.061%)
 integral evaluation            ...        0 min,  0.003 sec (  5.584%)
 iterations                     ...        0 min,  0.024 sec ( 39.228%)
 molecular gradient             ...        0 min,  0.010 sec ( 15.970%)
 printout                       ...        0 min,  0.022 sec ( 36.607%)

         :::::::::::::::::::::::::::::::::::::::::::::::::::::
         ::                     SUMMARY                     ::
         :::::::::::::::::::::::::::::::::::::::::::::::::::::
         :: total energy            -116.102926505081 Eh    ::
         :: total w/o Gsasa/hb      -116.058077484553 Eh    ::
         :: gradient norm              0.000077808017 Eh/a0 ::
         :: HOMO-LUMO gap              0.053748048856 eV    ::
         ::.................................................::
         :: SCC energy              -118.140921070368 Eh    ::
         :: -> isotropic ES            0.050001934668 Eh    ::
         :: -> anisotropic ES          0.008874206876 Eh    ::
         :: -> anisotropic XC          0.069313795343 Eh    ::
         :: -> dispersion             -0.100974560993 Eh    ::
         :: -> Gsolv                  -0.051890354322 Eh    ::
         ::    -> Gelec               -0.007041333794 Eh    ::
         ::    -> Gsasa               -0.049372900400 Eh    ::
         ::    -> Ghb                  0.000000000000 Eh    ::
         ::    -> Gshift               0.004523879872 Eh    ::
         :: repulsion energy           2.037994565286 Eh    ::
         :: add. restraining           0.000000000000 Eh    ::
         :: total charge              -0.000000000000 e     ::
         :::::::::::::::::::::::::::::::::::::::::::::::::::::

           ------------------------------------------------- 
          |                Numerical Hessian                |
           ------------------------------------------------- 
step length          :   0.00500
SCC accuracy         :   0.30000
Hessian scale factor :   1.00000
frozen atoms in %    :   0.00000    0
RMS gradient         :   0.00007
estimated CPU  time     26.03 min
estimated wall time      0.65 min

writing file <hessian>.

 projected vibrational frequencies (cm⁻¹)
eigval :       -0.00    -0.00    -0.00    -0.00     0.00     0.00
eigval :       12.40    14.74    22.64    28.83    37.23    44.55
eigval :       47.91    60.44    61.79    72.60    82.14   104.87
eigval :      107.40   109.98   134.25   140.27   164.38   171.31
eigval :      176.40   202.09   208.83   219.59   241.80   244.17
eigval :      261.14   266.79   279.29   298.76   312.30   336.08
eigval :      339.22   343.92   345.08   364.89   388.75   390.49
eigval :      412.11   416.51   427.74   434.30   443.52   446.93
eigval :      453.95   480.54   497.54   500.86   504.79   514.03
eigval :      523.80   525.03   537.13   543.79   555.02   569.79
eigval :      575.55   579.45   583.60   609.79   616.81   623.80
eigval :      629.51   648.50   649.22   657.85   666.56   668.72
eigval :      671.04   682.57   697.52   707.46   709.51   712.00
eigval :      722.07   731.02   771.36   773.77   775.39   777.22
eigval :      794.71   798.35   804.28   808.89   830.17   835.93
eigval :      844.66   855.31   859.63   866.48   867.02   871.16
eigval :      886.91   888.56   891.79   900.47   901.74   902.64
eigval :      912.24   913.96   914.39   915.38   918.02   918.54
eigval :      922.82   922.88   933.23   943.72   996.22  1016.07
eigval :     1031.94  1042.33  1074.23  1077.66  1082.34  1084.13
eigval :     1096.18  1097.31  1112.00  1112.62  1115.22  1117.34
eigval :     1128.91  1164.46  1170.62  1171.33  1182.85  1191.70
eigval :     1202.23  1203.14  1205.42  1206.34  1218.81  1222.92
eigval :     1236.20  1238.68  1245.83  1251.26  1261.32  1262.20
eigval :     1267.80  1273.18  1280.33  1282.08  1288.87  1294.59
eigval :     1305.59  1309.63  1316.46  1334.51  1344.31  1347.39
eigval :     1368.04  1372.16  1373.07  1392.46  1409.20  1415.69
eigval :     1417.73  1432.04  1437.68  1438.93  1460.01  1469.94
eigval :     1473.08  1476.18  1479.48  1487.25  1534.94  1537.03
eigval :     1542.01  1547.96  1553.71  1561.82  1562.86  1569.18
eigval :     1573.72  1575.27  1582.61  1585.86  3048.62  3049.94
eigval :     3050.74  3051.59  3072.21  3073.97  3083.48  3086.09
eigval :     3086.39  3088.18  3088.58  3090.69  3091.19  3095.76
eigval :     3096.42  3096.58  3099.50  3103.84  3104.12  3111.85
eigval :     3112.80  3115.18  3115.85
           -------------------------------------------------
          |                Property Printout                |
           -------------------------------------------------

    * Orbital Energies and Occupations

         #    Occupation            Energy/Eh            Energy/eV
      -------------------------------------------------------------
         1        2.0000           -0.7538486             -20.5133
       ...           ...                  ...                  ...
        96        2.0000           -0.4243122             -11.5461
        97        2.0000           -0.4230214             -11.5110
        98        2.0000           -0.4187092             -11.3937
        99        2.0000           -0.4126601             -11.2291
       100        2.0000           -0.4100577             -11.1582
       101        2.0000           -0.4079639             -11.1013
       102        2.0000           -0.3943505             -10.7308
       103        2.0000           -0.3875743             -10.5464
       104        2.0000           -0.3738869             -10.1740
       105        2.0000           -0.3720351             -10.1236
       106        1.5819           -0.3602648              -9.8033
       107        1.4181           -0.3596370              -9.7862
       108        0.7388           -0.3014434              -8.2027 (HOMO)
       109        0.2612           -0.2994679              -8.1489 (LUMO)
       110                         -0.2673213              -7.2742
       111                         -0.2581262              -7.0240
       112                         -0.2518869              -6.8542
       113                         -0.2461660              -6.6985
       114                         -0.2425699              -6.6007
       115                         -0.2367702              -6.4428
       116                         -0.2351778              -6.3995
       117                         -0.2321758              -6.3178
       118                         -0.2210777              -6.0158
       119                         -0.2161044              -5.8805
       ...                                ...                  ...
       207                          0.7228816              19.6706
      -------------------------------------------------------------
                  HL-Gap            0.0019755 Eh            0.0538 eV
             Fermi-level           -0.3302033 Eh           -8.9853 eV

     #   Z          covCN         q      C6AA      α(0)
     1   6 C        2.919    -0.030    28.751     8.793
     2   6 C        2.918    -0.030    28.748     8.792
     3   6 C        2.921    -0.049    29.222     8.865
     4   6 C        2.926     0.047    26.944     8.512
     5   6 C        2.884     0.130    25.161     8.224
     6   6 C        2.917    -0.052    29.292     8.875
     7   8 O        1.709    -0.231    17.836     5.702
     8   6 C        2.884     0.130    25.157     8.223
     9   6 C        2.917    -0.052    29.289     8.875
    10   6 C        2.919    -0.030    28.752     8.793
    11   6 C        2.918    -0.030    28.748     8.792
    12   6 C        2.921    -0.050    29.254     8.870
    13   6 C        2.925     0.046    26.960     8.515
    14   7 N        2.752    -0.025    21.725     6.923
    15   6 C        2.921     0.029    27.352     8.577
    16   6 C        2.918    -0.042    29.036     8.836
    17   6 C        2.909    -0.038    28.934     8.820
    18   6 C        3.031    -0.023    28.551     8.764
    19   6 C        3.150    -0.012    28.040     8.662
    20   6 C        3.030    -0.019    28.454     8.750
    21   6 C        2.910    -0.029    28.716     8.787
    22   6 C        2.918    -0.032    28.786     8.798
    23   6 C        2.917    -0.040    28.983     8.828
    24   6 C        2.974     0.004    27.920     8.667
    25   6 C        3.043     0.085    26.073     8.375
    26   7 N        1.839    -0.220    26.637     7.649
    27   6 C        2.960     0.076    26.306     8.413
    28   6 C        2.923    -0.054    29.349     8.884
    29   6 C        2.974    -0.004    28.115     8.698
    30   6 C        2.985     0.030    27.331     8.576
    31   6 C        2.918    -0.044    29.101     8.846
    32   6 C        2.913     0.060    26.665     8.468
    33   7 N        1.835    -0.246    27.261     7.737
    34   6 C        2.913     0.059    26.669     8.468
    35   6 C        2.919    -0.047    29.172     8.857
    36   6 C        2.974     0.003    27.959     8.673
    37   6 C        2.987     0.032    27.284     8.568
    38   6 C        2.918    -0.046    29.136     8.851
    39   6 C        2.913     0.060    26.660     8.467
    40   7 N        1.835    -0.241    27.149     7.721
    41   6 C        2.913     0.060    26.653     8.466
    42   6 C        2.918    -0.042    29.055     8.839
    43   6 C        2.924    -0.058    29.438     8.898
    44   6 C        2.956     0.082    26.162     8.389
    45   7 N        1.839    -0.227    26.813     7.674
    46   6 C        3.038     0.066    26.489     8.442
    47   1 H        0.926     0.058     2.226     2.333
    48   1 H        0.926     0.055     2.262     2.352
    49   1 H        0.926     0.051     2.303     2.373
    50   1 H        0.926     0.064     2.157     2.297
    51   1 H        0.926     0.064     2.157     2.297
    52   1 H        0.926     0.058     2.226     2.333
    53   1 H        0.926     0.055     2.256     2.349
    54   1 H        0.926     0.053     2.283     2.363
    55   1 H        0.926     0.041     2.431     2.438
    56   1 H        0.926     0.039     2.459     2.452
    57   1 H        0.926     0.038     2.470     2.458
    58   1 H        0.926     0.039     2.460     2.453
    59   1 H        0.926     0.031     2.576     2.510
    60   1 H        0.926     0.051     2.313     2.378
    61   1 H        0.926     0.032     2.556     2.500
    62   1 H        0.925     0.035     2.514     2.479
    63   1 H        0.925     0.038     2.478     2.462
    64   1 H        0.926     0.041     2.442     2.444
    65   1 H        0.926     0.042     2.419     2.432
    66   1 H        0.925     0.040     2.448     2.447
    67   1 H        0.925     0.038     2.482     2.463
    68   1 H        0.926     0.034     2.527     2.486
    69   1 H        0.926     0.049     2.327     2.385

 Mol. C6AA /au·bohr⁶  :      76411.977390
 Mol. C8AA /au·bohr⁸  :    1955160.918033
 Mol. α(0) /au        :        445.685250


MOs/occ written to file <molden.input>


molecular dipole:
                 x           y           z       tot (Debye)
 q only:        5.074       0.159       0.068
   full:        5.586       0.089       0.036      14.200
molecular quadrupole (traceless):
                xx          xy          yy          xz          yz          zz
 q only:       -4.942       2.869       2.563       0.385     -14.535       2.379
  q+dip:      -16.922       3.988      12.687       0.372     -18.131       4.235
   full:      -24.200       4.218      10.576       0.865     -17.548      13.624

           -------------------------------------------------
          |                Geometry Summary                 |
           -------------------------------------------------

      molecular mass/u    :      589.6449942
   center of mass at/Å    :       -0.0002274      -0.0010747      -0.0016124
  moments of inertia/u·Å² :        0.2705487E+04   0.2058820E+05   0.2143896E+05
rotational constants/cm⁻¹ :        0.6230904E-02   0.8188008E-03   0.7863081E-03

 * 74 selected distances

     #   Z          #   Z                                           value/Å
     1   6 C        2   6 C                                       1.3864001
     2   6 C        3   6 C                                       1.3824128
     3   6 C        4   6 C                                       1.3942004
     4   6 C        5   6 C                                       1.4068948
     1   6 C        6   6 C                                       1.3847378
     5   6 C        6   6 C                                       1.3856528
     5   6 C        7   8 O                                       1.3668432
     7   8 O        8   6 C                                       1.3668929
     8   6 C        9   6 C                                       1.3856415
     9   6 C       10   6 C                                       1.3847020
    10   6 C       11   6 C                                       1.3863536
    11   6 C       12   6 C                                       1.3824922
     8   6 C       13   6 C                                       1.4071945
    12   6 C       13   6 C                                       1.3941819
     4   6 C       14   7 N                                       1.3855678
    13   6 C       14   7 N                                       1.3856116
    14   7 N       15   6 C                                       1.4200961
    15   6 C       16   6 C                                       1.3920175
    16   6 C       17   6 C                                       1.3903196
    17   6 C       18   6 C                                       1.3934220
    18   6 C       19   6 C                                       1.4216301
    19   6 C       20   6 C                                       1.4122029
    20   6 C       21   6 C                                       1.3861301
    21   6 C       22   6 C                                       1.3964682
    22   6 C       23   6 C                                       1.3833418
    15   6 C       24   6 C                                       1.4216024
    19   6 C       24   6 C                                       1.3970986
    23   6 C       24   6 C                                       1.4107906
    20   6 C       25   6 C                                       1.4396315 (max)
    25   6 C       26   7 N                                       1.2989665
    26   7 N       27   6 C                                       1.3456612
    27   6 C       28   6 C                                       1.3938914
    28   6 C       29   6 C                                       1.3858172
    30   6 C       31   6 C                                       1.3964233
    31   6 C       32   6 C                                       1.3832501
    32   6 C       33   7 N                                       1.3245329
    33   7 N       34   6 C                                       1.3245896
    30   6 C       35   6 C                                       1.3962979
    34   6 C       35   6 C                                       1.3832644
    29   6 C       36   6 C                                       1.4158659
    37   6 C       38   6 C                                       1.3944720
    38   6 C       39   6 C                                       1.3841623
    39   6 C       40   7 N                                       1.3238571
    40   7 N       41   6 C                                       1.3239196
    37   6 C       42   6 C                                       1.3947690
    41   6 C       42   6 C                                       1.3839661
    36   6 C       43   6 C                                       1.3797974
    43   6 C       44   6 C                                       1.4030769
    44   6 C       45   7 N                                       1.3318215
    18   6 C       46   6 C                                       1.4220703
    45   7 N       46   6 C                                       1.3167324
     1   6 C       47   1 H                                       1.0782947
     2   6 C       48   1 H                                       1.0787459
     3   6 C       49   1 H                                       1.0781433 (min)
     6   6 C       50   1 H                                       1.0782913
     9   6 C       51   1 H                                       1.0783008
    10   6 C       52   1 H                                       1.0782789
    11   6 C       53   1 H                                       1.0787900
    12   6 C       54   1 H                                       1.0782018
    16   6 C       55   1 H                                       1.0811863
    17   6 C       56   1 H                                       1.0785015
    21   6 C       57   1 H                                       1.0790448
    22   6 C       58   1 H                                       1.0806227
    23   6 C       59   1 H                                       1.0800826
    28   6 C       60   1 H                                       1.0797744
    31   6 C       61   1 H                                       1.0791080
    32   6 C       62   1 H                                       1.0827346
    34   6 C       63   1 H                                       1.0828420
    35   6 C       64   1 H                                       1.0794568
    38   6 C       65   1 H                                       1.0794585
    39   6 C       66   1 H                                       1.0827283
    41   6 C       67   1 H                                       1.0826382
    42   6 C       68   1 H                                       1.0792069
    43   6 C       69   1 H                                       1.0797955

 * 4 distinct bonds (by element types)

   Z      Z             #   av. dist./Å        max./Å        min./Å
   1 H    6 C          23     1.0797490     1.0828420     1.0781433
   6 C    6 C          38     1.3958590     1.4396315     1.3797974
   6 C    7 N          11     1.3437597     1.4200961     1.2989665
   6 C    8 O           2     1.3668680     1.3668929     1.3668432

           -------------------------------------------------
          |               Frequency Printout                |
           -------------------------------------------------
 projected vibrational frequencies (cm⁻¹)
eigval :       -0.00    -0.00    -0.00    -0.00     0.00     0.00
eigval :       12.40    14.74    22.64    28.83    37.23    44.55
eigval :       47.91    60.44    61.79    72.60    82.14   104.87
eigval :      107.40   109.98   134.25   140.27   164.38   171.31
eigval :      176.40   202.09   208.83   219.59   241.80   244.17
eigval :      261.14   266.79   279.29   298.76   312.30   336.08
eigval :      339.22   343.92   345.08   364.89   388.75   390.49
eigval :      412.11   416.51   427.74   434.30   443.52   446.93
eigval :      453.95   480.54   497.54   500.86   504.79   514.03
eigval :      523.80   525.03   537.13   543.79   555.02   569.79
eigval :      575.55   579.45   583.60   609.79   616.81   623.80
eigval :      629.51   648.50   649.22   657.85   666.56   668.72
eigval :      671.04   682.57   697.52   707.46   709.51   712.00
eigval :      722.07   731.02   771.36   773.77   775.39   777.22
eigval :      794.71   798.35   804.28   808.89   830.17   835.93
eigval :      844.66   855.31   859.63   866.48   867.02   871.16
eigval :      886.91   888.56   891.79   900.47   901.74   902.64
eigval :      912.24   913.96   914.39   915.38   918.02   918.54
eigval :      922.82   922.88   933.23   943.72   996.22  1016.07
eigval :     1031.94  1042.33  1074.23  1077.66  1082.34  1084.13
eigval :     1096.18  1097.31  1112.00  1112.62  1115.22  1117.34
eigval :     1128.91  1164.46  1170.62  1171.33  1182.85  1191.70
eigval :     1202.23  1203.14  1205.42  1206.34  1218.81  1222.92
eigval :     1236.20  1238.68  1245.83  1251.26  1261.32  1262.20
eigval :     1267.80  1273.18  1280.33  1282.08  1288.87  1294.59
eigval :     1305.59  1309.63  1316.46  1334.51  1344.31  1347.39
eigval :     1368.04  1372.16  1373.07  1392.46  1409.20  1415.69
eigval :     1417.73  1432.04  1437.68  1438.93  1460.01  1469.94
eigval :     1473.08  1476.18  1479.48  1487.25  1534.94  1537.03
eigval :     1542.01  1547.96  1553.71  1561.82  1562.86  1569.18
eigval :     1573.72  1575.27  1582.61  1585.86  3048.62  3049.94
eigval :     3050.74  3051.59  3072.21  3073.97  3083.48  3086.09
eigval :     3086.39  3088.18  3088.58  3090.69  3091.19  3095.76
eigval :     3096.42  3096.58  3099.50  3103.84  3104.12  3111.85
eigval :     3112.80  3115.18  3115.85
 reduced masses (amu)
   1: 11.42   2: 11.90   3: 11.86   4: 11.91   5: 11.90   6: 11.84   7: 11.31   8: 11.66
   9: 11.67  10: 11.13  11: 11.56  12: 11.77  13: 11.63  14:  9.92  15: 11.61  16: 10.58
  17: 11.48  18: 11.14  19: 11.35  20: 10.11  21: 11.51  22: 10.91  23: 11.05  24: 10.58
  25: 11.20  26: 11.64  27: 11.50  28: 11.36  29: 11.35  30: 10.44  31: 12.34  32: 11.52
  33: 11.51  34: 11.27  35: 11.42  36: 11.47  37:  8.50  38:  9.38  39: 10.44  40: 11.25
  41: 11.40  42: 11.14  43: 11.02  44: 10.96  45:  9.66  46:  9.91  47: 11.15  48: 11.04
  49: 11.23  50: 11.88  51: 10.03  52: 10.67  53: 11.32  54: 11.10  55: 11.86  56: 11.39
  57: 11.12  58: 11.67  59: 11.80  60: 10.68  61: 12.08  62: 11.56  63: 11.56  64: 11.34
  65: 11.14  66: 11.33  67: 11.37  68: 11.55  69: 11.55  70: 12.12  71: 11.62  72: 11.50
  73: 11.81  74: 11.72  75: 11.91  76: 11.06  77: 11.12  78: 11.77  79: 11.52  80: 11.70
  81: 11.04  82:  4.31  83:  3.45  84:  3.32  85:  7.02  86:  4.47  87:  9.66  88:  3.87
  89:  8.92  90:  5.92  91:  3.79  92: 12.38  93:  4.05  94:  3.35  95:  3.36  96: 11.75
  97:  3.28  98:  3.30  99:  3.92 100: 10.85 101:  3.99 102:  4.12 103:  8.23 104:  6.55
 105:  2.98 106:  2.86 107:  3.27 108:  3.26 109:  4.59 110:  4.67 111: 11.61 112: 11.41
 113: 11.54 114: 11.42 115: 10.57 116: 11.53 117:  8.24 118:  8.61 119:  5.50 120:  5.83
 121:  6.15 122:  5.82 123:  7.52 124:  7.62 125:  3.67 126:  3.73 127:  6.39 128:  4.03
 129:  1.72 130:  4.64 131:  3.83 132:  4.96 133:  5.50 134:  3.35 135:  4.58 136:  6.85
 137:  5.47 138:  4.44 139:  5.50 140:  8.21 141:  9.12 142:  4.87 143:  4.15 144:  5.83
 145: 10.24 146:  9.30 147: 11.30 148: 11.29 149: 11.16 150:  9.02 151: 10.69 152: 10.83
 153: 11.83 154: 11.19 155: 11.20 156: 10.85 157: 10.28 158:  9.53 159:  9.72 160:  9.81
 161: 10.60 162:  9.59 163: 10.70 164: 11.37 165:  9.79 166:  9.76 167: 10.89 168: 10.64
 169: 10.52 170: 10.83 171: 10.83 172: 11.03 173: 12.03 174: 11.79 175: 12.14 176: 11.79
 177: 11.45 178: 11.47 179: 11.79 180: 11.57 181: 11.55 182: 11.56 183: 11.63 184: 11.86
 185:  1.79 186:  1.79 187:  1.79 188:  1.79 189:  1.77 190:  1.80 191:  1.85 192:  1.83
 193:  1.83 194:  1.84 195:  1.85 196:  1.85 197:  1.84 198:  1.87 199:  1.77 200:  1.77
 201:  1.85 202:  1.82 203:  1.82 204:  1.85 205:  1.85 206:  1.91 207:  1.90
 IR intensities (km·mol⁻¹)
   1:  0.16   2:  0.60   3:  0.40   4:  0.75   5:  0.70   6:  0.39   7:  0.32   8:  0.28
   9:  0.33  10:  0.61  11:  1.08  12:  0.75  13:  0.63  14:  0.20  15:  0.95  16:  0.25
  17:  2.10  18: 18.12  19: 15.28  20:  1.50  21:  4.90  22:  7.24  23:  0.78  24:  2.17
  25:  5.73  26:  1.64  27:  2.63  28:  6.38  29:  5.01  30:  0.37  31:  0.11  32:  3.42
  33: 16.05  34:  2.48  35: 14.77  36:  4.50  37:  0.12  38:  1.35  39: 13.06  40:  6.51
  41:  2.70  42: 14.25  43:  2.26  44:  1.75  45:  0.43  46:  1.44  47:  6.02  48:  6.84
  49:  1.60  50: 22.04  51:  2.39  52:  4.36  53:  6.50  54:110.65  55:824.98  56:246.18
  57: 29.97  58: 56.62  59: 53.93  60:  1.81  61:127.19  62: 20.89  63:  2.70  64: 70.31
  65:  6.41  66:  1.70  67:  3.12  68:  6.56  69: 67.06  70:822.21  71: 17.06  72: 19.83
  73:  5.27  74:165.52  75:  2.29  76:  3.09  77:  5.99  78:  1.56  79: 66.60  80: 14.59
  81:123.47  82: 21.76  83: 78.76  84:  6.15  85:  3.70  86: 24.13  87: 13.78  88: 51.57
  89:119.11  90: 71.62  91: 28.75  92: 22.42  93:  0.85  94:  4.03  95:  0.11  96:301.59
  97:  1.07  98: 52.84  99: 33.09 100:****** 101:123.80 102:154.77 103: 20.24 104: 57.83
 105: 39.09 106: 15.99 107:  2.28 108:  4.96 109:  3.23 110: 20.58 111:130.16 112: 25.19
 113:113.99 114: 66.43 115:156.29 116:202.25 117: 99.58 118: 25.19 119:  1.85 120: 10.12
 121: 10.04 122: 78.44 123:212.10 124: 82.19 125:  1.07 126:  1.10 127:163.26 128:  9.21
 129:  1.96 130:****** 131:  5.29 132:  4.53 133:****** 134:281.99 135: 90.79 136:187.26
 137:152.59 138:200.91 139: 34.44 140: 12.46 141: 53.50 142:333.27 143:  0.23 144:  3.29
 145:129.75 146:  7.48 147:  1.62 148: 52.24 149:475.66 150: 37.10 151:563.34 152:******
 153: 33.42 154:  9.93 155:  6.62 156:216.95 157:261.34 158: 12.77 159: 94.94 160:253.97
 161: 29.49 162:  3.61 163: 27.31 164: 20.10 165:204.65 166: 73.42 167:  0.99 168:860.05
 169:432.58 170:185.46 171:198.97 172:143.30 173:108.36 174: 10.66 175: 65.76 176:622.76
 177: 26.90 178: 12.83 179: 73.70 180:****** 181:617.76 182: 83.60 183:135.99 184:154.64
 185:100.58 186: 84.97 187: 71.40 188: 81.11 189: 42.39 190: 21.75 191: 53.32 192: 65.68
 193: 72.61 194:165.54 195:147.53 196: 44.75 197: 54.22 198:108.11 199: 13.14 200: 21.72
 201: 44.71 202: 62.76 203: 80.37 204: 46.12 205: 84.18 206: 67.92 207:110.12
 Raman intensities (Ä⁴*amu⁻¹)
   1:  0.00   2:  0.00   3:  0.00   4:  0.00   5:  0.00   6:  0.00   7:  0.00   8:  0.00
   9:  0.00  10:  0.00  11:  0.00  12:  0.00  13:  0.00  14:  0.00  15:  0.00  16:  0.00
  17:  0.00  18:  0.00  19:  0.00  20:  0.00  21:  0.00  22:  0.00  23:  0.00  24:  0.00
  25:  0.00  26:  0.00  27:  0.00  28:  0.00  29:  0.00  30:  0.00  31:  0.00  32:  0.00
  33:  0.00  34:  0.00  35:  0.00  36:  0.00  37:  0.00  38:  0.00  39:  0.00  40:  0.00
  41:  0.00  42:  0.00  43:  0.00  44:  0.00  45:  0.00  46:  0.00  47:  0.00  48:  0.00
  49:  0.00  50:  0.00  51:  0.00  52:  0.00  53:  0.00  54:  0.00  55:  0.00  56:  0.00
  57:  0.00  58:  0.00  59:  0.00  60:  0.00  61:  0.00  62:  0.00  63:  0.00  64:  0.00
  65:  0.00  66:  0.00  67:  0.00  68:  0.00  69:  0.00  70:  0.00  71:  0.00  72:  0.00
  73:  0.00  74:  0.00  75:  0.00  76:  0.00  77:  0.00  78:  0.00  79:  0.00  80:  0.00
  81:  0.00  82:  0.00  83:  0.00  84:  0.00  85:  0.00  86:  0.00  87:  0.00  88:  0.00
  89:  0.00  90:  0.00  91:  0.00  92:  0.00  93:  0.00  94:  0.00  95:  0.00  96:  0.00
  97:  0.00  98:  0.00  99:  0.00 100:  0.00 101:  0.00 102:  0.00 103:  0.00 104:  0.00
 105:  0.00 106:  0.00 107:  0.00 108:  0.00 109:  0.00 110:  0.00 111:  0.00 112:  0.00
 113:  0.00 114:  0.00 115:  0.00 116:  0.00 117:  0.00 118:  0.00 119:  0.00 120:  0.00
 121:  0.00 122:  0.00 123:  0.00 124:  0.00 125:  0.00 126:  0.00 127:  0.00 128:  0.00
 129:  0.00 130:  0.00 131:  0.00 132:  0.00 133:  0.00 134:  0.00 135:  0.00 136:  0.00
 137:  0.00 138:  0.00 139:  0.00 140:  0.00 141:  0.00 142:  0.00 143:  0.00 144:  0.00
 145:  0.00 146:  0.00 147:  0.00 148:  0.00 149:  0.00 150:  0.00 151:  0.00 152:  0.00
 153:  0.00 154:  0.00 155:  0.00 156:  0.00 157:  0.00 158:  0.00 159:  0.00 160:  0.00
 161:  0.00 162:  0.00 163:  0.00 164:  0.00 165:  0.00 166:  0.00 167:  0.00 168:  0.00
 169:  0.00 170:  0.00 171:  0.00 172:  0.00 173:  0.00 174:  0.00 175:  0.00 176:  0.00
 177:  0.00 178:  0.00 179:  0.00 180:  0.00 181:  0.00 182:  0.00 183:  0.00 184:  0.00
 185:  0.00 186:  0.00 187:  0.00 188:  0.00 189:  0.00 190:  0.00 191:  0.00 192:  0.00
 193:  0.00 194:  0.00 195:  0.00 196:  0.00 197:  0.00 198:  0.00 199:  0.00 200:  0.00
 201:  0.00 202:  0.00 203:  0.00 204:  0.00 205:  0.00 206:  0.00 207:  0.00
 output can be read by thermo (or use thermo option).
 writing <g98.out> molden fake output.
 recommended (thermochemical) frequency scaling factor: 1.0
           -------------------------------------------------
          |             Thermodynamic Functions             |
           -------------------------------------------------

Refinement of some symmetry elements was terminated before convergence was reached.
Some symmetry elements may remain unidentified.
Molecule has no symmetry elements
It seems to be the C1 point group
c1  symmetry found (for desy threshold:  0.10E+00) used in thermo

          ...................................................
          :                      SETUP                      :
          :.................................................:
          :  # frequencies                         201      :
          :  # imaginary freq.                       0      :
          :  linear?                             false      :
          :  only rotor calc.                    false      :
          :  symmetry                               c1      :
          :  rotational number                       1      :
          :  scaling factor                  1.0000000      :
          :  rotor cutoff                   50.0000000 cm⁻¹ :
          :  imag. cutoff                  -20.0000000 cm⁻¹ :
          :.................................................:

    mode    ω/cm⁻¹     T·S(HO)/kcal·mol⁻¹    T·S(FR)/kcal·mol⁻¹   T·S(vib)
   ------------------------------------------------------------------------
       1     12.40    -2.26112 (  0.38%)    -1.46961 ( 99.62%)    -1.47259
       2     14.74    -2.15859 (  0.75%)    -1.41833 ( 99.25%)    -1.42388
       3     22.64    -1.90457 (  4.03%)    -1.29124 ( 95.97%)    -1.31599
       4     28.83    -1.76162 (  9.95%)    -1.21968 ( 90.05%)    -1.27360
       5     37.23    -1.61032 ( 23.52%)    -1.14387 ( 76.48%)    -1.25358
       6     44.55    -1.50441 ( 38.66%)    -1.09074 ( 61.34%)    -1.25065
       7     47.91    -1.46144 ( 45.75%)    -1.06917 ( 54.25%)    -1.24862
       8     60.44    -1.32463 ( 68.10%)    -1.00038 ( 31.90%)    -1.22119
       9     61.79    -1.31165 ( 69.99%)    -0.99384 ( 30.01%)    -1.21626
      10     72.60    -1.21689 ( 81.64%)    -0.94605 ( 18.36%)    -1.16716
      11     82.14    -1.14465 ( 87.93%)    -0.90951 ( 12.07%)    -1.11626
      12    104.87    -1.00232 ( 95.09%)    -0.83713 (  4.91%)    -0.99420
      13    107.40    -0.98847 ( 95.51%)    -0.83006 (  4.49%)    -0.98137
      14    109.98    -0.97475 ( 95.90%)    -0.82304 (  4.10%)    -0.96854
      15    134.25    -0.85996 ( 98.11%)    -0.76397 (  1.89%)    -0.85814
      16    140.27    -0.83489 ( 98.41%)    -0.75097 (  1.59%)    -0.83355
      17    164.38    -0.74499 ( 99.15%)    -0.70397 (  0.85%)    -0.74465
      18    171.31    -0.72183 ( 99.28%)    -0.69173 (  0.72%)    -0.72161
      19    176.40    -0.70547 ( 99.36%)    -0.68306 (  0.64%)    -0.70532
      20    202.09    -0.63027 ( 99.63%)    -0.64278 (  0.37%)    -0.63032
      21    208.83    -0.61237 ( 99.67%)    -0.63308 (  0.33%)    -0.61244
      22    219.59    -0.58512 ( 99.73%)    -0.61819 (  0.27%)    -0.58521
      23    241.80    -0.53357 ( 99.82%)    -0.58965 (  0.18%)    -0.53367
      24    244.17    -0.52841 ( 99.82%)    -0.58676 (  0.18%)    -0.52851
      25    261.14    -0.49318 ( 99.87%)    -0.56685 (  0.13%)    -0.49328
      26    266.79    -0.48208 ( 99.88%)    -0.56051 (  0.12%)    -0.48217
      27    279.29    -0.45856 ( 99.90%)    -0.54695 (  0.10%)    -0.45865
      28    298.76    -0.42452 ( 99.92%)    -0.52699 (  0.08%)    -0.42460
   ------------------------------------------------------------------------

   temp. (K)  partition function   enthalpy   heat capacity  entropy
                                   cal/mol     cal/K/mol   cal/K/mol   J/K/mol
 298.15  VIB  0.710E+15            19964.032    129.505    122.428
         ROT  0.835E+08              888.752      2.981     39.229
         INT  0.593E+23            20852.784    132.486    161.657
         TR   0.139E+29             1481.254      4.968     44.987
         TOT                       22334.0383   137.4540   206.6431   864.5948

       T/K    H(0)-H(T)+PV         H(T)/Eh          T*S/Eh         G(T)/Eh
   ------------------------------------------------------------------------
    298.15    0.355916E-01    0.539971E+00    0.981828E-01    0.441788E+00
   ------------------------------------------------------------------------

         :::::::::::::::::::::::::::::::::::::::::::::::::::::
         ::                  THERMODYNAMIC                  ::
         :::::::::::::::::::::::::::::::::::::::::::::::::::::
         :: total free energy        -115.661138554732 Eh   ::
         ::.................................................::
         :: total energy             -116.102926510196 Eh   ::
         :: zero point energy           0.504379214494 Eh   ::
         :: G(RRHO) w/o ZPVE           -0.062591259030 Eh   ::
         :: G(RRHO) contrib.            0.441787955464 Eh   ::
         :::::::::::::::::::::::::::::::::::::::::::::::::::::

optimized geometry written to: xtbopt.xyz


           -------------------------------------------------
          | TOTAL ENERGY             -116.102926510196 Eh   |
          | TOTAL ENTHALPY           -115.562955740130 Eh   |
          | TOTAL FREE ENERGY        -115.661138554732 Eh   |
          | GRADIENT NORM               0.000065550766 Eh/α |
          | HOMO-LUMO GAP               0.053756025887 eV   |
           -------------------------------------------------

------------------------------------------------------------------------
 * finished run on 2025/08/22 at 12:05:32.354     
------------------------------------------------------------------------
 total:
 * wall-time:     0 d,  0 h,  0 min,  5.279 sec
 *  cpu-time:     0 d,  0 h,  3 min, 11.708 sec
 * ratio c/w:    36.314 speedup
 SCF:
 * wall-time:     0 d,  0 h,  0 min,  0.179 sec
 *  cpu-time:     0 d,  0 h,  0 min,  7.016 sec
 * ratio c/w:    39.136 speedup
 ANC optimizer:
 * wall-time:     0 d,  0 h,  0 min,  1.820 sec
 *  cpu-time:     0 d,  0 h,  1 min, 12.780 sec
 * ratio c/w:    39.994 speedup
 analytical hessian:
 * wall-time:     0 d,  0 h,  0 min,  3.145 sec
 *  cpu-time:     0 d,  0 h,  1 min, 47.042 sec
 * ratio c/w:    34.033 speedup

