69
 energy: -116.155035897617 gnorm: 0.000038638079 xtb: 6.7.1 (edcfbbe)
C            7.55648042027360       -2.99098993961330       -2.16445257042058
C            6.17778748663420       -3.05229693803631       -2.20951061491294
C            5.41175636753617       -2.18405416571857       -1.44685688533692
C            6.01222014420411       -1.24445585335231       -0.61744967444336
C            7.41149297382428       -1.16759658204938       -0.60620522502593
C            8.17166703493921       -2.03884898797464       -1.36535560090072
O            8.09476276638089       -0.22644085309307        0.12720812862515
C            7.35358278508091        0.61959687533697        0.91728593394554
C            8.05277397891610        1.52122080940145        1.69944260834992
C            7.37483460150052        2.38616360109645        2.54571404423369
C            5.99721285923453        2.32523229698989        2.62001813978379
C            5.29230692955521        1.42298027003312        1.83840664139546
C            5.95401379359706        0.57644194069425        0.95668837507419
N            5.27042076026701       -0.34173520956288        0.15228458988752
C            3.86379078534744       -0.38450442340450        0.16458307179770
C            3.20827704495597       -1.50466572461305        0.64818803059945
C            1.81200183830307       -1.61500852452421        0.69546905567991
C            1.05785767159841       -0.56093412865038        0.23574996229352
C            1.72304977622685        0.58126707937323       -0.27112406027008
C            0.81967689709059        1.57152586541851       -0.72629939062025
C            1.31843390699345        2.73065768623982       -1.26815061288885
C            2.71442337018962        2.87780560746044       -1.35239441955166
C            3.59311125986209        1.91949765668203       -0.90375945849346
C            3.11236717594234        0.72069445602978       -0.33063942254936
C           -0.50977883893139        1.03439412136985       -0.48386638469872
N           -1.67235283638429        1.56733719834858       -0.73236486331968
C           -2.74701302485770        0.80942014090157       -0.38910040738212
C           -4.03702120953242        1.30596489520842       -0.63155117165186
C           -5.15595180844079        0.57702093490971       -0.29933942496677
C           -6.48646683042030        1.11022764795212       -0.63924155040176
C           -6.83917484541138        2.41927468897771       -0.31564349890337
C           -8.09708777300080        2.87711849174644       -0.67037193980916
N           -8.98902357786912        2.14163177625953       -1.31426404201698
C           -8.64965369232772        0.90396901197835       -1.63664361379376
C           -7.42338348633361        0.34025007635681       -1.32683825522245
C           -5.01081014828510       -0.69242878150210        0.32013451134438
C           -6.18615309316679       -1.45589020545769        0.77446234802509
C           -7.16795487424730       -0.86699297801616        1.56960109473755
C           -8.23827164571561       -1.64027978130035        1.98655483417341
N           -8.38609853396213       -2.91686867836124        1.67126085838997
C           -7.44958465258655       -3.47979109692378        0.92487505535583
C           -6.33458266771805       -2.80467278358884        0.45699780005143
C           -3.75350354702246       -1.20170735671740        0.54960532479297
C           -2.60128267402051       -0.47873256468888        0.20247412328532
N           -1.38094453432008       -1.02266211578834        0.44732036396136
C           -0.36086980748557       -0.28256714038749        0.11121380495923
H            8.15769225053304       -3.66693569894897       -2.75174096425086
H            5.68341804755098       -3.77383441810621       -2.84156596166773
H            4.33591942643859       -2.23191515455722       -1.50498679576169
H            9.24573789878000       -1.94921358832111       -1.32169723620601
H            9.12940421600473        1.52693533934303        1.63310609107861
H            7.92833678986727        3.08902340725965        3.14807911753068
H            5.45673330289641        2.97603608471513        3.28995268043228
H            4.21766840842391        1.37611128868983        1.91655182333041
H            3.80613195523244       -2.32591786621000        1.01699217378652
H            1.35112881174911       -2.50445401490774        1.09565972452529
H            0.66318589245561        3.50913370872095       -1.62691407536033
H            3.10848657301217        3.78345361441864       -1.78934593898295
H            4.65682332884430        2.08271555382708       -0.99153707002511
H           -4.12600353744844        2.26954762736774       -1.11040515297969
H           -6.15063065376147        3.05654009140800        0.21790278075007
H           -8.41201558676462        3.88428020734787       -0.42866017227048
H           -9.40237659160257        0.33754584797264       -2.16982694284030
H           -7.19482832379429       -0.67128492780265       -1.62484407058215
H           -7.09025181805859        0.16765323618702        1.86596606232192
H           -9.02076867408844       -1.21866791078278        2.60440031620256
H           -7.60575618115522       -4.52547295079626        0.69238022359496
H           -5.60253883970118       -3.30700961870539       -0.15671271798996
H           -3.62379341936555       -2.16105904333926        1.02778329036162
