94
 energy: -153.864163109408 gnorm: 0.000068509623 xtb: 6.7.1 (edcfbbe)
N            0.00027971738011        3.10682156509834        2.42599317705529
C            0.00019418856290        2.24662221914572        1.66935838146257
C            0.00007645224507        1.15049074779216        0.77344875281754
C           -1.22629598861455        0.58311648306999        0.39309186073802
N           -2.42327097110893        1.16056738953861        0.81129282883672
C           -3.47921401225111        0.46570050835990        1.38181844556755
C           -3.48460292234631       -0.79389604656834        1.95743600610675
C           -4.68242080611488       -1.26436015955204        2.46160229434756
C           -5.83725527175788       -0.48923530204185        2.42177900569875
C           -5.81785152050620        0.79334876866319        1.90874903585979
C           -4.62759807277846        1.28335585715050        1.39133381979677
C           -4.24025926066821        2.54016614518198        0.81080681004170
C           -4.92867820585211        3.71351475319353        0.53855119012287
C           -4.25160451884925        4.75298948667402       -0.06821928071502
C           -2.90973413727788        4.62765483296306       -0.41381113936537
C           -2.20584936021566        3.46633595711067       -0.15568000773658
C           -2.87505676596356        2.42936581255128        0.47179508550916
C           -1.22636729340078       -0.58305364354388       -0.39299136022158
N           -2.42341543379439       -1.16037645290715       -0.81116618869444
C           -2.87534067641291       -2.42912145960449       -0.47167374916394
C           -2.20628126300484       -3.46612118424609        0.15591147131082
C           -2.91029943959144       -4.62735649909954        0.41405147829989
C           -4.25215770093272       -4.75257652880976        0.06836414538483
C           -4.92908160031897       -3.71307263147098       -0.53852282533828
C           -4.24052649846081       -2.53980633642792       -0.81079192017155
C           -4.62769244051015       -1.28298737063428       -1.39141449306474
C           -5.81784487309811       -0.79290068566687       -1.90898720028595
C           -5.83708539410872        0.48966942313120       -2.42205803838304
C           -4.68219087664858        1.26471161356396       -2.46174416876804
C           -3.48447146046136        0.79417065218485       -1.95741722105763
C           -3.47924278579209       -0.46542426145968       -1.38179416321738
C           -0.00007871857555       -1.15055910737691       -0.77342389282890
C           -0.00018884551358       -2.24668789616698       -1.66934312315409
N           -0.00025920439237       -3.10688721053252       -2.42600889240934
C            1.22629387702147       -0.58318427581485       -0.39306754817755
N            2.42327641997133       -1.16061248864738       -0.81128160513409
C            3.47919236979424       -0.46570561866370       -1.38181023249342
C            3.48452412394581        0.79388465355535       -1.95744087874804
C            4.68231964315307        1.26439745123552       -2.46161372076709
C            5.83719355572398        0.48933302226028       -2.42176315552955
C            5.81784750993876       -0.79324825989629       -1.90872325950971
C            4.62761063615527       -1.28331158430972       -1.39132133019100
C            4.24032035405583       -2.54013755681094       -0.81079530459982
C            4.92878286756186       -3.71346352561784       -0.53855288624106
C            4.25174223794251       -4.75297696187146        0.06818816438123
C            2.90986035906755       -4.62770339900368        0.41376273890278
C            2.20593598636284       -3.46640207854718        0.15565838276412
C            2.87510891919927       -2.42939653207995       -0.47179437946975
C            1.22636419666008        0.58298698649128        0.39301267491604
N            2.42340964797647        1.16032929270335        0.81116819615214
C            3.47924264567195        0.46541824120996        1.38183330224635
C            3.48449954253983       -0.79416975970466        1.95747047224172
C            4.68222377726948       -1.26466541816419        2.46182997776286
C            5.83709337834019       -0.48958416841281        2.42216570714980
C            5.81782286134991        0.79297830408886        1.90907836668477
C            4.62766853441984        1.28301602423480        1.39146174686730
C            4.24048021673263        2.53980946923512        0.81079866280739
C            4.92900945186965        3.71308423611580        0.53850027391056
C            4.25207642490793        4.75254009511861       -0.06845867862253
C            2.91023147794132        4.62726896265946       -0.41417993718063
C            2.20623691361635        3.46602878065325       -0.15600192388396
C            2.87530771370086        2.42907476469139        0.47164680983609
H           -2.58705958708755       -1.39081462889704        2.02073640106813
H           -4.71809748839131       -2.25206701633621        2.89576274928721
H           -6.75628513997404       -0.89339956844626        2.81843420225646
H           -6.70597491584008        1.40625045604738        1.91135232083328
H           -5.97319669498328        3.80416449340380        0.79401830335005
H           -4.76792233792069        5.67590068245521       -0.28525251707667
H           -2.40633397741429        5.45221676062604       -0.89579854911985
H           -1.16874981371054        3.38182404210490       -0.44372858486435
H           -1.16920566792863       -3.38167504978404        0.44406701982235
H           -2.40703062124501       -5.45192801407786        0.89615956612160
H           -4.76858287149490       -5.67542400966653        0.28540959329516
H           -5.97357888297780       -3.80364822085702       -0.79409689164386
H           -6.70602099001047       -1.40572774186271       -1.91166684473562
H           -6.75604184851238        0.89390298460821       -2.81881554326913
H           -4.71774705773641        2.25242166316048       -2.89590596259760
H           -2.58687642426008        1.39102314082393       -2.02061873367230
H            2.58695200174473        1.39075767697219       -2.02075170503826
H            4.71795910525441        2.25211231354632       -2.89575696069848
H            6.75621286415055        0.89354637484425       -2.81839607878039
H            6.70599958488149       -1.40610937598301       -1.91132054688101
H            5.97329576512041       -3.80408256075702       -0.79404723610574
H            4.76808733610607       -5.67588035571922        0.28518615146998
H            2.40649497471787       -5.45228582630148        0.89575100369672
H            1.16883755219518       -3.38192616112877        0.44371833419176
H            2.58692667673695       -1.39105700152140        2.02064527903456
H            4.71779871825435       -2.25236206140613        2.89602171225473
H            6.75604390529260       -0.89376752460383        2.81898599872448
H            6.70597467207623        1.40583879151794        1.91178165592008
H            5.97350019341245        3.80369741530939        0.79409093255941
H            4.76848488179234        5.67538948817267       -0.28553810659509
H            2.40695643865071        5.45180198042267       -0.89634765952195
H            1.16917196734761        3.38153875732579       -0.44418406374497
