      -----------------------------------------------------------      
     |                   =====================                   |     
     |                           x T B                           |     
     |                   =====================                   |     
     |                         S. Grimme                         |     
     |          Mulliken Center for Theoretical Chemistry        |     
     |                    University of Bonn                     |     
      -----------------------------------------------------------      

   * xtb version 6.7.1 (edcfbbe) compiled by 'albert@albert-system' on 2024-07-22

   xtb is free software: you can redistribute it and/or modify it under
   the terms of the GNU Lesser General Public License as published by
   the Free Software Foundation, either version 3 of the License, or
   (at your option) any later version.
   
   xtb is distributed in the hope that it will be useful,
   but WITHOUT ANY WARRANTY; without even the implied warranty of
   MERCHANTABILITY or FITNESS FOR A PARTICULAR PURPOSE.  See the
   GNU Lesser General Public License for more details.
   
   Cite this work as:
   * C. Bannwarth, E. Caldeweyher, S. Ehlert, A. Hansen, P. Pracht,
     J. Seibert, S. Spicher, S. Grimme, WIREs Comput. Mol. Sci., 2020, 11,
     e01493. DOI: 10.1002/wcms.1493
   
   for GFN2-xTB:
   * C. Bannwarth, S. Ehlert and S. Grimme., J. Chem. Theory Comput., 2019,
     15, 1652-1671. DOI: 10.1021/acs.jctc.8b01176
   for GFN1-xTB:
   * S. Grimme, C. Bannwarth, P. Shushkov, J. Chem. Theory Comput., 2017,
     13, 1989-2009. DOI: 10.1021/acs.jctc.7b00118
   for GFN0-xTB:
   * P. Pracht, E. Caldeweyher, S. Ehlert, S. Grimme, ChemRxiv, 2019, preprint.
     DOI: 10.26434/chemrxiv.8326202.v1
   for GFN-FF:
   * S. Spicher and S. Grimme, Angew. Chem. Int. Ed., 2020, 59, 15665-15673.
     DOI: 10.1002/anie.202004239
   
   for ALPB and GBSA implicit solvation:
   * S. Ehlert, M. Stahn, S. Spicher, S. Grimme, J. Chem. Theory Comput.,
     2021, 17, 4250-4261. DOI: 10.1021/acs.jctc.1c00471
   
   for ddCOSMO and CPCM-X implicit solvation:
   * M. Stahn, S. Ehlert, S. Grimme, J. Phys. Chem. A,
     2023, XX, XXXX-XXXX. DOI: 10.1021/acs.jpca.3c04382
   
   for DFT-D4:
   * E. Caldeweyher, C. Bannwarth and S. Grimme, J. Chem. Phys., 2017,
     147, 034112. DOI: 10.1063/1.4993215
   * E. Caldeweyher, S. Ehlert, A. Hansen, H. Neugebauer, S. Spicher,
     C. Bannwarth and S. Grimme, J. Chem. Phys., 2019, 150, 154122.
     DOI: 10.1063/1.5090222
   * E. Caldeweyher, J.-M. Mewes, S. Ehlert and S. Grimme, Phys. Chem. Chem. Phys.
     2020, 22, 8499-8512. DOI: 10.1039/D0CP00502A
   
   for sTDA-xTB:
   * S. Grimme and C. Bannwarth, J. Chem. Phys., 2016, 145, 054103.
     DOI: 10.1063/1.4959605
   
   in the mass-spec context:
   * V. Asgeirsson, C. Bauer and S. Grimme, Chem. Sci., 2017, 8, 4879.
     DOI: 10.1039/c7sc00601b
   * J. Koopman and S. Grimme, ACS Omega 2019, 4, 12, 15120-15133.
     DOI: 10.1021/acsomega.9b02011
   
   for metadynamics refer to:
   * S. Grimme, J. Chem. Theory Comput., 2019, 155, 2847-2862
     DOI: 10.1021/acs.jctc.9b00143
   
   for SPH calculations refer to:
   * S. Spicher and S. Grimme, J. Chem. Theory Comput., 2021, 17, 1701-1714
     DOI: 10.1021/acs.jctc.0c01306
   
   for ONIOM refer to:
   * C. Plett, A. Katbashev, S. Ehlert, S. Grimme, M. Bursch,
     Phys. Chem. Chem. Phys., 2023, 25, 17860-17868. DOI: 10.1039/D3CP02178E
   
   for DIPRO refer to:
   * J. Kohn, N. Gildemeister, S. Grimme, D. Fazzi, A. Hansen,
     J. Chem. Phys., 2023, just accepted.
   
   for PTB refer to:
   * S. Grimme, M. Mueller, A. Hansen, J. Chem. Phys., 2023, 158, 124111.
     DOI: 10.1063/5.0137838
   
   with help from (in alphabetical order)
   P. Atkinson, C. Bannwarth, F. Bohle, G. Brandenburg, E. Caldeweyher
   M. Checinski, S. Dohm, S. Ehlert, S. Ehrlich, I. Gerasimov, C. Hölzer
   A. Katbashev, J. Kohn, J. Koopman, C. Lavigne, S. Lehtola, F. März, M. Müller,
   F. Musil, H. Neugebauer, J. Pisarek, C. Plett, P. Pracht, F. Pultar,
   J. Seibert, P. Shushkov, S. Spicher, M. Stahn, M. Steiner, T. Strunk,
   J. Stückrath, T. Rose, and J. Unsleber
   
 * started run on 2025/09/03 at 21:14:23.497     
   ID    Z sym.   atoms
    1    6 C      1-4, 6-35, 37-68
    2    7 N      5, 36
    3    1 H      69-112

           -------------------------------------------------
          |                Calculation Setup                |
           -------------------------------------------------

          program call               : xtb data2507/toluene/p-TPA-AP-TPA/p-TPA-AP-TPA_toluene_S0_crest.xyz --gfn 2 --gbsa toluene --ohess vtight --parallel 40 --molden --ceasefiles --namespace data2507/toluene/p-TPA-AP-TPA/p-TPA-AP-TPA_toluene_S0_finalOpt
          calculation namespace      : data2507/toluene/p-TPA-AP-TPA/p-TPA-AP-TPA_toluene_S0_finalOpt
          coordinate file            : data2507/toluene/p-TPA-AP-TPA/p-TPA-AP-TPA_toluene_S0_crest.xyz
          omp threads                :                    40


           -------------------------------------------------
          |                 G F N 2 - x T B                 |
           -------------------------------------------------

        Reference                      10.1021/acs.jctc.8b01176
      * Hamiltonian:
        H0-scaling (s, p, d)           1.850000    2.230000    2.230000
        zeta-weighting                 0.500000
      * Dispersion:
        s8                             2.700000
        a1                             0.520000
        a2                             5.000000
        s9                             5.000000
      * Repulsion:
        kExp                           1.500000    1.000000
        rExp                           1.000000
      * Coulomb:
        alpha                          2.000000
        third order                    shell-resolved
        anisotropic                    true
        a3                             3.000000
        a5                             4.000000
        cn-shift                       1.200000
        cn-exp                         4.000000
        max-rad                        5.000000

      * Solvation model:               GBSA
        Solvent                        toluene
        Parameter file                 internal GFN2-xTB/GBSA
        Dielectric constant                7.0000E+00
        Reference state                gsolv [1 M gas/solution]
        Free energy shift                  4.5239E-03 Eh       2.8388E+00 kcal/mol
        Temperature                        2.9815E+02 K
        Density                            8.6700E-01 kg/L
        Solvent mass                       9.2140E+01 g/mol
        Interaction kernel             Still
        Born radius scaling (c1)           1.5686E+00
        Born radii integrator          GBOBC
        Born offset                        0.0000E+00 a0       0.0000E+00 AA
        H-bond correction              false
        Ion screening                  false
        Surface tension                    1.0000E-05 Eh       1.5569E+01 dyn/cm
        Grid points                               230 per atom

          ...................................................
          :                      SETUP                      :
          :.................................................:
          :  # basis functions                 316          :
          :  # atomic orbitals                 316          :
          :  # shells                          180          :
          :  # electrons                       318          :
          :  max. iterations                   250          :
          :  Hamiltonian                  GFN2-xTB          :
          :  restarted?                      false          :
          :  GBSA solvation                   true          :
          :  PC potential                    false          :
          :  electronic temp.          300.0000000     K    :
          :  accuracy                    1.0000000          :
          :  -> integral cutoff          0.2500000E+02      :
          :  -> integral neglect         0.1000000E-07      :
          :  -> SCF convergence          0.1000000E-05 Eh   :
          :  -> wf. convergence          0.1000000E-03 e    :
          :  Broyden damping             0.4000000          :
          :  net charge                          0          :
          :  unpaired electrons                  0          :
          ...................................................

 iter      E             dE          RMSdq      gap      omega  full diag
   1   -172.9339611 -0.172934E+03  0.393E+00    1.51       0.0  T
   2   -173.0056914 -0.717304E-01  0.237E+00    1.85       1.0  T
   3   -172.9635635  0.421279E-01  0.889E-01    1.80       1.0  T
   4   -173.0210653 -0.575018E-01  0.205E-01    1.87       1.0  T
   5   -173.0228395 -0.177423E-02  0.730E-02    1.83       1.0  T
   6   -173.0233212 -0.481639E-03  0.268E-02    1.85       1.0  T
   7   -173.0233370 -0.158656E-04  0.164E-02    1.84       1.0  T
   8   -173.0233486 -0.115641E-04  0.747E-03    1.85       1.3  T
   9   -173.0233531 -0.451409E-05  0.216E-03    1.85       4.4  T
  10   -173.0233535 -0.417168E-06  0.661E-04    1.85      14.3  T
  11   -173.0233536 -0.269828E-07  0.240E-04    1.85      39.3  T

   *** convergence criteria satisfied after 11 iterations ***

         #    Occupation            Energy/Eh            Energy/eV
      -------------------------------------------------------------
         1        2.0000           -0.6649421             -18.0940
       ...           ...                  ...                  ...
       153        2.0000           -0.3978858             -10.8270
       154        2.0000           -0.3967616             -10.7964
       155        2.0000           -0.3895579             -10.6004
       156        2.0000           -0.3630823              -9.8800
       157        2.0000           -0.3582384              -9.7482
       158        2.0000           -0.3479533              -9.4683
       159        2.0000           -0.3471600              -9.4467 (HOMO)
       160                         -0.2792885              -7.5998 (LUMO)
       161                         -0.2750576              -7.4847
       162                         -0.2420073              -6.5854
       163                         -0.2307981              -6.2803
       164                         -0.2303603              -6.2684
       ...                                ...                  ...
       316                          0.7324127              19.9300
      -------------------------------------------------------------
                  HL-Gap            0.0678715 Eh            1.8469 eV
             Fermi-level           -0.3132243 Eh           -8.5233 eV

 SCC (total)                   0 d,  0 h,  0 min,  0.254 sec
 SCC setup                      ...        0 min,  0.003 sec (  1.152%)
 Dispersion                     ...        0 min,  0.006 sec (  2.463%)
 classical contributions        ...        0 min,  0.000 sec (  0.081%)
 integral evaluation            ...        0 min,  0.015 sec (  5.807%)
 iterations                     ...        0 min,  0.208 sec ( 81.776%)
 molecular gradient             ...        0 min,  0.019 sec (  7.633%)
 printout                       ...        0 min,  0.003 sec (  1.055%)

         :::::::::::::::::::::::::::::::::::::::::::::::::::::
         ::                     SUMMARY                     ::
         :::::::::::::::::::::::::::::::::::::::::::::::::::::
         :: total energy            -169.734964181656 Eh    ::
         :: total w/o Gsasa/hb      -169.668238709571 Eh    ::
         :: gradient norm              0.002453973004 Eh/a0 ::
         :: HOMO-LUMO gap              1.846876942026 eV    ::
         ::.................................................::
         :: SCC energy              -173.023531828877 Eh    ::
         :: -> isotropic ES            0.010879105416 Eh    ::
         :: -> anisotropic ES          0.015660571941 Eh    ::
         :: -> anisotropic XC          0.100642144072 Eh    ::
         :: -> dispersion             -0.166298458753 Eh    ::
         :: -> Gsolv                  -0.067317213028 Eh    ::
         ::    -> Gelec               -0.000591740944 Eh    ::
         ::    -> Gsasa               -0.071249351956 Eh    ::
         ::    -> Ghb                  0.000000000000 Eh    ::
         ::    -> Gshift               0.004523879872 Eh    ::
         :: repulsion energy           3.288567647221 Eh    ::
         :: add. restraining           0.000000000000 Eh    ::
         :: total charge               0.000000000000 e     ::
         :::::::::::::::::::::::::::::::::::::::::::::::::::::

      ----------------------------------------------------------- 
     |                   =====================                   |
     |                        A N C O P T                        |
     |                   =====================                   |
     |               Approximate Normal Coordinate               |
     |                Rational Function Optimizer                |
      ----------------------------------------------------------- 

Optimization log is written to '/dev/null'
      ----------------------------------------------------------- 
     |                   =====================                   |
     |                        A N C O P T                        |
     |                   =====================                   |
     |               Approximate Normal Coordinate               |
     |                Rational Function Optimizer                |
      ----------------------------------------------------------- 

          ...................................................
          :                      SETUP                      :
          :.................................................:
          :   optimization level         verytight          :
          :   max. optcycles                  2240          :
          :   ANC micro-cycles                  20          :
          :   degrees of freedom               330          :
          :.................................................:
          :   RF solver                   davidson          :
          :   write xtbopt.log                true          :
          :   linear?                        false          :
          :   energy convergence         0.1000000E-06 Eh   :
          :   grad. convergence          0.2000000E-03 Eh/α :
          :   maxmium RF displ.          1.0000000          :
          :   Hlow (freq-cutoff)         0.1000000E-01      :
          :   Hmax (freq-cutoff)         5.0000000          :
          :   S6 in model hess.         20.0000000          :
          ...................................................

generating ANC from exact Hessian ...
Using Lindh-Hessian (1995)
 Shifting diagonal of input Hessian by   9.975276902743560E-003
 Lowest  eigenvalues of input Hessian
    0.000000    0.000000    0.000000    0.000000    0.000000    0.000000
    0.010000    0.010004    0.010051    0.010099    0.010115    0.010141
    0.010351    0.010568    0.010608    0.010853    0.011080    0.011212
 Highest eigenvalues
    2.124397    2.156197    2.160740    2.161469    2.167538    2.172801
 

........................................................................
.............................. CYCLE    1 ..............................
........................................................................

 iter      E             dE          RMSdq      gap      omega  full diag
   1   -173.0233536 -0.173023E+03  0.144E-04    1.85       0.0  T
   2   -173.0233536 -0.142080E-09  0.970E-05    1.85      97.4  T
   3   -173.0233536 -0.266596E-10  0.719E-05    1.85     131.4  T
     SCC iter.                  ...        0 min,  0.055 sec
     gradient                   ...        0 min,  0.019 sec
 * total energy  :  -169.7349642 Eh     change       -0.2225761E-08 Eh
   gradient norm :     0.0024526 Eh/α   predicted     0.0000000E+00 (-100.00%)
   displ. norm   :     0.0479003 α      lambda       -0.5953251E-04
   maximum displ.:     0.0233080 α      in ANC's #22, #26, #21, ...

........................................................................
.............................. CYCLE    2 ..............................
........................................................................

 iter      E             dE          RMSdq      gap      omega  full diag
   1   -173.0176721 -0.173018E+03  0.104E-02    1.85       0.0  T
   2   -173.0176730 -0.849120E-06  0.643E-03    1.85       1.5  T
   3   -173.0176724  0.559191E-06  0.333E-03    1.85       2.8  T
   4   -173.0176733 -0.867964E-06  0.663E-04    1.85      14.2  T
   5   -173.0176733 -0.333969E-07  0.348E-04    1.85      27.1  T
     SCC iter.                  ...        0 min,  0.081 sec
     gradient                   ...        0 min,  0.018 sec
 * total energy  :  -169.7350084 Eh     change       -0.4425255E-04 Eh
   gradient norm :     0.0012053 Eh/α   predicted    -0.2996278E-04 ( -32.29%)
   displ. norm   :     0.1265941 α      lambda       -0.4685305E-04
   maximum displ.:     0.0728941 α      in ANC's #22, #26, #21, ...

........................................................................
.............................. CYCLE    3 ..............................
........................................................................

 iter      E             dE          RMSdq      gap      omega  full diag
   1   -173.0104463 -0.173010E+03  0.252E-02    1.85       0.0  T
   2   -173.0104494 -0.309427E-05  0.151E-02    1.85       1.0  T
   3   -173.0104458  0.360782E-05  0.690E-03    1.85       1.4  T
   4   -173.0104503 -0.458458E-05  0.125E-03    1.85       7.6  T
   5   -173.0104505 -0.137777E-06  0.605E-04    1.85      15.6  T
   6   -173.0104505 -0.432645E-07  0.164E-04    1.85      57.5  T
     SCC iter.                  ...        0 min,  0.098 sec
     gradient                   ...        0 min,  0.018 sec
 * total energy  :  -169.7350420 Eh     change       -0.3360027E-04 Eh
   gradient norm :     0.0014121 Eh/α   predicted    -0.2359471E-04 ( -29.78%)
   displ. norm   :     0.0516205 α      lambda       -0.1434961E-04
   maximum displ.:     0.0324506 α      in ANC's #22, #9, #21, ...

........................................................................
.............................. CYCLE    4 ..............................
........................................................................

 iter      E             dE          RMSdq      gap      omega  full diag
   1   -173.0127027 -0.173013E+03  0.114E-02    1.85       0.0  T
   2   -173.0127027 -0.321966E-07  0.671E-03    1.85       1.4  T
   3   -173.0127026  0.816763E-07  0.946E-04    1.85      10.0  T
   4   -173.0127027 -0.978844E-07  0.153E-04    1.85      61.6  T
     SCC iter.                  ...        0 min,  0.068 sec
     gradient                   ...        0 min,  0.018 sec
 * total energy  :  -169.7350594 Eh     change       -0.1739318E-04 Eh
   gradient norm :     0.0008251 Eh/α   predicted    -0.7185085E-05 ( -58.69%)
   displ. norm   :     0.0931140 α      lambda       -0.1633533E-04
   maximum displ.:     0.0556910 α      in ANC's #22, #9, #21, ...

........................................................................
.............................. CYCLE    5 ..............................
........................................................................

 iter      E             dE          RMSdq      gap      omega  full diag
   1   -173.0149865 -0.173015E+03  0.198E-02    1.85       0.0  T
   2   -173.0149866 -0.111300E-06  0.117E-02    1.85       1.0  T
   3   -173.0149861  0.515001E-06  0.216E-03    1.85       4.4  T
   4   -173.0149866 -0.572459E-06  0.410E-04    1.85      23.0  T
   5   -173.0149866 -0.140132E-07  0.192E-04    1.85      49.1  T
     SCC iter.                  ...        0 min,  0.085 sec
     gradient                   ...        0 min,  0.018 sec
 * total energy  :  -169.7350754 Eh     change       -0.1596035E-04 Eh
   gradient norm :     0.0004191 Eh/α   predicted    -0.8200106E-05 ( -48.62%)
   displ. norm   :     0.0635288 α      lambda       -0.5065110E-05
   maximum displ.:     0.0365617 α      in ANC's #22, #9, #21, ...

........................................................................
.............................. CYCLE    6 ..............................
........................................................................

 iter      E             dE          RMSdq      gap      omega  full diag
   1   -173.0153573 -0.173015E+03  0.125E-02    1.85       0.0  T
   2   -173.0153573 -0.324670E-07  0.731E-03    1.85       1.3  T
   3   -173.0153572  0.139882E-06  0.109E-03    1.85       8.7  T
   4   -173.0153573 -0.154039E-06  0.244E-04    1.85      38.8  T
   5   -173.0153573 -0.537281E-08  0.103E-04    1.85      91.4  T
     SCC iter.                  ...        0 min,  0.086 sec
     gradient                   ...        0 min,  0.019 sec
 * total energy  :  -169.7350811 Eh     change       -0.5663116E-05 Eh
   gradient norm :     0.0003788 Eh/α   predicted    -0.2537368E-05 ( -55.19%)
   displ. norm   :     0.0682800 α      lambda       -0.4615327E-05
   maximum displ.:     0.0385760 α      in ANC's #9, #22, #4, ...

........................................................................
.............................. CYCLE    7 ..............................
........................................................................

 iter      E             dE          RMSdq      gap      omega  full diag
   1   -173.0153155 -0.173015E+03  0.126E-02    1.86       0.0  T
   2   -173.0153156 -0.444522E-07  0.742E-03    1.86       1.3  T
   3   -173.0153154  0.176682E-06  0.123E-03    1.86       7.7  T
   4   -173.0153156 -0.195677E-06  0.260E-04    1.86      36.3  T
   5   -173.0153156 -0.603825E-08  0.121E-04    1.86      77.8  T
     SCC iter.                  ...        0 min,  0.083 sec
     gradient                   ...        0 min,  0.018 sec
 * total energy  :  -169.7350864 Eh     change       -0.5384735E-05 Eh
   gradient norm :     0.0003045 Eh/α   predicted    -0.2321717E-05 ( -56.88%)
   displ. norm   :     0.0824177 α      lambda       -0.5044629E-05
   maximum displ.:     0.0467295 α      in ANC's #9, #22, #4, ...

........................................................................
.............................. CYCLE    8 ..............................
........................................................................

 iter      E             dE          RMSdq      gap      omega  full diag
   1   -173.0151273 -0.173015E+03  0.144E-02    1.86       0.0  T
   2   -173.0151273 -0.547151E-07  0.847E-03    1.86       1.1  T
   3   -173.0151272  0.145342E-06  0.121E-03    1.86       7.8  T
   4   -173.0151274 -0.169076E-06  0.212E-04    1.86      44.5  T
   5   -173.0151274 -0.262617E-08  0.132E-04    1.86      71.9  T
     SCC iter.                  ...        0 min,  0.083 sec
     gradient                   ...        0 min,  0.018 sec
 * total energy  :  -169.7350922 Eh     change       -0.5776676E-05 Eh
   gradient norm :     0.0003285 Eh/α   predicted    -0.2530396E-05 ( -56.20%)
   displ. norm   :     0.0893160 α      lambda       -0.4622388E-05
   maximum displ.:     0.0498896 α      in ANC's #9, #4, #8, ...

........................................................................
.............................. CYCLE    9 ..............................
........................................................................

 iter      E             dE          RMSdq      gap      omega  full diag
   1   -173.0150420 -0.173015E+03  0.152E-02    1.86       0.0  T
   2   -173.0150421 -0.499696E-07  0.891E-03    1.86       1.1  T
   3   -173.0150420  0.732132E-07  0.998E-04    1.86       9.5  T
   4   -173.0150421 -0.951374E-07  0.150E-04    1.86      62.9  T
     SCC iter.                  ...        0 min,  0.067 sec
     gradient                   ...        0 min,  0.018 sec
 * total energy  :  -169.7350976 Eh     change       -0.5395763E-05 Eh
   gradient norm :     0.0003495 Eh/α   predicted    -0.2321314E-05 ( -56.98%)
   displ. norm   :     0.0975264 α      lambda       -0.4519784E-05
   maximum displ.:     0.0528537 α      in ANC's #9, #4, #8, ...

........................................................................
.............................. CYCLE   10 ..............................
........................................................................

 iter      E             dE          RMSdq      gap      omega  full diag
   1   -173.0150124 -0.173015E+03  0.163E-02    1.86       0.0  T
   2   -173.0150125 -0.575272E-07  0.954E-03    1.86       1.0  T
   3   -173.0150124  0.775867E-07  0.104E-03    1.86       9.1  T
   4   -173.0150125 -0.101607E-06  0.171E-04    1.86      55.3  T
   5   -173.0150125 -0.448949E-09  0.101E-04    1.86      93.2  T
     SCC iter.                  ...        0 min,  0.082 sec
     gradient                   ...        0 min,  0.018 sec
 * total energy  :  -169.7351030 Eh     change       -0.5342367E-05 Eh
   gradient norm :     0.0003125 Eh/α   predicted    -0.2272470E-05 ( -57.46%)
   displ. norm   :     0.1107625 α      lambda       -0.4707852E-05
   maximum displ.:     0.0584432 α      in ANC's #9, #4, #7, ...

........................................................................
.............................. CYCLE   11 ..............................
........................................................................

 iter      E             dE          RMSdq      gap      omega  full diag
   1   -173.0150030 -0.173015E+03  0.182E-02    1.86       0.0  T
   2   -173.0150031 -0.802696E-07  0.107E-02    1.86       1.0  T
   3   -173.0150030  0.108532E-06  0.119E-03    1.86       7.9  T
   4   -173.0150031 -0.139958E-06  0.190E-04    1.86      49.7  T
   5   -173.0150031 -0.760764E-09  0.109E-04    1.86      86.6  T
     SCC iter.                  ...        0 min,  0.085 sec
     gradient                   ...        0 min,  0.018 sec
 * total energy  :  -169.7351083 Eh     change       -0.5364844E-05 Eh
   gradient norm :     0.0002815 Eh/α   predicted    -0.2368164E-05 ( -55.86%)
   displ. norm   :     0.1097536 α      lambda       -0.4015318E-05
   maximum displ.:     0.0567226 α      in ANC's #9, #4, #7, ...

........................................................................
.............................. CYCLE   12 ..............................
........................................................................

 iter      E             dE          RMSdq      gap      omega  full diag
   1   -173.0149392 -0.173015E+03  0.175E-02    1.86       0.0  T
   2   -173.0149393 -0.735776E-07  0.102E-02    1.86       1.0  T
   3   -173.0149392  0.985209E-07  0.111E-03    1.86       8.5  T
   4   -173.0149393 -0.126192E-06  0.198E-04    1.86      47.6  T
   5   -173.0149393 -0.868056E-09  0.127E-04    1.86      74.1  T
     SCC iter.                  ...        0 min,  0.082 sec
     gradient                   ...        0 min,  0.018 sec
 * total energy  :  -169.7351126 Eh     change       -0.4319522E-05 Eh
   gradient norm :     0.0002724 Eh/α   predicted    -0.2021123E-05 ( -53.21%)
   displ. norm   :     0.0869039 α      lambda       -0.2685561E-05
   maximum displ.:     0.0433998 α      in ANC's #9, #4, #7, ...

........................................................................
.............................. CYCLE   13 ..............................
........................................................................

 iter      E             dE          RMSdq      gap      omega  full diag
   1   -173.0149088 -0.173015E+03  0.133E-02    1.86       0.0  T
   2   -173.0149088 -0.354977E-07  0.778E-03    1.86       1.2  T
   3   -173.0149088  0.384627E-07  0.731E-04    1.86      12.9  T
   4   -173.0149088 -0.525879E-07  0.128E-04    1.86      74.0  T
     SCC iter.                  ...        0 min,  0.067 sec
     gradient                   ...        0 min,  0.018 sec
 * total energy  :  -169.7351154 Eh     change       -0.2807412E-05 Eh
   gradient norm :     0.0002383 Eh/α   predicted    -0.1348563E-05 ( -51.96%)
   displ. norm   :     0.0600406 α      lambda       -0.1793732E-05
   maximum displ.:     0.0266706 α      in ANC's #9, #7, #4, ...

........................................................................
.............................. CYCLE   14 ..............................
........................................................................

 iter      E             dE          RMSdq      gap      omega  full diag
   1   -173.0148689 -0.173015E+03  0.889E-03    1.86       0.0  T
   2   -173.0148689 -0.115649E-07  0.521E-03    1.86       1.8  T
   3   -173.0148689  0.236204E-07  0.505E-04    1.86      18.7  T
   4   -173.0148689 -0.283789E-07  0.126E-04    1.86      74.8  T
     SCC iter.                  ...        0 min,  0.067 sec
     gradient                   ...        0 min,  0.018 sec
 * total energy  :  -169.7351174 Eh     change       -0.1975638E-05 Eh
   gradient norm :     0.0001887 Eh/α   predicted    -0.8988507E-06 ( -54.50%)
   displ. norm   :     0.0523202 α      lambda       -0.1646679E-05
   maximum displ.:     0.0233312 α      in ANC's #7, #4, #9, ...

........................................................................
.............................. CYCLE   15 ..............................
........................................................................

 iter      E             dE          RMSdq      gap      omega  full diag
   1   -173.0148224 -0.173015E+03  0.768E-03    1.86       0.0  T
   2   -173.0148224 -0.103133E-07  0.451E-03    1.86       2.1  T
   3   -173.0148224  0.423420E-07  0.625E-04    1.86      15.1  T
   4   -173.0148224 -0.468049E-07  0.134E-04    1.86      70.7  T
     SCC iter.                  ...        0 min,  0.067 sec
     gradient                   ...        0 min,  0.018 sec
 * total energy  :  -169.7351193 Eh     change       -0.1883769E-05 Eh
   gradient norm :     0.0001672 Eh/α   predicted    -0.8260935E-06 ( -56.15%)
   displ. norm   :     0.0621868 α      lambda       -0.1774589E-05
   maximum displ.:     0.0283991 α      in ANC's #7, #4, #6, ...

........................................................................
.............................. CYCLE   16 ..............................
........................................................................

 iter      E             dE          RMSdq      gap      omega  full diag
   1   -173.0147465 -0.173015E+03  0.866E-03    1.86       0.0  T
   2   -173.0147465 -0.197817E-07  0.508E-03    1.86       1.9  T
   3   -173.0147465  0.351550E-07  0.654E-04    1.86      14.4  T
   4   -173.0147465 -0.414351E-07  0.130E-04    1.86      72.7  T
     SCC iter.                  ...        0 min,  0.078 sec
     gradient                   ...        0 min,  0.019 sec
 * total energy  :  -169.7351213 Eh     change       -0.2045903E-05 Eh
   gradient norm :     0.0001943 Eh/α   predicted    -0.8926532E-06 ( -56.37%)
   displ. norm   :     0.0670722 α      lambda       -0.1772860E-05
   maximum displ.:     0.0313142 α      in ANC's #7, #4, #6, ...

........................................................................
.............................. CYCLE   17 ..............................
........................................................................

 iter      E             dE          RMSdq      gap      omega  full diag
   1   -173.0147346 -0.173015E+03  0.837E-03    1.86       0.0  T
   2   -173.0147346 -0.265197E-07  0.490E-03    1.86       1.9  T
   3   -173.0147345  0.396449E-07  0.756E-04    1.86      12.5  T
   4   -173.0147346 -0.483753E-07  0.100E-04    1.86      94.4  T
     SCC iter.                  ...        0 min,  0.066 sec
     gradient                   ...        0 min,  0.018 sec
 * total energy  :  -169.7351234 Eh     change       -0.2030532E-05 Eh
   gradient norm :     0.0002135 Eh/α   predicted    -0.8890672E-06 ( -56.22%)
   displ. norm   :     0.0740457 α      lambda       -0.1840726E-05
   maximum displ.:     0.0349820 α      in ANC's #7, #4, #1, ...

........................................................................
.............................. CYCLE   18 ..............................
........................................................................

 iter      E             dE          RMSdq      gap      omega  full diag
   1   -173.0148155 -0.173015E+03  0.838E-03    1.86       0.0  T
   2   -173.0148156 -0.357041E-07  0.490E-03    1.86       1.9  T
   3   -173.0148155  0.694263E-07  0.954E-04    1.86       9.9  T
   4   -173.0148156 -0.792475E-07  0.172E-04    1.86      55.0  T
     SCC iter.                  ...        0 min,  0.065 sec
     gradient                   ...        0 min,  0.018 sec
 * total energy  :  -169.7351254 Eh     change       -0.2040825E-05 Eh
   gradient norm :     0.0001933 Eh/α   predicted    -0.9233499E-06 ( -54.76%)
   displ. norm   :     0.0709776 α      lambda       -0.1558805E-05
   maximum displ.:     0.0339228 α      in ANC's #7, #4, #1, ...

........................................................................
.............................. CYCLE   19 ..............................
........................................................................

 iter      E             dE          RMSdq      gap      omega  full diag
   1   -173.0148965 -0.173015E+03  0.743E-03    1.86       0.0  T
   2   -173.0148965 -0.286255E-07  0.436E-03    1.86       2.2  T
   3   -173.0148963  0.198449E-06  0.137E-03    1.86       6.9  T
   4   -173.0148965 -0.211065E-06  0.266E-04    1.86      35.5  T
   5   -173.0148965 -0.763293E-08  0.834E-05    1.86     113.3  T
     SCC iter.                  ...        0 min,  0.083 sec
     gradient                   ...        0 min,  0.018 sec
 * total energy  :  -169.7351272 Eh     change       -0.1750338E-05 Eh
   gradient norm :     0.0001586 Eh/α   predicted    -0.7858518E-06 ( -55.10%)
   displ. norm   :     0.0710122 α      lambda       -0.1417875E-05
   maximum displ.:     0.0340047 α      in ANC's #7, #4, #1, ...

........................................................................
.............................. CYCLE   20 ..............................
........................................................................

 iter      E             dE          RMSdq      gap      omega  full diag
   1   -173.0149815 -0.173015E+03  0.728E-03    1.87       0.0  T
   2   -173.0149815 -0.319018E-07  0.426E-03    1.87       2.2  T
   3   -173.0149814  0.130215E-06  0.116E-03    1.87       8.2  T
   4   -173.0149815 -0.139197E-06  0.253E-04    1.87      37.4  T
   5   -173.0149815 -0.685671E-08  0.893E-05    1.87     105.8  T
     SCC iter.                  ...        0 min,  0.082 sec
     gradient                   ...        0 min,  0.018 sec
 * total energy  :  -169.7351288 Eh     change       -0.1588261E-05 Eh
   gradient norm :     0.0001640 Eh/α   predicted    -0.7142916E-06 ( -55.03%)
   displ. norm   :     0.0681968 α      lambda       -0.1201250E-05
   maximum displ.:     0.0325728 α      in ANC's #7, #4, #1, ...
 * RMSD in coord.:     0.1093121 α      energy gain  -0.1645783E-03 Eh

generating ANC from exact Hessian ...
Using Lindh-Hessian (1995)
 Shifting diagonal of input Hessian by   9.974170331478937E-003
 Lowest  eigenvalues of input Hessian
    0.000000    0.000000    0.000000    0.000000    0.000000    0.000000
    0.010000    0.010004    0.010051    0.010100    0.010112    0.010139
    0.010347    0.010558    0.010607    0.010836    0.011068    0.011203
 Highest eigenvalues
    2.121039    2.152289    2.155252    2.155868    2.161698    2.167982
 

........................................................................
.............................. CYCLE   21 ..............................
........................................................................

 iter      E             dE          RMSdq      gap      omega  full diag
   1   -173.0150085 -0.173015E+03  0.710E-03    1.87       0.0  T
   2   -173.0150085 -0.269908E-07  0.415E-03    1.87       2.3  T
   3   -173.0150085  0.806522E-07  0.949E-04    1.87      10.0  T
   4   -173.0150085 -0.880491E-07  0.200E-04    1.87      47.3  T
     SCC iter.                  ...        0 min,  0.066 sec
     gradient                   ...        0 min,  0.018 sec
 * total energy  :  -169.7351301 Eh     change       -0.1327150E-05 Eh
   gradient norm :     0.0001649 Eh/α   predicted     0.0000000E+00 (-100.00%)
   displ. norm   :     0.0076195 α      lambda       -0.2181051E-07
   maximum displ.:     0.0045563 α      in ANC's #25, #11, #26, ...

........................................................................
.............................. CYCLE   22 ..............................
........................................................................

 iter      E             dE          RMSdq      gap      omega  full diag
   1   -173.0150522 -0.173015E+03  0.159E-03    1.87       0.0  T
   2   -173.0150522 -0.697582E-09  0.935E-04    1.87      10.1  T
   3   -173.0150522  0.204992E-08  0.161E-04    1.87      58.6  T
     SCC iter.                  ...        0 min,  0.050 sec
     gradient                   ...        0 min,  0.018 sec
 * total energy  :  -169.7351306 Eh     change       -0.4846711E-06 Eh
   gradient norm :     0.0001237 Eh/α   predicted    -0.1916095E-06 ( -60.47%)
   displ. norm   :     0.0316960 α      lambda       -0.1157354E-05
   maximum displ.:     0.0174174 α      in ANC's #25, #11, #9, ...

........................................................................
.............................. CYCLE   23 ..............................
........................................................................

 iter      E             dE          RMSdq      gap      omega  full diag
   1   -173.0148852 -0.173015E+03  0.620E-03    1.87       0.0  T
   2   -173.0148852 -0.752411E-08  0.364E-03    1.87       2.6  T
   3   -173.0148852  0.856152E-07  0.841E-04    1.87      11.2  T
   4   -173.0148853 -0.921987E-07  0.131E-04    1.87      72.1  T
     SCC iter.                  ...        0 min,  0.067 sec
     gradient                   ...        0 min,  0.018 sec
 * total energy  :  -169.7351315 Eh     change       -0.9316525E-06 Eh
   gradient norm :     0.0001294 Eh/α   predicted    -0.5800394E-06 ( -37.74%)
   displ. norm   :     0.0300751 α      lambda        0.9249514E-06
   maximum displ.:     0.0168313 α      in ANC's #25, #11, #9, ...

........................................................................
.............................. CYCLE   24 ..............................
........................................................................

 iter      E             dE          RMSdq      gap      omega  full diag
   1   -173.0147194 -0.173015E+03  0.592E-03    1.87       0.0  T
   2   -173.0147194 -0.649311E-08  0.348E-03    1.87       2.7  T
   3   -173.0147193  0.667338E-07  0.741E-04    1.87      12.8  T
   4   -173.0147194 -0.721265E-07  0.114E-04    1.87      82.5  T
     SCC iter.                  ...        0 min,  0.066 sec
     gradient                   ...        0 min,  0.018 sec
 * total energy  :  -169.7351308 Eh     change        0.6839639E-06 Eh
   gradient norm :     0.0003348 Eh/α   predicted     0.4610073E-06 ( -32.60%)
   displ. norm   :     0.0214262 α      lambda       -0.1146285E-05
   maximum displ.:     0.0142053 α      in ANC's #25, #26, #11, ...

........................................................................
.............................. CYCLE   25 ..............................
........................................................................

 iter      E             dE          RMSdq      gap      omega  full diag
   1   -173.0147799 -0.173015E+03  0.464E-03    1.87       0.0  T
   2   -173.0147799 -0.459556E-08  0.273E-03    1.87       3.5  T
   3   -173.0147799  0.400155E-07  0.577E-04    1.87      16.4  T
   4   -173.0147799 -0.430967E-07  0.100E-04    1.87      94.5  T
     SCC iter.                  ...        0 min,  0.068 sec
     gradient                   ...        0 min,  0.020 sec
 * total energy  :  -169.7351318 Eh     change       -0.9629449E-06 Eh
   gradient norm :     0.0001146 Eh/α   predicted    -0.5751247E-06 ( -40.27%)
   displ. norm   :     0.0060307 α      lambda       -0.1833379E-06
   maximum displ.:     0.0024880 α      in ANC's #25, #9, #1, ...

........................................................................
.............................. CYCLE   26 ..............................
........................................................................

 iter      E             dE          RMSdq      gap      omega  full diag
   1   -173.0148408 -0.173015E+03  0.123E-03    1.87       0.0  T
   2   -173.0148408 -0.391452E-09  0.723E-04    1.87      13.1  T
   3   -173.0148408  0.287613E-08  0.165E-04    1.87      57.4  T
     SCC iter.                  ...        0 min,  0.051 sec
     gradient                   ...        0 min,  0.018 sec
 * total energy  :  -169.7351320 Eh     change       -0.2448496E-06 Eh
   gradient norm :     0.0000600 Eh/α   predicted    -0.9466206E-07 ( -61.34%)
   displ. norm   :     0.0311053 α      lambda       -0.6491407E-06
   maximum displ.:     0.0125200 α      in ANC's #9, #1, #6, ...

........................................................................
.............................. CYCLE   27 ..............................
........................................................................

 iter      E             dE          RMSdq      gap      omega  full diag
   1   -173.0148674 -0.173015E+03  0.578E-03    1.87       0.0  T
   2   -173.0148675 -0.902290E-08  0.339E-03    1.87       2.8  T
   3   -173.0148674  0.143305E-07  0.450E-04    1.87      21.0  T
   4   -173.0148675 -0.177502E-07  0.689E-05    1.87     137.1  T
     SCC iter.                  ...        0 min,  0.066 sec
     gradient                   ...        0 min,  0.018 sec
 * total energy  :  -169.7351328 Eh     change       -0.7229720E-06 Eh
   gradient norm :     0.0001002 Eh/α   predicted    -0.3254253E-06 ( -54.99%)
   displ. norm   :     0.0401576 α      lambda       -0.4882687E-06
   maximum displ.:     0.0165092 α      in ANC's #1, #9, #6, ...

........................................................................
.............................. CYCLE   28 ..............................
........................................................................

 iter      E             dE          RMSdq      gap      omega  full diag
   1   -173.0149124 -0.173015E+03  0.726E-03    1.87       0.0  T
   2   -173.0149124 -0.129886E-07  0.425E-03    1.87       2.2  T
   3   -173.0149124  0.170397E-07  0.508E-04    1.87      18.6  T
   4   -173.0149124 -0.218368E-07  0.797E-05    1.87     118.6  T
     SCC iter.                  ...        0 min,  0.066 sec
     gradient                   ...        0 min,  0.018 sec
 * total energy  :  -169.7351333 Eh     change       -0.5420903E-06 Eh
   gradient norm :     0.0001415 Eh/α   predicted    -0.2485803E-06 ( -54.14%)
   displ. norm   :     0.0318636 α      lambda       -0.3024224E-06
   maximum displ.:     0.0137941 α      in ANC's #1, #9, #6, ...

........................................................................
.............................. CYCLE   29 ..............................
........................................................................

 iter      E             dE          RMSdq      gap      omega  full diag
   1   -173.0149383 -0.173015E+03  0.565E-03    1.87       0.0  T
   2   -173.0149383 -0.794088E-08  0.331E-03    1.87       2.9  T
   3   -173.0149383  0.967907E-08  0.385E-04    1.87      24.5  T
   4   -173.0149383 -0.125806E-07  0.592E-05    1.87     159.5  T
     SCC iter.                  ...        0 min,  0.067 sec
     gradient                   ...        0 min,  0.018 sec
 * total energy  :  -169.7351336 Eh     change       -0.3435713E-06 Eh
   gradient norm :     0.0001033 Eh/α   predicted    -0.1528169E-06 ( -55.52%)
   displ. norm   :     0.0249231 α      lambda       -0.2348661E-06
   maximum displ.:     0.0116747 α      in ANC's #1, #6, #9, ...

........................................................................
.............................. CYCLE   30 ..............................
........................................................................

 iter      E             dE          RMSdq      gap      omega  full diag
   1   -173.0149361 -0.173015E+03  0.429E-03    1.87       0.0  T
   2   -173.0149361 -0.446190E-08  0.252E-03    1.87       3.8  T
   3   -173.0149361  0.520990E-08  0.280E-04    1.87      33.8  T
   4   -173.0149361 -0.677940E-08  0.462E-05    1.87     204.5  T
     SCC iter.                  ...        0 min,  0.064 sec
     gradient                   ...        0 min,  0.018 sec
 * total energy  :  -169.7351339 Eh     change       -0.2677543E-06 Eh
   gradient norm :     0.0000436 Eh/α   predicted    -0.1178123E-06 ( -56.00%)
   displ. norm   :     0.0207661 α      lambda       -0.1968391E-06
   maximum displ.:     0.0105888 α      in ANC's #1, #6, #9, ...

........................................................................
.............................. CYCLE   31 ..............................
........................................................................

 iter      E             dE          RMSdq      gap      omega  full diag
   1   -173.0149549 -0.173015E+03  0.339E-03    1.87       0.0  T
   2   -173.0149549 -0.229068E-08  0.199E-03    1.87       4.7  T
   3   -173.0149549  0.101356E-07  0.313E-04    1.87      30.2  T
   4   -173.0149549 -0.110968E-07  0.658E-05    1.87     143.7  T
     SCC iter.                  ...        0 min,  0.063 sec
     gradient                   ...        0 min,  0.019 sec
 * total energy  :  -169.7351341 Eh     change       -0.2433144E-06 Eh
   gradient norm :     0.0000617 Eh/α   predicted    -0.9976127E-07 ( -59.00%)
   displ. norm   :     0.0254601 α      lambda       -0.2410543E-06
   maximum displ.:     0.0133838 α      in ANC's #1, #6, #9, ...

........................................................................
.............................. CYCLE   32 ..............................
........................................................................

 iter      E             dE          RMSdq      gap      omega  full diag
   1   -173.0149544 -0.173015E+03  0.388E-03    1.87       0.0  T
   2   -173.0149544 -0.259666E-08  0.227E-03    1.87       4.2  T
   3   -173.0149544  0.380015E-08  0.216E-04    1.87      43.7  T
   4   -173.0149544 -0.473395E-08  0.538E-05    1.87     175.8  T
     SCC iter.                  ...        0 min,  0.066 sec
     gradient                   ...        0 min,  0.018 sec
 * total energy  :  -169.7351345 Eh     change       -0.3136272E-06 Eh
   gradient norm :     0.0000998 Eh/α   predicted    -0.1226375E-06 ( -60.90%)
   displ. norm   :     0.0330640 α      lambda       -0.2967111E-06
   maximum displ.:     0.0175887 α      in ANC's #1, #6, #7, ...

........................................................................
.............................. CYCLE   33 ..............................
........................................................................

 iter      E             dE          RMSdq      gap      omega  full diag
   1   -173.0149592 -0.173015E+03  0.473E-03    1.87       0.0  T
   2   -173.0149592 -0.361129E-08  0.277E-03    1.87       3.4  T
   3   -173.0149592  0.346611E-08  0.223E-04    1.87      42.4  T
   4   -173.0149592 -0.493131E-08  0.538E-05    1.87     175.7  T
     SCC iter.                  ...        0 min,  0.065 sec
     gradient                   ...        0 min,  0.018 sec
 * total energy  :  -169.7351348 Eh     change       -0.3668052E-06 Eh
   gradient norm :     0.0001019 Eh/α   predicted    -0.1503152E-06 ( -59.02%)
   displ. norm   :     0.0313138 α      lambda       -0.2446964E-06
   maximum displ.:     0.0171629 α      in ANC's #1, #6, #7, ...

........................................................................
.............................. CYCLE   34 ..............................
........................................................................

 iter      E             dE          RMSdq      gap      omega  full diag
   1   -173.0149816 -0.173015E+03  0.411E-03    1.87       0.0  T
   2   -173.0149816 -0.274227E-08  0.241E-03    1.87       3.9  T
   3   -173.0149816  0.205185E-08  0.179E-04    1.87      52.6  T
   4   -173.0149816 -0.320796E-08  0.414E-05    1.87     228.2  T
     SCC iter.                  ...        0 min,  0.063 sec
     gradient                   ...        0 min,  0.019 sec
 * total energy  :  -169.7351351 Eh     change       -0.2952997E-06 Eh
   gradient norm :     0.0000648 Eh/α   predicted    -0.1259816E-06 ( -57.34%)
   displ. norm   :     0.0247133 α      lambda       -0.1869815E-06
   maximum displ.:     0.0140114 α      in ANC's #1, #6, #7, ...

........................................................................
.............................. CYCLE   35 ..............................
........................................................................

 iter      E             dE          RMSdq      gap      omega  full diag
   1   -173.0149845 -0.173015E+03  0.292E-03    1.87       0.0  T
   2   -173.0149845 -0.136461E-08  0.171E-03    1.87       5.5  T
   3   -173.0149845  0.119340E-08  0.130E-04    1.87      72.8  T
   4   -173.0149845 -0.176095E-08  0.352E-05    1.87     268.7  T
     SCC iter.                  ...        0 min,  0.068 sec
     gradient                   ...        0 min,  0.018 sec
 * total energy  :  -169.7351354 Eh     change       -0.2354478E-06 Eh
   gradient norm :     0.0000393 Eh/α   predicted    -0.9424870E-07 ( -59.97%)
   displ. norm   :     0.0260889 α      lambda       -0.2141760E-06
   maximum displ.:     0.0151464 α      in ANC's #1, #6, #3, ...

........................................................................
.............................. CYCLE   36 ..............................
........................................................................

 iter      E             dE          RMSdq      gap      omega  full diag
   1   -173.0149973 -0.173015E+03  0.284E-03    1.87       0.0  T
   2   -173.0149973 -0.128264E-08  0.166E-03    1.87       5.7  T
   3   -173.0149973  0.793190E-08  0.263E-04    1.87      35.9  T
   4   -173.0149973 -0.877617E-08  0.467E-05    1.87     202.5  T
     SCC iter.                  ...        0 min,  0.067 sec
     gradient                   ...        0 min,  0.018 sec
 * total energy  :  -169.7351356 Eh     change       -0.2805190E-06 Eh
   gradient norm :     0.0000669 Eh/α   predicted    -0.1079843E-06 ( -61.51%)
   displ. norm   :     0.0352659 α      lambda       -0.3005296E-06
   maximum displ.:     0.0205097 α      in ANC's #1, #6, #3, ...

........................................................................
.............................. CYCLE   37 ..............................
........................................................................

 iter      E             dE          RMSdq      gap      omega  full diag
   1   -173.0149994 -0.173015E+03  0.381E-03    1.87       0.0  T
   2   -173.0149994 -0.275313E-08  0.223E-03    1.87       4.2  T
   3   -173.0149994  0.856616E-08  0.290E-04    1.87      32.6  T
   4   -173.0149994 -0.968430E-08  0.674E-05    1.87     140.3  T
     SCC iter.                  ...        0 min,  0.066 sec
     gradient                   ...        0 min,  0.019 sec
 * total energy  :  -169.7351360 Eh     change       -0.3876309E-06 Eh
   gradient norm :     0.0001064 Eh/α   predicted    -0.1517269E-06 ( -60.86%)
   displ. norm   :     0.0462858 α      lambda       -0.3690898E-06
   maximum displ.:     0.0269473 α      in ANC's #1, #6, #3, ...

........................................................................
.............................. CYCLE   38 ..............................
........................................................................

 iter      E             dE          RMSdq      gap      omega  full diag
   1   -173.0150028 -0.173015E+03  0.506E-03    1.87       0.0  T
   2   -173.0150028 -0.508939E-08  0.297E-03    1.87       3.2  T
   3   -173.0150028  0.126839E-07  0.365E-04    1.87      25.9  T
   4   -173.0150028 -0.145260E-07  0.888E-05    1.87     106.4  T
     SCC iter.                  ...        0 min,  0.066 sec
     gradient                   ...        0 min,  0.019 sec
 * total energy  :  -169.7351365 Eh     change       -0.4529795E-06 Eh
   gradient norm :     0.0001183 Eh/α   predicted    -0.1860808E-06 ( -58.92%)
   displ. norm   :     0.0469415 α      lambda       -0.3309978E-06
   maximum displ.:     0.0275525 α      in ANC's #1, #6, #3, ...

........................................................................
.............................. CYCLE   39 ..............................
........................................................................

 iter      E             dE          RMSdq      gap      omega  full diag
   1   -173.0150142 -0.173015E+03  0.508E-03    1.87       0.0  T
   2   -173.0150142 -0.509198E-08  0.298E-03    1.87       3.2  T
   3   -173.0150142  0.108465E-07  0.345E-04    1.87      27.4  T
   4   -173.0150142 -0.125612E-07  0.860E-05    1.87     109.9  T
     SCC iter.                  ...        0 min,  0.064 sec
     gradient                   ...        0 min,  0.018 sec
 * total energy  :  -169.7351369 Eh     change       -0.3990508E-06 Eh
   gradient norm :     0.0000920 Eh/α   predicted    -0.1701941E-06 ( -57.35%)
   displ. norm   :     0.0440983 α      lambda       -0.2921174E-06
   maximum displ.:     0.0261440 α      in ANC's #1, #6, #3, ...

........................................................................
.............................. CYCLE   40 ..............................
........................................................................

 iter      E             dE          RMSdq      gap      omega  full diag
   1   -173.0150229 -0.173015E+03  0.471E-03    1.87       0.0  T
   2   -173.0150229 -0.416745E-08  0.276E-03    1.87       3.4  T
   3   -173.0150229  0.715380E-08  0.291E-04    1.87      32.4  T
   4   -173.0150229 -0.856448E-08  0.745E-05    1.87     126.8  T
     SCC iter.                  ...        0 min,  0.064 sec
     gradient                   ...        0 min,  0.018 sec
 * total energy  :  -169.7351372 Eh     change       -0.3618854E-06 Eh
   gradient norm :     0.0000534 Eh/α   predicted    -0.1470794E-06 ( -59.36%)
   displ. norm   :     0.0446917 α      lambda       -0.3011166E-06
   maximum displ.:     0.0267393 α      in ANC's #1, #6, #3, ...

........................................................................
.............................. CYCLE   41 ..............................
........................................................................

 iter      E             dE          RMSdq      gap      omega  full diag
   1   -173.0150401 -0.173015E+03  0.467E-03    1.87       0.0  T
   2   -173.0150401 -0.381954E-08  0.273E-03    1.87       3.5  T
   3   -173.0150401  0.437393E-08  0.248E-04    1.87      38.1  T
   4   -173.0150401 -0.571438E-08  0.620E-05    1.87     152.5  T
     SCC iter.                  ...        0 min,  0.066 sec
     gradient                   ...        0 min,  0.018 sec
 * total energy  :  -169.7351376 Eh     change       -0.3855501E-06 Eh
   gradient norm :     0.0000582 Eh/α   predicted    -0.1518248E-06 ( -60.62%)
   displ. norm   :     0.0523357 α      lambda       -0.3619783E-06
   maximum displ.:     0.0314197 α      in ANC's #1, #6, #3, ...

........................................................................
.............................. CYCLE   42 ..............................
........................................................................

 iter      E             dE          RMSdq      gap      omega  full diag
   1   -173.0150378 -0.173015E+03  0.540E-03    1.87       0.0  T
   2   -173.0150378 -0.489865E-08  0.317E-03    1.87       3.0  T
   3   -173.0150378  0.492150E-08  0.273E-04    1.87      34.6  T
   4   -173.0150378 -0.681260E-08  0.642E-05    1.87     147.2  T
     SCC iter.                  ...        0 min,  0.065 sec
     gradient                   ...        0 min,  0.018 sec
 * total energy  :  -169.7351381 Eh     change       -0.4682416E-06 Eh
   gradient norm :     0.0001029 Eh/α   predicted    -0.1829484E-06 ( -60.93%)
   displ. norm   :     0.0624413 α      lambda       -0.4168579E-06
   maximum displ.:     0.0375394 α      in ANC's #1, #6, #3, ...
 * RMSD in coord.:     0.0504618 α      energy gain  -0.9334044E-05 Eh

generating ANC from exact Hessian ...
Using Lindh-Hessian (1995)
 Shifting diagonal of input Hessian by   9.974090567918084E-003
 Lowest  eigenvalues of input Hessian
    0.000000    0.000000    0.000000    0.000000    0.000000    0.000000
    0.010000    0.010004    0.010051    0.010100    0.010112    0.010139
    0.010347    0.010559    0.010604    0.010836    0.011065    0.011202
 Highest eigenvalues
    2.120960    2.152238    2.155453    2.155811    2.161718    2.167959
 

........................................................................
.............................. CYCLE   43 ..............................
........................................................................

 iter      E             dE          RMSdq      gap      omega  full diag
   1   -173.0150171 -0.173015E+03  0.638E-03    1.87       0.0  T
   2   -173.0150172 -0.686038E-08  0.374E-03    1.87       2.5  T
   3   -173.0150171  0.777413E-08  0.332E-04    1.87      28.5  T
   4   -173.0150172 -0.105432E-07  0.757E-05    1.87     124.8  T
     SCC iter.                  ...        0 min,  0.065 sec
     gradient                   ...        0 min,  0.018 sec
 * total energy  :  -169.7351386 Eh     change       -0.5225766E-06 Eh
   gradient norm :     0.0001268 Eh/α   predicted     0.0000000E+00 (-100.00%)
   displ. norm   :     0.0037545 α      lambda       -0.1106036E-07
   maximum displ.:     0.0014842 α      in ANC's #9, #11, #1, ...

........................................................................
.............................. CYCLE   44 ..............................
........................................................................

 iter      E             dE          RMSdq      gap      omega  full diag
   1   -173.0150072 -0.173015E+03  0.822E-04    1.87       0.0  T
   2   -173.0150072 -0.439968E-10  0.487E-04    1.87      19.4  T
   3   -173.0150072  0.618198E-08  0.226E-04    1.87      41.8  T
     SCC iter.                  ...        0 min,  0.050 sec
     gradient                   ...        0 min,  0.018 sec
 * total energy  :  -169.7351387 Eh     change       -0.1307938E-06 Eh
   gradient norm :     0.0001117 Eh/α   predicted    -0.5945268E-07 ( -54.54%)
   displ. norm   :     0.0129309 α      lambda       -0.2224175E-06
   maximum displ.:     0.0054346 α      in ANC's #9, #11, #1, ...

........................................................................
.............................. CYCLE   45 ..............................
........................................................................

 iter      E             dE          RMSdq      gap      omega  full diag
   1   -173.0149656 -0.173015E+03  0.247E-03    1.87       0.0  T
   2   -173.0149657 -0.177567E-08  0.145E-03    1.87       6.5  T
   3   -173.0149656  0.520305E-08  0.228E-04    1.87      41.4  T
   4   -173.0149657 -0.588980E-08  0.469E-05    1.87     201.5  T
     SCC iter.                  ...        0 min,  0.064 sec
     gradient                   ...        0 min,  0.018 sec
 * total energy  :  -169.7351390 Eh     change       -0.2332661E-06 Eh
   gradient norm :     0.0000618 Eh/α   predicted    -0.1324679E-06 ( -43.21%)
   displ. norm   :     0.0133945 α      lambda        0.1589270E-06
   maximum displ.:     0.0056529 α      in ANC's #9, #1, #11, ...

........................................................................
.............................. CYCLE   46 ..............................
........................................................................

 iter      E             dE          RMSdq      gap      omega  full diag
   1   -173.0149216 -0.173015E+03  0.254E-03    1.87       0.0  T
   2   -173.0149216 -0.155345E-08  0.149E-03    1.87       6.3  T
   3   -173.0149216  0.955097E-08  0.291E-04    1.87      32.4  T
   4   -173.0149216 -0.102914E-07  0.587E-05    1.87     161.0  T
     SCC iter.                  ...        0 min,  0.066 sec
     gradient                   ...        0 min,  0.018 sec
 * total energy  :  -169.7351389 Eh     change        0.1131791E-06 Eh
   gradient norm :     0.0001925 Eh/α   predicted     0.7933244E-07 ( -29.91%)
   displ. norm   :     0.0068893 α      lambda       -0.2302894E-06
   maximum displ.:     0.0024014 α      in ANC's #37, #9, #11, ...

........................................................................
.............................. CYCLE   47 ..............................
........................................................................

 iter      E             dE          RMSdq      gap      omega  full diag
   1   -173.0149619 -0.173015E+03  0.165E-03    1.87       0.0  T
   2   -173.0149619 -0.101252E-08  0.975E-04    1.87       9.7  T
   3   -173.0149619  0.734696E-08  0.248E-04    1.87      38.1  T
     SCC iter.                  ...        0 min,  0.050 sec
     gradient                   ...        0 min,  0.018 sec
 * total energy  :  -169.7351391 Eh     change       -0.2005828E-06 Eh
   gradient norm :     0.0000773 Eh/α   predicted    -0.1153961E-06 ( -42.47%)
   displ. norm   :     0.0033510 α      lambda       -0.5958483E-07
   maximum displ.:     0.0016889 α      in ANC's #1, #9, #37, ...

........................................................................
.............................. CYCLE   48 ..............................
........................................................................

 iter      E             dE          RMSdq      gap      omega  full diag
   1   -173.0149780 -0.173015E+03  0.687E-04    1.87       0.0  T
   2   -173.0149780 -0.259803E-09  0.403E-04    1.87      23.4  T
   3   -173.0149780  0.908329E-09  0.940E-05    1.87     100.5  T
     SCC iter.                  ...        0 min,  0.049 sec
     gradient                   ...        0 min,  0.018 sec
 * total energy  :  -169.7351392 Eh     change       -0.8653663E-07 Eh
   gradient norm :     0.0000378 Eh/α   predicted    -0.3390550E-07 ( -60.82%)
   displ. norm   :     0.0111450 α      lambda       -0.1110147E-06
   maximum displ.:     0.0058255 α      in ANC's #1, #9, #11, ...

   *** GEOMETRY OPTIMIZATION CONVERGED AFTER 48 ITERATIONS ***

------------------------------------------------------------------------
 total energy gain   :        -0.0001750 Eh       -0.1098 kcal/mol
 total RMSD          :         0.1410105 a0        0.0746 Å
 total power (kW/mol):        -0.0095707 (step)   -0.0916 (real)
------------------------------------------------------------------------

 ANCopt (total)                0 d,  0 h,  0 min,  5.014 sec
 optimizer setup                ...        0 min,  0.001 sec (  0.024%)
 model hessian                  ...        0 min,  0.208 sec (  4.141%)
 ANC generation                 ...        0 min,  0.037 sec (  0.731%)
 coordinate transformation      ...        0 min,  0.004 sec (  0.086%)
 single point calculation       ...        0 min,  4.725 sec ( 94.253%)
 optimization log               ...        0 min,  0.014 sec (  0.286%)
 hessian update                 ...        0 min,  0.008 sec (  0.164%)
 rational function              ...        0 min,  0.009 sec (  0.183%)

================
 final structure:
================
112
 xtb: 6.7.1 (edcfbbe)
C          -12.74799166920091        2.88344169355087        1.36686843598264
C          -11.46781200145114        2.78683839307441        1.88819354290805
C          -10.65209067975170        1.72448191588237        1.54943361801153
C          -11.10569912924687        0.74114035207734        0.66978960279040
N          -10.28063076924676       -0.33417679270754        0.31959310786870
C          -10.82819701898882       -1.61069363188150        0.14162888571595
C          -10.35044665738491       -2.45092927436357       -0.86439853214204
C          -10.88849079409442       -3.71212142305906       -1.03341707814319
C          -11.91381987131719       -4.15365625051222       -0.21256674162263
C          -12.39580654016939       -3.32138231668204        0.78502698462289
C          -11.85782559119943       -2.06190518599242        0.96761261212533
C           -8.90641315668194       -0.13520175629930        0.14569260331528
C           -7.99198637577785       -1.10637735667550        0.55511544217188
C           -6.63800467449510       -0.91196058460998        0.37401063132893
C           -6.15451898370708        0.25888333202324       -0.20465843361870
C           -4.70181853373198        0.46180986364635       -0.38751710250527
C           -4.00328655299771       -0.30870360467286       -1.32932529188929
C           -4.65907030309643       -1.26093945147329       -2.15392668347449
C           -3.96996230955160       -2.00225190698125       -3.06399440287115
C           -2.57822038562249       -1.83389174456406       -3.21292377233685
C           -1.91394371327148       -0.91894291841956       -2.45584245658701
C           -2.59534326424215       -0.12455367436371       -1.49608116662697
C           -1.92093103637606        0.83091498786680       -0.72407899482411
C           -0.46735743695251        1.04094089772600       -0.91949375948861
C           -0.03566329869201        2.07160426700628       -1.74651099904689
C            1.30869328462265        2.28976720841073       -1.97205236073581
C            2.27314050553075        1.48061611795673       -1.36865406573636
C            3.66737204982592        1.65871558617798       -1.59977347585636
C            4.58823327823468        0.87335849986323       -0.99418788639884
C            4.20542590180795       -0.16343445941366       -0.09127797437480
C            5.14528796561868       -0.98271564751198        0.56136581750573
C            6.59416642194968       -0.75159348068828        0.45286011902171
C            7.44973420902128       -1.78853476408830        0.08541459941081
C            8.81265666061358       -1.59213978369747        0.00615659921581
C            9.36730120329513       -0.34941633989330        0.31546832081001
N           10.74909334920517       -0.14771306303797        0.24328839749904
C           11.25581913635027        1.07847268780690       -0.20446737241436
C           10.62519753141529        1.76913889721302       -1.23963541785929
C           11.12581090377066        2.98099539913047       -1.67508957120413
C           12.26357502526749        3.51976378359243       -1.09596344948837
C           12.89670843333178        2.83575496043703       -0.07058129288730
C           12.39860986830839        1.62743959312398        0.37756721462614
C           11.62686079185822       -1.17054873746514        0.62403912085369
C           12.81192864599463       -1.38467614160386       -0.08002914551042
C           13.67722944668211       -2.39148550062675        0.30287493764789
C           13.37469570856673       -3.20452764005593        1.38344168931007
C           12.19688037977190       -2.99878251201675        2.08384545262631
C           11.32925644199011       -1.98929911714849        1.71363948303360
C            8.51631820590201        0.68679686776985        0.70293449475427
C            7.15302398061072        0.48741764341659        0.76441026936472
C            4.69971051039162       -2.03729500355174        1.35496576112941
C            3.35594786100252       -2.27243709189507        1.55311421601688
C            2.39470676540739       -1.45396140404749        0.95686469329120
C            0.99925599219748       -1.65072005407374        1.16583588796205
C            0.07961589322453       -0.85380438266232        0.57482209589184
C            0.47337581521300        0.21044925365305       -0.28936346916992
C            1.85600835529658        0.43232130535242       -0.51173875391768
C            2.82089077908665       -0.39500865794181        0.11732218186567
C           -2.61797831660289        1.60459857746186        0.21280806932515
C           -1.95549698126640        2.56790211018110        1.01893546710790
C           -2.63503573256573        3.30374455507241        1.93993160168257
C           -4.02031633571320        3.11238872871745        2.11887798150920
C           -4.69083091325993        2.19527567544990        1.36930064022727
C           -4.02469226643011        1.41589563936378        0.38664360830277
C           -7.06884394730139        1.22980078011574       -0.60483222006916
C           -8.42539231720298        1.03607848955381       -0.44042454759145
C          -12.39362775691104        0.84635256797085        0.14391653341328
C          -13.20539453261378        1.90749457753843        0.49594986966862
H          -13.38439579407006        3.71262654089715        1.63723198042978
H          -11.10384128541641        3.53995177026333        2.57218635511370
H           -9.65852291801574        1.64668096216114        1.96658291214426
H           -9.55787712049504       -2.10567613704230       -1.51247256023236
H          -10.51008165543711       -4.35108205136169       -1.81827353031313
H          -12.33423884340647       -5.13871042601315       -0.34935209355886
H          -13.19173382874984       -3.65867140458880        1.43321245910615
H          -12.22907026115560       -1.41936867218852        1.75292052763074
H           -8.35167609927894       -2.01383559887046        1.01801039546008
H           -5.93946581453932       -1.66979397891829        0.69915228998519
H           -5.72667494740424       -1.38432233539235       -2.04772621071868
H           -4.48478618026095       -2.72236291509958       -3.68368225943116
H           -2.04654674286036       -2.43239115646610       -3.93855721906267
H           -0.84932730144856       -0.77982333321525       -2.57549595606334
H           -0.77321579933685        2.70317117597995       -2.22217556004466
H            1.62439455281013        3.09156511993233       -2.62450615900329
H            3.97426322791723        2.43857542266241       -2.28291984136909
H            5.63905821446707        1.01233188956851       -1.20008425200358
H            7.03482758159244       -2.75354288914547       -0.16820345796509
H            9.45974292941382       -2.40157386180377       -0.29926896642728
H            9.74381317780576        1.34655021558806       -1.70002556214224
H           10.62838002762498        3.50389905281368       -2.47920923569276
H           12.65394424804495        4.46542256125082       -1.44108983878759
H           13.78146728188195        3.25021525516351        0.39076494901183
H           12.88922619074784        1.10117223122136        1.18359091971269
H           13.04619020127251       -0.75811863408543       -0.92849536154978
H           14.59060315481848       -2.54764980990809       -0.25272481247244
H           14.05154727240065       -3.99279741408039        1.67729354795118
H           11.95520679088622       -3.62347977109809        2.93164299840464
H           10.41645735983414       -1.82461501876693        2.26775308532426
H            8.93446996235537        1.64847653603537        0.96294764351962
H            6.51064566109806        1.29387656231892        1.08815606230168
H            5.43171701286984       -2.66461982657889        1.84426157504400
H            3.03572296105837       -3.08869618486344        2.18519495767408
H            0.69140608006550       -2.45830416594788        1.81542069642917
H           -0.97610157691248       -1.00995778769611        0.74364549249361
H           -0.89154605026070        2.70208153328636        0.88744783126545
H           -2.11822527306390        4.03335230605927        2.54660039718613
H           -4.54315087352607        3.69722983168761        2.86197730095519
H           -5.74959278431327        2.04185003498111        1.51629964210553
H           -6.70904963133398        2.13899340959984       -1.06520187565402
H           -9.12394170920705        1.79222349099787       -0.76826896994683
H          -12.75013784731067        0.09235723370277       -0.54293450718331
H          -14.20002304982450        1.97702027033841        0.07965482144437
 
 Bond Distances (Angstroems)
 ---------------------------
C1-C2=1.3856         C1-C68=1.3857        C1-H69=1.0797        C2-C1=1.3856         C2-C3=1.3816         C2-H70=1.0805        
C3-C2=1.3816         C3-C4=1.3952         C3-H71=1.0804        C4-C3=1.3952         C4-N5=1.3999         C4-C67=1.3951        
N5-C4=1.3999         N5-C6=1.4004         N5-C12=1.3994        C6-N5=1.4004         C6-C7=1.3951         C6-C11=1.3950        
C7-C6=1.3951         C7-C8=1.3815         C7-H72=1.0804        C8-C7=1.3815         C8-C9=1.3857         C8-H73=1.0805        
C9-C8=1.3857         C9-C10=1.3857        C9-H74=1.0797        C10-C9=1.3857        C10-C11=1.3817       C10-H75=1.0805       
C11-C6=1.3950        C11-C10=1.3817       C11-H76=1.0805       C12-N5=1.3994        C12-C13=1.3953       C12-C66=1.3953       
C13-C12=1.3953       C13-C14=1.3798       C13-H77=1.0803       C14-C13=1.3798       C14-C15=1.3927       C14-H78=1.0807       
C15-C14=1.3927       C15-C16=1.4782       C15-C65=1.3924       C16-C15=1.4782       C16-C17=1.4031       C16-C64=1.4029       
C17-C16=1.4031       C17-C18=1.4201       C17-C22=1.4297       C18-C17=1.4201       C18-C19=1.3611       C18-H79=1.0799       
C19-C18=1.3611       C19-C20=1.4098       C19-H80=1.0806       C20-C19=1.4098       C20-C21=1.3607       C20-H81=1.0805       
C21-C20=1.3607       C21-C22=1.4200       C21-H82=1.0803       C22-C17=1.4297       C22-C21=1.4200       C22-C23=1.4013       
C23-C22=1.4013       C23-C24=1.4816       C23-C59=1.4008       C24-C23=1.4816       C24-C25=1.3902       C24-C56=1.4042       
C25-C24=1.3902       C25-C26=1.3805       C25-H83=1.0813       C26-C25=1.3805       C26-C27=1.3961       C26-H84=1.0809       
C27-C26=1.3961       C27-C28=1.4244       C27-C57=1.4168       C28-C27=1.4244       C28-C29=1.3533       C28-H85=1.0812       
C29-C28=1.3533       C29-C30=1.4271       C29-H86=1.0798       C30-C29=1.4271       C30-C31=1.4073       C30-C58=1.4192       
C31-C30=1.4073       C31-C32=1.4712       C31-C51=1.3930       C32-C31=1.4712       C32-C33=1.3936       C32-C50=1.3945       
C33-C32=1.3936       C33-C34=1.3793       C33-H87=1.0806       C34-C33=1.3793       C34-C35=1.3956       C34-H88=1.0804       
C35-C34=1.3956       C35-N36=1.3983       C35-C49=1.3957       N36-C35=1.3983       N36-C37=1.4003       N36-C43=1.4006       
C37-N36=1.4003       C37-C38=1.3951       C37-C42=1.3950       C38-C37=1.3951       C38-C39=1.3816       C38-H89=1.0805       
C39-C38=1.3816       C39-C40=1.3857       C39-H90=1.0805       C40-C39=1.3857       C40-C41=1.3857       C40-H91=1.0797       
C41-C40=1.3857       C41-C42=1.3817       C41-H92=1.0805       C42-C37=1.3950       C42-C41=1.3817       C42-H93=1.0804       
C43-N36=1.4006       C43-C44=1.3950       C43-C48=1.3950       C44-C43=1.3950       C44-C45=1.3817       C44-H94=1.0804       
C45-C44=1.3817       C45-C46=1.3857       C45-H95=1.0804       C46-C45=1.3857       C46-C47=1.3857       C46-H96=1.0797       
C47-C46=1.3857       C47-C48=1.3816       C47-H97=1.0805       C48-C43=1.3950       C48-C47=1.3816       C48-H98=1.0804       
C49-C35=1.3957       C49-C50=1.3792       C49-H99=1.0804       C50-C32=1.3945       C50-C49=1.3792       C50-H100=1.0807      
C51-C31=1.3930       C51-C52=1.3785       C51-H101=1.0811      C52-C51=1.3785       C52-C53=1.3962       C52-H102=1.0809      
C53-C52=1.3962       C53-C54=1.4247       C53-C58=1.4170       C54-C53=1.4247       C54-C55=1.3528       C54-H103=1.0812      
C55-C54=1.3528       C55-C56=1.4264       C55-H104=1.0805      C56-C24=1.4042       C56-C55=1.4264       C56-C57=1.4179       
C57-C27=1.4168       C57-C56=1.4179       C57-C58=1.4182       C58-C30=1.4192       C58-C53=1.4170       C58-C57=1.4182       
C59-C23=1.4008       C59-C60=1.4201       C59-C64=1.4299       C60-C59=1.4201       C60-C61=1.3607       C60-H105=1.0804      
C61-C60=1.3607       C61-C62=1.4098       C61-H106=1.0805      C62-C61=1.4098       C62-C63=1.3611       C62-H107=1.0806      
C63-C62=1.3611       C63-C64=1.4201       C63-H108=1.0799      C64-C16=1.4029       C64-C59=1.4299       C64-C63=1.4201       
C65-C15=1.3924       C65-C66=1.3801       C65-H109=1.0808      C66-C12=1.3953       C66-C65=1.3801       C66-H110=1.0804      
C67-C4=1.3951        C67-C68=1.3816       C67-H111=1.0805      C68-C1=1.3857        C68-C67=1.3816       C68-H112=1.0805      
H69-C1=1.0797        H70-C2=1.0805        H71-C3=1.0804        H72-C7=1.0804        H73-C8=1.0805        H74-C9=1.0797        
H75-C10=1.0805       H76-C11=1.0805       H77-C13=1.0803       H78-C14=1.0807       H79-C18=1.0799       H80-C19=1.0806       
H81-C20=1.0805       H82-C21=1.0803       H83-C25=1.0813       H84-C26=1.0809       H85-C28=1.0812       H86-C29=1.0798       
H87-C33=1.0806       H88-C34=1.0804       H89-C38=1.0805       H90-C39=1.0805       H91-C40=1.0797       H92-C41=1.0805       
H93-C42=1.0804       H94-C44=1.0804       H95-C45=1.0804       H96-C46=1.0797       H97-C47=1.0805       H98-C48=1.0804       
H99-C49=1.0804       H100-C50=1.0807      H101-C51=1.0811      H102-C52=1.0809      H103-C54=1.0812      H104-C55=1.0805      
H105-C60=1.0804      H106-C61=1.0805      H107-C62=1.0806      H108-C63=1.0799      H109-C65=1.0808      H110-C66=1.0804      
H111-C67=1.0805      H112-C68=1.0805      
 C  H  Rav=1.0804 sigma=0.0004  Rmin=1.0797  Rmax=1.0813    44
 C  C  Rav=1.3981 sigma=0.0242  Rmin=1.3528  Rmax=1.4816    74
 N  C  Rav=1.3998 sigma=0.0008  Rmin=1.3983  Rmax=1.4006     6
 
 selected bond angles (degree)
 --------------------
C68-C1-C2=119.49               H69-C1-C2=120.26               H69-C1-C68=120.25              C3-C2-C1=120.45                
H70-C2-C1=120.05               H70-C2-C3=119.49               C4-C3-C2=120.30                H71-C3-C2=120.24               
H71-C3-C4=119.45               N5-C4-C3=120.50                C67-C4-C3=118.99               C67-C4-N5=120.51               
C6-N5-C4=120.10                C12-N5-C4=120.04               C12-N5-C6=119.85               C7-C6-N5=120.45                
C11-C6-N5=120.54               C11-C6-C7=119.01               C8-C7-C6=120.31                H72-C7-C6=119.43               
H72-C7-C8=120.27               C9-C8-C7=120.44                H73-C8-C7=119.49               H73-C8-C9=120.07               
C10-C9-C8=119.50               H74-C9-C8=120.25               H74-C9-C10=120.25              C11-C10-C9=120.48              
H75-C10-C9=120.04              H75-C10-C11=119.48             
 
 selected dihedral angles (degree)
 ---------------------------------
C3-C2-C1-C68=359.73           C3-C2-C1-H69=179.72           H70-C2-C1-C68=180.33          H70-C2-C1-H69=  0.31          
C4-C3-C2-C1=  0.47            C4-C3-C2-H70=179.88           H71-C3-C2-C1=180.69           H71-C3-C2-H70=  0.10          
N5-C4-C3-C2=179.74            N5-C4-C3-H71=359.53           C67-C4-C3-C2=359.78           C67-C4-C3-H71=179.57          
[...]
eigval :     1279.88  1287.52  1304.04  1307.39  1308.97  1311.43
eigval :     1313.87  1314.14  1315.01  1321.27  1322.28  1324.45
eigval :     1324.96  1328.80  1330.03  1348.19  1358.88  1375.31
eigval :     1380.37  1383.33  1384.11  1404.07  1405.59  1410.23
eigval :     1415.89  1421.15  1427.87  1434.16  1434.34  1440.90
eigval :     1441.12  1445.05  1450.53  1470.11  1470.35  1473.04
eigval :     1473.17  1475.00  1481.18  1494.01  1498.94  1504.44
eigval :     1524.67  1527.97  1530.70  1541.38  1553.26  1554.38
eigval :     1561.32  1563.71  1575.44  1575.52  1579.38  1579.43
eigval :     1590.96  1591.41  1591.55  1592.55  1598.64  1599.93
eigval :     1603.16  1606.19  1607.17  1621.47  3063.83  3064.25
eigval :     3065.56  3066.36  3068.72  3068.84  3070.26  3070.61
eigval :     3070.87  3071.11  3071.29  3071.42  3071.69  3072.14
eigval :     3072.46  3072.65  3073.49  3074.40  3074.76  3074.97
eigval :     3076.48  3077.87  3081.04  3081.12  3082.02  3082.30
eigval :     3082.31  3083.12  3083.17  3084.31  3084.43  3084.46
eigval :     3084.86  3084.98  3085.14  3087.25  3087.57  3090.19
eigval :     3090.35  3092.64  3093.00  3093.03  3093.91  3094.06
 reduced masses (amu)
   1: 11.34   2: 11.45   3: 11.46   4: 11.30   5: 11.19   6: 11.48   7: 11.05   8: 11.11
   9: 11.25  10: 10.92  11: 11.03  12: 11.09  13: 10.92  14: 10.77  15: 10.75  16: 10.52
  17: 10.44  18: 10.44  19: 10.50  20: 10.81  21: 10.68  22: 10.50  23: 10.86  24: 10.45
  25: 10.34  26: 10.62  27: 10.52  28:  9.78  29: 10.12  30:  9.83  31: 10.53  32: 10.82
  33: 10.71  34: 10.76  35: 10.65  36: 11.01  37: 10.93  38: 10.90  39: 10.68  40: 10.26
  41: 10.38  42: 10.44  43: 10.32  44: 10.37  45: 10.60  46: 10.37  47: 10.69  48: 10.98
  49: 10.85  50: 10.70  51: 10.67  52: 10.58  53: 10.61  54: 10.67  55: 10.82  56: 10.60
  57:  9.26  58:  9.34  59:  9.57  60:  9.32  61:  9.36  62:  9.23  63: 10.81  64:  9.87
  65: 10.19  66: 11.05  67: 10.97  68: 10.96  69: 11.11  70: 10.37  71: 11.06  72:  9.13
  73:  9.85  74: 10.48  75: 10.65  76: 10.09  77: 10.18  78: 10.01  79: 10.36  80: 10.51
  81: 10.79  82: 10.71  83:  9.72  84: 10.45  85: 10.60  86: 10.52  87: 11.29  88: 11.21
  89: 11.23  90: 11.05  91: 11.09  92: 11.02  93: 11.16  94: 11.04  95: 11.21  96: 11.00
  97: 11.22  98: 11.12  99: 11.25 100: 11.15 101: 10.72 102: 11.00 103: 10.99 104: 10.95
 105: 10.87 106: 10.15 107: 10.15 108: 10.02 109: 10.16 110: 11.29 111: 11.25 112: 11.18
 113: 11.38 114: 11.33 115: 10.65 116: 10.97 117: 10.91 118: 11.38 119: 10.95 120:  4.01
 121:  4.08 122: 11.95 123:  4.41 124:  4.52 125:  4.65 126:  3.92 127:  4.28 128: 10.47
 129:  5.10 130:  4.68 131:  4.19 132: 10.91 133:  5.03 134:  4.49 135:  3.36 136:  3.54
 137:  3.31 138:  3.70 139:  3.28 140:  3.70 141:  3.49 142:  3.24 143:  5.85 144:  3.87
 145:  3.90 146:  3.95 147:  9.55 148: 11.08 149: 11.54 150: 11.43 151:  3.66 152:  3.69
 153:  3.43 154: 11.09 155:  3.64 156:  3.43 157:  3.24 158:  3.53 159:  3.19 160:  3.53
 161:  3.26 162:  3.52 163:  3.68 164:  3.28 165:  3.79 166:  2.97 167:  3.43 168:  3.51
 169:  3.39 170:  2.98 171: 10.41 172: 11.41 173:  3.27 174: 11.29 175: 10.88 176: 10.91
 177: 10.28 178: 10.57 179: 10.58 180:  8.99 181:  8.24 182:  8.29 183:  6.87 184:  7.60
 185:  6.79 186:  6.91 187:  6.55 188:  6.57 189:  7.44 190:  4.05 191:  4.05 192:  3.96
 193:  3.96 194:  6.60 195:  3.12 196:  4.70 197:  4.92 198:  4.99 199:  3.27 200:  1.32
 201:  1.50 202:  1.63 203:  1.35 204:  1.31 205:  2.62 206:  3.17 207:  4.64 208:  4.05
 209:  2.00 210:  1.83 211:  1.81 212:  2.50 213:  3.66 214:  4.86 215:  4.83 216:  5.70
 217:  6.38 218:  6.51 219:  3.58 220:  5.86 221:  5.88 222: 10.12 223:  7.81 224:  4.21
 225:  3.50 226:  4.14 227:  4.27 228:  5.16 229:  4.19 230:  7.53 231: 10.21 232: 11.17
 233: 10.56 234:  9.24 235: 10.51 236: 10.23 237: 10.21 238: 11.74 239: 11.60 240: 11.81
 241: 11.81 242: 10.32 243:  9.47 244:  6.57 245:  9.33 246:  9.92 247: 11.08 248:  9.66
 249:  9.72 250: 11.25 251: 10.08 252: 10.28 253: 10.49 254: 10.13 255:  9.79 256:  9.06
 257:  9.07 258:  9.16 259:  9.12 260: 10.50 261: 11.21 262:  9.05 263:  9.08 264:  9.26
 265:  9.28 266: 10.14 267: 10.09 268: 10.34 269: 11.01 270: 10.92 271: 11.64 272: 11.79
 273: 11.48 274: 11.73 275: 11.62 276: 11.65 277: 11.62 278: 11.58 279: 11.48 280: 11.48
 281: 11.53 282: 11.53 283: 11.48 284: 11.46 285: 11.46 286: 11.48 287: 11.51 288: 11.50
 289: 11.58 290: 11.57 291: 11.33 292: 11.42 293:  1.78 294:  1.78 295:  1.78 296:  1.77
 297:  1.75 298:  1.75 299:  1.75 300:  1.75 301:  1.78 302:  1.77 303:  1.77 304:  1.75
 305:  1.78 306:  1.79 307:  1.78 308:  1.78 309:  1.78 310:  1.78 311:  1.80 312:  1.80
 313:  1.87 314:  1.87 315:  1.83 316:  1.83 317:  1.83 318:  1.83 319:  1.87 320:  1.87
 321:  1.87 322:  1.87 323:  1.86 324:  1.87 325:  1.86 326:  1.87 327:  1.87 328:  1.88
 329:  1.88 330:  1.87 331:  1.88 332:  1.89 333:  1.92 334:  1.92 335:  1.92 336:  1.92
 IR intensities (km·mol⁻¹)
   1:  0.00   2:  0.00   3:  0.01   4:  0.00   5:  0.00   6:  0.01   7:  0.01   8:  0.03
   9:  0.01  10:  0.02  11:  0.01  12:  0.03  13:  0.13  14:  0.67  15:  0.01  16:  2.33
  17:  0.40  18:  4.16  19:  3.39  20:  0.73  21:  0.36  22:  0.22  23:  0.17  24:  2.48
  25:  0.76  26:  0.01  27:  0.41  28:  0.07  29:  1.81  30:  0.18  31:  0.35  32:  0.08
  33:  0.61  34:  1.38  35:  1.40  36:  1.68  37:  0.11  38:  0.49  39:  0.48  40:  1.51
  41:  0.18  42:  0.73  43:  2.88  44:  6.92  45:  0.59  46:  0.61  47:  0.16  48:  0.38
  49:  0.90  50:  0.95  51:  1.40  52:  1.42  53:  0.25  54:  0.42  55:  0.02  56:  1.00
  57:  1.49  58:  1.96  59:  1.51  60:  4.80  61:  1.83  62:  0.78  63:  0.01  64:  0.72
  65:  0.29  66:  0.50  67:  1.84  68:  0.03  69:  0.43  70:  1.65  71:  3.64  72:  0.02
  73:  0.01  74:  0.95  75: 14.25  76:  0.96  77: 14.07  78: 15.12  79:  6.47  80: 11.00
  81:  0.51  82:  0.90  83:  0.43  84:  4.31  85:  3.99  86:  2.85  87:  0.82  88:  0.43
  89:  0.94  90:  0.46  91:  1.59  92:  3.28  93:  0.04  94:  2.49  95:  3.11  96:  8.72
  97:  1.27  98:  0.32  99:  0.91 100:  1.39 101:  0.46 102:  2.18 103:  0.58 104:  1.16
 105:  5.46 106:  0.82 107:  7.84 108:  3.29 109: 23.13 110:  0.86 111:  0.22 112:  1.54
 113:  3.19 114: 10.18 115:  1.61 116:  3.11 117:  0.38 118:  0.35 119:  0.30 120: 45.71
 121: 44.05 122:  0.04 123:  0.68 124:  3.02 125: 25.68 126:  2.19 127:  1.09 128: 20.46
 129: 10.40 130: 14.61 131:  5.85 132:  2.42 133:  1.45 134: 28.38 135:  3.48 136:  0.23
 137:  0.61 138:  0.08 139:  7.66 140:  0.07 141:  0.19 142:  2.82 143:  0.51 144:  1.14
 145:  0.75 146:  0.49 147:  3.63 148:  0.16 149:  3.98 150:  4.39 151:  0.19 152:  0.29
 153:  1.57 154:  0.78 155:  0.17 156:  0.60 157:  1.17 158:  1.19 159:  0.85 160:  4.05
 161:  0.98 162:  0.93 163:  0.88 164:  0.60 165:  2.42 166:  0.98 167:  0.11 168:  0.39
 169:  0.05 170:  0.49 171:  0.47 172: 16.33 173:  3.80 174: 12.38 175:  3.57 176:  0.37
 177:  2.76 178:  3.24 179:  3.51 180: 10.28 181:  2.23 182:  5.06 183:  0.68 184:  1.19
 185:  0.32 186:  0.43 187:  0.49 188:  0.39 189:  0.06 190:  1.11 191:  0.97 192:  0.17
 193:  0.37 194:  0.04 195:  0.73 196:  0.83 197:  2.38 198: 27.94 199:  2.94 200:  0.42
 201:  0.44 202:  0.41 203:  0.27 204:  0.39 205:  0.45 206:  6.15 207:  0.25 208:  1.72
 209: 37.02 210: 21.43 211: 22.19 212: 48.24 213:  6.83 214:  0.83 215:  3.66 216:  3.89
 217:  4.29 218:  0.95 219:  0.06 220:  1.63 221: 17.42 222:  3.96 223:  1.33 224:  9.98
 225:  5.31 226: 24.39 227: 27.70 228: 80.18 229: 59.41 230:  5.64 231: 85.34 232:102.59
 233:161.47 234:503.53 235:474.53 236:170.15 237: 56.30 238:  1.19 239: 18.44 240: 71.52
 241:  1.70 242:650.61 243:120.63 244:  0.07 245:  5.88 246: 14.60 247:102.74 248: 33.70
 249: 11.27 250:  2.84 251: 18.30 252: 13.35 253:  5.21 254: 21.12 255:  4.41 256: 12.50
 257: 11.75 258:  4.28 259: 29.82 260: 64.39 261:  0.10 262:191.72 263: 59.37 264:248.19
 265:318.24 266:129.27 267:297.16 268:136.80 269: 21.73 270: 26.30 271:  0.58 272:  0.54
 273:  0.59 274:  0.44 275:  9.72 276:  7.39 277: 16.79 278:  7.82 279:  9.38 280:  9.79
 281: 24.28 282: 24.76 283:323.01 284:196.44 285:197.54 286:238.93 287:  3.32 288:  0.24
 289:  6.70 290:  1.39 291:  0.00 292:  0.16 293: 36.43 294:  7.99 295: 57.64 296: 46.86
 297:  7.08 298:  5.71 299: 23.53 300: 18.82 301:  4.54 302:  8.31 303: 10.12 304: 17.61
 305: 22.30 306:  7.24 307:  9.86 308:  3.04 309: 67.32 310: 83.00 311: 72.31 312: 52.93
 313:222.16 314: 46.60 315:102.56 316:115.61 317: 98.28 318: 85.98 319:243.63 320:143.36
 321:135.17 322:126.63 323:189.33 324: 45.58 325:195.84 326: 98.32 327:  7.27 328:  1.44
 329:  5.99 330:107.96 331:132.06 332: 16.58 333: 92.71 334:115.33 335: 48.10 336: 81.67
 Raman intensities (Ä⁴*amu⁻¹)
   1:  0.00   2:  0.00   3:  0.00   4:  0.00   5:  0.00   6:  0.00   7:  0.00   8:  0.00
   9:  0.00  10:  0.00  11:  0.00  12:  0.00  13:  0.00  14:  0.00  15:  0.00  16:  0.00
  17:  0.00  18:  0.00  19:  0.00  20:  0.00  21:  0.00  22:  0.00  23:  0.00  24:  0.00
  25:  0.00  26:  0.00  27:  0.00  28:  0.00  29:  0.00  30:  0.00  31:  0.00  32:  0.00
  33:  0.00  34:  0.00  35:  0.00  36:  0.00  37:  0.00  38:  0.00  39:  0.00  40:  0.00
  41:  0.00  42:  0.00  43:  0.00  44:  0.00  45:  0.00  46:  0.00  47:  0.00  48:  0.00
  49:  0.00  50:  0.00  51:  0.00  52:  0.00  53:  0.00  54:  0.00  55:  0.00  56:  0.00
  57:  0.00  58:  0.00  59:  0.00  60:  0.00  61:  0.00  62:  0.00  63:  0.00  64:  0.00
  65:  0.00  66:  0.00  67:  0.00  68:  0.00  69:  0.00  70:  0.00  71:  0.00  72:  0.00
  73:  0.00  74:  0.00  75:  0.00  76:  0.00  77:  0.00  78:  0.00  79:  0.00  80:  0.00
  81:  0.00  82:  0.00  83:  0.00  84:  0.00  85:  0.00  86:  0.00  87:  0.00  88:  0.00
  89:  0.00  90:  0.00  91:  0.00  92:  0.00  93:  0.00  94:  0.00  95:  0.00  96:  0.00
  97:  0.00  98:  0.00  99:  0.00 100:  0.00 101:  0.00 102:  0.00 103:  0.00 104:  0.00
 105:  0.00 106:  0.00 107:  0.00 108:  0.00 109:  0.00 110:  0.00 111:  0.00 112:  0.00
 113:  0.00 114:  0.00 115:  0.00 116:  0.00 117:  0.00 118:  0.00 119:  0.00 120:  0.00
 121:  0.00 122:  0.00 123:  0.00 124:  0.00 125:  0.00 126:  0.00 127:  0.00 128:  0.00
 129:  0.00 130:  0.00 131:  0.00 132:  0.00 133:  0.00 134:  0.00 135:  0.00 136:  0.00
 137:  0.00 138:  0.00 139:  0.00 140:  0.00 141:  0.00 142:  0.00 143:  0.00 144:  0.00
 145:  0.00 146:  0.00 147:  0.00 148:  0.00 149:  0.00 150:  0.00 151:  0.00 152:  0.00
 153:  0.00 154:  0.00 155:  0.00 156:  0.00 157:  0.00 158:  0.00 159:  0.00 160:  0.00
 161:  0.00 162:  0.00 163:  0.00 164:  0.00 165:  0.00 166:  0.00 167:  0.00 168:  0.00
 169:  0.00 170:  0.00 171:  0.00 172:  0.00 173:  0.00 174:  0.00 175:  0.00 176:  0.00
 177:  0.00 178:  0.00 179:  0.00 180:  0.00 181:  0.00 182:  0.00 183:  0.00 184:  0.00
 185:  0.00 186:  0.00 187:  0.00 188:  0.00 189:  0.00 190:  0.00 191:  0.00 192:  0.00
 193:  0.00 194:  0.00 195:  0.00 196:  0.00 197:  0.00 198:  0.00 199:  0.00 200:  0.00
 201:  0.00 202:  0.00 203:  0.00 204:  0.00 205:  0.00 206:  0.00 207:  0.00 208:  0.00
 209:  0.00 210:  0.00 211:  0.00 212:  0.00 213:  0.00 214:  0.00 215:  0.00 216:  0.00
 217:  0.00 218:  0.00 219:  0.00 220:  0.00 221:  0.00 222:  0.00 223:  0.00 224:  0.00
 225:  0.00 226:  0.00 227:  0.00 228:  0.00 229:  0.00 230:  0.00 231:  0.00 232:  0.00
 233:  0.00 234:  0.00 235:  0.00 236:  0.00 237:  0.00 238:  0.00 239:  0.00 240:  0.00
 241:  0.00 242:  0.00 243:  0.00 244:  0.00 245:  0.00 246:  0.00 247:  0.00 248:  0.00
 249:  0.00 250:  0.00 251:  0.00 252:  0.00 253:  0.00 254:  0.00 255:  0.00 256:  0.00
 257:  0.00 258:  0.00 259:  0.00 260:  0.00 261:  0.00 262:  0.00 263:  0.00 264:  0.00
 265:  0.00 266:  0.00 267:  0.00 268:  0.00 269:  0.00 270:  0.00 271:  0.00 272:  0.00
 273:  0.00 274:  0.00 275:  0.00 276:  0.00 277:  0.00 278:  0.00 279:  0.00 280:  0.00
 281:  0.00 282:  0.00 283:  0.00 284:  0.00 285:  0.00 286:  0.00 287:  0.00 288:  0.00
 289:  0.00 290:  0.00 291:  0.00 292:  0.00 293:  0.00 294:  0.00 295:  0.00 296:  0.00
 297:  0.00 298:  0.00 299:  0.00 300:  0.00 301:  0.00 302:  0.00 303:  0.00 304:  0.00
 305:  0.00 306:  0.00 307:  0.00 308:  0.00 309:  0.00 310:  0.00 311:  0.00 312:  0.00
 313:  0.00 314:  0.00 315:  0.00 316:  0.00 317:  0.00 318:  0.00 319:  0.00 320:  0.00
 321:  0.00 322:  0.00 323:  0.00 324:  0.00 325:  0.00 326:  0.00 327:  0.00 328:  0.00
 329:  0.00 330:  0.00 331:  0.00 332:  0.00 333:  0.00 334:  0.00 335:  0.00 336:  0.00
 output can be read by thermo (or use thermo option).
 writing <g98.out> molden fake output.
 recommended (thermochemical) frequency scaling factor: 1.0
           -------------------------------------------------
          |             Thermodynamic Functions             |
           -------------------------------------------------

Refinement of some symmetry elements was terminated before convergence was reached.
Some symmetry elements may remain unidentified.
Molecule has no symmetry elements
It seems to be the C1 point group
c1  symmetry found (for desy threshold:  0.10E+00) used in thermo

          ...................................................
          :                      SETUP                      :
          :.................................................:
          :  # frequencies                         330      :
          :  # imaginary freq.                       0      :
          :  linear?                             false      :
          :  only rotor calc.                    false      :
          :  symmetry                               c1      :
          :  rotational number                       1      :
          :  scaling factor                  1.0000000      :
          :  rotor cutoff                   50.0000000 cm⁻¹ :
          :  imag. cutoff                  -20.0000000 cm⁻¹ :
          :.................................................:

    mode    ω/cm⁻¹     T·S(HO)/kcal·mol⁻¹    T·S(FR)/kcal·mol⁻¹   T·S(vib)
   ------------------------------------------------------------------------
       1      5.54    -2.73839 (  0.02%)    -1.70828 ( 99.98%)    -1.70844
       2      7.49    -2.55979 (  0.05%)    -1.61898 ( 99.95%)    -1.61945
       3      7.73    -2.54115 (  0.06%)    -1.60966 ( 99.94%)    -1.61019
       4     13.61    -2.20588 (  0.55%)    -1.44200 ( 99.45%)    -1.44617
       5     15.24    -2.13902 (  0.86%)    -1.40855 ( 99.14%)    -1.41480
       6     17.13    -2.06963 (  1.36%)    -1.37384 ( 98.64%)    -1.38330
       7     20.86    -1.95301 (  2.94%)    -1.31549 ( 97.06%)    -1.33424
       8     33.55    -1.67191 ( 16.85%)    -1.17475 ( 83.15%)    -1.25854
       9     34.65    -1.65289 ( 18.74%)    -1.16521 ( 81.26%)    -1.25658
      10     43.78    -1.51469 ( 37.02%)    -1.09591 ( 62.98%)    -1.25093
      11     44.28    -1.50804 ( 38.07%)    -1.09257 ( 61.93%)    -1.25076
      12     47.66    -1.46451 ( 45.23%)    -1.07072 ( 54.77%)    -1.24884
      13     51.08    -1.42368 ( 52.14%)    -1.05021 ( 47.86%)    -1.24493
      14     57.35    -1.35554 ( 63.37%)    -1.01594 ( 36.63%)    -1.23116
      15     60.81    -1.32104 ( 68.63%)    -0.99858 ( 31.37%)    -1.21988
      16     65.47    -1.27765 ( 74.61%)    -0.97671 ( 25.39%)    -1.20124
      17     68.98    -1.24693 ( 78.37%)    -0.96122 ( 21.63%)    -1.18513
      18     71.58    -1.22524 ( 80.77%)    -0.95027 ( 19.23%)    -1.17236
      19     75.34    -1.19524 ( 83.75%)    -0.93511 ( 16.25%)    -1.15297
      20     78.18    -1.17354 ( 85.67%)    -0.92413 ( 14.33%)    -1.13779
      21     87.06    -1.11061 ( 90.19%)    -0.89225 (  9.81%)    -1.08919
      22     96.22    -1.05230 ( 93.20%)    -0.86262 (  6.80%)    -1.03941
      23    106.24    -0.99479 ( 95.32%)    -0.83329 (  4.68%)    -0.98724
      24    107.25    -0.98927 ( 95.49%)    -0.83046 (  4.51%)    -0.98210
      25    114.61    -0.95089 ( 96.50%)    -0.81082 (  3.50%)    -0.94599
      26    119.31    -0.92771 ( 97.01%)    -0.79891 (  2.99%)    -0.92385
      27    147.54    -0.80613 ( 98.70%)    -0.73600 (  1.30%)    -0.80521
      28    158.54    -0.76539 ( 99.02%)    -0.71469 (  0.98%)    -0.76490
      29    163.13    -0.74932 ( 99.13%)    -0.70624 (  0.87%)    -0.74894
      30    178.84    -0.69783 ( 99.39%)    -0.67901 (  0.61%)    -0.69772
      31    182.87    -0.68542 ( 99.44%)    -0.67240 (  0.56%)    -0.68535
      32    185.86    -0.67641 ( 99.48%)    -0.66759 (  0.52%)    -0.67636
      33    197.22    -0.64366 ( 99.59%)    -0.65001 (  0.41%)    -0.64369
      34    205.19    -0.62195 ( 99.65%)    -0.63828 (  0.35%)    -0.62201
      35    210.40    -0.60828 ( 99.68%)    -0.63085 (  0.32%)    -0.60835
      36    225.90    -0.56984 ( 99.76%)    -0.60979 (  0.24%)    -0.56994
      37    231.01    -0.55786 ( 99.78%)    -0.60317 (  0.22%)    -0.55796
      38    232.01    -0.55556 ( 99.78%)    -0.60189 (  0.22%)    -0.55566
      39    235.88    -0.54673 ( 99.80%)    -0.59699 (  0.20%)    -0.54683
      40    241.04    -0.53523 ( 99.82%)    -0.59058 (  0.18%)    -0.53533
      41    273.07    -0.47010 ( 99.89%)    -0.55362 (  0.11%)    -0.47019
      42    288.47    -0.44213 ( 99.91%)    -0.53736 (  0.09%)    -0.44221
   ------------------------------------------------------------------------

   temp. (K)  partition function   enthalpy   heat capacity  entropy
                                   cal/mol     cal/K/mol   cal/K/mol   J/K/mol
 298.15  VIB  0.351E+27            31951.805    201.392    201.912
         ROT  0.321E+09              888.752      2.981     41.906
         INT  0.113E+36            32840.558    204.373    243.818
         TR   0.246E+29             1481.254      4.968     46.129
         TOT                       34321.8115   209.3415   289.9466  1213.1366

       T/K    H(0)-H(T)+PV         H(T)/Eh          T*S/Eh         G(T)/Eh
   ------------------------------------------------------------------------
    298.15    0.546953E-01    0.923214E+00    0.137763E+00    0.785451E+00
   ------------------------------------------------------------------------

         :::::::::::::::::::::::::::::::::::::::::::::::::::::
         ::                  THERMODYNAMIC                  ::
         :::::::::::::::::::::::::::::::::::::::::::::::::::::
         :: total free energy        -168.949688255575 Eh   ::
         ::.................................................::
         :: total energy             -169.735139163069 Eh   ::
         :: zero point energy           0.868518604042 Eh   ::
         :: G(RRHO) w/o ZPVE           -0.083067696548 Eh   ::
         :: G(RRHO) contrib.            0.785450907494 Eh   ::
         :::::::::::::::::::::::::::::::::::::::::::::::::::::

optimized geometry written to: xtbopt.xyz


           -------------------------------------------------
          | TOTAL ENERGY             -169.735139163069 Eh   |
          | TOTAL ENTHALPY           -168.811925270823 Eh   |
          | TOTAL FREE ENERGY        -168.949688255575 Eh   |
          | GRADIENT NORM               0.000037944611 Eh/α |
          | HOMO-LUMO GAP               1.870710400064 eV   |
           -------------------------------------------------

------------------------------------------------------------------------
 * finished run on 2025/09/03 at 21:14:38.241     
------------------------------------------------------------------------
 total:
 * wall-time:     0 d,  0 h,  0 min, 14.743 sec
 *  cpu-time:     0 d,  0 h,  8 min, 54.416 sec
 * ratio c/w:    36.249 speedup
 SCF:
 * wall-time:     0 d,  0 h,  0 min,  0.256 sec
 *  cpu-time:     0 d,  0 h,  0 min,  9.956 sec
 * ratio c/w:    38.915 speedup
 ANC optimizer:
 * wall-time:     0 d,  0 h,  0 min,  5.094 sec
 *  cpu-time:     0 d,  0 h,  3 min, 23.719 sec
 * ratio c/w:    39.994 speedup
 analytical hessian:
 * wall-time:     0 d,  0 h,  0 min,  9.100 sec
 *  cpu-time:     0 d,  0 h,  5 min, 11.337 sec
 * ratio c/w:    34.211 speedup

