 Entering Gaussian System
 *********************************************
 Gaussian 98:
 frequency output generated by the xtb code
 *********************************************
                         Standard orientation:
 --------------------------------------------------------------------
  Center     Atomic     Atomic              Coordinates (Angstroms)
  Number     Number      Type              X           Y           Z
 --------------------------------------------------------------------
    1          6             0      -12.910740    2.769568    1.020626
    2          6             0      -11.651276    2.738836    1.598060
    3          6             0      -10.786482    1.693886    1.335978
    4          6             0      -11.170785    0.662002    0.478790
    5          7             0      -10.298665   -0.399781    0.209532
    6          6             0      -10.804410   -1.699067    0.070949
    7          6             0      -10.275883   -2.562249   -0.889290
    8          6             0      -10.773666   -3.844274   -1.020801
    9          6             0      -11.806235   -4.282819   -0.207010
   10          6             0      -12.337765   -3.427367    0.745093
   11          6             0      -11.842280   -2.145680    0.889087
   12          6             0       -8.928953   -0.170112    0.088269
   13          6             0       -8.004467   -1.112222    0.549871
   14          6             0       -6.652818   -0.884599    0.427322
   15          6             0       -6.162927    0.296622   -0.143022
   16          6             0       -4.727107    0.537110   -0.250856
   17          6             0       -3.902656   -0.393006   -0.943015
   18          6             0       -4.455141   -1.485536   -1.637287
   19          6             0       -3.672330   -2.345337   -2.378030
   20          6             0       -2.306925   -2.114500   -2.488371
   21          6             0       -1.739690   -1.033908   -1.844741
   22          6             0       -2.497341   -0.173033   -1.035113
   23          6             0       -1.908809    0.977587   -0.420644
   24          6             0       -0.488260    1.218411   -0.520519
   25          6             0       -0.037059    2.423501   -1.089862
   26          6             0        1.289181    2.655202   -1.330220
   27          6             0        2.272093    1.713278   -0.955079
   28          6             0        3.640921    1.910316   -1.220803
   29          6             0        4.581545    1.006113   -0.813287
   30          6             0        4.221182   -0.150410   -0.081134
   31          6             0        5.180192   -1.082483    0.390834
   32          6             0        6.619580   -0.837474    0.295142
   33          6             0        7.480147   -1.829428   -0.181733
   34          6             0        8.840331   -1.622467   -0.250478
   35          6             0        9.396700   -0.415870    0.180910
   36          7             0       10.775331   -0.204092    0.120765
   37          6             0       11.277220    1.068693   -0.178899
   38          6             0       10.638811    1.876976   -1.120100
   39          6             0       11.134668    3.133601   -1.409355
   40          6             0       12.274516    3.601546   -0.775133
   41          6             0       12.915817    2.800504    0.156324
   42          6             0       12.423124    1.545517    0.458302
   43          6             0       11.659714   -1.262796    0.363228
   44          6             0       12.838465   -1.382043   -0.373508
   45          6             0       13.709699   -2.425871   -0.128118
   46          6             0       13.419487   -3.369020    0.844891
   47          6             0       12.248787   -3.256505    1.577892
   48          6             0       11.375126   -2.211792    1.345625
   49          6             0        8.544634    0.572595    0.680073
   50          6             0        7.183817    0.365577    0.728917
   51          6             0        4.744035   -2.262152    0.997512
   52          6             0        3.410614   -2.510383    1.216457
   53          6             0        2.432870   -1.581709    0.815905
   54          6             0        1.058963   -1.778664    1.077226
   55          6             0        0.121890   -0.880542    0.655012
   56          6             0        0.484525    0.269411   -0.081403
   57          6             0        1.862639    0.524360   -0.299416
   58          6             0        2.840710   -0.403113    0.142673
   59          6             0       -2.746660    1.922786    0.248761
   60          6             0       -2.202137    3.013886    0.944969
   61          6             0       -2.996641    3.903247    1.641654
   62          6             0       -4.367471    3.695244    1.711707
   63          6             0       -4.927216    2.597068    1.092419
   64          6             0       -4.153107    1.698885    0.334894
   65          6             0       -7.095955    1.234749   -0.600492
   66          6             0       -8.449323    1.005847   -0.496669
   67          6             0      -12.438475    0.699675   -0.102963
   68          6             0      -13.298853    1.745086    0.171760
   69          1             0      -13.584905    3.586153    1.230677
   70          1             0      -11.342667    3.529887    2.265848
   71          1             0       -9.810674    1.665324    1.798510
   72          1             0       -9.478910   -2.217207   -1.531914
   73          1             0      -10.358124   -4.502227   -1.770057
   74          1             0      -12.194138   -5.284609   -0.314191
   75          1             0      -13.139305   -3.762993    1.386785
   76          1             0      -12.250814   -1.483506    1.638507
   77          1             0       -8.359869   -2.017538    1.020205
   78          1             0       -5.952651   -1.610086    0.815709
   79          1             0       -5.522714   -1.640488   -1.605993
   80          1             0       -4.126052   -3.181390   -2.890450
   81          1             0       -1.690265   -2.764902   -3.091537
   82          1             0       -0.685251   -0.841810   -1.972829
   83          1             0       -0.775133    3.141378   -1.420561
   84          1             0        1.601108    3.559038   -1.834504
   85          1             0        3.939366    2.797518   -1.762330
   86          1             0        5.620363    1.166048   -1.059661
   87          1             0        7.066308   -2.762446   -0.536042
   88          1             0        9.485474   -2.392553   -0.647925
   89          1             0        9.756816    1.509582   -1.624217
   90          1             0       10.631737    3.748126   -2.141895
   91          1             0       12.660479    4.583188   -1.005340
   92          1             0       13.802379    3.158938    0.658920
   93          1             0       12.919298    0.927302    1.192300
   94          1             0       13.062068   -0.654136   -1.139815
   95          1             0       14.617712   -2.508181   -0.707597
   96          1             0       14.101270   -4.185095    1.031378
   97          1             0       12.017181   -3.982984    2.343210
   98          1             0       10.468526   -2.119857    1.925874
   99          1             0        8.963196    1.500801    1.041332
  100          1             0        6.544675    1.129454    1.147629
  101          1             0        5.483520   -2.971877    1.341988
  102          1             0        3.098495   -3.415691    1.717400
  103          1             0        0.758937   -2.659524    1.627568
  104          1             0       -0.921733   -1.045220    0.879518
  105          1             0       -1.131827    3.153263    0.950912
  106          1             0       -2.545262    4.742191    2.151158
  107          1             0       -4.993141    4.374157    2.273100
  108          1             0       -5.983874    2.410701    1.207554
  109          1             0       -6.743218    2.136025   -1.080800
  110          1             0       -9.151425    1.731668   -0.880617
  111          1             0      -12.739653   -0.092391   -0.772893
  112          1             0      -14.276678    1.763646   -0.286946
 --------------------------------------------------------------------
     1 basis functions        1 primitive gaussians
     1 alpha electrons        1 beta electrons
 
 Harmonic frequencies (cm**-1), IR intensities (km*mol⁻¹),
 Raman scattering activities (A**4/amu), Raman depolarization ratios,
 reduced masses (AMU), force constants (mDyne/A) and normal coordinates:
                      1                      2                      3
                        a                      a                      a 
 Frequencies --     6.0788                 6.8636                12.7503
 Red. masses --    11.2681                11.2652                10.8765
 Frc consts  --     0.0000                 0.0000                 0.0000
 IR Inten    --     1.5772                 0.5979                 0.5059
 Raman Activ --     0.0000                 0.0000                 0.0000
 Depolar     --     0.0000                 0.0000                 0.0000
 Atom AN      X      Y      Z        X      Y      Z        X      Y      Z
   1   6    -0.05   0.00  -0.21     0.07   0.16  -0.04     0.06  -0.03   0.29
   2   6    -0.07   0.01  -0.16     0.06   0.12  -0.03     0.08  -0.08   0.25
   3   6    -0.06   0.01  -0.12     0.03   0.09  -0.02     0.06  -0.07   0.15
   4   6    -0.03   0.00  -0.12     0.00   0.11  -0.02     0.02  -0.01   0.09
   5   7    -0.01   0.00  -0.09    -0.04   0.08  -0.02     0.00  -0.00  -0.01
   6   6    -0.01  -0.00  -0.09    -0.07   0.09  -0.02    -0.01   0.01  -0.10
   7   6     0.02  -0.00  -0.07    -0.09   0.08  -0.02    -0.01   0.08  -0.16
   8   6     0.03  -0.01  -0.08    -0.14   0.09  -0.02    -0.02   0.09  -0.25
   9   6     0.00  -0.00  -0.10    -0.16   0.13  -0.03    -0.03   0.04  -0.29
  10   6    -0.02   0.00  -0.12    -0.14   0.15  -0.04    -0.02  -0.03  -0.23
  11   6    -0.03   0.00  -0.11    -0.10   0.13  -0.03    -0.01  -0.04  -0.13
  12   6    -0.01   0.00  -0.04    -0.02   0.03  -0.01     0.00  -0.00  -0.01
  13   6    -0.02   0.00  -0.00    -0.06   0.00  -0.00     0.00  -0.03  -0.06
  14   6    -0.02  -0.00   0.04    -0.05  -0.04   0.01     0.00  -0.02  -0.06
  15   6    -0.00  -0.00   0.04    -0.01  -0.05   0.02     0.00  -0.01  -0.02
  16   6     0.00  -0.01   0.07    -0.00  -0.08   0.04     0.00  -0.01  -0.02
  17   6     0.01  -0.01   0.09    -0.01  -0.09   0.04     0.00  -0.01  -0.02
  18   6     0.03  -0.02   0.09    -0.03  -0.09   0.04     0.00  -0.00  -0.03
  19   6     0.04  -0.03   0.11    -0.04  -0.10   0.04     0.01  -0.01  -0.02
  20   6     0.04  -0.02   0.13    -0.04  -0.11   0.04     0.01  -0.02   0.00
  21   6     0.03  -0.02   0.13    -0.02  -0.12   0.03     0.01  -0.02   0.00
  22   6     0.02  -0.01   0.11    -0.01  -0.11   0.04     0.00  -0.01  -0.01
  23   6     0.00  -0.00   0.11     0.00  -0.12   0.03     0.00  -0.01  -0.02
  24   6     0.00   0.01   0.12     0.00  -0.12   0.02     0.00  -0.01  -0.02
  25   6    -0.00   0.01   0.11    -0.01  -0.11   0.02     0.00  -0.02  -0.05
  26   6    -0.01   0.01   0.11    -0.02  -0.10   0.00     0.01  -0.03  -0.05
  27   6    -0.00   0.02   0.11    -0.00  -0.09  -0.01     0.00  -0.02  -0.02
  28   6    -0.00   0.02   0.10    -0.01  -0.08  -0.02     0.01  -0.03  -0.02
  29   6     0.00   0.02   0.10     0.00  -0.07  -0.03     0.00  -0.02   0.01
  30   6     0.01   0.02   0.11     0.02  -0.07  -0.03    -0.00   0.00   0.05
  31   6     0.01   0.03   0.10     0.03  -0.06  -0.03    -0.01   0.02   0.08
  32   6     0.01   0.02   0.07     0.03  -0.03  -0.02    -0.00   0.01   0.07
  33   6    -0.01   0.01   0.05     0.06  -0.01  -0.02    -0.01  -0.01   0.10
  34   6    -0.01  -0.00   0.01     0.05   0.02  -0.01    -0.01  -0.01   0.08
  35   6     0.01  -0.00  -0.02     0.02   0.03  -0.01    -0.01   0.00   0.02
  36   7     0.01  -0.01  -0.08     0.02   0.08  -0.00    -0.01   0.00  -0.01
  37   6     0.00  -0.02  -0.10    -0.02   0.09   0.00    -0.02  -0.01  -0.08
  38   6    -0.03  -0.01  -0.08    -0.03   0.07  -0.01    -0.04  -0.06  -0.10
  39   6    -0.04  -0.02  -0.10    -0.07   0.08  -0.00    -0.05  -0.07  -0.17
  40   6    -0.00  -0.03  -0.16    -0.09   0.11   0.01    -0.04  -0.04  -0.22
  41   6     0.03  -0.03  -0.18    -0.07   0.13   0.01    -0.01   0.01  -0.20
  42   6     0.04  -0.02  -0.15    -0.04   0.12   0.01    -0.00   0.02  -0.13
  43   6     0.01  -0.02  -0.11     0.04   0.10   0.00    -0.00   0.01   0.04
  44   6    -0.02  -0.03  -0.16     0.05   0.13   0.01    -0.01  -0.03   0.03
  45   6    -0.02  -0.03  -0.20     0.08   0.16   0.02    -0.01  -0.01   0.08
  46   6     0.02  -0.03  -0.18     0.10   0.15   0.02     0.00   0.04   0.13
  47   6     0.05  -0.01  -0.12     0.09   0.11   0.00     0.01   0.08   0.14
  48   6     0.05  -0.01  -0.09     0.06   0.09  -0.00     0.01   0.06   0.09
  49   6     0.03   0.00   0.00    -0.01   0.01  -0.01     0.00   0.02   0.00
  50   6     0.03   0.01   0.05    -0.00  -0.02  -0.02     0.00   0.02   0.02
  51   6     0.02   0.03   0.12     0.05  -0.07  -0.04    -0.01   0.04   0.12
  52   6     0.02   0.04   0.14     0.06  -0.09  -0.04    -0.01   0.05   0.12
  53   6     0.01   0.03   0.14     0.04  -0.10  -0.03    -0.01   0.03   0.08
  54   6     0.02   0.03   0.15     0.05  -0.12  -0.02    -0.01   0.04   0.07
  55   6     0.01   0.03   0.14     0.03  -0.12  -0.01    -0.01   0.02   0.04
  56   6     0.01   0.02   0.13     0.02  -0.11  -0.00    -0.00   0.00   0.01
  57   6     0.00   0.02   0.12     0.01  -0.10  -0.01    -0.00  -0.00   0.01
  58   6     0.01   0.03   0.12     0.02  -0.09  -0.02    -0.00   0.01   0.05
  59   6    -0.01  -0.00   0.10     0.02  -0.11   0.05     0.00  -0.00  -0.03
  60   6    -0.02   0.00   0.10     0.03  -0.13   0.05     0.00   0.00  -0.04
  61   6    -0.03   0.00   0.08     0.05  -0.12   0.06     0.01   0.00  -0.04
  62   6    -0.03   0.00   0.07     0.04  -0.11   0.06     0.01  -0.01  -0.02
  63   6    -0.02  -0.00   0.06     0.03  -0.09   0.06     0.01  -0.01  -0.01
  64   6    -0.01  -0.00   0.08     0.02  -0.10   0.05     0.00  -0.01  -0.02
  65   6     0.01  -0.00   0.01     0.02  -0.02   0.02     0.00   0.01   0.02
  66   6     0.01  -0.00  -0.02     0.02   0.02   0.00     0.00   0.02   0.03
  67   6    -0.01  -0.01  -0.17     0.01   0.15  -0.04     0.00   0.04   0.13
  68   6    -0.02  -0.01  -0.21     0.04   0.18  -0.04     0.03   0.04   0.23
  69   1    -0.02   0.00  -0.07     0.03   0.05  -0.01     0.02  -0.01   0.11
  70   1    -0.03   0.01  -0.05     0.02   0.03  -0.01     0.03  -0.04   0.08
  71   1    -0.02   0.01  -0.03     0.01   0.02  -0.00     0.02  -0.03   0.03
  72   1     0.01  -0.00  -0.01    -0.02   0.01  -0.00    -0.00   0.03  -0.04
  73   1     0.01  -0.00  -0.02    -0.04   0.02  -0.01    -0.01   0.04  -0.09
  74   1     0.00  -0.00  -0.03    -0.06   0.04  -0.01    -0.01   0.01  -0.11
  75   1    -0.01   0.00  -0.04    -0.05   0.05  -0.01    -0.01  -0.02  -0.07
  76   1    -0.01   0.00  -0.04    -0.02   0.04  -0.01    -0.00  -0.03  -0.02
  77   1    -0.01   0.00  -0.00    -0.03   0.00  -0.00     0.00  -0.01  -0.03
  78   1    -0.01   0.00   0.02    -0.02  -0.02   0.01     0.00  -0.01  -0.02
  79   1     0.01  -0.01   0.02    -0.01  -0.02   0.01     0.00   0.00  -0.01
  80   1     0.01  -0.01   0.03    -0.01  -0.03   0.01     0.00  -0.00  -0.01
  81   1     0.02  -0.01   0.04    -0.01  -0.04   0.01     0.00  -0.01   0.00
  82   1     0.01  -0.00   0.04    -0.01  -0.04   0.01     0.00  -0.01   0.00
  83   1    -0.00   0.00   0.03    -0.01  -0.03   0.01     0.00  -0.01  -0.02
  84   1    -0.00   0.00   0.03    -0.01  -0.03   0.00     0.00  -0.01  -0.02
  85   1    -0.00   0.00   0.03    -0.01  -0.02  -0.01     0.00  -0.01  -0.01
  86   1    -0.00   0.01   0.03     0.00  -0.02  -0.01     0.00  -0.01   0.00
  87   1    -0.01   0.00   0.02     0.02  -0.01  -0.01    -0.00  -0.01   0.04
  88   1    -0.01  -0.00  -0.00     0.02   0.01  -0.00    -0.00  -0.01   0.03
  89   1    -0.02  -0.00  -0.01    -0.01   0.01  -0.00    -0.01  -0.02  -0.02
  90   1    -0.02  -0.01  -0.02    -0.02   0.02  -0.00    -0.02  -0.03  -0.05
  91   1    -0.00  -0.01  -0.05    -0.03   0.04   0.00    -0.01  -0.01  -0.08
  92   1     0.02  -0.01  -0.06    -0.03   0.05   0.01    -0.00   0.01  -0.07
  93   1     0.02  -0.01  -0.05    -0.01   0.04   0.00     0.01   0.02  -0.03
  94   1    -0.02  -0.01  -0.05     0.01   0.04   0.00    -0.01  -0.02  -0.00
  95   1    -0.01  -0.01  -0.07     0.03   0.05   0.01    -0.00  -0.01   0.02
  96   1     0.01  -0.01  -0.06     0.04   0.05   0.01     0.00   0.01   0.05
  97   1     0.02  -0.00  -0.03     0.03   0.03   0.00     0.01   0.03   0.05
  98   1     0.02   0.00  -0.01     0.02   0.02  -0.00     0.00   0.03   0.03
  99   1     0.01   0.00  -0.00    -0.01   0.01  -0.00     0.00   0.01  -0.01
 100   1     0.01   0.01   0.02    -0.01  -0.01  -0.01     0.00   0.01   0.00
 101   1     0.01   0.01   0.03     0.02  -0.02  -0.01    -0.00   0.02   0.04
 102   1     0.01   0.01   0.04     0.02  -0.03  -0.01    -0.00   0.02   0.04
 103   1     0.01   0.01   0.05     0.02  -0.04  -0.01    -0.00   0.02   0.03
 104   1     0.00   0.01   0.04     0.01  -0.04  -0.00    -0.00   0.01   0.01
 105   1    -0.01   0.00   0.03     0.01  -0.04   0.01     0.00   0.00  -0.02
 106   1    -0.01   0.00   0.02     0.02  -0.04   0.02     0.00   0.00  -0.01
 107   1    -0.01   0.00   0.02     0.02  -0.03   0.02     0.00  -0.00  -0.00
 108   1    -0.01  -0.00   0.01     0.01  -0.02   0.02     0.00  -0.01   0.00
 109   1     0.01  -0.00   0.01     0.02  -0.01   0.01    -0.00   0.01   0.01
 110   1     0.01  -0.00  -0.01     0.01   0.01  -0.00    -0.00   0.01   0.02
 111   1     0.01  -0.01  -0.05    -0.00   0.05  -0.01    -0.01   0.03   0.03
 112   1    -0.00  -0.01  -0.07     0.01   0.06  -0.02     0.00   0.02   0.08
                      4                      5                      6
                        a                      a                      a 
 Frequencies --    13.6190                16.9070                19.9479
 Red. masses --    11.0290                11.0698                10.9255
 Frc consts  --     0.0000                 0.0000                 0.0000
 IR Inten    --    10.7904                 0.0255                26.0499
 Raman Activ --     0.0000                 0.0000                 0.0000
 Depolar     --     0.0000                 0.0000                 0.0000
 Atom AN      X      Y      Z        X      Y      Z        X      Y      Z
   1   6    -0.09  -0.04  -0.10     0.09   0.06   0.05    -0.12  -0.05   0.01
   2   6    -0.11  -0.02  -0.06     0.10   0.01   0.04    -0.13  -0.03   0.04
   3   6    -0.08  -0.01  -0.03     0.05  -0.02   0.02    -0.09   0.00   0.04
   4   6    -0.04  -0.01  -0.03     0.01   0.01   0.01    -0.05  -0.00   0.03
   5   7    -0.01  -0.00  -0.00    -0.04  -0.02  -0.01    -0.02   0.03   0.04
   6   6     0.01  -0.01  -0.02    -0.08  -0.00  -0.01     0.02   0.02  -0.04
   7   6     0.04   0.01  -0.02    -0.11  -0.02  -0.01     0.09   0.07  -0.05
   8   6     0.06   0.00  -0.04    -0.15  -0.01  -0.00     0.13   0.06  -0.13
   9   6     0.04  -0.02  -0.07    -0.17   0.03  -0.00     0.10   0.00  -0.19
  10   6     0.01  -0.03  -0.07    -0.14   0.05  -0.00     0.04  -0.05  -0.18
  11   6    -0.01  -0.03  -0.05    -0.09   0.03  -0.00     0.00  -0.05  -0.10
  12   6    -0.01   0.01   0.04    -0.03  -0.06  -0.03    -0.01   0.05   0.09
  13   6    -0.02   0.01   0.05    -0.04  -0.07  -0.04    -0.02   0.06   0.12
  14   6    -0.01   0.01   0.08    -0.04  -0.09  -0.04    -0.02   0.06   0.14
  15   6    -0.01   0.02   0.10    -0.02  -0.09  -0.03    -0.01   0.05   0.11
  16   6    -0.00   0.01   0.10    -0.02  -0.09  -0.01    -0.01   0.02   0.08
  17   6    -0.01   0.02   0.08    -0.00  -0.08   0.01    -0.04  -0.02   0.10
  18   6    -0.02   0.03   0.07     0.02  -0.10   0.02    -0.07  -0.04   0.16
  19   6    -0.03   0.05   0.04     0.04  -0.10   0.04    -0.10  -0.09   0.19
  20   6    -0.03   0.05   0.02     0.04  -0.08   0.05    -0.10  -0.13   0.16
  21   6    -0.02   0.04   0.03     0.02  -0.07   0.04    -0.07  -0.10   0.09
  22   6    -0.01   0.03   0.06    -0.00  -0.06   0.02    -0.04  -0.05   0.06
  23   6    -0.01   0.02   0.07    -0.03  -0.04   0.00    -0.01  -0.03  -0.01
  24   6    -0.01   0.02   0.05    -0.03  -0.01  -0.00    -0.01  -0.04  -0.06
  25   6    -0.02   0.04   0.08    -0.06  -0.01  -0.02    -0.02  -0.08  -0.14
  26   6    -0.03   0.04   0.05    -0.07   0.03  -0.02    -0.02  -0.09  -0.17
  27   6    -0.02   0.03  -0.01    -0.05   0.06  -0.01    -0.01  -0.07  -0.13
  28   6    -0.03   0.03  -0.04    -0.05   0.09  -0.02    -0.01  -0.07  -0.15
  29   6    -0.02   0.02  -0.09    -0.03   0.12  -0.02    -0.01  -0.05  -0.11
  30   6     0.00   0.01  -0.10     0.00   0.11  -0.01    -0.00  -0.02  -0.06
  31   6     0.02   0.00  -0.14     0.03   0.13  -0.02     0.00   0.01  -0.03
  32   6     0.01   0.01  -0.14     0.03   0.13  -0.05     0.00   0.01  -0.04
  33   6     0.02   0.00  -0.12     0.01   0.12  -0.06     0.01   0.01  -0.02
  34   6     0.02   0.00  -0.09     0.01   0.09  -0.06     0.01   0.01  -0.02
  35   6     0.02   0.00  -0.09     0.04   0.08  -0.05     0.00   0.02  -0.02
  36   7     0.02  -0.01  -0.05     0.05   0.03  -0.02     0.00   0.01   0.00
  37   6     0.04  -0.03  -0.07     0.11   0.00   0.02     0.02   0.02   0.06
  38   6     0.08  -0.06  -0.13     0.17   0.06   0.02     0.06   0.06   0.07
  39   6     0.10  -0.07  -0.16     0.25   0.04   0.05     0.08   0.06   0.12
  40   6     0.07  -0.05  -0.13     0.27  -0.04   0.08     0.07   0.03   0.18
  41   6     0.03  -0.02  -0.07     0.21  -0.10   0.07     0.03  -0.01   0.17
  42   6     0.02  -0.00  -0.04     0.13  -0.07   0.04     0.01  -0.02   0.11
  43   6    -0.00  -0.00   0.07    -0.01  -0.02  -0.01     0.00  -0.00  -0.03
  44   6     0.05  -0.05   0.16    -0.01  -0.08  -0.00    -0.00   0.02  -0.03
  45   6     0.03  -0.04   0.28    -0.07  -0.13  -0.00    -0.00   0.01  -0.07
  46   6    -0.05   0.01   0.31    -0.13  -0.12  -0.00    -0.00  -0.02  -0.10
  47   6    -0.10   0.05   0.21    -0.12  -0.05  -0.01    -0.00  -0.04  -0.09
  48   6    -0.08   0.05   0.10    -0.06  -0.01  -0.01     0.00  -0.03  -0.05
  49   6     0.01   0.01  -0.13     0.05   0.10  -0.06    -0.00   0.02  -0.04
  50   6     0.01   0.02  -0.15     0.05   0.12  -0.06    -0.00   0.02  -0.05
  51   6     0.03  -0.02  -0.16     0.06   0.13   0.01     0.01   0.03   0.02
  52   6     0.04  -0.02  -0.14     0.06   0.11   0.03     0.02   0.04   0.05
  53   6     0.02  -0.01  -0.09     0.04   0.09   0.03     0.01   0.02   0.02
  54   6     0.03  -0.02  -0.06     0.05   0.06   0.04     0.01   0.03   0.05
  55   6     0.02  -0.01  -0.01     0.02   0.03   0.03     0.01   0.01   0.03
  56   6     0.00   0.01   0.01    -0.01   0.02   0.01    -0.00  -0.02  -0.03
  57   6    -0.00   0.01  -0.03    -0.01   0.06   0.00    -0.00  -0.03  -0.07
  58   6     0.01   0.00  -0.08     0.01   0.08   0.01     0.00  -0.01  -0.04
  59   6     0.00   0.00   0.10    -0.05  -0.06  -0.00     0.02   0.02  -0.03
  60   6     0.01  -0.01   0.12    -0.07  -0.04  -0.01     0.06   0.04  -0.10
  61   6     0.01  -0.03   0.15    -0.08  -0.06  -0.01     0.09   0.09  -0.12
  62   6     0.01  -0.03   0.15    -0.08  -0.08  -0.01     0.09   0.11  -0.07
  63   6     0.01  -0.01   0.14    -0.06  -0.09  -0.01     0.06   0.09  -0.00
  64   6     0.00   0.00   0.11    -0.04  -0.08  -0.01     0.02   0.04   0.02
  65   6     0.00   0.02   0.09    -0.01  -0.08  -0.04    -0.01   0.05   0.10
  66   6    -0.00   0.02   0.07    -0.01  -0.06  -0.04    -0.01   0.05   0.09
  67   6    -0.02  -0.04  -0.08     0.00   0.06   0.02    -0.04  -0.03   0.00
  68   6    -0.04  -0.05  -0.11     0.04   0.09   0.05    -0.07  -0.06  -0.01
  69   1    -0.03  -0.01  -0.04     0.04   0.03   0.02    -0.04  -0.02   0.00
  70   1    -0.04  -0.00  -0.02     0.04  -0.00   0.01    -0.05  -0.01   0.01
  71   1    -0.03   0.00   0.00     0.02  -0.02   0.00    -0.03   0.01   0.02
  72   1     0.02   0.01   0.00    -0.03  -0.02  -0.00     0.03   0.04  -0.00
  73   1     0.02   0.00  -0.01    -0.05  -0.01  -0.00     0.05   0.03  -0.04
  74   1     0.02  -0.01  -0.02    -0.06   0.01   0.00     0.04  -0.00  -0.07
  75   1     0.00  -0.01  -0.03    -0.04   0.02   0.00     0.01  -0.03  -0.07
  76   1    -0.01  -0.01  -0.02    -0.02   0.01  -0.00    -0.01  -0.03  -0.03
  77   1    -0.01   0.00   0.01    -0.02  -0.02  -0.01    -0.01   0.02   0.04
  78   1    -0.01   0.00   0.02    -0.01  -0.03  -0.01    -0.01   0.02   0.05
  79   1    -0.01   0.01   0.02     0.01  -0.03   0.00    -0.02  -0.01   0.05
  80   1    -0.01   0.02   0.01     0.02  -0.03   0.01    -0.04  -0.03   0.07
  81   1    -0.01   0.02   0.00     0.02  -0.02   0.02    -0.03  -0.05   0.05
  82   1    -0.01   0.01   0.01     0.00  -0.02   0.01    -0.02  -0.04   0.02
  83   1    -0.01   0.01   0.03    -0.02  -0.01  -0.01    -0.01  -0.03  -0.05
  84   1    -0.01   0.02   0.02    -0.03   0.01  -0.01    -0.01  -0.03  -0.07
  85   1    -0.01   0.01  -0.01    -0.02   0.03  -0.01    -0.01  -0.03  -0.06
  86   1    -0.01   0.01  -0.04    -0.01   0.04  -0.01    -0.00  -0.02  -0.03
  87   1     0.01   0.00  -0.03    -0.00   0.04  -0.02     0.00   0.00  -0.00
  88   1     0.01  -0.00  -0.02    -0.00   0.02  -0.02     0.00   0.00  -0.00
  89   1     0.03  -0.02  -0.04     0.05   0.03   0.00     0.02   0.02   0.01
  90   1     0.04  -0.03  -0.06     0.08   0.02   0.02     0.03   0.03   0.04
  91   1     0.03  -0.02  -0.04     0.09  -0.02   0.03     0.02   0.01   0.06
  92   1     0.00   0.00  -0.01     0.06  -0.05   0.03     0.01  -0.01   0.06
  93   1    -0.00   0.01   0.00     0.03  -0.03   0.01    -0.01  -0.01   0.03
  94   1     0.03  -0.03   0.04     0.01  -0.03  -0.00    -0.00   0.01  -0.00
  95   1     0.02  -0.02   0.10    -0.02  -0.05   0.00    -0.00   0.01  -0.02
  96   1    -0.02   0.00   0.12    -0.05  -0.04  -0.00    -0.00  -0.01  -0.04
  97   1    -0.05   0.03   0.07    -0.05  -0.01  -0.00     0.00  -0.02  -0.03
  98   1    -0.04   0.02   0.01    -0.02   0.01  -0.01     0.00  -0.01  -0.01
  99   1     0.00   0.01  -0.04     0.02   0.03  -0.02    -0.00   0.01  -0.01
 100   1     0.00   0.01  -0.05     0.02   0.04  -0.02    -0.00   0.01  -0.02
 101   1     0.01  -0.01  -0.05     0.02   0.04   0.00     0.01   0.01   0.01
 102   1     0.01  -0.01  -0.05     0.03   0.03   0.02     0.01   0.02   0.03
 103   1     0.01  -0.01  -0.02     0.02   0.02   0.02     0.01   0.02   0.03
 104   1     0.01  -0.00   0.00     0.01   0.00   0.01     0.00   0.01   0.02
 105   1     0.00  -0.00   0.03    -0.02  -0.01  -0.00     0.02   0.01  -0.04
 106   1     0.01  -0.01   0.05    -0.03  -0.01  -0.00     0.03   0.03  -0.05
 107   1     0.01  -0.01   0.05    -0.03  -0.03  -0.00     0.03   0.04  -0.02
 108   1     0.00  -0.00   0.04    -0.02  -0.03  -0.00     0.02   0.03   0.01
 109   1     0.00   0.01   0.03     0.00  -0.03  -0.01    -0.00   0.01   0.03
 110   1     0.00   0.01   0.02    -0.00  -0.02  -0.01    -0.00   0.01   0.02
 111   1     0.01  -0.01  -0.02    -0.01   0.02   0.01    -0.00  -0.01  -0.00
 112   1    -0.01  -0.02  -0.04     0.01   0.04   0.02    -0.02  -0.02  -0.01
                      7                      8                      9
                        a                      a                      a 
 Frequencies --    29.2315                35.0287                38.3839
 Red. masses --    10.8317                10.7311                10.4427
 Frc consts  --     0.0000                 0.0000                 0.0000
 IR Inten    --    23.1865                 1.0791                 4.3436
 Raman Activ --     0.0000                 0.0000                 0.0000
 Depolar     --     0.0000                 0.0000                 0.0000
 Atom AN      X      Y      Z        X      Y      Z        X      Y      Z
   1   6     0.14   0.04   0.06    -0.16  -0.06   0.14     0.09   0.05   0.01
   2   6     0.15  -0.01   0.04    -0.08   0.05  -0.02     0.09   0.02   0.01
   3   6     0.10  -0.04   0.01    -0.04   0.10  -0.10     0.06  -0.01   0.02
   4   6     0.05  -0.02   0.00    -0.07   0.04  -0.02     0.03  -0.01   0.02
   5   7     0.02  -0.04  -0.03    -0.06   0.09  -0.09     0.01  -0.02   0.03
   6   6    -0.00  -0.03  -0.03    -0.01   0.06  -0.04     0.02  -0.02  -0.00
   7   6     0.01  -0.04  -0.01    -0.07   0.10  -0.11     0.09  -0.02   0.04
   8   6    -0.01  -0.04  -0.02     0.00   0.07  -0.07     0.10  -0.02   0.01
   9   6    -0.04  -0.01  -0.05     0.14  -0.01   0.06     0.04  -0.02  -0.06
  10   6    -0.06   0.00  -0.07     0.20  -0.05   0.13    -0.03  -0.02  -0.11
  11   6    -0.04  -0.01  -0.06     0.13  -0.02   0.08    -0.04  -0.02  -0.07
  12   6     0.02  -0.05  -0.04    -0.05   0.09  -0.11     0.01  -0.01   0.03
  13   6     0.02  -0.02   0.00    -0.06   0.09  -0.10     0.02   0.03   0.11
  14   6     0.02  -0.01   0.02    -0.06   0.08  -0.11     0.02   0.04   0.11
  15   6     0.01  -0.03  -0.02    -0.05   0.06  -0.13     0.00   0.00   0.02
  16   6     0.01   0.00   0.00    -0.04   0.04  -0.09     0.00   0.01   0.01
  17   6     0.05  -0.01   0.07    -0.03   0.00  -0.03     0.00  -0.02   0.05
  18   6     0.09  -0.06   0.11    -0.04   0.01  -0.05     0.01  -0.05   0.11
  19   6     0.13  -0.07   0.17    -0.03  -0.03   0.02     0.00  -0.07   0.12
  20   6     0.13  -0.04   0.18    -0.02  -0.09   0.09    -0.00  -0.04   0.08
  21   6     0.08   0.01   0.13    -0.01  -0.10   0.10    -0.01  -0.01   0.03
  22   6     0.05   0.02   0.09    -0.02  -0.06   0.05     0.00  -0.01   0.03
  23   6     0.01   0.06   0.06    -0.01  -0.07   0.06     0.00  -0.00   0.01
  24   6     0.00   0.08   0.09    -0.01  -0.07   0.09     0.00  -0.01   0.03
  25   6     0.01   0.07   0.08    -0.02  -0.05   0.12     0.01   0.02   0.08
  26   6     0.01   0.06   0.07    -0.03  -0.02   0.13     0.01   0.03   0.11
  27   6     0.00   0.04   0.05    -0.01  -0.01   0.10     0.01   0.02   0.09
  28   6    -0.00   0.01   0.00    -0.02   0.02   0.10     0.01   0.04   0.12
  29   6    -0.01  -0.02  -0.04    -0.00   0.02   0.06     0.01   0.02   0.07
  30   6    -0.01  -0.02  -0.04     0.02  -0.01   0.03     0.00  -0.03  -0.00
  31   6    -0.02  -0.05  -0.10     0.04  -0.01  -0.01     0.00  -0.05  -0.05
  32   6    -0.02  -0.06  -0.11     0.04   0.00  -0.03    -0.00  -0.02   0.00
  33   6    -0.02  -0.06  -0.13     0.04   0.01  -0.05     0.03   0.02  -0.03
  34   6    -0.02  -0.06  -0.12     0.04   0.02  -0.06     0.02   0.06  -0.01
  35   6    -0.02  -0.07  -0.09     0.04   0.01  -0.04    -0.02   0.05   0.05
  36   7    -0.02  -0.07  -0.07     0.04   0.01  -0.04    -0.02   0.08   0.06
  37   6    -0.05  -0.03  -0.02     0.05   0.01  -0.02    -0.01   0.06   0.02
  38   6    -0.01  -0.06  -0.07     0.06   0.02  -0.02    -0.11   0.12   0.14
  39   6    -0.06  -0.04  -0.02     0.07   0.01  -0.02    -0.09   0.11   0.10
  40   6    -0.14   0.02   0.09     0.07   0.00  -0.01     0.03   0.03  -0.06
  41   6    -0.18   0.05   0.14     0.05  -0.00   0.00     0.14  -0.04  -0.18
  42   6    -0.13   0.02   0.09     0.04   0.00  -0.01     0.12  -0.02  -0.14
  43   6    -0.00  -0.03  -0.03     0.03   0.01  -0.01    -0.04   0.05   0.04
  44   6     0.08   0.06   0.07     0.05   0.01   0.01    -0.12  -0.07  -0.06
  45   6     0.11   0.09   0.11     0.05   0.02   0.04    -0.17  -0.12  -0.08
  46   6     0.06   0.04   0.04     0.03   0.02   0.03    -0.15  -0.05   0.00
  47   6    -0.01  -0.06  -0.07     0.01   0.01   0.00    -0.08   0.08   0.10
  48   6    -0.04  -0.09  -0.10     0.01   0.01  -0.02    -0.02   0.12   0.12
  49   6    -0.02  -0.07  -0.08     0.04   0.00  -0.03    -0.04   0.01   0.10
  50   6    -0.02  -0.07  -0.09     0.04  -0.00  -0.02    -0.04  -0.03   0.08
  51   6    -0.03  -0.05  -0.11     0.06  -0.04  -0.04    -0.00  -0.11  -0.16
  52   6    -0.03  -0.02  -0.06     0.06  -0.06  -0.03    -0.01  -0.14  -0.21
  53   6    -0.01   0.02   0.01     0.05  -0.06   0.01    -0.00  -0.10  -0.13
  54   6    -0.01   0.07   0.08     0.05  -0.08   0.02    -0.00  -0.11  -0.15
  55   6    -0.00   0.09   0.12     0.03  -0.08   0.05     0.00  -0.07  -0.08
  56   6     0.00   0.07   0.09     0.01  -0.06   0.07     0.00  -0.03  -0.01
  57   6    -0.00   0.05   0.05     0.01  -0.04   0.07     0.00  -0.02   0.01
  58   6    -0.01   0.02   0.01     0.02  -0.03   0.04     0.00  -0.05  -0.04
  59   6    -0.03   0.07   0.00    -0.02  -0.04   0.02     0.00   0.02  -0.02
  60   6    -0.08   0.10  -0.02    -0.01  -0.06   0.06    -0.01   0.03  -0.03
  61   6    -0.12   0.12  -0.09    -0.02  -0.02  -0.01    -0.02   0.08  -0.10
  62   6    -0.12   0.10  -0.13    -0.04   0.06  -0.12    -0.03   0.11  -0.15
  63   6    -0.08   0.06  -0.10    -0.05   0.08  -0.15    -0.02   0.09  -0.12
  64   6    -0.03   0.04  -0.03    -0.03   0.03  -0.08    -0.00   0.04  -0.04
  65   6     0.01  -0.06  -0.09    -0.05   0.06  -0.15    -0.00  -0.04  -0.05
  66   6     0.01  -0.07  -0.09    -0.05   0.07  -0.14     0.00  -0.05  -0.05
  67   6     0.04   0.03   0.03    -0.15  -0.06   0.14     0.03   0.03   0.02
  68   6     0.08   0.06   0.06    -0.19  -0.12   0.23     0.06   0.06   0.02
  69   1     0.05   0.02   0.02    -0.06  -0.03   0.06     0.03   0.02   0.00
  70   1     0.06  -0.01   0.01    -0.01   0.03  -0.03     0.03   0.00   0.00
  71   1     0.03  -0.02  -0.00     0.01   0.05  -0.06     0.02  -0.01   0.00
  72   1     0.01  -0.02   0.00    -0.05   0.05  -0.06     0.04  -0.01   0.03
  73   1     0.00  -0.01  -0.00    -0.01   0.03  -0.04     0.04  -0.01   0.01
  74   1    -0.02  -0.00  -0.02     0.06  -0.01   0.03     0.01  -0.01  -0.03
  75   1    -0.02   0.01  -0.03     0.09  -0.03   0.07    -0.02  -0.00  -0.05
  76   1    -0.01   0.00  -0.02     0.05  -0.01   0.04    -0.03  -0.00  -0.03
  77   1     0.01  -0.00   0.01    -0.02   0.03  -0.02     0.01   0.02   0.05
  78   1     0.01   0.00   0.02    -0.02   0.02  -0.03     0.01   0.02   0.05
  79   1     0.03  -0.02   0.03    -0.01   0.02  -0.03     0.00  -0.02   0.04
  80   1     0.05  -0.03   0.06    -0.01  -0.01   0.00     0.00  -0.03   0.05
  81   1     0.05  -0.01   0.06    -0.00  -0.04   0.04    -0.00  -0.01   0.02
  82   1     0.02   0.01   0.04     0.00  -0.04   0.05    -0.00   0.00  -0.00
  83   1     0.00   0.02   0.02    -0.01  -0.02   0.04     0.00   0.01   0.03
  84   1     0.00   0.02   0.02    -0.01   0.00   0.04     0.00   0.02   0.05
  85   1     0.00   0.00   0.00    -0.01   0.01   0.03     0.00   0.02   0.05
  86   1    -0.00  -0.01  -0.02    -0.00   0.01   0.01     0.00   0.01   0.03
  87   1    -0.01  -0.01  -0.04     0.01   0.01  -0.02     0.02   0.01  -0.02
  88   1    -0.01  -0.02  -0.04     0.01   0.01  -0.02     0.01   0.03  -0.01
  89   1     0.01  -0.03  -0.04     0.02   0.01  -0.01    -0.06   0.05   0.07
  90   1    -0.01  -0.02  -0.02     0.02   0.01  -0.01    -0.05   0.04   0.06
  91   1    -0.05   0.01   0.04     0.02   0.00  -0.00     0.01   0.00  -0.03
  92   1    -0.07   0.03   0.07     0.01  -0.00   0.00     0.07  -0.03  -0.09
  93   1    -0.05   0.01   0.04     0.01  -0.00  -0.00     0.06  -0.02  -0.07
  94   1     0.03   0.03   0.04     0.02   0.00   0.00    -0.04  -0.04  -0.03
  95   1     0.05   0.05   0.06     0.02   0.01   0.02    -0.07  -0.06  -0.05
  96   1     0.03   0.02   0.02     0.01   0.01   0.01    -0.06  -0.02  -0.00
  97   1    -0.01  -0.03  -0.03    -0.00   0.00  -0.00    -0.02   0.04   0.05
  98   1    -0.03  -0.05  -0.05    -0.00   0.00  -0.01     0.01   0.06   0.05
  99   1    -0.01  -0.02  -0.02     0.01   0.00  -0.01    -0.02  -0.00   0.04
 100   1    -0.01  -0.02  -0.02     0.01  -0.00  -0.00    -0.02  -0.02   0.03
 101   1    -0.01  -0.02  -0.05     0.02  -0.01  -0.02    -0.00  -0.04  -0.06
 102   1    -0.01  -0.01  -0.02     0.02  -0.02  -0.01    -0.00  -0.05  -0.08
 103   1    -0.00   0.02   0.03     0.02  -0.03   0.00    -0.00  -0.04  -0.06
 104   1     0.00   0.04   0.05     0.01  -0.03   0.01     0.00  -0.02  -0.02
 105   1    -0.02   0.03   0.01    -0.00  -0.04   0.04    -0.00   0.00   0.01
 106   1    -0.04   0.04  -0.03    -0.00  -0.01   0.01    -0.01   0.02  -0.03
 107   1    -0.04   0.03  -0.06    -0.01   0.03  -0.05    -0.01   0.04  -0.06
 108   1    -0.02   0.01  -0.04    -0.02   0.04  -0.07    -0.01   0.03  -0.04
 109   1     0.00  -0.02  -0.04    -0.01   0.01  -0.05    -0.00  -0.02  -0.03
 110   1     0.00  -0.03  -0.04    -0.01   0.02  -0.04    -0.00  -0.02  -0.03
 111   1    -0.00   0.02   0.01    -0.05  -0.03   0.06     0.00   0.01   0.01
 112   1     0.02   0.03   0.02    -0.07  -0.06   0.10     0.02   0.02   0.00
                     10                     11                     12
                        a                      a                      a 
 Frequencies --    44.5609                47.1848                50.7765
 Red. masses --    10.6905                10.5131                10.5765
 Frc consts  --     0.0000                 0.0000                 0.0000
 IR Inten    --     0.8329                16.6161                25.9495
 Raman Activ --     0.0000                 0.0000                 0.0000
 Depolar     --     0.0000                 0.0000                 0.0000
 Atom AN      X      Y      Z        X      Y      Z        X      Y      Z
   1   6    -0.05  -0.02  -0.01     0.01   0.06  -0.06     0.00  -0.06   0.03
   2   6    -0.09  -0.05   0.07     0.04   0.12  -0.12    -0.05  -0.13   0.15
   3   6    -0.08  -0.06   0.09     0.04   0.12  -0.08    -0.04  -0.12   0.11
   4   6    -0.04  -0.03   0.04     0.02   0.04   0.01     0.02  -0.02  -0.02
   5   7    -0.03  -0.03   0.08     0.03   0.05   0.04     0.02  -0.02  -0.04
   6   6    -0.04  -0.02   0.04     0.04   0.04   0.01     0.01  -0.02  -0.01
   7   6     0.02  -0.04   0.09     0.01   0.11  -0.07     0.05  -0.08   0.07
   8   6    -0.01  -0.02   0.04     0.05   0.09  -0.09     0.03  -0.08   0.11
   9   6    -0.10   0.01  -0.05     0.13   0.02  -0.04    -0.03  -0.01   0.08
  10   6    -0.15   0.03  -0.10     0.16  -0.05   0.04    -0.07   0.06  -0.01
  11   6    -0.12   0.01  -0.05     0.11  -0.03   0.06    -0.05   0.05  -0.05
  12   6    -0.03  -0.01   0.07     0.03   0.03   0.04     0.01   0.01  -0.03
  13   6    -0.01   0.01   0.09    -0.00  -0.00   0.05     0.04   0.01  -0.09
  14   6    -0.02   0.03   0.07     0.00  -0.05   0.04     0.03   0.04  -0.09
  15   6    -0.04   0.02   0.03     0.04  -0.07   0.04     0.00   0.08  -0.05
  16   6    -0.04   0.02  -0.01     0.04  -0.09   0.03     0.00   0.07  -0.06
  17   6    -0.06  -0.00  -0.01     0.03  -0.08   0.02    -0.02   0.05  -0.05
  18   6    -0.08   0.00   0.01     0.04  -0.12   0.07    -0.05   0.11  -0.12
  19   6    -0.11  -0.01  -0.01     0.04  -0.12   0.07    -0.06   0.08  -0.10
  20   6    -0.11  -0.03  -0.04     0.03  -0.08   0.01    -0.04  -0.01  -0.01
  21   6    -0.08  -0.03  -0.05     0.02  -0.04  -0.05    -0.01  -0.06   0.05
  22   6    -0.05  -0.02  -0.03     0.02  -0.04  -0.04    -0.00  -0.02   0.01
  23   6    -0.02  -0.03  -0.04     0.01  -0.02  -0.08     0.03  -0.05   0.03
  24   6    -0.02  -0.04  -0.04     0.01  -0.00  -0.09     0.03  -0.07   0.04
  25   6    -0.03  -0.01   0.01    -0.00  -0.00  -0.10     0.02  -0.08   0.01
  26   6    -0.03   0.04   0.08     0.00   0.02  -0.05     0.02  -0.08   0.00
  27   6    -0.01   0.07   0.10     0.01   0.05   0.00     0.02  -0.07   0.03
  28   6    -0.00   0.15   0.20     0.02   0.09   0.08     0.02  -0.06   0.03
  29   6     0.02   0.16   0.19     0.02   0.10   0.11     0.02  -0.05   0.04
  30   6     0.03   0.10   0.09     0.01   0.07   0.06     0.02  -0.04   0.06
  31   6     0.04   0.09   0.05    -0.00   0.06   0.04     0.03  -0.03   0.06
  32   6     0.04   0.07   0.06    -0.00   0.06   0.03     0.02  -0.01  -0.01
  33   6     0.01   0.06   0.01    -0.04   0.09  -0.10     0.00   0.04  -0.15
  34   6     0.02   0.01   0.01    -0.04   0.07  -0.12    -0.00   0.07  -0.21
  35   6     0.06  -0.03   0.05    -0.01   0.01   0.00    -0.00   0.04  -0.13
  36   7     0.07  -0.06   0.04    -0.00  -0.00  -0.00     0.00   0.04  -0.14
  37   6     0.05  -0.05   0.00    -0.03   0.00  -0.02     0.00   0.05  -0.07
  38   6     0.07  -0.12  -0.07    -0.10  -0.03  -0.00    -0.04   0.10  -0.01
  39   6     0.05  -0.12  -0.12    -0.17   0.00  -0.01    -0.07   0.12   0.06
  40   6     0.01  -0.06  -0.09    -0.18   0.06  -0.03    -0.06   0.11   0.06
  41   6    -0.02   0.02  -0.01    -0.12   0.08  -0.06    -0.02   0.06  -0.02
  42   6     0.00   0.02   0.04    -0.04   0.06  -0.05     0.01   0.03  -0.08
  43   6     0.08  -0.04   0.01    -0.04  -0.02   0.01    -0.04   0.02  -0.05
  44   6     0.14   0.06   0.09     0.04   0.01   0.13     0.03  -0.01   0.07
  45   6     0.18   0.09   0.07    -0.02  -0.05   0.13    -0.04  -0.06   0.14
  46   6     0.15   0.00  -0.02    -0.16  -0.13   0.01    -0.18  -0.07   0.08
  47   6     0.09  -0.11  -0.10    -0.24  -0.16  -0.11    -0.25  -0.03  -0.03
  48   6     0.06  -0.13  -0.08    -0.17  -0.10  -0.10    -0.18   0.01  -0.10
  49   6     0.10  -0.02   0.10     0.03  -0.02   0.13     0.01  -0.01  -0.01
  50   6     0.09   0.03   0.11     0.02   0.00   0.14     0.02  -0.03   0.04
  51   6     0.05   0.05  -0.02     0.00   0.05   0.01     0.05  -0.01   0.10
  52   6     0.05  -0.00  -0.08    -0.00   0.04  -0.00     0.05  -0.01   0.13
  53   6     0.03  -0.01  -0.07     0.00   0.04  -0.01     0.04  -0.02   0.11
  54   6     0.03  -0.08  -0.14    -0.00   0.02  -0.04     0.04  -0.02   0.12
  55   6     0.01  -0.09  -0.13     0.00   0.01  -0.07     0.03  -0.04   0.08
  56   6    -0.00  -0.04  -0.05     0.01   0.02  -0.06     0.03  -0.06   0.06
  57   6     0.00   0.02   0.02     0.01   0.04  -0.02     0.03  -0.05   0.06
  58   6     0.02   0.04   0.02     0.01   0.05   0.01     0.03  -0.04   0.08
  59   6    -0.01  -0.01  -0.05     0.02  -0.04  -0.04     0.04  -0.01   0.00
  60   6     0.01  -0.01  -0.07     0.02  -0.03  -0.06     0.08  -0.04   0.01
  61   6     0.02   0.04  -0.12     0.03  -0.06  -0.00     0.10   0.01  -0.02
  62   6     0.01   0.09  -0.14     0.04  -0.11   0.07     0.09   0.07  -0.05
  63   6    -0.00   0.08  -0.10     0.04  -0.12   0.07     0.05   0.09  -0.06
  64   6    -0.02   0.03  -0.06     0.03  -0.08   0.02     0.03   0.05  -0.04
  65   6    -0.06  -0.00   0.02     0.07  -0.04   0.03    -0.02   0.08   0.02
  66   6    -0.05  -0.02   0.05     0.06   0.01   0.03    -0.02   0.05   0.02
  67   6     0.00   0.01  -0.04    -0.02  -0.02   0.08     0.07   0.05  -0.14
  68   6    -0.00   0.01  -0.07    -0.02  -0.02   0.05     0.06   0.04  -0.11
  69   1    -0.02  -0.01  -0.01     0.00   0.02  -0.03    -0.00  -0.02   0.02
  70   1    -0.03  -0.02   0.03     0.02   0.05  -0.06    -0.03  -0.06   0.07
  71   1    -0.03  -0.02   0.04     0.02   0.05  -0.04    -0.02  -0.05   0.06
  72   1     0.02  -0.02   0.04    -0.01   0.05  -0.03     0.03  -0.04   0.03
  73   1     0.01  -0.01   0.02     0.01   0.04  -0.04     0.02  -0.04   0.05
  74   1    -0.04   0.01  -0.03     0.05   0.00  -0.02    -0.01  -0.00   0.03
  75   1    -0.06   0.02  -0.05     0.06  -0.03   0.02    -0.03   0.03  -0.01
  76   1    -0.05   0.01  -0.02     0.04  -0.02   0.03    -0.02   0.03  -0.03
  77   1     0.00   0.01   0.03    -0.01   0.00   0.02     0.02  -0.01  -0.03
  78   1    -0.00   0.01   0.02    -0.01  -0.02   0.01     0.02   0.01  -0.04
  79   1    -0.02   0.00   0.01     0.01  -0.04   0.03    -0.02   0.05  -0.05
  80   1    -0.04  -0.00   0.00     0.01  -0.04   0.03    -0.03   0.04  -0.04
  81   1    -0.04  -0.01  -0.01     0.01  -0.02   0.00    -0.01  -0.01   0.00
  82   1    -0.02  -0.01  -0.02     0.00  -0.00  -0.03     0.00  -0.04   0.03
  83   1    -0.01  -0.01  -0.00    -0.00  -0.01  -0.04     0.01  -0.03  -0.00
  84   1    -0.01   0.02   0.04     0.00   0.01  -0.01     0.01  -0.03  -0.01
  85   1    -0.00   0.06   0.08     0.01   0.03   0.03     0.00  -0.02   0.00
  86   1     0.01   0.06   0.07     0.01   0.04   0.05     0.01  -0.01   0.01
  87   1    -0.01   0.03  -0.01    -0.02   0.04  -0.05    -0.00   0.02  -0.06
  88   1    -0.00   0.00  -0.01    -0.02   0.03  -0.06    -0.00   0.03  -0.09
  89   1     0.03  -0.05  -0.03    -0.03  -0.02   0.01    -0.01   0.03  -0.00
  90   1     0.02  -0.05  -0.05    -0.06  -0.01   0.00    -0.03   0.05   0.03
  91   1    -0.00  -0.02  -0.04    -0.07   0.02  -0.01    -0.03   0.04   0.03
  92   1    -0.02   0.02   0.01    -0.04   0.04  -0.02    -0.00   0.01  -0.01
  93   1    -0.01   0.02   0.03     0.00   0.02  -0.02     0.01  -0.00  -0.04
  94   1     0.05   0.04   0.04     0.04   0.02   0.06     0.04  -0.00   0.03
  95   1     0.06   0.05   0.04     0.01  -0.01   0.07     0.00  -0.02   0.07
  96   1     0.05   0.01  -0.01    -0.06  -0.05  -0.00    -0.07  -0.03   0.04
  97   1     0.02  -0.05  -0.05    -0.10  -0.06  -0.06    -0.11  -0.01  -0.02
  98   1     0.00  -0.06  -0.04    -0.06  -0.04  -0.05    -0.07   0.01  -0.05
  99   1     0.04  -0.01   0.04     0.02  -0.02   0.06     0.01  -0.01   0.01
 100   1     0.04   0.01   0.04     0.01  -0.01   0.06     0.01  -0.02   0.04
 101   1     0.01   0.01  -0.01     0.00   0.01   0.00     0.02  -0.00   0.03
 102   1     0.02  -0.01  -0.04    -0.00   0.01  -0.01     0.02   0.00   0.05
 103   1     0.01  -0.04  -0.06    -0.00   0.00  -0.02     0.01  -0.00   0.04
 104   1     0.00  -0.04  -0.05    -0.00   0.00  -0.03     0.01  -0.01   0.02
 105   1     0.00  -0.01  -0.01     0.01   0.00  -0.03     0.02  -0.03   0.01
 106   1     0.01   0.01  -0.04     0.01  -0.02  -0.00     0.04  -0.00  -0.00
 107   1     0.01   0.04  -0.05     0.01  -0.04   0.03     0.03   0.03  -0.02
 108   1    -0.00   0.03  -0.03     0.02  -0.04   0.04     0.01   0.04  -0.03
 109   1    -0.02  -0.00  -0.00     0.03  -0.01   0.01    -0.01   0.03   0.01
 110   1    -0.02  -0.01   0.01     0.02   0.01   0.01    -0.01   0.02   0.02
 111   1     0.01   0.01  -0.03    -0.01  -0.02   0.05     0.04   0.03  -0.07
 112   1     0.01   0.01  -0.04    -0.01  -0.02   0.03     0.03   0.03  -0.06
                     13                     14                     15
                        a                      a                      a 
 Frequencies --    53.2916                59.6188                64.1765
 Red. masses --    10.4895                10.9167                10.6681
 Frc consts  --     0.0000                 0.0000                 0.0000
 IR Inten    --    22.0973                 3.9136                13.0617
 Raman Activ --     0.0000                 0.0000                 0.0000
 Depolar     --     0.0000                 0.0000                 0.0000
 Atom AN      X      Y      Z        X      Y      Z        X      Y      Z
   1   6     0.20   0.17  -0.02     0.01   0.07  -0.19    -0.04   0.00   0.08
   2   6     0.22   0.11  -0.07     0.01   0.14  -0.18    -0.04  -0.03   0.09
   3   6     0.13   0.03  -0.05     0.00   0.09  -0.01    -0.03  -0.01   0.02
   4   6     0.02   0.02   0.02     0.01  -0.03   0.12    -0.03   0.04  -0.04
   5   7    -0.02  -0.01   0.00     0.03  -0.04   0.26    -0.03   0.05  -0.09
   6   6     0.03  -0.02  -0.02     0.01  -0.03   0.13    -0.01   0.04  -0.05
   7   6     0.19  -0.03   0.07    -0.05   0.08   0.00     0.08  -0.00   0.03
   8   6     0.31  -0.07   0.09    -0.11   0.12  -0.16     0.15  -0.04   0.11
   9   6     0.26  -0.11  -0.00    -0.11   0.06  -0.18     0.13  -0.03   0.08
  10   6     0.08  -0.10  -0.12    -0.03  -0.06  -0.04     0.03   0.02  -0.02
  11   6    -0.03  -0.05  -0.12     0.03  -0.10   0.12    -0.04   0.05  -0.08
  12   6    -0.01   0.00   0.00     0.02  -0.04   0.17    -0.02   0.04  -0.04
  13   6    -0.01   0.07   0.12     0.04  -0.04   0.13    -0.04   0.04  -0.00
  14   6    -0.01   0.07   0.11     0.03  -0.05   0.06    -0.04   0.01   0.01
  15   6    -0.04   0.02  -0.02     0.01  -0.05   0.03    -0.01  -0.01  -0.01
  16   6    -0.03   0.02  -0.02     0.00  -0.03  -0.01    -0.01  -0.03  -0.02
  17   6    -0.06   0.01  -0.03     0.00  -0.00  -0.04    -0.01  -0.04  -0.01
  18   6    -0.08   0.03  -0.05     0.00   0.02  -0.08    -0.01  -0.07   0.04
  19   6    -0.11   0.05  -0.09    -0.00   0.07  -0.14    -0.01  -0.09   0.06
  20   6    -0.10   0.03  -0.09    -0.00   0.08  -0.14    -0.01  -0.07   0.02
  21   6    -0.07  -0.00  -0.05     0.00   0.04  -0.07    -0.02  -0.03  -0.03
  22   6    -0.05  -0.01  -0.03     0.00   0.00  -0.03    -0.02  -0.02  -0.05
  23   6    -0.04  -0.04   0.01     0.00  -0.01  -0.00    -0.02  -0.00  -0.08
  24   6    -0.04  -0.05   0.02     0.01  -0.02   0.03    -0.02   0.01  -0.08
  25   6    -0.05  -0.03   0.04     0.02  -0.02   0.04    -0.03   0.02  -0.08
  26   6    -0.05  -0.03   0.03     0.02  -0.01   0.07    -0.02   0.04  -0.03
  27   6    -0.05  -0.03   0.01     0.01  -0.02   0.08    -0.01   0.07   0.02
  28   6    -0.05  -0.03   0.00     0.01  -0.02   0.09    -0.01   0.10   0.08
  29   6    -0.05  -0.02   0.01     0.01  -0.03   0.07    -0.00   0.10   0.09
  30   6    -0.03  -0.00   0.03     0.00  -0.03   0.07    -0.01   0.08   0.04
  31   6    -0.02   0.02   0.06    -0.00  -0.04   0.06    -0.02   0.05   0.02
  32   6    -0.03   0.03   0.03    -0.00  -0.04   0.01    -0.01   0.00  -0.02
  33   6    -0.03   0.01   0.06    -0.02  -0.03  -0.04    -0.05  -0.02  -0.06
  34   6    -0.04   0.01   0.03    -0.02  -0.02  -0.11    -0.05  -0.07  -0.10
  35   6    -0.03   0.03  -0.04    -0.01  -0.01  -0.14     0.01  -0.09  -0.11
  36   7    -0.03   0.01  -0.04    -0.01  -0.02  -0.20     0.01  -0.12  -0.21
  37   6    -0.01   0.01  -0.02     0.01  -0.01  -0.09    -0.00  -0.09  -0.09
  38   6     0.08  -0.02  -0.10     0.03   0.08  -0.03    -0.08   0.03   0.06
  39   6     0.12  -0.03  -0.09     0.05   0.09   0.07    -0.13   0.08   0.21
  40   6     0.06  -0.02   0.00     0.05   0.03   0.12    -0.08   0.01   0.18
  41   6    -0.03   0.01   0.09     0.03  -0.05   0.06     0.01  -0.12   0.00
  42   6    -0.06   0.02   0.07     0.01  -0.07  -0.04     0.05  -0.16  -0.13
  43   6    -0.03   0.01  -0.03    -0.01  -0.01  -0.10     0.02  -0.08  -0.11
  44   6    -0.01   0.03  -0.00     0.00  -0.04  -0.07     0.02  -0.11  -0.12
  45   6    -0.01   0.03   0.00     0.03   0.01   0.04     0.10  -0.01   0.04
  46   6    -0.03   0.02  -0.02     0.04   0.09   0.13     0.19   0.13   0.20
  47   6    -0.04  -0.00  -0.04     0.01   0.12   0.08     0.17   0.14   0.17
  48   6    -0.04  -0.00  -0.04    -0.02   0.07  -0.04     0.08   0.03   0.01
  49   6    -0.02   0.06  -0.08     0.01  -0.02  -0.10     0.06  -0.08  -0.04
  50   6    -0.02   0.06  -0.05     0.01  -0.04  -0.02     0.05  -0.03   0.01
  51   6    -0.01   0.04   0.10    -0.00  -0.02   0.08    -0.03   0.05   0.01
  52   6    -0.01   0.02   0.10    -0.01  -0.01   0.09    -0.03   0.06   0.02
  53   6    -0.02  -0.01   0.05    -0.01  -0.02   0.07    -0.02   0.07   0.01
  54   6    -0.02  -0.04   0.01    -0.01  -0.02   0.04    -0.02   0.05  -0.02
  55   6    -0.03  -0.07  -0.02    -0.01  -0.03   0.02    -0.02   0.04  -0.05
  56   6    -0.04  -0.06  -0.00    -0.00  -0.02   0.04    -0.02   0.04  -0.05
  57   6    -0.04  -0.04   0.01     0.00  -0.02   0.06    -0.01   0.06  -0.00
  58   6    -0.03  -0.02   0.03    -0.00  -0.02   0.07    -0.01   0.07   0.02
  59   6    -0.02  -0.05   0.04    -0.01  -0.00  -0.03    -0.01  -0.02  -0.04
  60   6    -0.00  -0.09   0.10    -0.02   0.02  -0.06    -0.01  -0.02  -0.04
  61   6     0.00  -0.09   0.10    -0.04   0.05  -0.11    -0.00  -0.07   0.03
  62   6    -0.01  -0.03   0.04    -0.04   0.05  -0.12     0.01  -0.10   0.08
  63   6    -0.03   0.01  -0.02    -0.02   0.02  -0.08     0.00  -0.08   0.05
  64   6    -0.03  -0.01   0.00    -0.01  -0.01  -0.04    -0.01  -0.04  -0.01
  65   6    -0.03  -0.04  -0.12    -0.01  -0.06   0.05     0.01   0.01  -0.02
  66   6    -0.03  -0.05  -0.12    -0.01  -0.05   0.12     0.00   0.03  -0.04
  67   6    -0.00   0.07   0.08     0.01  -0.11   0.12    -0.02   0.08  -0.05
  68   6     0.09   0.15   0.06     0.01  -0.06  -0.04    -0.02   0.06   0.01
  69   1     0.08   0.07  -0.01     0.01   0.03  -0.09    -0.01  -0.00   0.04
  70   1     0.09   0.04  -0.04     0.00   0.07  -0.08    -0.01  -0.02   0.04
  71   1     0.04  -0.00  -0.02    -0.00   0.04  -0.00    -0.01  -0.01   0.01
  72   1     0.07   0.00   0.04    -0.02   0.04   0.01     0.03  -0.00   0.01
  73   1     0.13  -0.02   0.05    -0.05   0.06  -0.08     0.06  -0.02   0.05
  74   1     0.10  -0.04   0.00    -0.05   0.03  -0.09     0.05  -0.02   0.04
  75   1     0.01  -0.04  -0.06    -0.00  -0.03  -0.02     0.00   0.01  -0.01
  76   1    -0.05  -0.02  -0.06     0.02  -0.05   0.06    -0.03   0.02  -0.04
  77   1    -0.00   0.03   0.06     0.02  -0.01   0.04    -0.02   0.02   0.00
  78   1     0.00   0.04   0.05     0.01  -0.01   0.01    -0.02   0.00   0.01
  79   1    -0.02   0.01  -0.01     0.00   0.00  -0.02    -0.00  -0.03   0.02
  80   1    -0.04   0.02  -0.03    -0.00   0.03  -0.05    -0.00  -0.03   0.03
  81   1    -0.03   0.01  -0.04    -0.00   0.03  -0.05    -0.00  -0.02   0.01
  82   1    -0.02  -0.01  -0.01     0.00   0.01  -0.02    -0.01  -0.01  -0.02
  83   1    -0.02  -0.01   0.02     0.01  -0.01   0.01    -0.01  -0.00  -0.03
  84   1    -0.02  -0.01   0.01     0.01  -0.00   0.02    -0.01   0.01  -0.00
  85   1    -0.02  -0.01  -0.00     0.01  -0.00   0.03     0.00   0.03   0.03
  86   1    -0.01  -0.00  -0.00     0.00  -0.01   0.02     0.00   0.04   0.04
  87   1    -0.01  -0.00   0.03    -0.01  -0.01  -0.00    -0.03   0.00  -0.02
  88   1    -0.01  -0.00   0.01    -0.01  -0.00  -0.04    -0.02  -0.02  -0.04
  89   1     0.04  -0.01  -0.05     0.01   0.04  -0.02    -0.03   0.03   0.02
  90   1     0.06  -0.01  -0.05     0.02   0.05   0.03    -0.06   0.05   0.10
  91   1     0.03  -0.01   0.00     0.02   0.01   0.06    -0.04   0.02   0.09
  92   1    -0.02   0.01   0.05     0.01  -0.03   0.03     0.01  -0.05  -0.01
  93   1    -0.04   0.01   0.04    -0.00  -0.04  -0.02     0.03  -0.07  -0.07
  94   1    -0.00   0.01   0.00     0.00  -0.03  -0.04    -0.01  -0.06  -0.06
  95   1     0.00   0.01   0.01     0.01  -0.00   0.02     0.03  -0.01   0.01
  96   1    -0.01   0.00  -0.01     0.02   0.04   0.06     0.08   0.06   0.10
  97   1    -0.02  -0.00  -0.02     0.01   0.05   0.04     0.07   0.07   0.08
  98   1    -0.02  -0.00  -0.02    -0.01   0.03  -0.02     0.02   0.01  -0.00
  99   1    -0.01   0.02  -0.04     0.00  -0.01  -0.03     0.03  -0.03  -0.01
 100   1    -0.00   0.02  -0.02     0.01  -0.01   0.00     0.03  -0.01   0.02
 101   1    -0.00   0.02   0.04    -0.00  -0.01   0.02    -0.01   0.01  -0.00
 102   1     0.00   0.01   0.04    -0.00  -0.00   0.03    -0.01   0.02   0.00
 103   1    -0.01  -0.01   0.00    -0.01  -0.01   0.01    -0.01   0.02  -0.01
 104   1    -0.01  -0.03  -0.01    -0.00  -0.01  -0.00    -0.01   0.01  -0.02
 105   1     0.00  -0.04   0.04    -0.01   0.01  -0.01    -0.00   0.00  -0.02
 106   1     0.00  -0.04   0.04    -0.01   0.02  -0.04     0.00  -0.02   0.01
 107   1    -0.00  -0.01   0.01    -0.01   0.02  -0.05     0.00  -0.04   0.04
 108   1    -0.01   0.02  -0.02    -0.01   0.00  -0.02     0.00  -0.03   0.02
 109   1    -0.01  -0.02  -0.06    -0.01  -0.02   0.00     0.01  -0.00  -0.00
 110   1    -0.01  -0.03  -0.06    -0.01  -0.02   0.04     0.00   0.01  -0.01
 111   1    -0.02   0.02   0.04     0.00  -0.06   0.07    -0.00   0.03  -0.03
 112   1     0.02   0.06   0.03     0.00  -0.04  -0.01    -0.01   0.02   0.00
                     16                     17                     18
                        a                      a                      a 
 Frequencies --    70.2464                72.9491                73.8947
 Red. masses --    10.6209                10.6886                10.4571
 Frc consts  --     0.0000                 0.0000                 0.0000
 IR Inten    --     0.4071                65.4551                31.0268
 Raman Activ --     0.0000                 0.0000                 0.0000
 Depolar     --     0.0000                 0.0000                 0.0000
 Atom AN      X      Y      Z        X      Y      Z        X      Y      Z
   1   6     0.12   0.06  -0.06    -0.17  -0.05   0.01     0.08   0.15  -0.14
   2   6     0.16   0.06  -0.15    -0.17   0.04   0.02    -0.03   0.02   0.09
   3   6     0.09   0.00  -0.11    -0.10   0.09   0.05    -0.07  -0.04   0.21
   4   6    -0.00  -0.06   0.00    -0.03   0.04   0.09    -0.01   0.02   0.11
   5   7    -0.03  -0.08  -0.01     0.01   0.05   0.18    -0.01   0.01   0.16
   6   6    -0.04  -0.08  -0.00     0.02   0.05   0.11     0.02   0.01   0.06
   7   6    -0.06  -0.07  -0.02     0.15   0.04   0.18     0.02   0.10  -0.02
   8   6    -0.09  -0.06  -0.04     0.14   0.06   0.09     0.11   0.07  -0.06
   9   6    -0.09  -0.06  -0.04    -0.02   0.08  -0.09     0.20  -0.05  -0.00
  10   6    -0.06  -0.07  -0.01    -0.14   0.08  -0.16     0.18  -0.13   0.05
  11   6    -0.03  -0.08   0.01    -0.12   0.06  -0.06     0.08  -0.09   0.08
  12   6    -0.03  -0.06  -0.03     0.00   0.06   0.11    -0.02   0.02   0.09
  13   6    -0.01  -0.02   0.01     0.02   0.08   0.14     0.00  -0.04  -0.08
  14   6    -0.01   0.04   0.04     0.02   0.03   0.01    -0.01  -0.06  -0.17
  15   6    -0.04   0.05   0.03     0.00  -0.03  -0.13    -0.03  -0.01  -0.09
  16   6    -0.04   0.07   0.04     0.01  -0.03  -0.14    -0.04  -0.01  -0.10
  17   6    -0.06   0.07   0.02     0.04  -0.02  -0.10    -0.02  -0.01  -0.08
  18   6    -0.10   0.13  -0.04     0.08  -0.03  -0.12    -0.01   0.02  -0.14
  19   6    -0.13   0.12  -0.06     0.11  -0.03  -0.09     0.02  -0.02  -0.06
  20   6    -0.11   0.05  -0.01     0.11  -0.02  -0.03     0.04  -0.09   0.08
  21   6    -0.07  -0.01   0.06     0.09  -0.02  -0.01     0.02  -0.10   0.10
  22   6    -0.05   0.01   0.06     0.05  -0.02  -0.04    -0.01  -0.05   0.01
  23   6    -0.02  -0.01   0.07     0.02  -0.02   0.00    -0.04  -0.03   0.01
  24   6    -0.02  -0.02   0.03     0.02   0.01   0.04    -0.04  -0.01   0.03
  25   6    -0.05  -0.03  -0.03     0.00   0.02   0.06    -0.06  -0.02  -0.00
  26   6    -0.06  -0.04  -0.10    -0.00   0.03   0.03    -0.06  -0.01  -0.01
  27   6    -0.03  -0.02  -0.11     0.01   0.01  -0.02    -0.05   0.01   0.00
  28   6    -0.04  -0.01  -0.14    -0.00  -0.00  -0.08    -0.05   0.02  -0.02
  29   6    -0.01   0.03  -0.12     0.01  -0.01  -0.11    -0.04   0.02  -0.03
  30   6     0.02   0.04  -0.08     0.03   0.01  -0.07    -0.03   0.01  -0.04
  31   6     0.04   0.06  -0.08     0.04   0.02  -0.07    -0.02  -0.01  -0.09
  32   6     0.05   0.05  -0.07     0.04   0.02  -0.06    -0.02  -0.00  -0.07
  33   6     0.03   0.04  -0.08     0.05  -0.01   0.02    -0.00   0.02  -0.08
  34   6     0.05  -0.00  -0.02     0.06  -0.03   0.07     0.00   0.01  -0.01
  35   6     0.07  -0.04   0.07     0.05  -0.01   0.04    -0.01  -0.01   0.06
  36   7     0.08  -0.05   0.08     0.05  -0.01   0.07    -0.01   0.01   0.11
  37   6     0.04  -0.04   0.04     0.01  -0.01   0.02    -0.01  -0.00   0.07
  38   6    -0.13  -0.02   0.17    -0.04  -0.05   0.02    -0.04  -0.00   0.09
  39   6    -0.22   0.02   0.16    -0.13  -0.01   0.03    -0.01  -0.03   0.02
  40   6    -0.14   0.02   0.00    -0.16   0.06   0.03     0.06  -0.06  -0.08
  41   6     0.04  -0.01  -0.15    -0.09   0.09   0.00     0.08  -0.06  -0.09
  42   6     0.13  -0.04  -0.12     0.00   0.05  -0.00     0.04  -0.02  -0.01
  43   6     0.08  -0.05   0.05     0.04  -0.02   0.05     0.01   0.00   0.05
  44   6     0.09  -0.03   0.06     0.00  -0.07   0.00     0.01   0.06   0.04
  45   6     0.10  -0.02   0.05    -0.05  -0.12  -0.05     0.04   0.08   0.01
  46   6     0.10  -0.05   0.02    -0.05  -0.12  -0.05     0.07   0.04  -0.02
  47   6     0.08  -0.08  -0.00    -0.00  -0.05   0.02     0.07  -0.02  -0.03
  48   6     0.07  -0.09   0.01     0.04   0.00   0.07     0.03  -0.04   0.01
  49   6     0.08  -0.05   0.10     0.03   0.01  -0.03    -0.03  -0.03   0.07
  50   6     0.07   0.01   0.01     0.03   0.03  -0.09    -0.03  -0.02   0.01
  51   6     0.06   0.08  -0.03     0.05   0.04  -0.03    -0.01  -0.02  -0.11
  52   6     0.07   0.08   0.03     0.06   0.05   0.02    -0.01  -0.01  -0.06
  53   6     0.05   0.06   0.02     0.05   0.04   0.03    -0.01   0.02   0.01
  54   6     0.06   0.06   0.08     0.06   0.05   0.07    -0.00   0.05   0.09
  55   6     0.04   0.03   0.07     0.05   0.04   0.07    -0.01   0.05   0.12
  56   6     0.01   0.01   0.02     0.03   0.02   0.03    -0.03   0.02   0.06
  57   6    -0.00   0.01  -0.04     0.03   0.02  -0.00    -0.03   0.02   0.03
  58   6     0.02   0.03  -0.04     0.04   0.02  -0.02    -0.02   0.02   0.00
  59   6    -0.01   0.00   0.07    -0.01  -0.05  -0.01    -0.06  -0.02  -0.03
  60   6     0.02  -0.02   0.08    -0.04  -0.09   0.08    -0.07  -0.02  -0.02
  61   6     0.03   0.01   0.06    -0.07  -0.12   0.08    -0.08  -0.03  -0.02
  62   6     0.02   0.07   0.02    -0.08  -0.10  -0.02    -0.08  -0.05  -0.02
  63   6    -0.01   0.09   0.01    -0.06  -0.06  -0.11    -0.06  -0.05  -0.04
  64   6    -0.02   0.05   0.04    -0.02  -0.04  -0.09    -0.06  -0.02  -0.06
  65   6    -0.07   0.00  -0.02    -0.01  -0.05  -0.15    -0.05   0.05   0.07
  66   6    -0.06  -0.06  -0.06    -0.01  -0.01  -0.02    -0.05   0.07   0.17
  67   6    -0.05  -0.07   0.11    -0.02  -0.04   0.05     0.08   0.11  -0.08
  68   6     0.01  -0.02   0.09    -0.09  -0.09   0.02     0.13   0.19  -0.22
  69   1     0.05   0.03  -0.03    -0.07  -0.03  -0.00     0.03   0.06  -0.08
  70   1     0.07   0.03  -0.07    -0.07   0.02   0.00    -0.02  -0.01   0.05
  71   1     0.04   0.00  -0.05    -0.03   0.05   0.02    -0.04  -0.04   0.10
  72   1    -0.02  -0.02  -0.00     0.07   0.01   0.09    -0.01   0.06  -0.01
  73   1    -0.03  -0.02  -0.02     0.07   0.02   0.04     0.03   0.04  -0.03
  74   1    -0.03  -0.01  -0.02    -0.01   0.03  -0.05     0.08  -0.02  -0.00
  75   1    -0.02  -0.02  -0.00    -0.07   0.03  -0.09     0.07  -0.06   0.02
  76   1    -0.00  -0.03   0.01    -0.06   0.02  -0.03     0.02  -0.04   0.03
  77   1     0.01  -0.01   0.00     0.01   0.04   0.07     0.01  -0.02  -0.04
  78   1     0.00   0.02   0.02     0.01   0.01   0.01     0.00  -0.03  -0.08
  79   1    -0.03   0.05  -0.02     0.02  -0.01  -0.04    -0.01   0.02  -0.07
  80   1    -0.05   0.05  -0.03     0.04  -0.01  -0.03     0.01  -0.00  -0.03
  81   1    -0.04   0.01  -0.00     0.04  -0.00  -0.00     0.02  -0.04   0.05
  82   1    -0.02  -0.02   0.03     0.03  -0.01   0.01     0.01  -0.04   0.05
  83   1    -0.02  -0.01  -0.00    -0.00   0.01   0.03    -0.02  -0.01  -0.01
  84   1    -0.02  -0.02  -0.04    -0.00   0.01   0.01    -0.02  -0.00  -0.01
  85   1    -0.02  -0.01  -0.05    -0.00  -0.00  -0.03    -0.02   0.00  -0.01
  86   1    -0.00   0.01  -0.03     0.00  -0.01  -0.04    -0.01   0.01  -0.01
  87   1     0.01   0.02  -0.04     0.02  -0.01   0.01     0.00   0.01  -0.04
  88   1     0.01  -0.00  -0.01     0.02  -0.01   0.03     0.00   0.01  -0.01
  89   1    -0.05  -0.01   0.08    -0.00  -0.03   0.01    -0.02   0.00   0.04
  90   1    -0.10   0.01   0.08    -0.05  -0.01   0.01    -0.01  -0.01   0.01
  91   1    -0.06   0.01  -0.00    -0.07   0.03   0.01     0.03  -0.03  -0.04
  92   1     0.03  -0.00  -0.08    -0.03   0.04  -0.00     0.04  -0.02  -0.05
  93   1     0.08  -0.02  -0.07     0.01   0.02  -0.00     0.02  -0.00  -0.01
  94   1     0.03  -0.00   0.02     0.00  -0.02  -0.00    -0.00   0.02   0.02
  95   1     0.03   0.00   0.02    -0.02  -0.05  -0.03     0.01   0.04   0.00
  96   1     0.03  -0.01   0.00    -0.03  -0.05  -0.03     0.03   0.02  -0.01
  97   1     0.02  -0.03  -0.01    -0.00  -0.01   0.01     0.03  -0.02  -0.02
  98   1     0.02  -0.03   0.00     0.02   0.01   0.03     0.01  -0.03   0.00
  99   1     0.03  -0.02   0.05     0.01   0.01  -0.01    -0.01  -0.01   0.04
 100   1     0.02   0.00   0.00     0.01   0.02  -0.04    -0.01  -0.01   0.00
 101   1     0.02   0.03  -0.01     0.02   0.01  -0.01    -0.00  -0.01  -0.05
 102   1     0.03   0.03   0.02     0.02   0.02   0.02     0.00  -0.00  -0.02
 103   1     0.03   0.02   0.03     0.02   0.02   0.03     0.00   0.02   0.04
 104   1     0.01   0.01   0.03     0.02   0.01   0.03    -0.00   0.02   0.05
 105   1     0.01  -0.02   0.03    -0.01  -0.03   0.04    -0.02  -0.00  -0.00
 106   1     0.02  -0.00   0.02    -0.03  -0.04   0.04    -0.03  -0.01  -0.00
 107   1     0.01   0.03  -0.00    -0.03  -0.03  -0.01    -0.02  -0.02  -0.00
 108   1    -0.01   0.04  -0.01    -0.02  -0.01  -0.05    -0.02  -0.02  -0.01
 109   1    -0.03   0.00  -0.01    -0.01  -0.03  -0.07    -0.02   0.03   0.04
 110   1    -0.02  -0.03  -0.03    -0.01  -0.01  -0.01    -0.02   0.04   0.09
 111   1    -0.04  -0.03   0.06     0.01  -0.02   0.02     0.04   0.04  -0.04
 112   1    -0.01  -0.01   0.05    -0.02  -0.05   0.00     0.06   0.08  -0.11
                     19                     20                     21
                        a                      a                      a 
 Frequencies --    76.1268                82.6624                92.2096
 Red. masses --    10.2140                10.6361                10.1445
 Frc consts  --     0.0000                 0.0000                 0.0000
 IR Inten    --    13.7817                 2.2687                 0.0959
 Raman Activ --     0.0000                 0.0000                 0.0000
 Depolar     --     0.0000                 0.0000                 0.0000
 Atom AN      X      Y      Z        X      Y      Z        X      Y      Z
   1   6    -0.10  -0.05   0.08    -0.04   0.04   0.07    -0.00   0.01   0.02
   2   6    -0.06   0.02  -0.01    -0.04  -0.01   0.08     0.06   0.07  -0.11
   3   6    -0.02   0.06  -0.05    -0.04   0.00   0.01     0.05   0.07  -0.12
   4   6    -0.02   0.04  -0.02    -0.04   0.06  -0.06    -0.01   0.00  -0.02
   5   7    -0.02   0.04  -0.02    -0.06   0.07  -0.11    -0.01  -0.00  -0.03
   6   6    -0.01   0.04  -0.01    -0.05   0.05  -0.08    -0.01  -0.00  -0.02
   7   6     0.07  -0.00   0.08    -0.02   0.05  -0.07     0.07  -0.06   0.07
   8   6     0.09  -0.01   0.09     0.08   0.00   0.02     0.08  -0.06   0.10
   9   6     0.01   0.03   0.00     0.16  -0.04   0.09    -0.00  -0.02   0.01
  10   6    -0.08   0.07  -0.08     0.10  -0.02   0.05    -0.10   0.04  -0.09
  11   6    -0.08   0.07  -0.08    -0.01   0.03  -0.04    -0.09   0.04  -0.10
  12   6    -0.01   0.02   0.01    -0.04   0.01  -0.01    -0.01  -0.01  -0.01
  13   6    -0.03   0.03   0.07    -0.10  -0.04   0.01    -0.01  -0.04  -0.07
  14   6    -0.02  -0.01   0.06    -0.08  -0.11   0.08    -0.01  -0.05  -0.06
  15   6     0.01  -0.05   0.01    -0.01  -0.12   0.12     0.01  -0.01   0.04
  16   6     0.01  -0.05   0.02     0.00  -0.14   0.16     0.01  -0.02   0.03
  17   6     0.03  -0.02   0.00     0.01  -0.08   0.10    -0.01   0.00  -0.03
  18   6     0.06  -0.04   0.00     0.02  -0.04   0.02    -0.05   0.09  -0.13
  19   6     0.08   0.02  -0.05     0.01   0.12  -0.17    -0.07   0.08  -0.14
  20   6     0.06   0.09  -0.09    -0.00   0.20  -0.23    -0.04  -0.04  -0.01
  21   6     0.04   0.08  -0.07    -0.01   0.11  -0.09     0.00  -0.11   0.08
  22   6     0.02   0.03  -0.02    -0.00  -0.02   0.06     0.00  -0.06   0.03
  23   6     0.00   0.03  -0.00    -0.01  -0.03   0.10     0.01  -0.04  -0.01
  24   6     0.01   0.03   0.01    -0.01  -0.03   0.08     0.01  -0.02  -0.03
  25   6     0.03   0.00  -0.02    -0.02  -0.04   0.05    -0.01  -0.07  -0.15
  26   6     0.03  -0.04  -0.05    -0.03  -0.05   0.01    -0.01  -0.03  -0.08
  27   6     0.01  -0.06  -0.04    -0.01  -0.04   0.00     0.01   0.04   0.06
  28   6     0.02  -0.09  -0.06    -0.02  -0.03  -0.04     0.02   0.08   0.13
  29   6     0.00  -0.10  -0.03    -0.00  -0.01  -0.04     0.02   0.08   0.13
  30   6    -0.02  -0.07  -0.00     0.02  -0.01  -0.02     0.01   0.03   0.06
  31   6    -0.03  -0.07   0.01     0.05   0.02  -0.01     0.00  -0.05  -0.08
  32   6    -0.03  -0.06   0.01     0.05   0.02  -0.02     0.00  -0.05  -0.07
  33   6    -0.02   0.01  -0.10     0.05   0.01   0.01     0.02  -0.00  -0.14
  34   6    -0.02   0.05  -0.10     0.05  -0.01   0.03     0.02   0.02  -0.09
  35   6    -0.04   0.02   0.02     0.06  -0.00   0.01    -0.01  -0.00   0.01
  36   7    -0.04   0.04   0.05     0.07  -0.01   0.01    -0.02   0.02   0.06
  37   6    -0.01   0.03   0.05     0.04  -0.00  -0.01    -0.02   0.02   0.04
  38   6    -0.04   0.10   0.13     0.00  -0.02   0.00     0.04  -0.04  -0.05
  39   6     0.08   0.03   0.04    -0.07   0.01   0.02     0.07  -0.06  -0.09
  40   6     0.23  -0.09  -0.13    -0.10   0.06   0.03     0.03  -0.02  -0.04
  41   6     0.23  -0.14  -0.17    -0.04   0.07   0.00    -0.05   0.04   0.07
  42   6     0.10  -0.06  -0.07     0.03   0.04  -0.02    -0.07   0.05   0.10
  43   6    -0.02   0.04   0.00     0.05  -0.01   0.02    -0.01   0.02   0.03
  44   6     0.07   0.18   0.12     0.04  -0.05   0.01    -0.07  -0.02  -0.05
  45   6     0.12   0.23   0.14     0.00  -0.09  -0.02    -0.08  -0.04  -0.09
  46   6     0.08   0.12   0.02    -0.02  -0.09  -0.02    -0.02   0.01  -0.03
  47   6    -0.03  -0.05  -0.13     0.00  -0.04   0.01     0.05   0.07   0.07
  48   6    -0.07  -0.08  -0.13     0.04   0.00   0.03     0.04   0.07   0.09
  49   6    -0.05  -0.05   0.12     0.06   0.01  -0.03    -0.03  -0.05   0.06
  50   6    -0.05  -0.08   0.11     0.05   0.03  -0.05    -0.02  -0.07   0.04
  51   6    -0.05  -0.06   0.03     0.07   0.02   0.02    -0.01  -0.11  -0.20
  52   6    -0.05  -0.03   0.05     0.07   0.00   0.03    -0.01  -0.06  -0.12
  53   6    -0.04  -0.01   0.05     0.05  -0.02   0.02     0.01   0.03   0.05
  54   6    -0.04   0.03   0.07     0.06  -0.05   0.01     0.02   0.09   0.16
  55   6    -0.03   0.04   0.05     0.04  -0.06   0.02     0.02   0.10   0.18
  56   6    -0.01   0.01   0.02     0.01  -0.04   0.05     0.01   0.05   0.09
  57   6    -0.01  -0.03  -0.00     0.01  -0.03   0.02     0.01   0.06   0.10
  58   6    -0.02  -0.04   0.01     0.03  -0.02   0.01     0.01   0.05   0.08
  59   6    -0.02   0.01  -0.00    -0.04  -0.02   0.04     0.02  -0.01  -0.05
  60   6    -0.05   0.04  -0.03    -0.10   0.11  -0.11     0.03   0.06  -0.16
  61   6    -0.08   0.02  -0.02    -0.15   0.18  -0.25     0.05   0.06  -0.13
  62   6    -0.07  -0.05   0.02    -0.13   0.08  -0.17     0.07  -0.03   0.04
  63   6    -0.03  -0.07   0.03    -0.06  -0.06   0.03     0.07  -0.08   0.13
  64   6    -0.01  -0.04   0.02    -0.03  -0.09   0.10     0.03  -0.04   0.05
  65   6     0.03  -0.05  -0.05     0.05  -0.07   0.10     0.01   0.04   0.12
  66   6     0.02  -0.02  -0.05     0.04   0.00   0.04     0.01   0.03   0.08
  67   6    -0.05  -0.01   0.04    -0.03   0.11  -0.07    -0.07  -0.05   0.10
  68   6    -0.09  -0.06   0.09    -0.03   0.10  -0.01    -0.07  -0.06   0.13
  69   1    -0.04  -0.03   0.04    -0.01   0.01   0.04    -0.00   0.00   0.01
  70   1    -0.02   0.01  -0.01    -0.01  -0.02   0.04     0.03   0.04  -0.06
  71   1     0.00   0.03  -0.03    -0.01  -0.01   0.01     0.02   0.03  -0.06
  72   1     0.04  -0.01   0.04    -0.02   0.02  -0.03     0.04  -0.03   0.04
  73   1     0.05  -0.01   0.04     0.03  -0.00   0.01     0.05  -0.03   0.05
  74   1     0.00   0.01   0.00     0.07  -0.03   0.05     0.00  -0.01   0.01
  75   1    -0.04   0.03  -0.04     0.04  -0.02   0.03    -0.05   0.02  -0.05
  76   1    -0.04   0.03  -0.04    -0.01   0.01  -0.02    -0.05   0.02  -0.05
  77   1    -0.01   0.02   0.03    -0.05  -0.01  -0.01    -0.00  -0.02  -0.04
  78   1    -0.01  -0.00   0.03    -0.04  -0.05   0.03    -0.00  -0.03  -0.04
  79   1     0.02  -0.03   0.01     0.01  -0.03   0.02    -0.02   0.05  -0.06
  80   1     0.03   0.00  -0.02     0.00   0.05  -0.08    -0.03   0.04  -0.07
  81   1     0.02   0.04  -0.04    -0.01   0.09  -0.11    -0.01  -0.02   0.01
  82   1     0.01   0.04  -0.02    -0.01   0.05  -0.03     0.01  -0.05   0.05
  83   1     0.01   0.00  -0.01    -0.01  -0.02   0.01    -0.01  -0.04  -0.08
  84   1     0.01  -0.02  -0.02    -0.01  -0.02  -0.01    -0.00  -0.02  -0.04
  85   1     0.01  -0.03  -0.02    -0.01  -0.01  -0.02     0.01   0.03   0.05
  86   1     0.00  -0.03  -0.01    -0.00  -0.00  -0.02     0.00   0.03   0.04
  87   1    -0.00   0.01  -0.05     0.01  -0.00   0.01     0.01   0.01  -0.06
  88   1    -0.00   0.03  -0.06     0.01  -0.01   0.02     0.01   0.02  -0.03
  89   1    -0.04   0.06   0.07     0.01  -0.02  -0.00     0.02  -0.02  -0.02
  90   1     0.02   0.02   0.03    -0.03  -0.00   0.01     0.04  -0.03  -0.05
  91   1     0.10  -0.05  -0.06    -0.05   0.03   0.02     0.01  -0.01  -0.02
  92   1     0.10  -0.07  -0.08    -0.02   0.03   0.00    -0.03   0.02   0.03
  93   1     0.03  -0.03  -0.03     0.02   0.01  -0.01    -0.03   0.02   0.05
  94   1     0.03   0.07   0.06     0.02  -0.02   0.00    -0.03  -0.01  -0.03
  95   1     0.06   0.10   0.07    -0.00  -0.04  -0.01    -0.04  -0.03  -0.05
  96   1     0.04   0.05   0.01    -0.02  -0.03  -0.01    -0.01   0.00  -0.02
  97   1    -0.02  -0.04  -0.07    -0.00  -0.01   0.00     0.03   0.03   0.03
  98   1    -0.04  -0.06  -0.06     0.02   0.01   0.01     0.02   0.03   0.04
  99   1    -0.02  -0.02   0.06     0.02   0.01  -0.01    -0.01  -0.02   0.04
 100   1    -0.02  -0.04   0.05     0.02   0.01  -0.02    -0.01  -0.04   0.03
 101   1    -0.02  -0.02   0.01     0.02   0.01   0.01    -0.01  -0.05  -0.10
 102   1    -0.02  -0.00   0.02     0.03   0.00   0.01    -0.00  -0.03  -0.05
 103   1    -0.02   0.01   0.03     0.02  -0.02  -0.00     0.01   0.03   0.06
 104   1    -0.01   0.02   0.02     0.01  -0.03   0.01     0.01   0.04   0.07
 105   1    -0.02   0.03  -0.02    -0.03   0.05  -0.04     0.01   0.03  -0.08
 106   1    -0.03   0.01  -0.01    -0.06   0.09  -0.12     0.02   0.03  -0.07
 107   1    -0.02  -0.02   0.01    -0.05   0.03  -0.07     0.03  -0.02   0.03
 108   1    -0.01  -0.03   0.01    -0.01  -0.04   0.03     0.03  -0.04   0.07
 109   1     0.02  -0.02  -0.02     0.03  -0.02   0.04     0.01   0.02   0.06
 110   1     0.01  -0.01  -0.03     0.03   0.01   0.01     0.01   0.02   0.03
 111   1    -0.01  -0.01   0.01    -0.01   0.04  -0.03    -0.03  -0.03   0.05
 112   1    -0.03  -0.03   0.04    -0.01   0.04  -0.01    -0.03  -0.03   0.07
                     22                     23                     24
                        a                      a                      a 
 Frequencies --   104.2057               111.3437               118.3214
 Red. masses --    10.2449                10.2216                10.6257
 Frc consts  --     0.0000                 0.0000                 0.0000
 IR Inten    --     0.1517                97.3741                19.7861
 Raman Activ --     0.0000                 0.0000                 0.0000
 Depolar     --     0.0000                 0.0000                 0.0000
 Atom AN      X      Y      Z        X      Y      Z        X      Y      Z
   1   6    -0.02  -0.08   0.05    -0.00   0.04  -0.02     0.01   0.06  -0.02
   2   6    -0.05  -0.10   0.11    -0.00   0.03  -0.02    -0.03  -0.03   0.06
   3   6     0.00  -0.05   0.05    -0.02   0.01   0.01    -0.07  -0.07   0.08
   4   6     0.05   0.01  -0.05    -0.03  -0.00   0.03    -0.08  -0.02   0.03
   5   7     0.06   0.02  -0.04    -0.03  -0.01   0.04    -0.09  -0.03   0.02
   6   6     0.05   0.02  -0.01    -0.02  -0.01   0.02    -0.07  -0.03   0.02
   7   6    -0.05   0.05  -0.08     0.01  -0.00   0.03    -0.09   0.01  -0.04
   8   6    -0.10   0.07  -0.09     0.03  -0.01   0.02    -0.07   0.00  -0.06
   9   6    -0.03   0.06  -0.01     0.02  -0.03  -0.00    -0.00  -0.06  -0.01
  10   6     0.09   0.03   0.09    -0.02  -0.03  -0.03     0.03  -0.11   0.05
  11   6     0.12   0.02   0.08    -0.05  -0.02  -0.02    -0.02  -0.09   0.05
  12   6     0.06   0.00  -0.00    -0.03   0.00   0.00    -0.08  -0.00  -0.01
  13   6     0.02   0.08   0.21    -0.01  -0.02  -0.08    -0.06   0.10   0.15
  14   6     0.03   0.07   0.24    -0.02  -0.02  -0.10    -0.06   0.12   0.13
  15   6     0.03  -0.03   0.04    -0.02   0.01  -0.04    -0.08   0.04  -0.04
  16   6     0.03  -0.04   0.04    -0.02   0.02  -0.02    -0.06   0.05  -0.05
  17   6     0.01  -0.05   0.03     0.02   0.02   0.02    -0.04   0.08  -0.04
  18   6    -0.03  -0.05   0.04     0.06  -0.02   0.05    -0.03   0.05  -0.00
  19   6    -0.06   0.03  -0.08     0.10  -0.02   0.07    -0.02   0.02   0.04
  20   6    -0.07   0.06  -0.16     0.08   0.05   0.03    -0.02   0.03   0.05
  21   6    -0.03   0.00  -0.10     0.03   0.10   0.00    -0.03   0.05   0.01
  22   6    -0.00  -0.05  -0.02     0.01   0.05   0.03    -0.03   0.09  -0.03
  23   6     0.00  -0.07   0.00    -0.00   0.04   0.06    -0.01   0.09  -0.06
  24   6    -0.01  -0.03  -0.02     0.01   0.01   0.04     0.02   0.04  -0.04
  25   6    -0.05  -0.03  -0.04     0.02   0.00   0.03     0.08  -0.02  -0.13
  26   6    -0.05  -0.00  -0.03     0.02  -0.07  -0.08     0.09  -0.08  -0.15
  27   6    -0.03   0.03   0.01     0.01  -0.09  -0.13     0.08  -0.05  -0.04
  28   6    -0.03   0.05   0.03     0.01  -0.09  -0.13     0.09  -0.06   0.02
  29   6    -0.03   0.05   0.02     0.02  -0.04  -0.04     0.08  -0.04   0.10
  30   6    -0.02   0.04  -0.00     0.01  -0.02  -0.02     0.06  -0.04   0.08
  31   6    -0.02   0.00  -0.08     0.01   0.04   0.06     0.05  -0.08   0.04
  32   6    -0.03  -0.00  -0.10     0.02   0.05   0.04     0.07  -0.09   0.08
  33   6    -0.03   0.04  -0.20    -0.04   0.15  -0.26     0.09  -0.05   0.05
  34   6    -0.03   0.04  -0.14    -0.04   0.13  -0.27     0.09  -0.01   0.00
  35   6    -0.04  -0.01   0.02    -0.00   0.01   0.01     0.08  -0.00  -0.02
  36   7    -0.05   0.00   0.09     0.01  -0.02  -0.00     0.09   0.03  -0.07
  37   6    -0.04  -0.01   0.06     0.00  -0.02   0.01     0.07   0.04  -0.05
  38   6    -0.02  -0.04   0.01     0.06  -0.07  -0.08     0.08   0.03  -0.06
  39   6     0.02  -0.07  -0.05     0.07  -0.08  -0.10     0.06   0.05  -0.04
  40   6     0.02  -0.07  -0.05    -0.00  -0.03  -0.01     0.01   0.09   0.01
  41   6    -0.03  -0.02   0.02    -0.08   0.03   0.10     0.01   0.09   0.02
  42   6    -0.06   0.01   0.08    -0.06   0.03   0.09     0.04   0.07  -0.01
  43   6    -0.03  -0.00   0.04    -0.00  -0.02  -0.02     0.08   0.03  -0.02
  44   6    -0.08  -0.01  -0.04    -0.07  -0.08  -0.11     0.09  -0.02   0.01
  45   6    -0.06   0.01  -0.07    -0.05  -0.07  -0.09     0.02  -0.08   0.01
  46   6     0.03   0.05  -0.01     0.04   0.04   0.03    -0.05  -0.08  -0.01
  47   6     0.07   0.05   0.06     0.09   0.09   0.11    -0.04   0.00  -0.00
  48   6     0.03   0.02   0.08     0.06   0.05   0.07     0.03   0.06  -0.01
  49   6    -0.04  -0.05   0.10     0.06  -0.09   0.29     0.07  -0.04   0.04
  50   6    -0.04  -0.05   0.04     0.05  -0.06   0.30     0.07  -0.09   0.09
  51   6    -0.01  -0.00  -0.08     0.04   0.07   0.13    -0.00  -0.12  -0.07
  52   6     0.00   0.04   0.03     0.03   0.03   0.07    -0.01  -0.08  -0.08
  53   6     0.00   0.07   0.09     0.02  -0.04  -0.04     0.01  -0.02   0.01
  54   6     0.01   0.09   0.16     0.01  -0.08  -0.10     0.01   0.04   0.04
  55   6     0.00   0.06   0.11     0.01  -0.07  -0.09     0.02   0.08   0.06
  56   6    -0.00   0.01   0.04     0.00  -0.04  -0.05     0.03   0.05   0.02
  57   6    -0.01   0.03   0.04     0.00  -0.07  -0.09     0.05  -0.00   0.02
  58   6    -0.01   0.05   0.05     0.01  -0.05  -0.06     0.04  -0.01   0.04
  59   6     0.03  -0.07   0.04    -0.03   0.03   0.05    -0.04   0.09  -0.08
  60   6     0.07  -0.12   0.09    -0.05   0.01   0.09    -0.09   0.13  -0.10
  61   6     0.08  -0.08   0.04    -0.07   0.01   0.07    -0.11  -0.00   0.05
[...]
  98   1     0.02  -0.00  -0.01     0.01  -0.00  -0.00     0.00  -0.00  -0.00
  99   1    -0.08  -0.17  -0.07     0.00   0.01   0.00     0.00   0.00   0.00
 100   1     0.13  -0.16  -0.08    -0.00   0.00   0.00    -0.00   0.00   0.00
 101   1    -0.03   0.03  -0.01     0.00  -0.00   0.00     0.00  -0.00   0.00
 102   1     0.01   0.04  -0.02    -0.00  -0.01   0.00    -0.00  -0.01   0.01
 103   1     0.01   0.04  -0.03    -0.00  -0.01   0.00    -0.01  -0.02   0.01
 104   1     0.09   0.01  -0.02    -0.02  -0.00   0.00    -0.09  -0.01   0.02
 105   1     0.04   0.01  -0.00     0.78   0.10  -0.00     0.15   0.02  -0.00
 106   1     0.00   0.01   0.01     0.10   0.18   0.11     0.02   0.04   0.02
 107   1    -0.00   0.00   0.00     0.01  -0.01  -0.01    -0.00   0.00   0.00
 108   1    -0.03  -0.00   0.00     0.45   0.08  -0.05     0.07   0.01  -0.01
 109   1    -0.09  -0.22   0.12    -0.00  -0.01   0.01    -0.01  -0.02   0.01
 110   1     0.19  -0.20   0.11    -0.00   0.00  -0.00     0.01  -0.01   0.00
 111   1     0.00   0.00   0.00     0.00   0.00   0.00    -0.00  -0.00  -0.00
 112   1    -0.02   0.00  -0.01    -0.00   0.00  -0.00    -0.00   0.00  -0.00
                    325                    326                    327
                        a                      a                      a 
 Frequencies --  3094.6771              3094.9707              3095.3589
 Red. masses --     1.9192                 1.9198                 1.9201
 Frc consts  --     0.0000                 0.0000                 0.0000
 IR Inten    --    49.5614               245.3039                88.3845
 Raman Activ --     0.0000                 0.0000                 0.0000
 Depolar     --     0.0000                 0.0000                 0.0000
 Atom AN      X      Y      Z        X      Y      Z        X      Y      Z
   1   6    -0.01   0.01   0.00     0.01  -0.01  -0.00     0.05  -0.06  -0.02
   2   6     0.00   0.00   0.00    -0.00  -0.01  -0.01    -0.01  -0.04  -0.03
   3   6     0.00  -0.00   0.00    -0.01   0.00  -0.00    -0.03   0.00  -0.01
   4   6     0.00  -0.00  -0.00    -0.00   0.00   0.00    -0.00   0.00   0.00
   5   7    -0.00  -0.00   0.00     0.00   0.00  -0.00    -0.00  -0.00  -0.00
   6   6     0.00   0.00   0.00    -0.00  -0.00  -0.00     0.00   0.01   0.00
   7   6     0.01   0.00  -0.01    -0.01  -0.00   0.01     0.05   0.02  -0.04
   8   6     0.00  -0.01  -0.01    -0.01   0.01   0.01     0.04  -0.06  -0.07
   9   6    -0.01  -0.02  -0.00     0.01   0.03   0.00    -0.06  -0.16  -0.02
  10   6    -0.01  -0.00   0.01     0.02   0.01  -0.01    -0.08  -0.03   0.07
  11   6    -0.00   0.01   0.01     0.01  -0.01  -0.01    -0.03   0.05   0.05
  12   6     0.00   0.00  -0.00    -0.00  -0.00   0.00     0.00  -0.00  -0.00
  13   6     0.00   0.00  -0.00    -0.00  -0.00   0.00    -0.00  -0.00   0.00
  14   6    -0.00   0.00  -0.00    -0.00  -0.00  -0.00     0.00  -0.00   0.00
  15   6     0.00  -0.00  -0.00    -0.00   0.00   0.00     0.00  -0.00  -0.00
  16   6     0.00   0.00   0.00    -0.00  -0.00   0.00    -0.00  -0.00  -0.00
  17   6    -0.00   0.00   0.00     0.00  -0.00  -0.00     0.00  -0.00  -0.00
  18   6    -0.02  -0.00   0.00     0.02   0.00  -0.00     0.02   0.00  -0.00
  19   6    -0.00  -0.01  -0.00     0.00   0.01   0.00     0.00   0.01   0.00
  20   6     0.01  -0.01  -0.01    -0.01   0.00   0.00    -0.01   0.01   0.00
  21   6     0.02   0.00  -0.00    -0.02  -0.00   0.00    -0.02  -0.00   0.00
  22   6     0.00   0.00   0.00    -0.00  -0.00  -0.00    -0.00  -0.00  -0.00
  23   6    -0.00   0.00  -0.00     0.00   0.00   0.00     0.00  -0.00  -0.00
  24   6    -0.00   0.00   0.00     0.00  -0.00  -0.00    -0.00  -0.00  -0.00
  25   6    -0.00   0.00  -0.00     0.00  -0.00   0.00    -0.00   0.00  -0.00
  26   6     0.00   0.00  -0.00     0.00  -0.00  -0.00     0.00   0.00  -0.00
  27   6     0.00  -0.00  -0.00    -0.00   0.00   0.00     0.00  -0.00   0.00
  28   6    -0.00   0.00  -0.00     0.00   0.00  -0.00     0.00   0.00  -0.00
  29   6     0.00  -0.00  -0.00     0.00   0.00  -0.00     0.00   0.00  -0.00
  30   6    -0.00   0.00  -0.00     0.00  -0.00   0.00     0.00   0.00  -0.00
  31   6     0.00  -0.00   0.00    -0.00   0.00   0.00     0.00  -0.00   0.00
  32   6    -0.00  -0.00  -0.00     0.00  -0.00  -0.00    -0.00  -0.00   0.00
  33   6     0.00   0.00   0.00    -0.00  -0.00  -0.00    -0.00  -0.00  -0.00
  34   6    -0.00   0.00   0.00     0.00  -0.00  -0.00     0.00  -0.00  -0.00
  35   6     0.00   0.00  -0.00    -0.00  -0.00  -0.00    -0.00  -0.00  -0.00
  36   7    -0.00   0.00  -0.00     0.00   0.00  -0.00     0.00   0.00  -0.00
  37   6    -0.00  -0.00   0.00    -0.00  -0.01   0.00    -0.00  -0.00   0.00
  38   6    -0.00  -0.00  -0.00    -0.07  -0.03  -0.04    -0.01  -0.00  -0.01
  39   6    -0.00   0.00  -0.01    -0.05   0.06  -0.08    -0.01   0.01  -0.01
  40   6     0.01   0.01  -0.00     0.07   0.17  -0.04     0.01   0.02  -0.01
  41   6     0.01   0.00   0.00     0.10   0.04   0.06     0.01   0.01   0.01
  42   6     0.00  -0.00   0.00     0.04  -0.05   0.06     0.01  -0.01   0.01
  43   6     0.00  -0.01   0.00     0.00  -0.00   0.00    -0.00   0.00  -0.00
  44   6    -0.02  -0.06   0.06     0.00   0.00  -0.00     0.00   0.00  -0.01
  45   6    -0.10   0.01   0.07     0.00  -0.00  -0.00     0.01  -0.00  -0.01
  46   6    -0.12   0.15  -0.03     0.00  -0.00   0.00     0.01  -0.01   0.00
  47   6     0.03   0.08  -0.08    -0.00  -0.00   0.00    -0.00  -0.01   0.01
  48   6     0.07  -0.01  -0.04    -0.00   0.00   0.00    -0.01   0.00   0.00
  49   6    -0.00  -0.00  -0.00     0.00   0.00   0.00     0.00   0.00   0.00
  50   6     0.00  -0.00  -0.00    -0.00   0.00   0.00    -0.00   0.00   0.00
  51   6     0.00  -0.00   0.00    -0.00   0.00  -0.00     0.00  -0.00   0.00
  52   6    -0.00  -0.00   0.00     0.00   0.00  -0.00    -0.00  -0.00   0.00
  53   6    -0.00   0.00   0.00     0.00  -0.00   0.00    -0.00   0.00   0.00
  54   6    -0.00  -0.00   0.00     0.00   0.00  -0.00    -0.00  -0.00   0.00
  55   6    -0.00  -0.00   0.00     0.00   0.00  -0.00    -0.00   0.00  -0.00
  56   6    -0.00   0.00   0.00     0.00  -0.00  -0.00     0.00  -0.00  -0.00
  57   6     0.00  -0.00   0.00    -0.00  -0.00  -0.00    -0.00  -0.00  -0.00
  58   6     0.00   0.00  -0.00    -0.00   0.00   0.00    -0.00   0.00  -0.00
  59   6     0.00  -0.00  -0.00    -0.00   0.00   0.00     0.00   0.00   0.00
  60   6     0.01   0.00   0.00    -0.01  -0.00  -0.00     0.00   0.00  -0.00
  61   6     0.00   0.00   0.00    -0.00  -0.00  -0.00     0.00   0.00   0.00
  62   6    -0.01   0.01   0.00     0.01  -0.00  -0.00    -0.00   0.00   0.00
  63   6    -0.03  -0.00   0.00     0.03   0.00  -0.00    -0.01  -0.00   0.00
  64   6    -0.00  -0.00  -0.00     0.00   0.00   0.00    -0.00  -0.00  -0.00
  65   6     0.00   0.00  -0.00    -0.00  -0.00   0.00     0.00   0.00  -0.00
  66   6     0.00  -0.00   0.00    -0.00   0.00  -0.00    -0.00   0.00  -0.00
  67   6    -0.00  -0.00  -0.00     0.00   0.00   0.00     0.01   0.02   0.02
  68   6    -0.01   0.00  -0.00     0.01  -0.00   0.00     0.05  -0.00   0.02
  69   1     0.02  -0.02  -0.01    -0.03   0.04   0.01    -0.18   0.22   0.06
  70   1    -0.01  -0.01  -0.01     0.01   0.02   0.02     0.05   0.12   0.10
  71   1    -0.02   0.00  -0.01     0.02  -0.00   0.01     0.10  -0.00   0.05
  72   1    -0.02  -0.01   0.02     0.04   0.02  -0.03    -0.17  -0.07   0.14
  73   1    -0.02   0.02   0.03     0.03  -0.04  -0.05    -0.13   0.20   0.23
  74   1     0.03   0.06   0.01    -0.04  -0.11  -0.01     0.22   0.55   0.06
  75   1     0.03   0.01  -0.03    -0.06  -0.02   0.05     0.27   0.11  -0.22
  76   1     0.01  -0.02  -0.02    -0.02   0.03   0.04     0.10  -0.16  -0.18
  77   1    -0.00  -0.01   0.00     0.00   0.00  -0.00     0.00   0.01  -0.01
  78   1     0.00  -0.00   0.00     0.00  -0.00  -0.00    -0.00   0.00  -0.00
  79   1     0.08   0.01  -0.00    -0.07  -0.01   0.00    -0.06  -0.01   0.00
  80   1     0.01   0.02   0.01    -0.01  -0.02  -0.01    -0.01  -0.02  -0.01
  81   1    -0.02   0.02   0.02     0.02  -0.02  -0.01     0.02  -0.02  -0.02
  82   1    -0.07  -0.01   0.01     0.06   0.01  -0.01     0.06   0.01  -0.01
  83   1     0.00  -0.00   0.00    -0.00   0.00  -0.00     0.00  -0.00   0.00
  84   1    -0.00  -0.00   0.00    -0.00  -0.00   0.00    -0.00  -0.00   0.00
  85   1    -0.00  -0.00   0.00    -0.00  -0.00   0.00    -0.00  -0.00   0.00
  86   1    -0.00  -0.00   0.00    -0.01  -0.00   0.00    -0.01  -0.00   0.00
  87   1    -0.00  -0.00  -0.00     0.00   0.00   0.00     0.00   0.01   0.00
  88   1     0.00  -0.00  -0.00    -0.00   0.00   0.00    -0.00   0.00   0.00
  89   1     0.01   0.01   0.01     0.23   0.09   0.13     0.03   0.01   0.02
  90   1     0.01  -0.02   0.02     0.17  -0.21   0.25     0.02  -0.03   0.03
  91   1    -0.02  -0.05   0.01    -0.23  -0.58   0.14    -0.03  -0.08   0.02
  92   1    -0.02  -0.01  -0.01    -0.33  -0.13  -0.19    -0.04  -0.02  -0.02
  93   1    -0.01   0.01  -0.01    -0.13   0.16  -0.20    -0.02   0.02  -0.03
  94   1     0.06   0.20  -0.21    -0.00  -0.01   0.01    -0.00  -0.02   0.02
  95   1     0.33  -0.03  -0.21    -0.01   0.00   0.01    -0.03   0.00   0.02
  96   1     0.41  -0.49   0.11    -0.01   0.01  -0.00    -0.03   0.04  -0.01
  97   1    -0.08  -0.25   0.27     0.00   0.00  -0.01     0.01   0.02  -0.02
  98   1    -0.23   0.02   0.15     0.01  -0.00  -0.01     0.02  -0.00  -0.01
  99   1     0.00   0.00   0.00    -0.00  -0.01  -0.00    -0.00  -0.01  -0.00
 100   1    -0.00   0.00   0.00     0.00  -0.01  -0.00     0.00  -0.00  -0.00
 101   1    -0.00   0.00  -0.00     0.00  -0.00   0.00    -0.00   0.00  -0.00
 102   1     0.00   0.00  -0.00    -0.00  -0.00   0.00     0.00   0.00  -0.00
 103   1     0.00   0.00  -0.00    -0.00  -0.00   0.00     0.00   0.00  -0.00
 104   1     0.01   0.00  -0.00    -0.01  -0.00   0.00     0.00   0.00  -0.00
 105   1    -0.02  -0.00   0.00     0.02   0.00  -0.00    -0.01  -0.00   0.00
 106   1    -0.01  -0.01  -0.01     0.01   0.01   0.01    -0.00  -0.01  -0.00
 107   1     0.02  -0.02  -0.01    -0.01   0.02   0.01     0.01  -0.01  -0.01
 108   1     0.10   0.02  -0.01    -0.09  -0.02   0.01     0.03   0.01  -0.00
 109   1    -0.00  -0.00   0.00     0.00   0.00  -0.00    -0.00  -0.00   0.00
 110   1    -0.00   0.00  -0.00     0.00  -0.00   0.00     0.00  -0.00   0.00
 111   1     0.00   0.01   0.01    -0.01  -0.01  -0.01    -0.03  -0.08  -0.07
 112   1     0.02  -0.00   0.01    -0.03   0.00  -0.01    -0.15   0.00  -0.07
                    328                    329                    330
                        a                      a                      a 
 Frequencies --  3095.5389              3095.6815              3096.5050
 Red. masses --     1.8685                 1.9094                 1.8710
 Frc consts  --     0.0000                 0.0000                 0.0000
 IR Inten    --   142.4391               109.5193               206.7589
 Raman Activ --     0.0000                 0.0000                 0.0000
 Depolar     --     0.0000                 0.0000                 0.0000
 Atom AN      X      Y      Z        X      Y      Z        X      Y      Z
   1   6     0.04  -0.04  -0.01     0.10  -0.13  -0.03    -0.02   0.03   0.01
   2   6    -0.01  -0.03  -0.02    -0.03  -0.07  -0.06     0.01   0.02   0.01
   3   6    -0.02   0.00  -0.01    -0.06   0.00  -0.03     0.02  -0.00   0.01
   4   6    -0.00   0.00   0.00    -0.00   0.00   0.00     0.00  -0.00  -0.00
   5   7     0.00   0.00  -0.00     0.00  -0.00  -0.00     0.00   0.00   0.00
   6   6    -0.00  -0.00  -0.00    -0.00  -0.00  -0.00     0.00   0.00   0.00
   7   6    -0.01  -0.01   0.01    -0.02  -0.01   0.02     0.01   0.00  -0.01
   8   6    -0.01   0.01   0.02    -0.01   0.02   0.03     0.00  -0.01  -0.01
   9   6     0.02   0.04   0.00     0.02   0.06   0.01    -0.01  -0.02  -0.00
  10   6     0.02   0.01  -0.02     0.03   0.01  -0.02    -0.01  -0.00   0.01
  11   6     0.01  -0.01  -0.01     0.01  -0.02  -0.02    -0.00   0.00   0.01
  12   6    -0.00  -0.00   0.00    -0.00  -0.00  -0.00    -0.00  -0.00   0.00
  13   6     0.00  -0.00  -0.00     0.00   0.00  -0.00    -0.00  -0.01   0.00
  14   6    -0.00   0.00  -0.00    -0.00   0.00  -0.00     0.01  -0.01   0.00
  15   6     0.00  -0.00  -0.00     0.00   0.00   0.00     0.00   0.00  -0.00
  16   6    -0.00  -0.00  -0.00    -0.00   0.00   0.00    -0.00  -0.00   0.00
  17   6     0.00  -0.00  -0.00    -0.00   0.00   0.00    -0.00   0.00   0.00
  18   6     0.09   0.01  -0.00    -0.07  -0.01   0.00    -0.12  -0.02   0.00
  19   6     0.02   0.03   0.02    -0.02  -0.03  -0.02    -0.03  -0.04  -0.03
  20   6    -0.03   0.03   0.03     0.02  -0.02  -0.02     0.04  -0.04  -0.04
  21   6    -0.10  -0.02   0.01     0.08   0.01  -0.01     0.12   0.02  -0.01
  22   6    -0.00  -0.00  -0.00     0.00   0.00   0.00     0.00   0.00   0.00
  23   6    -0.00  -0.00  -0.00    -0.00   0.00   0.00     0.00   0.00  -0.00
  24   6     0.00  -0.00  -0.00    -0.00   0.00   0.00    -0.00  -0.00   0.00
  25   6     0.00   0.00  -0.00    -0.00  -0.00   0.00    -0.00   0.00  -0.00
  26   6    -0.00  -0.00   0.00    -0.00  -0.00   0.00     0.00   0.00  -0.00
  27   6     0.00  -0.00   0.00    -0.00   0.00  -0.00     0.00   0.00  -0.00
  28   6    -0.00  -0.00   0.00    -0.00  -0.00   0.00     0.00   0.00  -0.00
  29   6    -0.00  -0.00   0.00    -0.00  -0.00   0.00     0.01   0.00  -0.00
  30   6    -0.00   0.00   0.00    -0.00  -0.00   0.00     0.00  -0.00   0.00
  31   6    -0.00   0.00  -0.00    -0.00   0.00  -0.00     0.00   0.00  -0.00
  32   6     0.00   0.00  -0.00     0.00   0.00  -0.00    -0.00  -0.00   0.00
  33   6     0.00   0.00   0.00     0.00   0.00   0.00    -0.00  -0.00  -0.00
  34   6    -0.00   0.00   0.00    -0.00   0.00   0.00     0.00  -0.00  -0.00
  35   6    -0.00  -0.00   0.00    -0.00  -0.00   0.00     0.00   0.00  -0.00
  36   7    -0.00  -0.00   0.00    -0.00  -0.00   0.00    -0.00  -0.00   0.00
  37   6     0.00   0.00  -0.00     0.00   0.00  -0.00    -0.00  -0.00   0.00
  38   6     0.00   0.00   0.00     0.01   0.00   0.00    -0.01  -0.01  -0.01
  39   6     0.00  -0.00   0.00     0.01  -0.01   0.01    -0.01   0.01  -0.01
  40   6    -0.00  -0.01   0.00    -0.01  -0.02   0.00     0.01   0.03  -0.01
  41   6    -0.00  -0.00  -0.00    -0.01  -0.00  -0.01     0.02   0.01   0.01
  42   6    -0.00   0.00  -0.00    -0.00   0.00  -0.01     0.01  -0.01   0.01
  43   6     0.00  -0.00   0.00     0.00  -0.00   0.00    -0.00   0.00  -0.00
  44   6    -0.00  -0.00   0.00    -0.00  -0.00   0.00     0.00   0.01  -0.01
  45   6    -0.00   0.00   0.00    -0.00   0.00   0.00     0.02  -0.00  -0.01
  46   6    -0.00   0.00  -0.00    -0.01   0.01  -0.00     0.02  -0.03   0.01
  47   6     0.00   0.00  -0.00     0.00   0.00  -0.00    -0.01  -0.02   0.02
  48   6     0.00  -0.00  -0.00     0.00  -0.00  -0.00    -0.01   0.00   0.01
  49   6    -0.00  -0.00  -0.00    -0.00  -0.00  -0.00     0.00   0.01   0.00
  50   6     0.00  -0.00  -0.00     0.00  -0.00  -0.00    -0.00   0.00   0.00
  51   6    -0.00   0.00  -0.00    -0.00   0.00  -0.00     0.00  -0.00   0.00
  52   6     0.00   0.00  -0.00     0.00   0.00  -0.00    -0.00  -0.00   0.00
  53   6    -0.00   0.00  -0.00     0.00  -0.00  -0.00     0.00  -0.00   0.00
  54   6     0.00   0.00  -0.00    -0.00  -0.00   0.00    -0.00  -0.01   0.00
  55   6     0.01   0.00  -0.00    -0.01  -0.00   0.00    -0.02  -0.00   0.00
  56   6    -0.00  -0.00  -0.00    -0.00   0.00   0.00    -0.00   0.00   0.00
  57   6    -0.00  -0.00  -0.00     0.00   0.00   0.00     0.00  -0.00   0.00
  58   6    -0.00   0.00   0.00     0.00  -0.00   0.00     0.00   0.00  -0.00
  59   6     0.00  -0.00  -0.00    -0.00  -0.00  -0.00     0.00  -0.00  -0.00
  60   6     0.08   0.01   0.00    -0.01  -0.00   0.00     0.08   0.01   0.00
  61   6     0.03   0.04   0.03    -0.00  -0.01  -0.00     0.02   0.04   0.02
  62   6    -0.04   0.04   0.03     0.01  -0.01  -0.01    -0.03   0.04   0.03
  63   6    -0.17  -0.03   0.02     0.03   0.01  -0.00    -0.13  -0.02   0.01
  64   6    -0.00  -0.00  -0.00     0.00   0.00   0.00    -0.00  -0.00  -0.00
  65   6     0.00   0.00  -0.00    -0.00  -0.00   0.00     0.00   0.01  -0.01
  66   6     0.00  -0.00   0.00     0.00  -0.00   0.00    -0.00   0.00  -0.00
  67   6     0.01   0.02   0.02     0.02   0.05   0.05    -0.00  -0.01  -0.01
  68   6     0.03  -0.00   0.01     0.09  -0.00   0.04    -0.02   0.00  -0.01
  69   1    -0.12   0.15   0.04    -0.35   0.43   0.11     0.08  -0.10  -0.02
  70   1     0.03   0.08   0.07     0.09   0.23   0.20    -0.02  -0.05  -0.05
  71   1     0.07  -0.00   0.03     0.20  -0.01   0.09    -0.06   0.00  -0.03
  72   1     0.04   0.02  -0.03     0.07   0.03  -0.06    -0.02  -0.01   0.02
  73   1     0.03  -0.05  -0.05     0.05  -0.07  -0.08    -0.01   0.02   0.03
  74   1    -0.05  -0.14  -0.01    -0.08  -0.19  -0.02     0.02   0.06   0.01
  75   1    -0.07  -0.03   0.05    -0.10  -0.04   0.08     0.03   0.01  -0.03
  76   1    -0.03   0.04   0.05    -0.04   0.06   0.07     0.01  -0.02  -0.02
  77   1     0.00   0.00  -0.00    -0.01  -0.02   0.01     0.01   0.02  -0.01
  78   1     0.00  -0.00   0.00     0.00  -0.00   0.00    -0.03   0.03  -0.01
  79   1    -0.31  -0.04   0.01     0.23   0.03  -0.01     0.41   0.06  -0.01
  80   1    -0.06  -0.11  -0.07     0.04   0.08   0.05     0.08   0.14   0.09
  81   1     0.09  -0.10  -0.09    -0.07   0.07   0.07    -0.12   0.12   0.11
  82   1     0.35   0.07  -0.04    -0.28  -0.05   0.03    -0.44  -0.08   0.05
  83   1     0.00  -0.00  -0.00    -0.00  -0.00   0.00     0.02  -0.02   0.01
  84   1     0.00   0.00  -0.00     0.00   0.00  -0.00    -0.00  -0.01   0.01
  85   1     0.00   0.00  -0.00     0.00   0.00  -0.00    -0.00  -0.01   0.01
  86   1     0.01   0.00  -0.00     0.01   0.00  -0.00    -0.02  -0.00   0.01
  87   1    -0.00  -0.00  -0.00    -0.00  -0.01  -0.00     0.01   0.02   0.01
  88   1     0.00  -0.00  -0.00     0.00  -0.01  -0.00    -0.01   0.02   0.01
  89   1    -0.01  -0.00  -0.01    -0.02  -0.01  -0.01     0.05   0.02   0.03
  90   1    -0.01   0.01  -0.01    -0.02   0.02  -0.02     0.03  -0.04   0.04
  91   1     0.01   0.02  -0.01     0.02   0.05  -0.01    -0.04  -0.10   0.02
  92   1     0.01   0.01   0.01     0.03   0.01   0.02    -0.05  -0.02  -0.03
  93   1     0.01  -0.01   0.01     0.01  -0.02   0.02    -0.03   0.03  -0.04
  94   1     0.00   0.01  -0.01     0.00   0.01  -0.01    -0.01  -0.04   0.04
  95   1     0.01  -0.00  -0.01     0.02  -0.00  -0.01    -0.06   0.01   0.04
  96   1     0.01  -0.01   0.00     0.02  -0.02   0.00    -0.08   0.09  -0.02
  97   1    -0.00  -0.01   0.01    -0.00  -0.01   0.01     0.02   0.05  -0.05
  98   1    -0.01   0.00   0.00    -0.01   0.00   0.01     0.05  -0.00  -0.03
  99   1     0.00   0.00   0.00     0.00   0.01   0.00    -0.01  -0.02  -0.01
 100   1    -0.00   0.00   0.00    -0.00   0.01   0.00     0.01  -0.01  -0.01
 101   1     0.00  -0.00   0.00     0.00  -0.00   0.00    -0.01   0.01  -0.00
 102   1    -0.00  -0.01   0.00    -0.00  -0.00   0.00     0.00   0.01  -0.01
 103   1    -0.00  -0.01   0.01     0.00   0.00  -0.00     0.01   0.02  -0.01
 104   1    -0.03  -0.01   0.01     0.02   0.00  -0.00     0.07   0.01  -0.01
 105   1    -0.28  -0.04   0.00     0.03   0.00  -0.00    -0.26  -0.03   0.00
 106   1    -0.08  -0.14  -0.08     0.01   0.02   0.01    -0.07  -0.12  -0.08
 107   1     0.12  -0.13  -0.11    -0.02   0.02   0.02     0.10  -0.11  -0.09
 108   1     0.59   0.11  -0.06    -0.10  -0.02   0.01     0.47   0.09  -0.05
 109   1    -0.00  -0.01   0.00     0.00   0.01  -0.00    -0.01  -0.04   0.02
 110   1    -0.01   0.01  -0.00    -0.01   0.01  -0.01     0.01  -0.01   0.01
 111   1    -0.02  -0.06  -0.05    -0.07  -0.18  -0.15     0.01   0.04   0.03
 112   1    -0.10   0.00  -0.05    -0.30   0.01  -0.14     0.07  -0.00   0.03
