 Entering Gaussian System
 *********************************************
 Gaussian 98:
 frequency output generated by the xtb code
 *********************************************
                         Standard orientation:
 --------------------------------------------------------------------
  Center     Atomic     Atomic              Coordinates (Angstroms)
  Number     Number      Type              X           Y           Z
 --------------------------------------------------------------------
    1          7             0       -0.046403   -0.480440    1.208667
    2          6             0       -0.006654    0.051195    0.191798
    3          6             0        0.031700    0.782659   -1.013775
    4          6             0        1.264351    1.160740   -1.578149
    5          7             0        2.462607    0.705200   -1.031417
    6          6             0        2.783596   -0.608405   -0.730431
    7          6             0        2.071291   -1.773383   -0.967062
    8          6             0        2.637947   -2.971490   -0.582557
    9          6             0        3.906278   -3.037580    0.008280
   10          6             0        4.460155   -4.338335    0.417468
   11          6             0        5.793976   -4.655932    0.170128
   12          6             0        6.310874   -5.878405    0.558396
   13          6             0        5.506070   -6.801688    1.205409
   14          6             0        4.179252   -6.495226    1.459496
   15          6             0        3.659306   -5.275339    1.067336
   16          6             0        4.636658   -1.870795    0.196168
   17          6             0        4.080156   -0.656527   -0.173751
   18          6             0        4.560802    0.699033   -0.133944
   19          6             0        5.740580    1.274178    0.312148
   20          6             0        5.901442    2.651510    0.221728
   21          6             0        7.146769    3.289320    0.678400
   22          6             0        7.764359    2.878906    1.858126
   23          6             0        8.932036    3.481310    2.289112
   24          6             0        9.505630    4.500999    1.547397
   25          6             0        8.902388    4.915100    0.371268
   26          6             0        7.732734    4.316170   -0.059165
   27          6             0        4.862465    3.435821   -0.296397
   28          6             0        3.676753    2.884187   -0.739288
   29          6             0        3.537317    1.505924   -0.676694
   30          6             0        1.276512    2.015327   -2.676513
   31          6             0        0.090147    2.489794   -3.207066
   32          6             0       -1.127405    2.102927   -2.674127
   33          6             0       -1.170424    1.240813   -1.584545
   34          7             0       -2.396578    0.844196   -1.048625
   35          6             0       -3.407736    1.694389   -0.634296
   36          6             0       -3.442167    3.080127   -0.601441
   37          6             0       -4.578473    3.686904   -0.104478
   38          6             0       -5.669804    2.947833    0.371433
   39          6             0       -6.856375    3.641278    0.898260
   40          6             0       -7.488379    3.185869    2.053716
   41          6             0       -8.602534    3.836146    2.551414
   42          6             0       -9.107333    4.950634    1.901820
   43          6             0       -8.488283    5.411705    0.751643
   44          6             0       -7.371688    4.764644    0.254821
   45          6             0       -5.617611    1.559119    0.355363
   46          6             0       -4.489171    0.929121   -0.145707
   47          6             0       -4.112924   -0.452139   -0.289725
   48          6             0       -4.763202   -1.646582   -0.022652
   49          6             0       -4.130773   -2.846509   -0.324106
   50          6             0       -4.803722   -4.128429   -0.058496
   51          6             0       -5.499102   -4.331469    1.131719
   52          6             0       -6.132091   -5.535189    1.381878
   53          6             0       -6.085692   -6.555053    0.445629
   54          6             0       -5.400863   -6.363021   -0.743013
   55          6             0       -4.763125   -5.161651   -0.992441
   56          6             0       -2.853405   -2.830384   -0.898754
   57          6             0       -2.186807   -1.652074   -1.166865
   58          6             0       -2.814097   -0.459520   -0.843575
   59          1             0        1.102347   -1.757798   -1.442378
   60          1             0        2.096749   -3.888607   -0.761859
   61          1             0        6.422835   -3.945872   -0.347661
   62          1             0        7.345983   -6.113028    0.354465
   63          1             0        5.910958   -7.755604    1.510725
   64          1             0        3.547204   -7.209149    1.968318
   65          1             0        2.628353   -5.034154    1.283940
   66          1             0        5.618704   -1.905607    0.642675
   67          1             0        6.529996    0.655224    0.710329
   68          1             0        7.312443    2.096527    2.450945
   69          1             0        9.395604    3.155769    3.209545
   70          1             0       10.418132    4.970921    1.884606
   71          1             0        9.347118    5.707313   -0.214154
   72          1             0        7.277178    4.633159   -0.986321
   73          1             0        4.984770    4.508323   -0.327155
   74          1             0        2.883223    3.515409   -1.109605
   75          1             0        2.222258    2.289714   -3.116518
   76          1             0        0.113673    3.149810   -4.060364
   77          1             0       -2.053077    2.449399   -3.106117
   78          1             0       -2.604952    3.671767   -0.940285
   79          1             0       -4.618614    4.764999   -0.057021
   80          1             0       -7.089060    2.327795    2.575234
   81          1             0       -9.077792    3.473907    3.451977
   82          1             0       -9.978710    5.457463    2.290330
   83          1             0       -8.879142    6.278809    0.238364
   84          1             0       -6.904611    5.120220   -0.652394
   85          1             0       -6.451299    0.975216    0.714504
   86          1             0       -5.761559   -1.642990    0.387777
   87          1             0       -5.524955   -3.545329    1.872663
   88          1             0       -6.661913   -5.679729    2.312697
   89          1             0       -6.581573   -7.494779    0.640874
   90          1             0       -5.364951   -7.152968   -1.479791
   91          1             0       -4.244829   -5.012836   -1.928941
   92          1             0       -2.370146   -3.769273   -1.125063
   93          1             0       -1.207948   -1.669644   -1.622076
 --------------------------------------------------------------------
     1 basis functions        1 primitive gaussians
     1 alpha electrons        1 beta electrons
 
 Harmonic frequencies (cm**-1), IR intensities (km*mol⁻¹),
 Raman scattering activities (A**4/amu), Raman depolarization ratios,
 reduced masses (AMU), force constants (mDyne/A) and normal coordinates:
                      1                      2                      3
                        a                      a                      a 
 Frequencies --     6.5490                11.3973                11.6225
 Red. masses --    11.1264                11.2654                11.2085
 Frc consts  --     0.0000                 0.0000                 0.0000
 IR Inten    --     0.0843                 0.0153                 0.0174
 Raman Activ --     0.0000                 0.0000                 0.0000
 Depolar     --     0.0000                 0.0000                 0.0000
 Atom AN      X      Y      Z        X      Y      Z        X      Y      Z
   1   7    -0.02   0.01   0.00     0.00   0.01  -0.13    -0.00   0.10   0.03
   2   6    -0.01   0.00   0.00     0.00   0.00  -0.13    -0.00   0.09   0.02
   3   6     0.00  -0.00   0.00     0.00  -0.00  -0.13    -0.00   0.09   0.02
   4   6     0.00  -0.01  -0.00     0.00  -0.00  -0.13     0.00   0.09   0.02
   5   7     0.00  -0.00  -0.00    -0.00  -0.00  -0.13    -0.00   0.07   0.01
   6   6    -0.00   0.00   0.03    -0.02  -0.00  -0.10    -0.03   0.05   0.01
   7   6    -0.01  -0.00   0.07    -0.01  -0.00  -0.11    -0.06   0.07   0.00
   8   6    -0.01   0.01   0.10    -0.03   0.00  -0.08    -0.09   0.06   0.00
   9   6    -0.01   0.02   0.10    -0.06   0.00  -0.03    -0.10   0.02   0.01
  10   6    -0.02   0.03   0.15    -0.08   0.01   0.02    -0.14   0.01   0.02
  11   6    -0.03   0.01   0.17    -0.08  -0.01   0.07    -0.15  -0.03   0.02
  12   6    -0.03   0.02   0.22    -0.10  -0.01   0.12    -0.18  -0.05   0.03
  13   6    -0.04   0.06   0.26    -0.13   0.02   0.12    -0.22  -0.02   0.03
  14   6    -0.04   0.08   0.25    -0.14   0.04   0.07    -0.21   0.03   0.03
  15   6    -0.03   0.06   0.19    -0.11   0.03   0.02    -0.17   0.04   0.02
  16   6    -0.01   0.02   0.06    -0.06   0.00  -0.02    -0.06   0.00   0.00
  17   6     0.00   0.01   0.03    -0.04  -0.00  -0.05    -0.03   0.02   0.00
  18   6     0.01   0.01  -0.01    -0.04  -0.00  -0.05     0.00   0.01  -0.00
  19   6     0.01   0.01  -0.04    -0.06   0.00   0.00     0.02  -0.03  -0.01
  20   6     0.02   0.01  -0.07    -0.05   0.00   0.01     0.06  -0.03  -0.02
  21   6     0.03   0.02  -0.10    -0.08   0.01   0.07     0.09  -0.07  -0.03
  22   6     0.04   0.04  -0.09    -0.14   0.01   0.10     0.09  -0.09  -0.04
  23   6     0.04   0.05  -0.12    -0.17   0.01   0.17     0.12  -0.12  -0.06
  24   6     0.04   0.03  -0.15    -0.13   0.01   0.20     0.14  -0.14  -0.07
  25   6     0.03  -0.00  -0.16    -0.07   0.01   0.16     0.13  -0.12  -0.06
  26   6     0.03  -0.01  -0.13    -0.04   0.01   0.10     0.11  -0.09  -0.04
  27   6     0.02   0.00  -0.08    -0.03  -0.00  -0.04     0.08  -0.00  -0.00
  28   6     0.01  -0.00  -0.06    -0.01  -0.00  -0.09     0.06   0.03   0.01
  29   6     0.01   0.00  -0.03    -0.01  -0.00  -0.09     0.02   0.03   0.01
  30   6     0.00  -0.02  -0.01     0.00  -0.01  -0.13     0.00   0.10   0.03
  31   6     0.00  -0.01  -0.00     0.00  -0.01  -0.13     0.00   0.11   0.04
  32   6     0.00  -0.00   0.00     0.00  -0.00  -0.13     0.00   0.10   0.03
  33   6     0.00  -0.00   0.00     0.00  -0.00  -0.13    -0.00   0.09   0.02
  34   7     0.00  -0.00   0.00     0.00  -0.00  -0.13     0.00   0.07   0.01
  35   6     0.01  -0.01   0.03     0.02  -0.00  -0.08    -0.02   0.04   0.01
  36   6     0.02  -0.01   0.06     0.02  -0.00  -0.08    -0.06   0.04   0.01
  37   6     0.03  -0.01   0.08     0.04  -0.00  -0.03    -0.08   0.00  -0.00
  38   6     0.02  -0.02   0.07     0.06  -0.00   0.01    -0.07  -0.03  -0.01
  39   6     0.03  -0.03   0.10     0.09  -0.00   0.07    -0.09  -0.06  -0.02
  40   6     0.04  -0.05   0.09     0.14  -0.01   0.10    -0.09  -0.08  -0.02
  41   6     0.05  -0.06   0.12     0.16  -0.02   0.15    -0.11  -0.11  -0.03
  42   6     0.05  -0.04   0.16     0.14  -0.01   0.19    -0.14  -0.12  -0.04
  43   6     0.04  -0.01   0.16     0.08   0.00   0.17    -0.14  -0.11  -0.04
  44   6     0.03  -0.01   0.13     0.06   0.00   0.11    -0.12  -0.08  -0.03
  45   6     0.01  -0.02   0.03     0.06  -0.00   0.01    -0.03  -0.02  -0.01
  46   6     0.01  -0.01   0.01     0.04  -0.00  -0.04    -0.01   0.01  -0.00
  47   6    -0.00  -0.01  -0.03     0.04  -0.00  -0.05     0.03   0.02  -0.00
  48   6    -0.01  -0.02  -0.07     0.05  -0.00  -0.01     0.06  -0.00  -0.00
  49   6    -0.02  -0.01  -0.10     0.05  -0.00  -0.02     0.10   0.02   0.00
  50   6    -0.04  -0.02  -0.16     0.07  -0.00   0.03     0.14  -0.00   0.01
  51   6    -0.04  -0.06  -0.16     0.11   0.02   0.05     0.14  -0.02   0.01
  52   6    -0.05  -0.06  -0.21     0.13   0.02   0.10     0.18  -0.04   0.02
  53   6    -0.06  -0.02  -0.26     0.12  -0.01   0.12     0.23  -0.05   0.03
  54   6    -0.06   0.02  -0.25     0.08  -0.03   0.10     0.22  -0.03   0.03
  55   6    -0.05   0.02  -0.20     0.06  -0.03   0.05     0.18  -0.01   0.02
  56   6    -0.02  -0.00  -0.10     0.03  -0.00  -0.07     0.09   0.05  -0.01
  57   6    -0.01  -0.00  -0.06     0.01  -0.00  -0.11     0.06   0.07  -0.01
  58   6    -0.00  -0.01  -0.03     0.02  -0.00  -0.10     0.03   0.05   0.00
  59   1    -0.00  -0.00   0.02     0.00  -0.00  -0.04    -0.02   0.03   0.00
  60   1    -0.01   0.00   0.04    -0.01   0.00  -0.02    -0.03   0.02   0.00
  61   1    -0.01  -0.01   0.04    -0.02  -0.01   0.02    -0.04  -0.02   0.01
  62   1    -0.01   0.00   0.07    -0.03  -0.01   0.05    -0.06  -0.02   0.01
  63   1    -0.01   0.02   0.09    -0.04   0.01   0.05    -0.07  -0.01   0.01
  64   1    -0.01   0.03   0.08    -0.05   0.02   0.02    -0.07   0.01   0.01
  65   1    -0.01   0.02   0.05    -0.03   0.01  -0.01    -0.05   0.02   0.00
  66   1    -0.00   0.01   0.02    -0.02   0.00   0.01    -0.02  -0.01   0.00
  67   1     0.00   0.01  -0.01    -0.02   0.00   0.01     0.00  -0.01  -0.01
  68   1     0.01   0.02  -0.02    -0.05   0.00   0.02     0.02  -0.02  -0.01
  69   1     0.01   0.02  -0.03    -0.06   0.00   0.06     0.04  -0.04  -0.02
  70   1     0.01   0.01  -0.05    -0.04   0.01   0.07     0.05  -0.05  -0.02
  71   1     0.01  -0.01  -0.05    -0.01   0.00   0.05     0.04  -0.04  -0.02
  72   1     0.01  -0.01  -0.04     0.00   0.00   0.02     0.03  -0.02  -0.01
  73   1     0.01   0.00  -0.03    -0.01  -0.00  -0.01     0.03  -0.00  -0.00
  74   1     0.00  -0.00  -0.02     0.00  -0.00  -0.04     0.02   0.02   0.01
  75   1    -0.00  -0.01  -0.00     0.00  -0.00  -0.04     0.00   0.03   0.01
  76   1     0.00  -0.00  -0.00     0.00  -0.00  -0.04     0.00   0.03   0.01
  77   1     0.00   0.00   0.00     0.00  -0.00  -0.04     0.00   0.03   0.01
  78   1     0.01  -0.00   0.02     0.00  -0.00  -0.03    -0.02   0.02   0.00
  79   1     0.01  -0.00   0.03     0.01  -0.00  -0.01    -0.03   0.00  -0.00
  80   1     0.01  -0.02   0.02     0.05  -0.01   0.02    -0.02  -0.02  -0.01
  81   1     0.02  -0.02   0.03     0.06  -0.01   0.05    -0.03  -0.03  -0.01
  82   1     0.02  -0.01   0.05     0.04  -0.00   0.07    -0.04  -0.04  -0.01
  83   1     0.01   0.00   0.05     0.02   0.00   0.06    -0.05  -0.03  -0.01
  84   1     0.01   0.00   0.04     0.01   0.00   0.03    -0.03  -0.02  -0.01
  85   1     0.00  -0.01   0.01     0.02  -0.00   0.01    -0.00  -0.01  -0.00
  86   1    -0.00  -0.01  -0.02     0.02  -0.00   0.01     0.02  -0.01  -0.00
  87   1    -0.01  -0.03  -0.04     0.04   0.01   0.01     0.03  -0.00  -0.00
  88   1    -0.01  -0.03  -0.06     0.05   0.01   0.04     0.05  -0.01   0.00
  89   1    -0.02  -0.01  -0.09     0.04  -0.00   0.05     0.07  -0.02   0.01
  90   1    -0.02   0.02  -0.08     0.02  -0.01   0.03     0.07  -0.01   0.01
  91   1    -0.01   0.02  -0.06     0.01  -0.01   0.01     0.05  -0.00   0.01
  92   1    -0.01  -0.00  -0.04     0.01  -0.00  -0.02     0.03   0.02  -0.00
  93   1    -0.00   0.00  -0.02    -0.00   0.00  -0.04     0.02   0.03  -0.00
                      4                      5                      6
                        a                      a                      a 
 Frequencies --    25.2514                35.7507                36.2914
 Red. masses --    11.4737                10.8936                10.9283
 Frc consts  --     0.0000                 0.0000                 0.0000
 IR Inten    --     0.9072                 0.2930                 0.2512
 Raman Activ --     0.0000                 0.0000                 0.0000
 Depolar     --     0.0000                 0.0000                 0.0000
 Atom AN      X      Y      Z        X      Y      Z        X      Y      Z
   1   7     0.24  -0.02   0.00    -0.05   0.15   0.09    -0.06  -0.11  -0.07
   2   6     0.15  -0.01   0.00    -0.04   0.08   0.06    -0.05  -0.06  -0.05
   3   6     0.06  -0.00   0.00    -0.02   0.02   0.02    -0.04  -0.01  -0.02
   4   6     0.02  -0.01  -0.08    -0.01  -0.07  -0.02    -0.02  -0.04  -0.01
   5   7     0.06  -0.01  -0.17    -0.02  -0.10  -0.01    -0.03  -0.08  -0.03
   6   6     0.05  -0.01  -0.15    -0.04  -0.08   0.07    -0.00  -0.08  -0.06
   7   6     0.05  -0.01  -0.16    -0.06  -0.08   0.14     0.00  -0.09  -0.02
   8   6     0.03  -0.01  -0.13    -0.05  -0.07   0.16     0.03  -0.09  -0.03
   9   6     0.02  -0.01  -0.10    -0.03  -0.06   0.11     0.05  -0.07  -0.07
  10   6    -0.02  -0.00  -0.04     0.01  -0.06   0.06     0.09  -0.03  -0.02
  11   6    -0.02  -0.04   0.01     0.00  -0.03  -0.04     0.10  -0.01  -0.03
  12   6    -0.05  -0.03   0.09     0.05  -0.04  -0.13     0.16   0.06   0.09
  13   6    -0.09   0.02   0.13     0.10  -0.09  -0.13     0.22   0.09   0.22
  14   6    -0.09   0.06   0.08     0.11  -0.12  -0.04     0.21   0.06   0.21
  15   6    -0.05   0.05  -0.00     0.07  -0.11   0.06     0.15  -0.00   0.10
  16   6     0.03  -0.01  -0.12    -0.03  -0.06   0.08     0.04  -0.06  -0.11
  17   6     0.05  -0.01  -0.14    -0.04  -0.06   0.06     0.02  -0.07  -0.10
  18   6     0.05  -0.01  -0.14    -0.02  -0.07   0.00    -0.00  -0.07  -0.09
  19   6     0.03  -0.01  -0.11    -0.03  -0.05  -0.00     0.00  -0.07  -0.10
  20   6     0.02  -0.01  -0.09    -0.02  -0.06  -0.07    -0.03  -0.06  -0.03
  21   6    -0.01   0.00  -0.01    -0.05  -0.02  -0.04    -0.03  -0.07  -0.01
  22   6    -0.07  -0.01   0.02    -0.17   0.11   0.07     0.03  -0.19  -0.08
  23   6    -0.11   0.01   0.10    -0.21   0.17   0.11     0.03  -0.21  -0.06
  24   6    -0.08   0.03   0.15    -0.14   0.08   0.05    -0.03  -0.10   0.04
  25   6    -0.02   0.04   0.12    -0.02  -0.07  -0.07    -0.09   0.02   0.11
  26   6     0.02   0.02   0.04     0.02  -0.11  -0.11    -0.09   0.04   0.09
  27   6     0.04  -0.01  -0.12     0.00  -0.08  -0.15    -0.05  -0.06   0.02
  28   6     0.05  -0.01  -0.15     0.00  -0.09  -0.13    -0.05  -0.06   0.02
  29   6     0.05  -0.01  -0.15    -0.01  -0.08  -0.05    -0.03  -0.07  -0.04
  30   6    -0.05   0.00  -0.08     0.01  -0.13  -0.06     0.00  -0.01   0.01
  31   6    -0.08   0.01   0.01     0.03  -0.08  -0.06     0.02   0.07   0.05
  32   6    -0.05   0.01   0.09     0.02   0.01  -0.01     0.01   0.12   0.05
  33   6     0.02   0.00   0.09    -0.01   0.05   0.02    -0.02   0.07   0.01
  34   7     0.06   0.00   0.18    -0.01   0.09   0.04    -0.04   0.09  -0.00
  35   6     0.05   0.00   0.15    -0.01   0.07   0.04    -0.03   0.08   0.01
  36   6     0.04   0.00   0.14    -0.02   0.07   0.02    -0.03   0.08   0.06
  37   6     0.02  -0.00   0.11    -0.03   0.06   0.02    -0.04   0.07   0.06
  38   6     0.01  -0.00   0.08    -0.02   0.06   0.04    -0.05   0.05   0.02
  39   6    -0.02  -0.01   0.01    -0.03   0.05   0.02    -0.06   0.03   0.02
  40   6    -0.08   0.01  -0.01    -0.02   0.07   0.03    -0.10  -0.02  -0.02
  41   6    -0.12   0.01  -0.10    -0.03   0.07   0.02    -0.12  -0.05  -0.03
  42   6    -0.11  -0.02  -0.16    -0.05   0.05  -0.01    -0.10  -0.02   0.01
  43   6    -0.05  -0.04  -0.14    -0.05   0.02  -0.03    -0.06   0.04   0.05
  44   6    -0.01  -0.04  -0.06    -0.05   0.03  -0.01    -0.04   0.06   0.06
  45   6     0.03  -0.00   0.11    -0.00   0.06   0.06    -0.05   0.05  -0.02
  46   6     0.04   0.00   0.14     0.00   0.06   0.05    -0.04   0.07  -0.02
  47   6     0.05   0.00   0.15     0.01   0.06   0.05    -0.04   0.07  -0.05
  48   6     0.04   0.00   0.12     0.03   0.05   0.04    -0.04   0.06  -0.06
  49   6     0.02   0.00   0.10     0.04   0.06   0.01    -0.02   0.07  -0.07
  50   6    -0.01   0.01   0.03     0.08   0.04  -0.03     0.01   0.06  -0.03
  51   6    -0.03  -0.04   0.01     0.12  -0.04  -0.02     0.03   0.07  -0.02
  52   6    -0.06  -0.03  -0.06     0.17  -0.08  -0.05     0.09   0.06   0.04
  53   6    -0.09   0.02  -0.12     0.19  -0.03  -0.10     0.13   0.02   0.08
  54   6    -0.07   0.06  -0.10     0.14   0.05  -0.11     0.11   0.01   0.06
  55   6    -0.03   0.06  -0.03     0.09   0.08  -0.08     0.05   0.03   0.01
  56   6     0.03   0.00   0.12     0.04   0.08  -0.01    -0.03   0.09  -0.09
  57   6     0.05   0.00   0.15     0.02   0.10   0.00    -0.04   0.09  -0.08
  58   6     0.05   0.00   0.16     0.01   0.08   0.03    -0.04   0.08  -0.05
  59   1     0.02  -0.00  -0.05    -0.02  -0.03   0.05    -0.01  -0.03   0.01
  60   1     0.01  -0.00  -0.03    -0.02  -0.02   0.06     0.01  -0.03   0.00
  61   1     0.00  -0.02  -0.00    -0.01   0.00  -0.01     0.02  -0.01  -0.03
  62   1    -0.02  -0.02   0.04     0.01  -0.00  -0.06     0.05   0.02   0.02
  63   1    -0.03   0.01   0.06     0.04  -0.03  -0.06     0.08   0.04   0.09
  64   1    -0.03   0.03   0.03     0.04  -0.05  -0.01     0.07   0.03   0.09
  65   1    -0.01   0.03  -0.01     0.02  -0.04   0.04     0.04  -0.01   0.03
  66   1     0.01  -0.00  -0.03    -0.01  -0.01   0.02     0.02  -0.01  -0.04
  67   1     0.01  -0.00  -0.03    -0.01  -0.01   0.02     0.01  -0.02  -0.04
  68   1    -0.03  -0.01  -0.01    -0.07   0.05   0.03     0.02  -0.08  -0.04
  69   1    -0.05   0.00   0.04    -0.09   0.08   0.06     0.02  -0.09  -0.03
  70   1    -0.03   0.01   0.06    -0.05   0.04   0.02    -0.01  -0.03   0.02
  71   1     0.00   0.02   0.05     0.01  -0.04  -0.03    -0.04   0.03   0.05
  72   1     0.02   0.01   0.00     0.03  -0.07  -0.06    -0.04   0.04   0.04
  73   1     0.01  -0.00  -0.03     0.00  -0.02  -0.06    -0.02  -0.02   0.02
  74   1     0.02  -0.00  -0.05     0.00  -0.03  -0.05    -0.02  -0.02   0.02
  75   1    -0.02  -0.00  -0.04     0.01  -0.06  -0.03     0.00  -0.01   0.00
  76   1    -0.04   0.00   0.00     0.01  -0.04  -0.02     0.01   0.03   0.02
  77   1    -0.02   0.00   0.04     0.01   0.01  -0.00     0.01   0.05   0.02
  78   1     0.01   0.00   0.05    -0.01   0.02   0.00    -0.01   0.03   0.03
  79   1     0.00  -0.00   0.03    -0.01   0.02   0.00    -0.01   0.02   0.03
  80   1    -0.03   0.01   0.01    -0.00   0.03   0.02    -0.03  -0.01  -0.01
  81   1    -0.05   0.01  -0.03    -0.01   0.03   0.01    -0.04  -0.03  -0.02
  82   1    -0.04  -0.01  -0.06    -0.02   0.01  -0.01    -0.03  -0.01   0.00
  83   1    -0.01  -0.02  -0.05    -0.02   0.00  -0.01    -0.01   0.02   0.02
  84   1     0.01  -0.02  -0.01    -0.01   0.00  -0.01    -0.00   0.03   0.03
  85   1     0.01  -0.00   0.03     0.00   0.01   0.02    -0.02   0.01  -0.02
  86   1     0.01   0.00   0.03     0.01   0.01   0.02    -0.01   0.02  -0.02
  87   1    -0.00  -0.02   0.02     0.03  -0.02   0.00     0.00   0.03  -0.01
  88   1    -0.02  -0.02  -0.02     0.06  -0.04  -0.01     0.03   0.02   0.01
  89   1    -0.03   0.01  -0.05     0.07  -0.02  -0.04     0.05   0.00   0.03
  90   1    -0.03   0.03  -0.04     0.04   0.02  -0.04     0.04  -0.01   0.03
  91   1    -0.00   0.03  -0.00     0.02   0.04  -0.03     0.01   0.00  -0.00
  92   1     0.01   0.00   0.03     0.01   0.03  -0.01    -0.01   0.03  -0.03
  93   1     0.02  -0.00   0.05     0.00   0.03  -0.00    -0.01   0.03  -0.03
                      7                      8                      9
                        a                      a                      a 
 Frequencies --    38.6960                39.6136                42.1134
 Red. masses --    10.4686                10.1342                10.2805
 Frc consts  --     0.0000                 0.0000                 0.0000
 IR Inten    --     0.0491                 0.0093                 0.3391
 Raman Activ --     0.0000                 0.0000                 0.0000
 Depolar     --     0.0000                 0.0000                 0.0000
 Atom AN      X      Y      Z        X      Y      Z        X      Y      Z
   1   7     0.04  -0.06   0.03    -0.05  -0.09  -0.04    -0.03   0.20   0.12
   2   6     0.02  -0.04   0.03    -0.03  -0.05  -0.02    -0.01   0.11   0.07
   3   6     0.00  -0.02   0.04    -0.01  -0.02  -0.00     0.00   0.03   0.03
   4   6    -0.01  -0.02   0.03    -0.01  -0.02   0.02     0.01  -0.00   0.02
   5   7     0.00  -0.03   0.01    -0.02  -0.02   0.04     0.00   0.00   0.04
   6   6     0.01  -0.02  -0.01     0.00  -0.02   0.01     0.00   0.00   0.03
   7   6     0.01  -0.02  -0.02     0.00  -0.02  -0.01    -0.04   0.01   0.12
   8   6     0.00  -0.02  -0.03     0.00  -0.02  -0.02    -0.05   0.01   0.12
   9   6     0.00  -0.02  -0.02    -0.00  -0.02  -0.01    -0.00  -0.00   0.02
  10   6    -0.03  -0.04  -0.01    -0.02  -0.03  -0.00    -0.01  -0.01   0.00
  11   6    -0.05  -0.09  -0.01    -0.03  -0.06   0.02    -0.07  -0.11  -0.20
  12   6    -0.10  -0.11  -0.01    -0.06  -0.07   0.03    -0.09  -0.12  -0.23
  13   6    -0.14  -0.08  -0.01    -0.08  -0.05   0.01    -0.04  -0.03  -0.04
  14   6    -0.12  -0.03  -0.01    -0.08  -0.02  -0.00     0.02   0.07   0.17
  15   6    -0.07  -0.00  -0.01    -0.05  -0.01  -0.01     0.04   0.08   0.19
  16   6     0.01  -0.03  -0.02     0.00  -0.03  -0.00     0.04  -0.02  -0.07
  17   6     0.02  -0.02  -0.02     0.00  -0.02   0.01     0.04  -0.01  -0.05
  18   6     0.01  -0.02  -0.01    -0.01  -0.01   0.03     0.05  -0.01  -0.07
  19   6     0.01  -0.00  -0.02    -0.01  -0.00   0.02     0.06  -0.01  -0.11
  20   6    -0.02   0.00   0.00    -0.04   0.00   0.06     0.04  -0.01  -0.05
  21   6    -0.03   0.04  -0.02    -0.03   0.03   0.01     0.02   0.00  -0.02
  22   6     0.04   0.03  -0.06     0.10  -0.04  -0.08     0.10  -0.13  -0.10
  23   6     0.02   0.09  -0.08     0.11  -0.01  -0.14     0.06  -0.11  -0.05
  24   6    -0.08   0.16  -0.06    -0.03   0.09  -0.09    -0.04   0.05   0.10
  25   6    -0.15   0.17  -0.02    -0.16   0.16  -0.00    -0.11   0.19   0.18
  26   6    -0.12   0.11  -0.00    -0.16   0.13   0.05    -0.08   0.16   0.12
  27   6    -0.05  -0.00   0.04    -0.07   0.00   0.12     0.01  -0.00  -0.00
  28   6    -0.04  -0.02   0.05    -0.07  -0.01   0.12     0.01  -0.01   0.00
  29   6    -0.01  -0.02   0.02    -0.03  -0.02   0.06     0.02  -0.01  -0.02
  30   6    -0.02  -0.01   0.04     0.01   0.00   0.04     0.02  -0.05  -0.02
  31   6    -0.02   0.00   0.06     0.02   0.01   0.02     0.02  -0.08  -0.06
  32   6    -0.01  -0.00   0.07     0.02   0.01   0.00     0.02  -0.06  -0.06
  33   6    -0.00  -0.02   0.06    -0.00  -0.00  -0.01     0.01  -0.01  -0.02
  34   7     0.00  -0.02   0.07    -0.01  -0.00  -0.02     0.00  -0.00  -0.02
  35   6     0.00  -0.02   0.05     0.02  -0.00   0.02    -0.02  -0.00  -0.06
  36   6     0.05  -0.02   0.10     0.02  -0.00   0.00    -0.05  -0.00  -0.14
  37   6     0.05  -0.00   0.09     0.02   0.00   0.01    -0.06  -0.00  -0.15
  38   6     0.01   0.01   0.01     0.04   0.01   0.05    -0.02  -0.01  -0.07
  39   6     0.02   0.06  -0.01     0.03   0.03   0.00    -0.00  -0.01  -0.03
  40   6    -0.07   0.04  -0.07     0.03   0.11   0.04     0.13   0.05   0.06
  41   6    -0.04   0.11  -0.08     0.03   0.14  -0.02     0.15   0.04   0.12
  42   6     0.10   0.20  -0.03     0.02   0.08  -0.11     0.04  -0.03   0.09
  43   6     0.19   0.22   0.03     0.01  -0.00  -0.14    -0.09  -0.09  -0.01
  44   6     0.15   0.14   0.04     0.02  -0.03  -0.09    -0.11  -0.08  -0.06
  45   6    -0.04   0.01  -0.04     0.05   0.01   0.09     0.00  -0.00  -0.02
  46   6    -0.03  -0.01  -0.01     0.04  -0.00   0.08     0.00  -0.00  -0.02
  47   6    -0.04  -0.02  -0.03     0.03  -0.00   0.06     0.02  -0.00   0.02
  48   6    -0.05  -0.02  -0.07     0.05  -0.01   0.09     0.02  -0.00   0.04
  49   6    -0.03  -0.02  -0.03     0.03   0.00   0.01     0.03  -0.00   0.06
  50   6     0.01  -0.04  -0.04     0.04  -0.01   0.00     0.01   0.00   0.02
  51   6    -0.13  -0.02  -0.12     0.30  -0.14   0.12    -0.08   0.00  -0.03
  52   6    -0.04  -0.06  -0.11     0.32  -0.15   0.11    -0.11   0.01  -0.08
  53   6     0.19  -0.14  -0.02     0.09  -0.03  -0.03    -0.06   0.02  -0.09
  54   6     0.33  -0.16   0.06    -0.17   0.10  -0.16     0.03   0.01  -0.04
  55   6     0.24  -0.12   0.05    -0.19   0.11  -0.14     0.06   0.01   0.02
  56   6     0.00  -0.01   0.02    -0.01   0.00  -0.08     0.05  -0.00   0.09
  57   6     0.00  -0.01   0.05    -0.02   0.01  -0.08     0.04  -0.00   0.08
  58   6    -0.02  -0.01   0.02     0.00  -0.00  -0.01     0.02  -0.00   0.03
  59   1     0.00  -0.00  -0.01     0.00  -0.00  -0.01    -0.02   0.01   0.05
  60   1     0.00  -0.01  -0.01     0.00  -0.01  -0.01    -0.02   0.00   0.06
  61   1    -0.01  -0.03  -0.00    -0.00  -0.02   0.01    -0.03  -0.05  -0.10
  62   1    -0.03  -0.04  -0.00    -0.02  -0.03   0.01    -0.04  -0.06  -0.11
  63   1    -0.05  -0.03  -0.00    -0.03  -0.02   0.01    -0.01  -0.01  -0.02
  64   1    -0.04   0.00  -0.00    -0.03  -0.00  -0.00     0.02   0.04   0.09
  65   1    -0.02   0.01  -0.00    -0.01   0.00  -0.01     0.03   0.05   0.10
  66   1     0.00  -0.01  -0.01    -0.00  -0.01   0.00     0.02  -0.01  -0.04
  67   1     0.01   0.00  -0.01     0.00  -0.00  -0.01     0.02  -0.01  -0.04
  68   1     0.03  -0.01  -0.02     0.06  -0.03  -0.03     0.05  -0.07  -0.06
  69   1     0.02   0.02  -0.03     0.06  -0.02  -0.06     0.04  -0.06  -0.03
  70   1    -0.03   0.06  -0.02    -0.01   0.03  -0.04    -0.02   0.02   0.04
  71   1    -0.06   0.07  -0.00    -0.08   0.07   0.01    -0.06   0.09   0.08
  72   1    -0.05   0.03   0.01    -0.08   0.05   0.03    -0.04   0.08   0.05
  73   1    -0.02   0.00   0.02    -0.03   0.00   0.05    -0.00  -0.00   0.01
  74   1    -0.02  -0.01   0.02    -0.03  -0.00   0.05    -0.00  -0.00   0.01
  75   1    -0.01  -0.00   0.01     0.01   0.00   0.02     0.01  -0.02  -0.00
  76   1    -0.01   0.00   0.02     0.01   0.01   0.01     0.01  -0.03  -0.02
  77   1    -0.01   0.00   0.02     0.01   0.01  -0.00     0.01  -0.03  -0.03
  78   1     0.02  -0.01   0.05     0.00  -0.00  -0.01    -0.02   0.00  -0.05
  79   1     0.03  -0.00   0.04     0.00   0.00  -0.01    -0.02  -0.00  -0.06
  80   1    -0.05  -0.01  -0.03     0.01   0.04   0.03     0.06   0.03   0.02
  81   1    -0.03   0.03  -0.04     0.01   0.06   0.00     0.07   0.03   0.06
  82   1     0.04   0.08  -0.01     0.00   0.03  -0.04     0.02  -0.01   0.04
  83   1     0.09   0.08   0.02    -0.00  -0.01  -0.06    -0.05  -0.04  -0.01
  84   1     0.06   0.05   0.02     0.00  -0.03  -0.03    -0.06  -0.04  -0.04
  85   1    -0.02   0.01  -0.03     0.02   0.00   0.04     0.01  -0.00   0.01
  86   1    -0.02  -0.01  -0.03     0.02  -0.01   0.05     0.00   0.00   0.00
  87   1    -0.09   0.01  -0.05     0.14  -0.06   0.06    -0.03  -0.00  -0.01
  88   1    -0.05  -0.01  -0.05     0.15  -0.08   0.06    -0.05   0.00  -0.04
  89   1     0.08  -0.05  -0.00     0.03  -0.01  -0.01    -0.03   0.01  -0.04
  90   1     0.15  -0.06   0.04    -0.10   0.06  -0.08     0.02   0.01  -0.01
  91   1     0.10  -0.04   0.03    -0.11   0.06  -0.07     0.04   0.00   0.02
  92   1     0.01  -0.00   0.02    -0.01   0.00  -0.04     0.02  -0.00   0.03
  93   1     0.01  -0.00   0.03    -0.01   0.01  -0.04     0.01  -0.00   0.03
                     10                     11                     12
                        a                      a                      a 
 Frequencies --    43.3333                45.3377                52.6267
 Red. masses --    10.8613                10.2033                10.4017
 Frc consts  --     0.0000                 0.0000                 0.0000
 IR Inten    --     0.0384                 0.9434                 0.9793
 Raman Activ --     0.0000                 0.0000                 0.0000
 Depolar     --     0.0000                 0.0000                 0.0000
 Atom AN      X      Y      Z        X      Y      Z        X      Y      Z
   1   7     0.00  -0.06  -0.03    -0.06   0.03   0.03     0.03   0.27   0.13
   2   6     0.02  -0.03  -0.02    -0.02   0.02   0.02     0.02   0.14   0.06
   3   6     0.05  -0.01  -0.00    -0.00   0.01   0.02     0.00   0.03  -0.00
   4   6     0.06  -0.04   0.01    -0.01   0.04   0.03    -0.00  -0.01  -0.05
   5   7     0.05  -0.06   0.02    -0.00   0.06   0.02    -0.00   0.00  -0.03
   6   6     0.05  -0.05   0.02    -0.01   0.05   0.04    -0.03   0.01   0.03
   7   6     0.04  -0.04   0.03    -0.05   0.06   0.10    -0.04   0.01   0.07
   8   6     0.03  -0.04   0.03    -0.05   0.06   0.11    -0.04   0.01   0.09
   9   6     0.03  -0.05   0.03    -0.02   0.05   0.03    -0.04   0.01   0.09
  10   6    -0.01  -0.07   0.03    -0.02   0.05   0.01    -0.02   0.01   0.06
  11   6    -0.03  -0.13   0.01    -0.08  -0.04  -0.22     0.03   0.12   0.20
  12   6    -0.09  -0.17  -0.04    -0.08  -0.05  -0.25     0.06   0.11   0.14
  13   6    -0.13  -0.15  -0.06    -0.02   0.03  -0.06     0.03  -0.01  -0.07
  14   6    -0.10  -0.08  -0.02     0.04   0.12   0.17    -0.02  -0.12  -0.22
  15   6    -0.04  -0.04   0.02     0.04   0.13   0.20    -0.04  -0.11  -0.15
  16   6     0.04  -0.06   0.02     0.02   0.04  -0.03    -0.04   0.02   0.07
  17   6     0.06  -0.05   0.02     0.01   0.04  -0.02    -0.03   0.01   0.03
  18   6     0.06  -0.05   0.01     0.03   0.04  -0.06    -0.01   0.01  -0.02
  19   6     0.05  -0.02   0.00     0.04   0.02  -0.07    -0.00   0.00  -0.04
  20   6     0.03  -0.02  -0.01     0.06   0.02  -0.07     0.01   0.00  -0.05
  21   6     0.01   0.04  -0.03     0.05   0.00  -0.02     0.00  -0.01  -0.03
  22   6     0.04   0.11  -0.02    -0.03   0.01   0.02     0.08  -0.16  -0.12
  23   6    -0.01   0.21  -0.03    -0.05  -0.01   0.09     0.08  -0.18  -0.08
  24   6    -0.09   0.25  -0.04     0.01  -0.02   0.12     0.00  -0.04   0.05
  25   6    -0.12   0.17  -0.05     0.09  -0.03   0.07    -0.08   0.12   0.14
  26   6    -0.06   0.07  -0.05     0.11  -0.01   0.00    -0.07   0.13   0.10
  27   6     0.02  -0.03   0.00     0.07   0.03  -0.08     0.02  -0.00  -0.08
  28   6     0.02  -0.05   0.01     0.06   0.04  -0.06     0.02  -0.00  -0.10
  29   6     0.05  -0.05   0.01     0.03   0.04  -0.04     0.00   0.00  -0.05
  30   6     0.09  -0.02   0.02    -0.02   0.04   0.03    -0.01  -0.09  -0.11
  31   6     0.11   0.03   0.03    -0.03   0.00   0.01    -0.02  -0.12  -0.12
  32   6     0.09   0.07   0.03    -0.02  -0.03  -0.00    -0.01  -0.09  -0.08
  33   6     0.06   0.04   0.00    -0.01  -0.03  -0.00    -0.00  -0.01  -0.02
  34   7     0.05   0.06  -0.02    -0.01  -0.06  -0.01     0.01   0.00   0.01
  35   6     0.05   0.05  -0.01     0.01  -0.05   0.03     0.00  -0.00  -0.01
  36   6     0.04   0.05   0.04     0.06  -0.05   0.10     0.00  -0.00  -0.01
  37   6     0.03   0.03   0.05     0.07  -0.05   0.11     0.00  -0.00  -0.00
  38   6     0.03   0.02   0.01     0.03  -0.03   0.04    -0.01   0.00  -0.02
  39   6    -0.00  -0.04   0.02     0.03  -0.01   0.00    -0.00  -0.01  -0.01
  40   6    -0.04  -0.17  -0.05    -0.13  -0.09  -0.11    -0.12  -0.14  -0.12
  41   6    -0.11  -0.27  -0.06    -0.13  -0.07  -0.16    -0.12  -0.15  -0.11
  42   6    -0.13  -0.24   0.01     0.02   0.05  -0.08    -0.01  -0.02   0.02
  43   6    -0.08  -0.11   0.09     0.18   0.13   0.04     0.11   0.11   0.14
  44   6    -0.02  -0.01   0.09     0.17   0.10   0.08     0.10   0.12   0.12
  45   6     0.03   0.02  -0.05    -0.01  -0.04  -0.02    -0.01  -0.00  -0.04
  46   6     0.04   0.04  -0.05    -0.01  -0.05  -0.02    -0.00  -0.00  -0.02
  47   6     0.03   0.05  -0.07    -0.03  -0.05  -0.05     0.01   0.00   0.01
  48   6     0.02   0.06  -0.07    -0.04  -0.05  -0.06     0.01  -0.00   0.02
  49   6     0.02   0.05  -0.05    -0.05  -0.05  -0.07     0.03   0.00   0.04
  50   6    -0.01   0.08  -0.00    -0.03  -0.05  -0.02     0.02   0.00   0.03
  51   6    -0.00   0.16   0.01     0.11  -0.05   0.06     0.05  -0.03   0.04
  52   6    -0.06   0.20   0.07     0.13  -0.05   0.13     0.04  -0.03   0.01
  53   6    -0.12   0.16   0.11     0.01  -0.04   0.11    -0.02   0.01  -0.03
  54   6    -0.12   0.08   0.09    -0.14  -0.03   0.02    -0.06   0.05  -0.05
  55   6    -0.06   0.04   0.04    -0.16  -0.03  -0.04    -0.03   0.04  -0.02
  56   6     0.01   0.04  -0.06    -0.06  -0.05  -0.10     0.04  -0.00   0.07
  57   6     0.02   0.04  -0.06    -0.05  -0.06  -0.09     0.04   0.00   0.07
  58   6     0.04   0.05  -0.05    -0.03  -0.05  -0.06     0.02   0.00   0.03
  59   1     0.01  -0.01   0.01    -0.02   0.02   0.04    -0.01   0.00   0.02
  60   1     0.01  -0.01   0.01    -0.02   0.02   0.05    -0.01   0.00   0.03
  61   1     0.00  -0.04   0.01    -0.04  -0.03  -0.10     0.02   0.06   0.10
  62   1    -0.03  -0.06  -0.02    -0.04  -0.04  -0.13     0.03   0.06   0.07
  63   1    -0.05  -0.05  -0.03    -0.01   0.01  -0.03     0.01  -0.01  -0.04
  64   1    -0.04  -0.02  -0.01     0.03   0.05   0.09    -0.01  -0.06  -0.11
  65   1    -0.01   0.00   0.01     0.03   0.06   0.10    -0.02  -0.06  -0.07
  66   1     0.01  -0.02   0.01     0.01   0.01  -0.03    -0.01   0.01   0.03
  67   1     0.02  -0.00   0.00     0.01   0.00  -0.02    -0.00  -0.00  -0.01
  68   1     0.03   0.02  -0.00    -0.03   0.01   0.00     0.04  -0.07  -0.06
  69   1     0.00   0.08  -0.00    -0.03  -0.00   0.04     0.04  -0.09  -0.05
  70   1    -0.04   0.10  -0.01    -0.00  -0.01   0.05     0.00  -0.02   0.02
  71   1    -0.05   0.06  -0.02     0.04  -0.01   0.03    -0.04   0.07   0.07
  72   1    -0.02   0.00  -0.02     0.05  -0.00  -0.01    -0.03   0.07   0.05
  73   1    -0.00  -0.01   0.00     0.03   0.01  -0.03     0.01  -0.00  -0.03
  74   1     0.00  -0.02   0.01     0.02   0.01  -0.02     0.01  -0.00  -0.04
  75   1     0.03  -0.02   0.01    -0.01   0.02   0.01    -0.00  -0.03  -0.04
  76   1     0.04   0.01   0.01    -0.01   0.00   0.00    -0.01  -0.05  -0.05
  77   1     0.03   0.03   0.01    -0.01  -0.02  -0.00    -0.01  -0.03  -0.03
  78   1     0.01   0.02   0.02     0.02  -0.02   0.04     0.00  -0.00  -0.00
  79   1     0.01   0.01   0.02     0.03  -0.01   0.05     0.00  -0.00   0.00
  80   1    -0.01  -0.06  -0.03    -0.07  -0.05  -0.05    -0.06  -0.07  -0.06
  81   1    -0.04  -0.11  -0.03    -0.07  -0.04  -0.07    -0.06  -0.08  -0.06
  82   1    -0.05  -0.09  -0.00     0.01   0.02  -0.03    -0.00  -0.01   0.01
  83   1    -0.03  -0.02   0.04     0.09   0.06   0.03     0.06   0.06   0.07
  84   1     0.00   0.03   0.04     0.08   0.05   0.05     0.05   0.07   0.06
  85   1     0.01  -0.00  -0.02    -0.01  -0.01  -0.02    -0.00  -0.00  -0.02
  86   1     0.01   0.02  -0.02    -0.01  -0.01  -0.01     0.00  -0.00   0.00
  87   1     0.01   0.05  -0.01     0.06  -0.02   0.02     0.03  -0.02   0.02
  88   1    -0.02   0.08   0.02     0.07  -0.02   0.06     0.02  -0.02   0.01
  89   1    -0.05   0.06   0.04     0.01  -0.01   0.05    -0.01   0.01  -0.02
  90   1    -0.05   0.01   0.04    -0.07  -0.01   0.00    -0.03   0.02  -0.02
  91   1    -0.02  -0.01   0.01    -0.08  -0.01  -0.03    -0.02   0.02  -0.01
  92   1     0.00   0.01  -0.02    -0.02  -0.02  -0.04     0.01  -0.00   0.03
  93   1     0.01   0.01  -0.02    -0.02  -0.02  -0.03     0.01   0.00   0.03
                     13                     14                     15
                        a                      a                      a 
 Frequencies --    57.2822                61.0609                73.0510
 Red. masses --    10.5732                10.8118                11.7686
 Frc consts  --     0.0000                 0.0000                 0.0000
 IR Inten    --     1.0329                 0.6183                 1.4688
 Raman Activ --     0.0000                 0.0000                 0.0000
 Depolar     --     0.0000                 0.0000                 0.0000
 Atom AN      X      Y      Z        X      Y      Z        X      Y      Z
   1   7    -0.10  -0.02  -0.04    -0.04  -0.12   0.03    -0.00  -0.44  -0.30
   2   6    -0.04  -0.01  -0.04    -0.02  -0.06   0.05    -0.00  -0.23  -0.19
   3   6    -0.00  -0.00  -0.03    -0.00  -0.01   0.08    -0.00  -0.06  -0.08
   4   6    -0.00   0.01  -0.02    -0.00   0.03   0.10    -0.00   0.00  -0.05
   5   7    -0.01   0.02  -0.01     0.02   0.01   0.06     0.00  -0.01  -0.08
   6   6    -0.03   0.03   0.05     0.02   0.01   0.04    -0.02   0.01   0.02
   7   6    -0.04   0.03   0.10     0.00   0.01   0.08    -0.00  -0.01   0.04
   8   6    -0.05   0.03   0.13     0.01   0.01   0.05    -0.02   0.01   0.13
   9   6    -0.04   0.04   0.11     0.04  -0.01   0.00    -0.05   0.04   0.19
  10   6    -0.02   0.03   0.08     0.02  -0.01   0.01    -0.02   0.04   0.15
  11   6    -0.01   0.08   0.09     0.05   0.02   0.15    -0.04   0.05   0.03
  12   6     0.01   0.06   0.00     0.03   0.01   0.15    -0.02   0.01  -0.13
  13   6     0.01  -0.01  -0.10    -0.03  -0.04   0.01     0.02  -0.04  -0.15
  14   6    -0.00  -0.06  -0.11    -0.06  -0.07  -0.13     0.04  -0.05  -0.01
  15   6    -0.02  -0.04  -0.02    -0.04  -0.06  -0.12     0.02  -0.01   0.14
  16   6    -0.03   0.04   0.08     0.06  -0.01  -0.06    -0.06   0.05   0.18
  17   6    -0.02   0.03   0.04     0.06  -0.01  -0.05    -0.05   0.03   0.09
  18   6     0.00   0.02  -0.02     0.09  -0.02  -0.11    -0.03   0.02   0.02
  19   6     0.01   0.02  -0.05     0.13  -0.03  -0.17    -0.04   0.02   0.02
  20   6     0.03   0.01  -0.07     0.14  -0.04  -0.18    -0.00   0.02  -0.04
  21   6     0.02   0.00  -0.04     0.11  -0.02  -0.11    -0.01   0.01  -0.03
  22   6     0.04  -0.08  -0.07     0.02  -0.01  -0.06     0.01  -0.05  -0.05
  23   6     0.03  -0.10  -0.02    -0.07   0.06   0.08     0.01  -0.08  -0.04
  24   6    -0.00  -0.01   0.07    -0.06   0.12   0.17     0.00  -0.03   0.02
  25   6    -0.02   0.08   0.11     0.04   0.10   0.11    -0.02   0.04   0.05
  26   6     0.00   0.08   0.05     0.13   0.03  -0.03    -0.02   0.05   0.03
  27   6     0.05   0.01  -0.11     0.14  -0.03  -0.16     0.02   0.00  -0.12
  28   6     0.04   0.01  -0.10     0.11  -0.01  -0.09     0.03  -0.00  -0.13
  29   6     0.01   0.02  -0.05     0.07  -0.00  -0.05    -0.00   0.00  -0.07
  30   6    -0.01   0.01  -0.02    -0.01   0.08   0.14    -0.01   0.11   0.03
  31   6    -0.01   0.00  -0.03    -0.01   0.10   0.17    -0.01   0.17   0.09
  32   6    -0.01  -0.00  -0.03    -0.00   0.06   0.14    -0.00   0.14   0.07
  33   6    -0.00  -0.01  -0.03    -0.01   0.01   0.09    -0.00   0.02  -0.02
  34   7     0.00  -0.01  -0.02    -0.02  -0.01   0.05    -0.00   0.01  -0.04
  35   6     0.05  -0.01   0.09    -0.06  -0.02  -0.03    -0.01   0.00  -0.04
  36   6     0.10  -0.01   0.17    -0.07  -0.02  -0.04    -0.05   0.00  -0.09
  37   6     0.12  -0.01   0.21    -0.09  -0.02  -0.09    -0.06  -0.01  -0.09
  38   6     0.11  -0.00   0.19    -0.10  -0.02  -0.12    -0.03  -0.02  -0.04
  39   6     0.08  -0.00   0.11    -0.07  -0.00  -0.07    -0.02  -0.01  -0.03
  40   6     0.08   0.12   0.15     0.04   0.05   0.01    -0.05  -0.04  -0.05
  41   6     0.01   0.10   0.02     0.11   0.10   0.11    -0.02  -0.01  -0.02
  42   6    -0.07  -0.05  -0.18     0.07   0.09   0.12     0.03   0.04   0.03
  43   6    -0.07  -0.17  -0.23    -0.05   0.02   0.03     0.05   0.07   0.05
  44   6     0.01  -0.14  -0.08    -0.12  -0.02  -0.07     0.02   0.04   0.02
  45   6     0.09  -0.00   0.16    -0.10  -0.02  -0.13     0.01  -0.01   0.01
  46   6     0.06  -0.01   0.10    -0.08  -0.02  -0.09     0.02  -0.00   0.02
  47   6     0.01  -0.01  -0.01    -0.08  -0.02  -0.07     0.05  -0.00   0.07
  48   6    -0.01  -0.01  -0.04    -0.09  -0.02  -0.10     0.08  -0.00   0.13
  49   6    -0.05  -0.01  -0.12    -0.07  -0.02  -0.06     0.09  -0.00   0.13
  50   6    -0.04  -0.01  -0.07    -0.05  -0.02  -0.04     0.07  -0.00   0.09
  51   6    -0.10   0.08  -0.09     0.05  -0.03   0.02    -0.00  -0.03   0.04
  52   6    -0.09   0.09  -0.01     0.10  -0.05   0.07    -0.07  -0.02  -0.05
  53   6     0.00  -0.00   0.09     0.04  -0.05   0.07    -0.06   0.03  -0.10
  54   6     0.07  -0.09   0.11    -0.06  -0.03   0.01     0.02   0.05  -0.05
  55   6     0.04  -0.10   0.03    -0.10  -0.02  -0.04     0.08   0.04   0.05
  56   6    -0.09  -0.01  -0.20    -0.05  -0.02  -0.02     0.07   0.00   0.10
  57   6    -0.08  -0.01  -0.19    -0.04  -0.02   0.02     0.04   0.01   0.04
  58   6    -0.02  -0.01  -0.08    -0.04  -0.01   0.00     0.03   0.01   0.03
  59   1    -0.01   0.01   0.03    -0.01   0.01   0.04     0.01  -0.01  -0.01
  60   1    -0.02   0.01   0.05    -0.00   0.01   0.02    -0.00   0.00   0.04
  61   1    -0.00   0.04   0.05     0.03   0.01   0.07    -0.02   0.03   0.01
  62   1     0.01   0.03   0.00     0.02   0.01   0.08    -0.01   0.01  -0.07
  63   1     0.01  -0.01  -0.05    -0.01  -0.01   0.00     0.01  -0.02  -0.08
  64   1     0.00  -0.03  -0.05    -0.03  -0.03  -0.07     0.02  -0.03  -0.01
  65   1    -0.01  -0.02  -0.01    -0.02  -0.02  -0.06     0.01  -0.01   0.07
  66   1    -0.01   0.01   0.02     0.02  -0.00  -0.03    -0.02   0.02   0.06
  67   1    -0.00   0.00  -0.01     0.04  -0.01  -0.06    -0.02   0.01   0.02
  68   1     0.02  -0.04  -0.04     0.00  -0.01  -0.04     0.01  -0.02  -0.02
  69   1     0.01  -0.05  -0.02    -0.04   0.02   0.04     0.01  -0.04  -0.02
  70   1    -0.00  -0.01   0.03    -0.04   0.05   0.08     0.00  -0.01   0.01
  71   1    -0.01   0.04   0.05     0.01   0.04   0.05    -0.01   0.02   0.03
  72   1    -0.00   0.04   0.02     0.06   0.01  -0.02    -0.01   0.03   0.01
  73   1     0.02   0.00  -0.04     0.05  -0.01  -0.05     0.01   0.00  -0.05
  74   1     0.02   0.01  -0.04     0.03   0.00  -0.01     0.02   0.00  -0.05
  75   1    -0.00   0.00  -0.01    -0.00   0.03   0.04    -0.00   0.04   0.01
  76   1    -0.00   0.00  -0.01    -0.00   0.04   0.06    -0.00   0.07   0.05
  77   1    -0.00   0.00  -0.01    -0.00   0.02   0.04    -0.00   0.05   0.03
  78   1     0.03  -0.01   0.05    -0.02  -0.00   0.00    -0.02   0.00  -0.03
  79   1     0.04  -0.00   0.07    -0.03  -0.00  -0.03    -0.02  -0.00  -0.04
  80   1     0.04   0.06   0.08     0.02   0.02  -0.00    -0.02  -0.02  -0.02
  81   1     0.00   0.06   0.02     0.06   0.04   0.05    -0.01  -0.01  -0.01
  82   1    -0.04  -0.02  -0.08     0.04   0.04   0.06     0.02   0.02   0.02
  83   1    -0.04  -0.08  -0.11    -0.03   0.00   0.01     0.03   0.03   0.03
  84   1     0.01  -0.07  -0.03    -0.06  -0.02  -0.04     0.01   0.02   0.01
  85   1     0.02   0.00   0.05    -0.03  -0.01  -0.04     0.01  -0.01   0.01
  86   1     0.00   0.00   0.00    -0.03  -0.01  -0.04     0.03  -0.00   0.04
  87   1    -0.05   0.04  -0.04     0.03  -0.01   0.00    -0.00  -0.02   0.02
  88   1    -0.04   0.05  -0.01     0.05  -0.02   0.03    -0.04  -0.01  -0.03
  89   1     0.01  -0.00   0.04     0.02  -0.02   0.03    -0.03   0.01  -0.05
  90   1     0.04  -0.05   0.06    -0.03  -0.01   0.00     0.01   0.02  -0.02
  91   1     0.03  -0.05   0.01    -0.05  -0.00  -0.02     0.04   0.02   0.02
  92   1    -0.03  -0.00  -0.08    -0.01  -0.00  -0.00     0.02   0.00   0.03
  93   1    -0.03  -0.00  -0.07    -0.00  -0.00   0.02     0.01   0.00  -0.00
                     16                     17                     18
                        a                      a                      a 
 Frequencies --    77.0763                83.2447                90.5871
 Red. masses --    11.1081                11.0030                10.6323
 Frc consts  --     0.0000                 0.0000                 0.0000
 IR Inten    --     1.5087                 0.7281                 0.0431
 Raman Activ --     0.0000                 0.0000                 0.0000
 Depolar     --     0.0000                 0.0000                 0.0000
 Atom AN      X      Y      Z        X      Y      Z        X      Y      Z
   1   7     0.33  -0.07  -0.00    -0.22  -0.19  -0.08     0.10  -0.05  -0.04
   2   6     0.17  -0.04   0.01    -0.11  -0.10  -0.03     0.06  -0.02  -0.03
   3   6     0.06  -0.03   0.01    -0.03  -0.05  -0.00     0.02  -0.00  -0.01
   4   6     0.03  -0.05  -0.08    -0.01  -0.04   0.05     0.01   0.05  -0.00
   5   7     0.06  -0.03  -0.12    -0.01   0.02   0.11     0.01   0.04  -0.01
   6   6     0.06  -0.00  -0.04     0.05   0.02   0.05    -0.06   0.02  -0.00
   7   6     0.10  -0.02  -0.06     0.07   0.01   0.05    -0.09   0.05  -0.07
   8   6     0.09   0.00   0.02     0.12   0.02   0.01    -0.15   0.02  -0.08
   9   6     0.05   0.04   0.12     0.14   0.04  -0.03    -0.18  -0.03  -0.03
  10   6     0.03   0.03   0.11     0.10   0.03  -0.01    -0.14  -0.02  -0.06
  11   6     0.00  -0.01   0.02     0.08  -0.06   0.05    -0.12   0.09  -0.10
  12   6    -0.04  -0.07  -0.11    -0.03  -0.11   0.05     0.01   0.17  -0.04
  13   6    -0.06  -0.08  -0.12    -0.12  -0.07  -0.01     0.12   0.14   0.06
  14   6    -0.02  -0.01   0.00    -0.11   0.03  -0.05     0.10   0.02   0.06
  15   6     0.03   0.05   0.11     0.01   0.08  -0.04    -0.04  -0.06  -0.01
  16   6     0.01   0.06   0.15     0.14   0.05  -0.07    -0.16  -0.05   0.06
  17   6     0.01   0.04   0.07     0.09   0.04  -0.03    -0.09  -0.03   0.07
  18   6    -0.02   0.05   0.06     0.05   0.06  -0.04    -0.02  -0.05   0.08
  19   6    -0.06   0.09   0.12     0.06   0.08  -0.09     0.01  -0.11   0.09
  20   6    -0.07   0.08   0.07     0.02   0.08  -0.06     0.10  -0.13   0.03
  21   6    -0.06   0.07   0.07     0.02   0.06  -0.03     0.10  -0.11   0.00
  22   6    -0.01  -0.00   0.02    -0.04   0.03  -0.01     0.15  -0.04  -0.00
  23   6     0.07  -0.10  -0.05    -0.02  -0.04   0.04     0.07   0.11   0.01
  24   6     0.09  -0.12  -0.06     0.06  -0.07   0.06    -0.05   0.19   0.02
  25   6     0.02  -0.03   0.01     0.12  -0.03   0.04    -0.08   0.09   0.00
  26   6    -0.05   0.07   0.07     0.10   0.04   0.00     0.01  -0.06  -0.01
  27   6    -0.04   0.05  -0.04    -0.01   0.07  -0.01     0.14  -0.09  -0.00
  28   6    -0.00   0.01  -0.11    -0.02   0.05   0.04     0.12  -0.02  -0.01
  29   6     0.01   0.01  -0.06    -0.00   0.04   0.03     0.03  -0.01   0.02
  30   6    -0.03  -0.10  -0.11     0.02  -0.10   0.00    -0.01   0.08   0.02
  31   6    -0.06  -0.10  -0.05     0.03  -0.16  -0.09    -0.02   0.02   0.01
  32   6    -0.03  -0.06   0.06     0.01  -0.14  -0.11    -0.01  -0.04  -0.02
  33   6     0.02  -0.02   0.09    -0.02  -0.07  -0.06     0.01  -0.04  -0.01
  34   7     0.04   0.01   0.16    -0.05  -0.00  -0.06     0.01  -0.04  -0.00
  35   6     0.01   0.03   0.06    -0.00   0.04  -0.04     0.04   0.01  -0.03
  36   6     0.03   0.03   0.09     0.00   0.04  -0.12     0.09   0.01  -0.05
  37   6     0.00   0.04   0.02     0.04   0.08  -0.08     0.12   0.06  -0.05
  38   6    -0.04   0.05  -0.08     0.06   0.12   0.03     0.10   0.10  -0.03
  39   6    -0.04   0.03  -0.05     0.05   0.10   0.04     0.10   0.08  -0.00
  40   6     0.06   0.03   0.01     0.03   0.00  -0.01     0.12   0.00  -0.02
  41   6     0.07   0.00   0.07    -0.06  -0.12  -0.05     0.04  -0.13  -0.04
  42   6    -0.02  -0.04   0.08    -0.12  -0.14  -0.03    -0.06  -0.17  -0.03
  43   6    -0.12  -0.04   0.02    -0.08  -0.02   0.04    -0.05  -0.07   0.01
  44   6    -0.12  -0.00  -0.04     0.01   0.10   0.08     0.03   0.06   0.02
  45   6    -0.08   0.05  -0.14     0.05   0.12   0.08     0.04   0.10  -0.03
  46   6    -0.06   0.04  -0.08     0.01   0.08   0.05     0.01   0.05  -0.02
  47   6    -0.08   0.03  -0.08    -0.04   0.06   0.08    -0.04   0.03   0.00
  48   6    -0.14   0.05  -0.17    -0.06   0.08   0.13    -0.10   0.06   0.02
  49   6    -0.13   0.04  -0.12    -0.12   0.06   0.10    -0.14   0.04   0.05
  50   6    -0.11   0.03  -0.09    -0.10   0.04   0.05    -0.13   0.02   0.02
  51   6     0.01   0.02  -0.03    -0.11  -0.06   0.03    -0.10  -0.06   0.02
  52   6     0.13  -0.02   0.07     0.01  -0.14  -0.03     0.04  -0.14   0.01
  53   6     0.14  -0.05   0.10     0.14  -0.11  -0.05     0.13  -0.12  -0.00
  54   6    -0.00  -0.03   0.02     0.12   0.01  -0.04     0.06  -0.02  -0.02
  55   6    -0.12   0.01  -0.07    -0.00   0.08   0.01    -0.07   0.05  -0.01
  56   6    -0.08   0.02  -0.01    -0.14   0.02   0.06    -0.11  -0.02   0.10
  57   6    -0.02   0.01   0.08    -0.11  -0.00   0.01    -0.06  -0.05   0.09
  58   6    -0.03   0.02   0.05    -0.07   0.02   0.01    -0.03  -0.02   0.03
  59   1     0.04  -0.01  -0.04     0.01  -0.00   0.03    -0.02   0.03  -0.04
  60   1     0.04  -0.00   0.00     0.04   0.00   0.00    -0.05   0.01  -0.04
  61   1     0.00  -0.00   0.01     0.05  -0.03   0.03    -0.06   0.03  -0.05
  62   1    -0.02  -0.04  -0.06    -0.01  -0.05   0.03     0.01   0.07  -0.02
  63   1    -0.03  -0.04  -0.07    -0.06  -0.03  -0.01     0.07   0.06   0.04
  64   1    -0.01  -0.00   0.00    -0.05   0.02  -0.03     0.05  -0.00   0.03
  65   1     0.02   0.03   0.06     0.01   0.04  -0.02    -0.02  -0.04  -0.00
  66   1    -0.01   0.02   0.06     0.05   0.02  -0.03    -0.05  -0.03   0.03
  67   1    -0.02   0.03   0.05     0.03   0.02  -0.04    -0.01  -0.04   0.04
  68   1    -0.01   0.00   0.01    -0.03   0.01  -0.01     0.07  -0.03   0.00
  69   1     0.03  -0.05  -0.03    -0.02  -0.02   0.01     0.03   0.05   0.01
  70   1     0.04  -0.06  -0.03     0.02  -0.04   0.02    -0.04   0.09   0.01
  71   1     0.01  -0.01   0.00     0.05  -0.01   0.02    -0.05   0.04  -0.00
  72   1    -0.03   0.04   0.03     0.04   0.02  -0.00    -0.00  -0.04  -0.01
  73   1    -0.02   0.01  -0.02    -0.01   0.02  -0.00     0.06  -0.03  -0.01
  74   1     0.01  -0.00  -0.06    -0.01   0.01   0.02     0.05   0.01  -0.01
  75   1    -0.02  -0.04  -0.05     0.01  -0.03   0.01    -0.00   0.04   0.01
  76   1    -0.03  -0.04  -0.02     0.02  -0.07  -0.04    -0.01   0.01   0.00
  77   1    -0.02  -0.01   0.03     0.01  -0.05  -0.05    -0.01  -0.02  -0.01
  78   1     0.02   0.01   0.05    -0.00   0.00  -0.06     0.03  -0.01  -0.02
  79   1     0.00   0.01   0.01     0.02   0.02  -0.04     0.04   0.02  -0.02
  80   1     0.04   0.02  -0.00     0.02   0.00  -0.00     0.06   0.01  -0.01
  81   1     0.04   0.00   0.03    -0.03  -0.06  -0.03     0.02  -0.06  -0.02
  82   1    -0.00  -0.02   0.04    -0.06  -0.07  -0.02    -0.04  -0.08  -0.02
  83   1    -0.06  -0.02   0.01    -0.03  -0.01   0.02    -0.04  -0.03   0.01
  84   1    -0.05   0.00  -0.02     0.01   0.05   0.04     0.01   0.04   0.01
  85   1    -0.04   0.02  -0.06     0.02   0.04   0.04     0.00   0.04  -0.01
  86   1    -0.05   0.02  -0.07    -0.01   0.03   0.05    -0.03   0.03  -0.00
  87   1     0.00   0.01  -0.02    -0.06  -0.03   0.02    -0.05  -0.02   0.01
  88   1     0.07  -0.01   0.04     0.00  -0.07  -0.01     0.02  -0.06   0.01
  89   1     0.07  -0.03   0.05     0.07  -0.05  -0.02     0.07  -0.05   0.00
  90   1    -0.00  -0.01   0.01     0.06   0.01  -0.02     0.04   0.00  -0.01
  91   1    -0.06   0.01  -0.04    -0.00   0.05   0.01    -0.03   0.04  -0.01
  92   1    -0.02   0.00   0.01    -0.05   0.00   0.02    -0.04  -0.01   0.04
  93   1     0.01  -0.00   0.05    -0.04  -0.01  -0.01    -0.01  -0.03   0.04
                     19                     20                     21
                        a                      a                      a 
 Frequencies --   104.1141               114.7623               122.7622
 Red. masses --    10.7291                10.9572                11.1029
 Frc consts  --     0.0000                 0.0000                 0.0000
 IR Inten    --     0.4847                 1.0367                 1.4661
 Raman Activ --     0.0000                 0.0000                 0.0000
 Depolar     --     0.0000                 0.0000                 0.0000
 Atom AN      X      Y      Z        X      Y      Z        X      Y      Z
   1   7    -0.00  -0.17  -0.07    -0.39  -0.14  -0.06    -0.26   0.33   0.13
   2   6    -0.00  -0.04  -0.01    -0.14  -0.04   0.00    -0.09   0.10   0.02
   3   6     0.00   0.01   0.02    -0.02  -0.00   0.03    -0.00  -0.01  -0.04
   4   6     0.01  -0.02   0.01    -0.02  -0.03   0.03     0.01  -0.01  -0.03
   5   7     0.02   0.03   0.06    -0.02   0.01   0.06     0.02  -0.05  -0.07
   6   6     0.01   0.02   0.04    -0.02   0.01   0.05     0.03  -0.03  -0.01
   7   6     0.05   0.03  -0.10     0.02   0.01  -0.06     0.13  -0.07  -0.16
   8   6     0.04   0.01  -0.15     0.03   0.00  -0.12     0.18  -0.06  -0.20
   9   6    -0.00   0.00  -0.06     0.00   0.00  -0.06     0.11  -0.02  -0.04
  10   6    -0.01  -0.01  -0.07    -0.00   0.00  -0.08     0.10  -0.02  -0.02
  11   6    -0.01  -0.01  -0.08    -0.00  -0.01  -0.07     0.08  -0.10  -0.02
  12   6    -0.00   0.01  -0.02    -0.01   0.00  -0.01     0.01  -0.13  -0.01
  13   6     0.01   0.05   0.05    -0.01   0.04   0.04    -0.03  -0.07   0.02
  14   6     0.00   0.05   0.04    -0.02   0.05   0.02    -0.01   0.02   0.04
  15   6    -0.01   0.02  -0.03    -0.01   0.03  -0.05     0.06   0.03   0.01
  16   6    -0.03  -0.00   0.08    -0.03   0.01   0.05    -0.00   0.02   0.15
  17   6    -0.02   0.01   0.12    -0.03   0.02   0.09    -0.03   0.00   0.14
  18   6    -0.00   0.01   0.13    -0.04   0.02   0.09    -0.06   0.01   0.14
  19   6     0.02  -0.03   0.14    -0.03   0.02   0.06    -0.09   0.03   0.20
  20   6     0.11  -0.05   0.03     0.01   0.01  -0.03    -0.01   0.01   0.01
  21   6     0.12  -0.04   0.02     0.01   0.01  -0.03    -0.01   0.01   0.02
  22   6     0.16  -0.01   0.01     0.01  -0.02  -0.04     0.02  -0.01  -0.01
  23   6     0.11   0.07   0.02     0.00  -0.03  -0.01     0.04  -0.03  -0.03
  24   6     0.04   0.13   0.05     0.00  -0.00   0.02     0.02  -0.01  -0.01
  25   6     0.02   0.09   0.04     0.01   0.03   0.03    -0.02   0.03   0.02
  26   6     0.08  -0.00   0.02     0.02   0.03   0.00    -0.03   0.04   0.03
  27   6     0.17  -0.04  -0.08     0.04  -0.00  -0.12     0.08  -0.03  -0.23
  28   6     0.14  -0.00  -0.06     0.03   0.00  -0.08     0.09  -0.04  -0.24
  29   6     0.04   0.01   0.05    -0.02   0.01   0.04     0.01  -0.02  -0.04
  30   6     0.00  -0.17  -0.11    -0.01  -0.11  -0.03     0.01   0.09   0.06
  31   6    -0.00  -0.26  -0.18     0.00  -0.12  -0.07     0.02   0.22   0.15
  32   6    -0.00  -0.16  -0.11    -0.00  -0.04  -0.03     0.01   0.17   0.09
  33   6    -0.01  -0.01   0.01    -0.01   0.01   0.01    -0.01   0.03  -0.02
  34   7    -0.02   0.04   0.05    -0.01   0.02   0.01    -0.02  -0.02  -0.07
  35   6    -0.04   0.02   0.06    -0.01   0.01  -0.00    -0.01  -0.01  -0.04
  36   6    -0.15   0.02  -0.03     0.10   0.01   0.23    -0.03  -0.01  -0.08
  37   6    -0.18  -0.03  -0.05     0.12   0.01   0.26    -0.02  -0.01  -0.05
  38   6    -0.14  -0.06   0.03     0.02   0.00   0.02     0.01  -0.01   0.01
  39   6    -0.15  -0.05   0.01     0.02   0.00   0.02     0.01  -0.01   0.02
  40   6    -0.18  -0.00   0.02     0.05   0.03   0.05    -0.01  -0.01   0.01
  41   6    -0.11   0.10   0.04     0.04   0.03   0.03    -0.01  -0.01  -0.01
  42   6    -0.02   0.16   0.08     0.00  -0.02  -0.02    -0.00  -0.00  -0.02
  43   6    -0.02   0.09   0.05    -0.02  -0.05  -0.05     0.02   0.00  -0.00
  44   6    -0.09  -0.01   0.02    -0.00  -0.04  -0.02     0.02  -0.00   0.01
  45   6    -0.03  -0.06   0.11    -0.09   0.00  -0.20     0.03  -0.01   0.06
  46   6    -0.00  -0.01   0.11    -0.08  -0.00  -0.18     0.02  -0.01   0.02
  47   6     0.02   0.00   0.09    -0.07   0.00  -0.18     0.01  -0.01   0.03
  48   6     0.04  -0.02   0.06    -0.04  -0.01  -0.17    -0.01   0.01   0.06
  49   6     0.02   0.00  -0.07     0.09   0.00   0.07    -0.06  -0.01   0.03
  50   6     0.03   0.00  -0.05     0.10  -0.00   0.07    -0.07  -0.01   0.02
  51   6     0.02   0.05  -0.05     0.10  -0.01   0.06    -0.08  -0.05   0.01
  52   6    -0.01   0.08  -0.01     0.02   0.02  -0.00    -0.03  -0.08   0.01
  53   6    -0.02   0.05   0.03    -0.06   0.07  -0.07     0.02  -0.08   0.01
  54   6    -0.00  -0.01   0.03    -0.03   0.08  -0.05     0.00  -0.04   0.01
  55   6     0.02  -0.03  -0.01     0.07   0.04   0.02    -0.05  -0.01   0.01
  56   6    -0.03   0.04  -0.17     0.17   0.01   0.25    -0.08  -0.03  -0.01
  57   6    -0.04   0.05  -0.12     0.11   0.02   0.18    -0.05  -0.04  -0.03
  58   6    -0.01   0.03   0.02    -0.01   0.01  -0.02    -0.01  -0.02  -0.03
  59   1     0.02   0.02  -0.05     0.01   0.01  -0.03     0.05  -0.03  -0.08
  60   1     0.02   0.00  -0.08     0.02  -0.00  -0.06     0.08  -0.03  -0.10
  61   1    -0.01  -0.01  -0.03    -0.00  -0.01  -0.03     0.03  -0.04  -0.01
  62   1    -0.00   0.00  -0.00    -0.00  -0.00   0.00    -0.00  -0.06  -0.00
  63   1     0.01   0.02   0.03    -0.00   0.02   0.03    -0.02  -0.02   0.01
  64   1     0.00   0.02   0.02    -0.01   0.02   0.01    -0.01   0.02   0.02
  65   1    -0.00   0.01  -0.01    -0.00   0.01  -0.02     0.02   0.03   0.00
  66   1    -0.02  -0.01   0.04    -0.01  -0.00   0.02    -0.01   0.01   0.08
  67   1    -0.01  -0.02   0.06    -0.01   0.01   0.03    -0.05   0.01   0.10
  68   1     0.06  -0.01   0.00     0.00  -0.01  -0.02     0.01  -0.01  -0.00
  69   1     0.04   0.03   0.01    -0.00  -0.01  -0.00     0.02  -0.02  -0.02
  70   1    -0.00   0.06   0.02    -0.00  -0.00   0.01     0.01  -0.01  -0.01
  71   1    -0.01   0.04   0.01     0.00   0.01   0.02    -0.01   0.02   0.01
  72   1     0.02  -0.01   0.00     0.01   0.01   0.00    -0.01   0.02   0.01
  73   1     0.07  -0.01  -0.05     0.02  -0.00  -0.06     0.04  -0.01  -0.12
  74   1     0.06   0.01  -0.05     0.02  -0.00  -0.04     0.05  -0.01  -0.11
  75   1     0.00  -0.06  -0.04    -0.00  -0.04  -0.01     0.00   0.03   0.01
  76   1    -0.00  -0.12  -0.09     0.01  -0.05  -0.04     0.01   0.10   0.07
  77   1    -0.00  -0.06  -0.04     0.00  -0.01  -0.01     0.01   0.07   0.03
  78   1    -0.06   0.02  -0.03     0.05  -0.00   0.11    -0.01  -0.00  -0.03
  79   1    -0.07  -0.01  -0.04     0.05   0.00   0.13    -0.01  -0.00  -0.03
  80   1    -0.07  -0.01   0.00     0.02   0.02   0.02    -0.00  -0.00   0.00
  81   1    -0.03   0.04   0.02     0.02   0.02   0.02    -0.01  -0.00  -0.01
  82   1     0.01   0.07   0.03    -0.00  -0.01  -0.01    -0.00  -0.00  -0.01
  83   1     0.01   0.04   0.02    -0.02  -0.03  -0.03     0.01   0.00  -0.00
  84   1    -0.03  -0.02  -0.00     0.00  -0.02  -0.01     0.01  -0.00   0.01
  85   1     0.00  -0.03   0.05    -0.05   0.00  -0.10     0.02  -0.00   0.03
  86   1     0.02  -0.01   0.03    -0.03  -0.01  -0.08     0.00   0.01   0.03
  87   1     0.01   0.02  -0.02     0.04  -0.01   0.03    -0.03  -0.02   0.01
  88   1    -0.01   0.04  -0.00     0.00  -0.00  -0.00    -0.01  -0.03   0.00
  89   1    -0.01   0.02   0.02    -0.04   0.03  -0.04     0.02  -0.03   0.00
  90   1    -0.00  -0.01   0.02    -0.02   0.03  -0.03     0.01  -0.01   0.00
  91   1     0.01  -0.02  -0.00     0.03   0.02   0.01    -0.02   0.00   0.00
  92   1    -0.01   0.02  -0.08     0.08   0.00   0.13    -0.03  -0.01  -0.01
  93   1    -0.02   0.03  -0.06     0.05   0.01   0.09    -0.02  -0.02  -0.01
                     22                     23                     24
                        a                      a                      a 
 Frequencies --   131.9263               132.5461               151.9881
 Red. masses --    11.4825                11.9031                10.5497
 Frc consts  --     0.0000                 0.0000                 0.0000
 IR Inten    --     1.0499                 2.8759                 0.1529
 Raman Activ --     0.0000                 0.0000                 0.0000
 Depolar     --     0.0000                 0.0000                 0.0000
 Atom AN      X      Y      Z        X      Y      Z        X      Y      Z
   1   7     0.32  -0.12   0.10    -0.48  -0.08   0.04    -0.22   0.05   0.02
   2   6     0.06  -0.04   0.12    -0.08  -0.04   0.07    -0.05   0.02   0.01
   3   6    -0.04  -0.01   0.13     0.07  -0.01   0.09     0.00  -0.00   0.00
   4   6    -0.04  -0.00   0.15     0.02  -0.02   0.01    -0.01   0.00  -0.02
   5   7    -0.10  -0.00   0.22     0.05  -0.01  -0.07    -0.01   0.00  -0.02
   6   6    -0.08   0.00   0.16     0.02   0.00  -0.03     0.03  -0.01  -0.12
   7   6    -0.03   0.01   0.00    -0.05   0.04   0.02     0.13  -0.04  -0.28
   8   6     0.01  -0.01  -0.13    -0.10   0.02   0.03     0.12  -0.02  -0.18
   9   6    -0.01  -0.01  -0.08    -0.07  -0.00  -0.03    -0.01   0.04   0.10
  10   6    -0.01  -0.02  -0.12    -0.08  -0.01  -0.05    -0.01   0.07   0.19
  11   6    -0.01  -0.03  -0.10    -0.07   0.04  -0.05    -0.01   0.10   0.12
  12   6    -0.01   0.00   0.00    -0.01   0.08  -0.00    -0.02   0.04  -0.06
  13   6    -0.01   0.06   0.09     0.02   0.07   0.03    -0.01  -0.03  -0.15
  14   6    -0.02   0.05   0.02     0.00   0.01  -0.01     0.03  -0.01   0.01
  15   6    -0.03   0.01  -0.09    -0.05  -0.03  -0.05     0.02   0.05   0.18
  16   6    -0.06  -0.00   0.09    -0.02  -0.03  -0.05    -0.06   0.05   0.17
  17   6    -0.08   0.02   0.18     0.02  -0.01  -0.04    -0.03   0.01  -0.00
  18   6    -0.09   0.02   0.15     0.03  -0.00  -0.04    -0.03   0.00   0.01
  19   6    -0.06   0.07  -0.00    -0.01   0.04   0.02     0.04  -0.05  -0.14
  20   6    -0.06   0.06  -0.17    -0.06   0.05   0.04     0.04  -0.05  -0.11
  21   6    -0.06   0.04  -0.18    -0.08   0.06   0.07     0.08  -0.10  -0.17
  22   6    -0.15  -0.05  -0.16    -0.05   0.05   0.05     0.01  -0.12  -0.14
  23   6    -0.16  -0.13  -0.05     0.01  -0.01  -0.02    -0.10  -0.03   0.01
  24   6    -0.09  -0.10   0.05     0.04  -0.07  -0.07    -0.12   0.05   0.10
  25   6    -0.00   0.00   0.04    -0.02  -0.02  -0.02     0.01  -0.01   0.02
  26   6     0.00   0.07  -0.08    -0.08   0.05   0.05     0.10  -0.09  -0.13
  27   6    -0.06   0.04  -0.20    -0.04   0.03  -0.02    -0.06  -0.00   0.16
  28   6    -0.10   0.00  -0.03     0.01  -0.01  -0.09    -0.11   0.03   0.25
  29   6    -0.10   0.01   0.14     0.04  -0.01  -0.08    -0.06   0.02   0.09
  30   6     0.01  -0.03   0.13    -0.03  -0.05  -0.02    -0.03   0.01  -0.01
  31   6     0.04  -0.04   0.08    -0.05  -0.05   0.03    -0.04  -0.02  -0.02
  32   6     0.03  -0.03   0.06    -0.02  -0.02   0.12    -0.03  -0.03  -0.01
  33   6     0.00  -0.02   0.07     0.06   0.00   0.13    -0.00  -0.00   0.02
  34   7    -0.00  -0.01   0.02     0.12  -0.01   0.24     0.03  -0.00   0.08
  35   6     0.01  -0.00  -0.00     0.11  -0.00   0.17     0.02  -0.00   0.03
  36   6     0.03  -0.00  -0.09     0.09  -0.00   0.05    -0.02  -0.00  -0.06
  37   6     0.05   0.03  -0.10     0.03   0.02  -0.14    -0.02  -0.00  -0.07
  38   6     0.07   0.05  -0.03     0.02   0.02  -0.16     0.02  -0.01   0.01
  39   6     0.09   0.05  -0.02     0.00   0.00  -0.18     0.02  -0.00   0.01
  40   6     0.10   0.00  -0.03     0.09  -0.07  -0.17     0.01  -0.00   0.01
  41   6     0.05  -0.07  -0.04     0.13  -0.10  -0.04    -0.00  -0.01  -0.01
  42   6     0.01  -0.09  -0.04     0.10  -0.05   0.07     0.00  -0.01  -0.02
  43   6     0.02  -0.01  -0.00     0.01   0.01   0.05     0.03  -0.00  -0.00
  44   6     0.06   0.05   0.00    -0.04   0.03  -0.09     0.03  -0.00   0.01
  45   6     0.05   0.04   0.03     0.05   0.02  -0.01     0.04  -0.01   0.07
  46   6     0.03   0.00   0.04     0.10  -0.00   0.15     0.03  -0.01   0.06
  47   6     0.02  -0.00   0.04     0.10  -0.00   0.16     0.04  -0.00   0.05
  48   6     0.05  -0.02   0.01     0.07  -0.00   0.07    -0.00  -0.01  -0.07
  49   6     0.06  -0.01  -0.06     0.00   0.00  -0.07    -0.00   0.00  -0.09
  50   6     0.07  -0.00  -0.05    -0.01   0.01  -0.09    -0.03   0.01  -0.12
  51   6     0.07   0.05  -0.04    -0.00   0.06  -0.07     0.00   0.07  -0.09
  52   6     0.02   0.08  -0.01     0.02   0.06  -0.00     0.05   0.07   0.01
  53   6    -0.02   0.06   0.01     0.03   0.02   0.05     0.05   0.02   0.06
  54   6    -0.00   0.00   0.01     0.01  -0.03   0.03    -0.02  -0.02   0.02
  55   6     0.05  -0.03  -0.02    -0.02  -0.03  -0.04    -0.05  -0.02  -0.08
  56   6     0.04   0.01  -0.10    -0.02   0.00  -0.13     0.06  -0.00   0.04
  57   6     0.03   0.02  -0.05     0.03   0.00  -0.00     0.09   0.00   0.14
  58   6     0.01  -0.00   0.02     0.09  -0.01   0.15     0.06  -0.00   0.10
  59   1    -0.00   0.01  -0.01    -0.02   0.02   0.01     0.06  -0.02  -0.13
  60   1     0.02  -0.01  -0.08    -0.04   0.01   0.02     0.06  -0.01  -0.08
  61   1    -0.00  -0.02  -0.04    -0.03   0.01  -0.02    -0.01   0.04   0.05
  62   1    -0.00  -0.00   0.01    -0.00   0.03   0.00    -0.01   0.01  -0.05
  63   1     0.00   0.03   0.06     0.02   0.03   0.02    -0.01  -0.03  -0.10
  64   1    -0.01   0.03   0.02     0.01  -0.00   0.00     0.02  -0.01  -0.00
  65   1    -0.01   0.01  -0.04    -0.02  -0.02  -0.02     0.01   0.01   0.07
  66   1    -0.02  -0.01   0.03    -0.00  -0.02  -0.02    -0.04   0.03   0.10
  67   1    -0.01   0.03   0.00    -0.00   0.02   0.02     0.03  -0.02  -0.08
  68   1    -0.07  -0.02  -0.07    -0.02   0.02   0.02    -0.00  -0.05  -0.06
  69   1    -0.07  -0.06  -0.01     0.01  -0.01  -0.01    -0.05  -0.00   0.02
  70   1    -0.03  -0.04   0.04     0.03  -0.04  -0.04    -0.06   0.05   0.07
  71   1     0.02   0.01   0.04    -0.00  -0.01  -0.01     0.01   0.01   0.02
  72   1     0.02   0.04  -0.02    -0.03   0.02   0.02     0.05  -0.03  -0.05
  73   1    -0.01   0.01  -0.10    -0.02   0.01  -0.00    -0.02   0.00   0.07
  74   1    -0.04  -0.01  -0.01     0.00  -0.01  -0.04    -0.05   0.01   0.11
  75   1     0.01  -0.02   0.04    -0.01  -0.02  -0.02    -0.01   0.01   0.00
  76   1     0.02  -0.02   0.02    -0.03  -0.02   0.00    -0.02  -0.01  -0.01
  77   1     0.01  -0.02   0.01    -0.01  -0.01   0.05    -0.01  -0.02  -0.00
  78   1     0.01  -0.01  -0.04     0.03  -0.01   0.02    -0.01  -0.00  -0.03
  79   1     0.01   0.01  -0.05    -0.01   0.01  -0.07    -0.01  -0.00  -0.04
  80   1     0.04   0.00  -0.01     0.04  -0.03  -0.07     0.00  -0.00   0.00
  81   1     0.01  -0.03  -0.02     0.06  -0.04  -0.01    -0.01  -0.00  -0.01
  82   1    -0.01  -0.04  -0.02     0.04  -0.02   0.05    -0.00  -0.00  -0.01
  83   1    -0.00  -0.00   0.01    -0.01   0.01   0.04     0.01   0.00  -0.00
  84   1     0.02   0.03   0.01    -0.03   0.02  -0.03     0.01   0.00   0.00
  85   1     0.01   0.02   0.02     0.01   0.01  -0.01     0.02  -0.00   0.03
  86   1     0.02  -0.02   0.01     0.02   0.00   0.03    -0.01  -0.00  -0.04
  87   1     0.03   0.02  -0.02     0.00   0.02  -0.03     0.01   0.03  -0.04
  88   1     0.00   0.04  -0.00     0.01   0.03   0.00     0.03   0.03   0.01
  89   1    -0.02   0.03   0.01     0.02   0.00   0.03     0.03   0.00   0.04
  90   1    -0.01  -0.01   0.01     0.00  -0.02   0.02    -0.01  -0.02   0.02
  91   1     0.02  -0.02  -0.01    -0.01  -0.02  -0.02    -0.02  -0.02  -0.03
  92   1     0.01   0.01  -0.05    -0.02   0.00  -0.08     0.02  -0.00   0.02
  93   1     0.00   0.02  -0.02     0.00   0.00  -0.01     0.04   0.00   0.07
                     25                     26                     27
                        a                      a                      a 
 Frequencies --   153.3634               161.0096               173.2719
 Red. masses --    10.3368                10.6145                10.7756
 Frc consts  --     0.0000                 0.0000                 0.0000
 IR Inten    --     0.3796                 0.0818                 0.1454
 Raman Activ --     0.0000                 0.0000                 0.0000
 Depolar     --     0.0000                 0.0000                 0.0000
 Atom AN      X      Y      Z        X      Y      Z        X      Y      Z
   1   7     0.07   0.10   0.04     0.02   0.04  -0.07    -0.05   0.02   0.12
   2   6     0.01   0.03  -0.00     0.03   0.02  -0.07     0.01  -0.02   0.09
   3   6    -0.02  -0.01  -0.02     0.05   0.01  -0.07     0.04  -0.04   0.07
   4   6    -0.02  -0.00  -0.02     0.07  -0.01  -0.02     0.05  -0.07   0.05
   5   7    -0.02   0.01   0.00     0.02  -0.01   0.08     0.10  -0.05  -0.03
   6   6    -0.00  -0.00  -0.03     0.01  -0.00   0.07     0.13  -0.04  -0.10
   7   6     0.05  -0.02  -0.09    -0.01   0.02   0.01     0.09   0.02  -0.23
   8   6     0.07  -0.01  -0.07    -0.04   0.00  -0.03    -0.06  -0.02  -0.15
   9   6     0.03   0.02   0.03    -0.06  -0.03  -0.01    -0.16  -0.06   0.06
  10   6     0.04   0.03   0.06    -0.06  -0.05  -0.06    -0.20  -0.07   0.08
  11   6     0.03   0.02   0.05    -0.06  -0.02  -0.07    -0.19   0.04  -0.01
  12   6     0.00  -0.01  -0.02    -0.01   0.02  -0.01    -0.03   0.10  -0.05
  13   6    -0.02  -0.02  -0.06     0.03   0.04   0.06     0.10   0.03  -0.00
  14   6     0.00   0.01   0.00     0.01  -0.02   0.01     0.07  -0.12   0.04
  15   6     0.03   0.04   0.06    -0.04  -0.06  -0.05    -0.09  -0.17   0.07
  16   6    -0.01   0.04   0.06    -0.04  -0.04   0.06    -0.08  -0.10   0.09
  17   6    -0.02   0.01   0.01     0.01  -0.01   0.08     0.11  -0.05  -0.04
  18   6    -0.03   0.01   0.02     0.01   0.00   0.06     0.13  -0.02  -0.06
  19   6     0.00  -0.03  -0.03     0.03   0.06  -0.05     0.11   0.09  -0.11
  20   6     0.03  -0.04  -0.03    -0.02   0.07  -0.09     0.01   0.12  -0.05
  21   6     0.05  -0.06  -0.07    -0.02   0.07  -0.10    -0.02   0.19  -0.00
  22   6     0.03  -0.06  -0.06    -0.09   0.02  -0.08    -0.07   0.16   0.02
  23   6    -0.02  -0.00   0.01    -0.08  -0.05  -0.02     0.01   0.02   0.01
  24   6    -0.05   0.05   0.05    -0.01  -0.06   0.03     0.15  -0.08  -0.01
  25   6     0.00  -0.00   0.01     0.05   0.01   0.02     0.13   0.05   0.04
  26   6     0.05  -0.06  -0.05     0.03   0.08  -0.04     0.04   0.19   0.05
  27   6    -0.00  -0.01   0.06    -0.07   0.05  -0.00    -0.05   0.07   0.01
  28   6    -0.03   0.02   0.10    -0.08   0.00   0.09    -0.01  -0.03   0.02
  29   6    -0.04   0.01   0.05    -0.00  -0.00   0.09     0.09  -0.04  -0.02
  30   6    -0.03   0.01  -0.01     0.14  -0.03  -0.04     0.07  -0.08   0.04
  31   6    -0.03  -0.01  -0.02     0.17   0.02  -0.04     0.08  -0.03   0.06
  32   6    -0.03  -0.01  -0.01     0.14   0.08  -0.05     0.08  -0.01   0.07
  33   6    -0.02  -0.01  -0.01     0.07   0.04  -0.08     0.04  -0.03   0.05
  34   7    -0.02  -0.00   0.01     0.07   0.03  -0.07    -0.02  -0.01  -0.05
  35   6     0.04   0.01   0.12     0.08   0.03   0.01    -0.04  -0.00  -0.07
  36   6     0.14   0.01   0.26     0.02   0.03   0.13    -0.05   0.00  -0.07
  37   6     0.10   0.04   0.13    -0.04  -0.07   0.13    -0.03   0.01  -0.02
  38   6    -0.03   0.05  -0.15    -0.05  -0.14   0.01    -0.02   0.03   0.04
  39   6    -0.06   0.03  -0.20    -0.11  -0.20  -0.06     0.00   0.05   0.08
  40   6     0.05  -0.04  -0.16    -0.13  -0.16  -0.06    -0.02   0.08   0.08
  41   6     0.12  -0.05  -0.00     0.01   0.02   0.02    -0.06   0.05   0.02
  42   6     0.06  -0.01   0.11     0.15   0.12   0.08    -0.10   0.01  -0.02
  43   6    -0.08   0.01   0.04     0.07  -0.03  -0.02    -0.05   0.02   0.01
  44   6    -0.13   0.04  -0.12    -0.06  -0.20  -0.10     0.00   0.05   0.07
  45   6    -0.07   0.05  -0.18     0.04  -0.12  -0.02    -0.03   0.03  -0.02
  46   6    -0.01   0.01   0.02     0.10   0.01   0.01    -0.05   0.01  -0.07
  47   6    -0.02   0.01   0.03     0.10   0.04   0.01    -0.06  -0.00  -0.08
  48   6     0.06  -0.00   0.21    -0.01   0.12   0.06    -0.01  -0.02  -0.00
  49   6     0.03  -0.01   0.13    -0.11   0.07   0.07     0.01  -0.02   0.04
  50   6     0.08  -0.03   0.17    -0.19   0.11   0.02     0.06  -0.05   0.09
  51   6     0.02  -0.10   0.13    -0.20   0.04   0.01     0.04  -0.08   0.07
  52   6    -0.07  -0.09  -0.02    -0.01  -0.06   0.02    -0.03  -0.06  -0.00
  53   6    -0.09  -0.01  -0.10     0.16  -0.07   0.04    -0.08  -0.01  -0.05
  54   6     0.04   0.03  -0.02     0.04   0.05  -0.01    -0.01  -0.01  -0.01
  55   6     0.12   0.01   0.12    -0.14   0.15  -0.02     0.07  -0.03   0.07
  56   6    -0.11   0.01  -0.19    -0.09   0.01   0.09    -0.03  -0.00  -0.06
  57   6    -0.15   0.01  -0.28     0.00  -0.05   0.04    -0.07   0.00  -0.12
  58   6    -0.07   0.00  -0.09     0.08   0.02  -0.02    -0.06  -0.00  -0.09
  59   1     0.02  -0.02  -0.04     0.00   0.02  -0.00     0.04   0.03  -0.10
  60   1     0.03  -0.01  -0.03    -0.01   0.00  -0.02    -0.02  -0.00  -0.06
  61   1     0.01   0.01   0.02    -0.03  -0.00  -0.03    -0.09   0.03  -0.01
  62   1    -0.00  -0.01  -0.01    -0.00   0.02   0.00    -0.01   0.06  -0.03
  63   1    -0.01  -0.02  -0.04     0.02   0.02   0.04     0.06   0.02  -0.00
  64   1    -0.00   0.00  -0.00     0.01  -0.01   0.01     0.05  -0.06   0.02
  65   1     0.01   0.02   0.03    -0.02  -0.03  -0.02    -0.03  -0.08   0.03
  66   1    -0.01   0.02   0.04    -0.01  -0.03   0.02    -0.04  -0.06   0.07
  67   1     0.00  -0.02  -0.02     0.03   0.03  -0.03     0.05   0.04  -0.04
  68   1     0.01  -0.03  -0.02    -0.05   0.01  -0.04    -0.04   0.06   0.00
  69   1    -0.02   0.01   0.01    -0.04  -0.03  -0.00    -0.01  -0.01   0.00
  70   1    -0.03   0.03   0.03     0.00  -0.03   0.02     0.07  -0.07  -0.02
  71   1    -0.00   0.01   0.01     0.03   0.01   0.02     0.06   0.00   0.01
  72   1     0.02  -0.02  -0.02     0.02   0.04  -0.01     0.01   0.08   0.02
  73   1     0.00  -0.00   0.03    -0.03   0.02  -0.00    -0.04   0.02   0.01
  74   1    -0.01   0.01   0.04    -0.04  -0.01   0.04    -0.02  -0.02   0.02
  75   1    -0.01   0.01  -0.00     0.05  -0.02  -0.00     0.02  -0.04   0.01
  76   1    -0.01  -0.00  -0.00     0.06   0.01  -0.01     0.03  -0.01   0.02
  77   1    -0.01  -0.00   0.00     0.05   0.05  -0.01     0.03   0.00   0.02
  78   1     0.07  -0.01   0.12    -0.00   0.03   0.06    -0.02   0.00  -0.02
  79   1     0.04   0.01   0.06    -0.03  -0.02   0.06    -0.00   0.00  -0.00
  80   1     0.03  -0.02  -0.07    -0.06  -0.06  -0.02    -0.01   0.03   0.03
  81   1     0.06  -0.02   0.01     0.00   0.03   0.02    -0.02   0.01   0.00
  82   1     0.04  -0.00   0.07     0.09   0.08   0.05    -0.04  -0.01  -0.02
  83   1    -0.04   0.01   0.04     0.04   0.00  -0.01    -0.01   0.00  -0.01
  84   1    -0.06   0.02  -0.04    -0.02  -0.09  -0.04     0.01   0.02   0.02
  85   1    -0.05   0.02  -0.10     0.02  -0.06  -0.02    -0.01   0.01   0.00
  86   1     0.04  -0.00   0.11     0.00   0.07   0.02     0.00  -0.01   0.01
  87   1     0.00  -0.05   0.06    -0.09   0.01   0.00     0.02  -0.03   0.03
  88   1    -0.04  -0.04  -0.02     0.01  -0.04   0.01    -0.02  -0.02  -0.01
  89   1    -0.06   0.01  -0.07     0.10  -0.05   0.02    -0.05   0.00  -0.04
  90   1     0.02   0.03  -0.02     0.04   0.02  -0.01    -0.00   0.01  -0.01
  91   1     0.05   0.01   0.05    -0.06   0.07  -0.01     0.03  -0.01   0.03
  92   1    -0.05   0.01  -0.10    -0.04  -0.01   0.04    -0.01   0.00  -0.02
  93   1    -0.07   0.01  -0.13     0.00  -0.05   0.02    -0.02   0.00  -0.04
                     28                     29                     30
                        a                      a                      a 
 Frequencies --   195.3858               207.1136               217.7127
 Red. masses --    11.1823                10.7729                10.9299
 Frc consts  --     0.0000                 0.0000                 0.0000
 IR Inten    --     0.2142                 2.1556                 3.2500
 Raman Activ --     0.0000                 0.0000                 0.0000
 Depolar     --     0.0000                 0.0000                 0.0000
 Atom AN      X      Y      Z        X      Y      Z        X      Y      Z
   1   7    -0.02   0.13  -0.18     0.04  -0.01   0.01     0.01  -0.06  -0.07
   2   6     0.01   0.03  -0.21    -0.05   0.01   0.01    -0.00   0.10   0.01
   3   6     0.01  -0.00  -0.21    -0.08   0.02   0.02     0.03   0.15   0.05
   4   6     0.03   0.02  -0.15    -0.08   0.13   0.08     0.06   0.16   0.14
   5   7     0.00   0.02  -0.04    -0.06   0.06   0.00     0.01   0.04   0.13
   6   6    -0.01   0.02   0.05    -0.03   0.02  -0.05     0.00   0.01   0.01
   7   6    -0.01   0.00   0.10     0.03  -0.02  -0.08     0.02   0.01  -0.07
   8   6    -0.03  -0.01   0.07     0.02  -0.04  -0.06     0.03   0.00  -0.09
[...]
  41   6    -0.00  -0.00   0.01    -0.00  -0.00   0.00    -0.01  -0.00   0.01
  42   6    -0.01   0.00   0.00    -0.00   0.00   0.00    -0.02   0.01   0.01
  43   6    -0.00   0.00  -0.00    -0.00   0.00  -0.00    -0.01   0.01  -0.01
  44   6    -0.00  -0.00   0.01     0.00   0.00  -0.00     0.01   0.01  -0.02
  45   6    -0.15  -0.11   0.07     0.00   0.00  -0.00     0.00  -0.00  -0.00
  46   6     0.00  -0.01  -0.00    -0.00  -0.00   0.00    -0.00  -0.00   0.00
  47   6     0.00  -0.00  -0.00     0.00  -0.00  -0.00     0.00  -0.00  -0.00
  48   6     0.01  -0.00  -0.00     0.04  -0.00  -0.02     0.14  -0.00  -0.06
  49   6     0.00   0.00  -0.00     0.00   0.00  -0.00     0.00   0.01  -0.00
  50   6    -0.00  -0.00   0.00    -0.00  -0.00   0.00    -0.00  -0.00   0.00
  51   6     0.00  -0.01  -0.01     0.00  -0.01  -0.00     0.00  -0.02  -0.02
  52   6     0.01   0.00  -0.02     0.00   0.00  -0.01     0.01   0.00  -0.02
  53   6     0.02   0.03  -0.01     0.00   0.01  -0.00     0.01   0.03  -0.01
  54   6    -0.00   0.02   0.02    -0.00   0.00   0.00    -0.00   0.02   0.02
  55   6    -0.01  -0.00   0.02    -0.00  -0.00   0.01    -0.01  -0.00   0.02
  56   6    -0.05   0.10   0.02    -0.01   0.03   0.01    -0.05   0.09   0.02
  57   6    -0.06   0.00   0.03    -0.01   0.00   0.01    -0.06   0.00   0.03
  58   6    -0.00  -0.00   0.00    -0.00  -0.00   0.00    -0.00  -0.00   0.00
  59   1    -0.00   0.00  -0.00     0.21  -0.00   0.10    -0.05   0.00  -0.03
  60   1     0.00   0.01   0.00     0.13   0.23   0.04    -0.03  -0.05  -0.01
  61   1    -0.00  -0.00   0.00     0.01   0.01  -0.00    -0.00  -0.00   0.00
  62   1    -0.00   0.00   0.00    -0.01   0.00   0.00     0.00  -0.00  -0.00
  63   1    -0.00   0.00  -0.00    -0.01   0.01  -0.00     0.00  -0.00   0.00
  64   1     0.00   0.00  -0.00     0.01   0.01  -0.01    -0.00  -0.00   0.00
  65   1     0.00  -0.00  -0.00     0.03  -0.01  -0.01    -0.01   0.00   0.00
  66   1    -0.01   0.00  -0.00     0.22  -0.01   0.10    -0.06   0.00  -0.03
  67   1    -0.00   0.00  -0.00     0.46  -0.36   0.23    -0.13   0.10  -0.06
  68   1    -0.00  -0.00   0.00    -0.02  -0.04   0.03     0.01   0.01  -0.01
  69   1     0.00  -0.00   0.00     0.00  -0.00   0.00    -0.00   0.00  -0.00
  70   1     0.00   0.00   0.00    -0.00  -0.00  -0.00    -0.00  -0.00  -0.00
  71   1     0.00   0.00  -0.00    -0.00  -0.01   0.01    -0.00  -0.00   0.00
  72   1    -0.00   0.00  -0.00     0.02  -0.01   0.03    -0.00   0.00  -0.01
  73   1     0.00   0.00  -0.00    -0.05  -0.39   0.01     0.01   0.10  -0.00
  74   1     0.00  -0.00   0.00     0.26  -0.21   0.12    -0.07   0.06  -0.03
  75   1    -0.00  -0.00   0.00     0.02   0.01  -0.01     0.00   0.00  -0.00
  76   1     0.00   0.01  -0.01    -0.00  -0.02   0.03    -0.00  -0.01   0.02
  77   1     0.01  -0.00   0.00    -0.01   0.00  -0.00    -0.01   0.00  -0.01
  78   1     0.21   0.15  -0.08    -0.06  -0.04   0.02    -0.24  -0.17   0.10
  79   1    -0.01   0.35   0.02     0.00  -0.12  -0.01     0.02  -0.47  -0.02
  80   1    -0.03   0.06  -0.04    -0.00   0.01  -0.00    -0.01   0.03  -0.02
  81   1     0.01   0.01  -0.02     0.01   0.00  -0.01     0.02   0.02  -0.04
  82   1     0.02  -0.01  -0.01     0.01  -0.01  -0.01     0.05  -0.03  -0.02
  83   1     0.00  -0.01   0.00     0.00  -0.01   0.01     0.02  -0.04   0.02
  84   1     0.01   0.01  -0.02    -0.01  -0.01   0.02    -0.03  -0.02   0.06
  85   1     0.54   0.38  -0.23    -0.00  -0.00   0.00    -0.00   0.00   0.00
  86   1    -0.03   0.00   0.01    -0.14   0.00   0.06    -0.50   0.00   0.21
  87   1    -0.00   0.05   0.04    -0.00   0.02   0.02    -0.00   0.07   0.07
  88   1    -0.04  -0.01   0.07    -0.01  -0.00   0.02    -0.04  -0.01   0.07
  89   1    -0.05  -0.10   0.02    -0.01  -0.02   0.00    -0.05  -0.09   0.02
  90   1     0.00  -0.05  -0.05     0.00  -0.01  -0.01     0.00  -0.05  -0.05
  91   1     0.04   0.01  -0.08     0.01   0.00  -0.02     0.04   0.01  -0.07
  92   1     0.17  -0.33  -0.08     0.05  -0.09  -0.02     0.17  -0.33  -0.08
  93   1     0.20  -0.00  -0.09     0.05  -0.00  -0.02     0.19  -0.00  -0.09
                    268                    269                    270
                        a                      a                      a 
 Frequencies --  3092.0452              3093.2110              3094.1587
 Red. masses --     1.8691                 1.8511                 1.8532
 Frc consts  --     0.0000                 0.0000                 0.0000
 IR Inten    --   114.8520                16.0446                 3.3453
 Raman Activ --     0.0000                 0.0000                 0.0000
 Depolar     --     0.0000                 0.0000                 0.0000
 Atom AN      X      Y      Z        X      Y      Z        X      Y      Z
   1   7     0.00  -0.00   0.00    -0.00  -0.00   0.00    -0.00  -0.00   0.00
   2   6    -0.00   0.00  -0.00     0.00   0.00  -0.00    -0.00   0.00  -0.00
   3   6     0.00  -0.00  -0.00     0.00  -0.00   0.00    -0.00  -0.00   0.00
   4   6     0.00   0.00   0.00    -0.00   0.00  -0.00     0.00  -0.00   0.00
   5   7     0.00   0.00  -0.00     0.00  -0.00   0.00    -0.00   0.00  -0.00
   6   6     0.00  -0.01   0.00     0.00  -0.00  -0.00     0.00  -0.00   0.00
   7   6     0.11  -0.00   0.05     0.00  -0.00   0.00     0.07  -0.00   0.03
   8   6     0.08   0.13   0.03     0.00   0.00   0.00     0.04   0.07   0.01
   9   6    -0.00   0.01  -0.00    -0.00   0.00  -0.00    -0.00   0.01  -0.00
  10   6     0.00  -0.00   0.00    -0.00   0.00  -0.00     0.00  -0.00   0.00
  11   6    -0.01  -0.01   0.01     0.00   0.00  -0.00    -0.01  -0.01   0.01
  12   6    -0.02   0.00   0.00     0.00  -0.00  -0.00    -0.01   0.00   0.00
  13   6    -0.01   0.02  -0.01     0.00  -0.00   0.00    -0.01   0.01  -0.00
  14   6     0.01   0.01  -0.01    -0.00  -0.00   0.00     0.01   0.01  -0.01
  15   6     0.02  -0.01  -0.00    -0.00   0.00   0.00     0.01  -0.00  -0.00
  16   6    -0.09   0.00  -0.04     0.00  -0.00   0.00    -0.10   0.00  -0.04
  17   6    -0.00  -0.00  -0.00     0.00   0.00  -0.00    -0.00  -0.00  -0.00
  18   6     0.00  -0.00   0.00     0.00  -0.00   0.00    -0.00   0.01  -0.00
  19   6     0.04  -0.03   0.02     0.01  -0.00   0.00    -0.11   0.09  -0.06
  20   6     0.01   0.00   0.00     0.00   0.00   0.00    -0.01  -0.00  -0.00
  21   6    -0.00  -0.00  -0.00    -0.00  -0.00  -0.00     0.00   0.00   0.00
  22   6    -0.00  -0.01   0.01    -0.00  -0.00   0.00     0.01   0.01  -0.01
  23   6     0.00  -0.00   0.01     0.00  -0.00   0.00    -0.01   0.00  -0.01
  24   6     0.01   0.01   0.00     0.00   0.00   0.00    -0.02  -0.01  -0.01
  25   6     0.00   0.01  -0.01     0.00   0.00  -0.00    -0.01  -0.01   0.01
  26   6    -0.01   0.00  -0.01    -0.00   0.00  -0.00     0.01  -0.00   0.02
  27   6     0.01   0.12  -0.00     0.00   0.01  -0.00    -0.01  -0.12   0.00
  28   6    -0.07   0.06  -0.03    -0.00   0.00  -0.00     0.07  -0.06   0.03
  29   6    -0.00  -0.00  -0.00    -0.00  -0.00  -0.00     0.00   0.00   0.00
  30   6    -0.01  -0.00   0.00     0.00   0.00  -0.00     0.01   0.00  -0.00
  31   6     0.00   0.01  -0.01    -0.00  -0.00   0.00    -0.00  -0.01   0.02
  32   6     0.00  -0.00   0.00    -0.00   0.00  -0.00    -0.01   0.00  -0.00
  33   6     0.00  -0.00   0.00    -0.00  -0.00   0.00    -0.00   0.00  -0.00
  34   7     0.00   0.00  -0.00     0.00  -0.00  -0.00    -0.00  -0.00   0.00
  35   6     0.00  -0.00  -0.00    -0.00   0.00   0.00     0.00  -0.00  -0.00
  36   6     0.00   0.00  -0.00    -0.07  -0.05   0.03    -0.00  -0.00   0.00
  37   6    -0.00   0.00   0.00     0.00  -0.14  -0.01     0.00  -0.00  -0.00
  38   6    -0.00   0.00   0.00     0.01  -0.00  -0.00     0.00  -0.00  -0.00
  39   6     0.00  -0.00  -0.00    -0.00   0.00   0.00     0.00  -0.00  -0.00
  40   6     0.00  -0.00   0.00    -0.01   0.02  -0.01    -0.00   0.00  -0.00
  41   6    -0.00  -0.00   0.00     0.01   0.01  -0.02     0.00   0.00  -0.00
  42   6    -0.00   0.00   0.00     0.02  -0.01  -0.01     0.00  -0.00  -0.00
  43   6    -0.00   0.00  -0.00     0.01  -0.02   0.01     0.00  -0.00   0.00
  44   6     0.00   0.00  -0.00    -0.01  -0.01   0.02    -0.00  -0.00   0.00
  45   6    -0.01  -0.00   0.00     0.12   0.09  -0.05     0.00   0.00  -0.00
  46   6    -0.00  -0.00   0.00     0.00   0.01  -0.00    -0.00   0.00   0.00
  47   6    -0.00   0.00   0.00     0.00  -0.00  -0.00     0.00  -0.00  -0.00
  48   6    -0.00   0.00   0.00     0.10  -0.00  -0.04     0.00  -0.00  -0.00
  49   6    -0.00  -0.00   0.00     0.00   0.00  -0.00     0.00   0.00  -0.00
  50   6    -0.00  -0.00   0.00    -0.00  -0.00   0.00    -0.00   0.00   0.00
  51   6     0.00  -0.00  -0.00     0.00  -0.01  -0.01    -0.00  -0.00  -0.00
  52   6     0.00   0.00  -0.00     0.01   0.00  -0.01     0.00   0.00  -0.00
  53   6     0.00   0.00  -0.00     0.01   0.01  -0.00     0.00   0.00  -0.00
  54   6    -0.00   0.00   0.00    -0.00   0.01   0.01    -0.00   0.00   0.00
  55   6     0.00   0.00  -0.00    -0.01  -0.00   0.01    -0.00  -0.00   0.00
  56   6     0.00  -0.00  -0.00    -0.03   0.05   0.01    -0.00   0.00   0.00
  57   6    -0.00  -0.00   0.00    -0.04   0.00   0.02    -0.00   0.00   0.00
  58   6    -0.00  -0.00   0.00    -0.00  -0.00   0.00    -0.00  -0.00   0.00
  59   1    -0.38   0.00  -0.18    -0.01   0.00  -0.01    -0.23   0.00  -0.11
  60   1    -0.27  -0.46  -0.09    -0.01  -0.01  -0.00    -0.15  -0.26  -0.05
  61   1     0.04   0.05  -0.03    -0.00  -0.00   0.00     0.03   0.03  -0.02
  62   1     0.06  -0.01  -0.01    -0.00   0.00   0.00     0.04  -0.01  -0.01
  63   1     0.03  -0.07   0.02    -0.00   0.00  -0.00     0.02  -0.04   0.01
  64   1    -0.03  -0.04   0.03     0.00   0.00  -0.00    -0.02  -0.02   0.02
  65   1    -0.07   0.02   0.02     0.00  -0.00  -0.00    -0.04   0.01   0.01
  66   1     0.30  -0.01   0.14    -0.01   0.00  -0.00     0.34  -0.01   0.15
  67   1    -0.14   0.11  -0.07    -0.02   0.02  -0.01     0.40  -0.32   0.20
  68   1     0.02   0.03  -0.02     0.00   0.00  -0.00    -0.03  -0.05   0.04
  69   1    -0.01   0.01  -0.03    -0.00   0.00  -0.00     0.02  -0.01   0.04
  70   1    -0.04  -0.02  -0.01    -0.00  -0.00  -0.00     0.05   0.03   0.02
  71   1    -0.01  -0.03   0.02    -0.00  -0.00   0.00     0.02   0.03  -0.03
  72   1     0.02  -0.02   0.05     0.00  -0.00   0.00    -0.03   0.02  -0.05
  73   1    -0.05  -0.41   0.01    -0.00  -0.03   0.00     0.05   0.42  -0.01
  74   1     0.23  -0.19   0.11     0.02  -0.01   0.01    -0.24   0.20  -0.12
  75   1     0.02   0.01  -0.01    -0.00  -0.00   0.00    -0.03  -0.01   0.02
  76   1    -0.00  -0.03   0.04     0.00   0.00  -0.00     0.00   0.04  -0.05
  77   1    -0.01   0.00  -0.01     0.01  -0.00   0.01     0.02  -0.01   0.01
  78   1    -0.01  -0.00   0.00     0.25   0.18  -0.10     0.00   0.00  -0.00
  79   1     0.00  -0.02  -0.00    -0.02   0.48   0.02    -0.00   0.01   0.00
  80   1    -0.00   0.00  -0.00     0.03  -0.07   0.04     0.00  -0.00   0.00
  81   1     0.00   0.00  -0.00    -0.03  -0.02   0.06    -0.00  -0.00   0.00
  82   1     0.00  -0.00  -0.00    -0.07   0.04   0.03    -0.00   0.00   0.00
  83   1     0.00  -0.00   0.00    -0.02   0.05  -0.03    -0.00   0.00  -0.00
  84   1    -0.00  -0.00   0.00     0.03   0.03  -0.07     0.00   0.00  -0.00
  85   1     0.02   0.02  -0.01    -0.44  -0.31   0.19    -0.01  -0.01   0.01
  86   1     0.01   0.00  -0.00    -0.36   0.00   0.15    -0.02   0.00   0.01
  87   1    -0.00   0.00   0.00    -0.00   0.04   0.04    -0.00   0.00   0.00
  88   1    -0.00  -0.00   0.00    -0.02  -0.01   0.04    -0.00  -0.00   0.00
  89   1    -0.00  -0.00   0.00    -0.02  -0.04   0.01    -0.00  -0.00   0.00
  90   1     0.00  -0.00  -0.00     0.00  -0.03  -0.03     0.00  -0.00  -0.00
  91   1    -0.00  -0.00   0.00     0.02   0.01  -0.04     0.00   0.00  -0.00
  92   1    -0.01   0.01   0.00     0.10  -0.19  -0.05     0.01  -0.01  -0.00
  93   1     0.00   0.00  -0.00     0.13  -0.00  -0.06     0.01  -0.00  -0.01
                    271                    272                    273
                        a                      a                      a 
 Frequencies --  3094.6482              3108.3926              3112.8439
 Red. masses --     1.7890                 1.8322                 1.8923
 Frc consts  --     0.0000                 0.0000                 0.0000
 IR Inten    --     6.9403                16.5020                26.4474
 Raman Activ --     0.0000                 0.0000                 0.0000
 Depolar     --     0.0000                 0.0000                 0.0000
 Atom AN      X      Y      Z        X      Y      Z        X      Y      Z
   1   7    -0.00  -0.00   0.00    -0.00  -0.00   0.00     0.00   0.00  -0.00
   2   6     0.00   0.00  -0.00     0.00   0.00  -0.00    -0.00  -0.00   0.00
   3   6     0.00   0.00   0.00    -0.00   0.00  -0.00    -0.00  -0.00   0.00
   4   6     0.00   0.00  -0.00     0.01  -0.00   0.00     0.01  -0.00   0.00
   5   7     0.00  -0.00   0.00    -0.00   0.00   0.00    -0.00   0.00  -0.00
   6   6    -0.00   0.00  -0.00    -0.00   0.00  -0.00     0.00  -0.00  -0.00
   7   6    -0.00  -0.00  -0.00    -0.00  -0.00  -0.00     0.00   0.00   0.00
   8   6    -0.00  -0.00  -0.00    -0.00  -0.00  -0.00    -0.00  -0.00  -0.00
   9   6     0.00  -0.00   0.00     0.00  -0.00   0.00     0.00  -0.00   0.00
  10   6    -0.00   0.00  -0.00    -0.00   0.00  -0.00     0.00  -0.00   0.00
  11   6     0.00   0.00  -0.00     0.00   0.00  -0.00    -0.00  -0.00   0.00
  12   6     0.00  -0.00  -0.00    -0.00  -0.00   0.00    -0.00   0.00   0.00
  13   6     0.00  -0.00   0.00    -0.00   0.00  -0.00    -0.00   0.00  -0.00
  14   6    -0.00  -0.00   0.00     0.00   0.00  -0.00    -0.00  -0.00   0.00
  15   6    -0.00   0.00   0.00    -0.00   0.00   0.00    -0.00   0.00   0.00
  16   6     0.00  -0.00   0.00     0.00   0.00   0.00     0.00  -0.00   0.00
  17   6     0.00   0.00   0.00     0.00  -0.00   0.00    -0.00  -0.00   0.00
  18   6     0.00  -0.00   0.00     0.00   0.00  -0.00    -0.00   0.00  -0.00
  19   6     0.01  -0.01   0.00    -0.00   0.00  -0.00     0.00  -0.00   0.00
  20   6     0.00   0.00   0.00     0.00  -0.00   0.00     0.00  -0.00   0.00
  21   6    -0.00  -0.00  -0.00    -0.00  -0.00  -0.00     0.00   0.00   0.00
  22   6    -0.00  -0.00   0.00    -0.00  -0.00   0.00    -0.00  -0.00   0.00
  23   6     0.00  -0.00   0.00    -0.00   0.00  -0.00    -0.00   0.00  -0.00
  24   6     0.00   0.00   0.00    -0.00  -0.00  -0.00    -0.00  -0.00  -0.00
  25   6     0.00   0.00  -0.00    -0.00  -0.00   0.00     0.00   0.00  -0.00
  26   6    -0.00   0.00  -0.00    -0.00   0.00  -0.00    -0.00   0.00  -0.00
  27   6     0.00   0.02  -0.00     0.00   0.00  -0.00     0.00   0.00  -0.00
  28   6    -0.02   0.01  -0.01    -0.00   0.00  -0.00    -0.00   0.00  -0.00
  29   6    -0.00  -0.00  -0.00    -0.00  -0.00  -0.00     0.00  -0.00  -0.00
  30   6     0.07   0.02  -0.03     0.16   0.05  -0.08     0.17   0.05  -0.08
  31   6    -0.01  -0.15   0.19    -0.00  -0.00   0.01     0.00   0.08  -0.10
  32   6    -0.07   0.02  -0.03     0.17  -0.07   0.08    -0.15   0.05  -0.07
  33   6    -0.00   0.00  -0.00     0.01   0.00  -0.00    -0.01  -0.00   0.00
  34   7    -0.00  -0.00   0.00    -0.00  -0.00  -0.00     0.00   0.00  -0.00
  35   6     0.00  -0.00  -0.00    -0.00   0.00   0.00    -0.00   0.00  -0.00
  36   6     0.01   0.01  -0.00    -0.00  -0.00   0.00     0.00   0.00  -0.00
  37   6    -0.00   0.01   0.00     0.00  -0.00  -0.00    -0.00   0.00   0.00
  38   6    -0.00  -0.00   0.00     0.00   0.00  -0.00    -0.00  -0.00   0.00
  39   6     0.00   0.00  -0.00    -0.00   0.00   0.00    -0.00   0.00   0.00
  40   6     0.00  -0.00   0.00    -0.00   0.00  -0.00     0.00  -0.00   0.00
  41   6    -0.00  -0.00   0.00    -0.00  -0.00   0.00     0.00   0.00  -0.00
  42   6    -0.00   0.00   0.00    -0.00   0.00   0.00     0.00  -0.00  -0.00
  43   6     0.00  -0.00   0.00     0.00   0.00  -0.00    -0.00   0.00  -0.00
  44   6     0.00   0.00  -0.00    -0.00  -0.00   0.00     0.00   0.00  -0.00
  45   6     0.00   0.00  -0.00     0.00  -0.00  -0.00    -0.00  -0.00   0.00
  46   6    -0.00  -0.00   0.00    -0.00  -0.00   0.00     0.00   0.00  -0.00
  47   6     0.00  -0.00  -0.00     0.00   0.00  -0.00     0.00  -0.00   0.00
  48   6     0.00  -0.00  -0.00     0.00  -0.00  -0.00    -0.00  -0.00   0.00
  49   6     0.00   0.00  -0.00     0.00   0.00  -0.00    -0.00  -0.00  -0.00
  50   6    -0.00  -0.00   0.00    -0.00  -0.00   0.00    -0.00  -0.00   0.00
  51   6    -0.00  -0.00  -0.00     0.00  -0.00  -0.00     0.00   0.00   0.00
  52   6     0.00   0.00  -0.00    -0.00  -0.00   0.00    -0.00  -0.00   0.00
  53   6     0.00   0.00  -0.00    -0.00  -0.00   0.00     0.00   0.00  -0.00
  54   6    -0.00   0.00   0.00     0.00   0.00  -0.00    -0.00   0.00   0.00
  55   6    -0.00  -0.00   0.00    -0.00  -0.00   0.00    -0.00   0.00   0.00
  56   6    -0.00   0.00   0.00    -0.00   0.00   0.00     0.00  -0.00  -0.00
  57   6    -0.00  -0.00   0.00    -0.00   0.00   0.00    -0.00   0.00   0.00
  58   6     0.00   0.00  -0.00    -0.00  -0.00   0.00    -0.00  -0.00  -0.00
  59   1     0.00  -0.00   0.00     0.00  -0.00   0.00    -0.00  -0.00  -0.00
  60   1     0.00   0.00   0.00     0.00   0.00   0.00     0.00   0.00   0.00
  61   1    -0.00  -0.00   0.00    -0.00  -0.00   0.00     0.00   0.00  -0.00
  62   1    -0.00   0.00   0.00     0.00  -0.00   0.00     0.00  -0.00  -0.00
  63   1    -0.00   0.00  -0.00     0.00  -0.00   0.00     0.00  -0.00   0.00
  64   1     0.00   0.00  -0.00    -0.00  -0.00   0.00     0.00   0.00  -0.00
  65   1     0.00  -0.00  -0.00     0.00  -0.00  -0.00     0.00  -0.00  -0.00
  66   1    -0.01   0.00  -0.00    -0.00  -0.00   0.00    -0.00   0.00  -0.00
  67   1    -0.02   0.02  -0.01     0.00  -0.00   0.00    -0.00   0.00  -0.00
  68   1     0.00   0.00  -0.00     0.00   0.00  -0.00     0.00   0.00  -0.00
  69   1    -0.00   0.00  -0.00     0.00  -0.00   0.00     0.00  -0.00   0.00
  70   1    -0.00  -0.00  -0.00     0.00   0.00   0.00     0.00   0.00   0.00
  71   1    -0.00  -0.00   0.00     0.00   0.00  -0.00    -0.00  -0.00   0.00
  72   1     0.00  -0.00   0.01     0.00  -0.00   0.00     0.00  -0.00   0.00
  73   1    -0.01  -0.06   0.00    -0.00  -0.00   0.00    -0.00  -0.00   0.00
  74   1     0.06  -0.05   0.03     0.02  -0.01   0.01     0.01  -0.01   0.00
  75   1    -0.25  -0.07   0.12    -0.57  -0.17   0.27    -0.57  -0.17   0.26
  76   1     0.02   0.53  -0.68    -0.00   0.02  -0.02    -0.01  -0.25   0.33
  77   1     0.26  -0.10   0.12    -0.61   0.23  -0.28     0.49  -0.19   0.23
  78   1    -0.03  -0.02   0.01     0.01   0.01  -0.01    -0.01  -0.00   0.00
  79   1     0.00  -0.02  -0.00     0.00   0.00   0.00     0.00  -0.00  -0.00
  80   1    -0.00   0.00  -0.00     0.00  -0.00   0.00    -0.00   0.00  -0.00
  81   1     0.00   0.00  -0.00     0.00   0.00  -0.00    -0.00  -0.00   0.00
  82   1     0.00  -0.00  -0.00     0.00  -0.00  -0.00    -0.00   0.00   0.00
  83   1    -0.00   0.00  -0.00     0.00  -0.00  -0.00     0.00  -0.00   0.00
  84   1    -0.00  -0.00   0.00     0.00   0.00  -0.00    -0.00  -0.00   0.00
  85   1    -0.00  -0.00   0.00     0.00   0.00  -0.00     0.00   0.00  -0.00
  86   1    -0.01  -0.00   0.00    -0.00   0.00   0.00     0.00  -0.00  -0.00
  87   1    -0.00   0.00   0.00    -0.00   0.00   0.00    -0.00  -0.00  -0.00
  88   1    -0.00  -0.00   0.00     0.00   0.00  -0.00     0.00   0.00  -0.00
  89   1    -0.00  -0.00   0.00     0.00   0.00  -0.00    -0.00  -0.00   0.00
  90   1     0.00  -0.00  -0.00     0.00  -0.00  -0.00     0.00  -0.00  -0.00
  91   1     0.00   0.00  -0.00     0.00   0.00  -0.00     0.00   0.00  -0.00
  92   1     0.00  -0.01  -0.00     0.00  -0.00  -0.00    -0.00   0.00   0.00
  93   1     0.00  -0.00  -0.00     0.00  -0.00  -0.00     0.00  -0.00  -0.00
