$hessian                                                                        
        0.0193032402   0.0203781015  -0.0387966736  -0.0336248827  -0.0195507138
        0.0367645603   0.0182091649  -0.0012418684   0.0021457504  -0.0013857740
        0.0020483906  -0.0031608140   0.0000859241   0.0003906375   0.0007257855
       -0.0005710293   0.0001337470   0.0003244278  -0.0007962013   0.0003198483
        0.0004528782  -0.0000849812  -0.0002323140   0.0002438759   0.0000024721
       -0.0000849676  -0.0000301663   0.0000471590  -0.0000824539  -0.0000070486
       -0.0000086317   0.0000418196  -0.0000019608   0.0000153322   0.0000110224
       -0.0000096899  -0.0000052096   0.0000064794  -0.0000002298  -0.0000130983
       -0.0000181858   0.0000191073   0.0000009916   0.0000481330  -0.0000100756
        0.0000206723   0.0000414431   0.0000713354   0.0005557137   0.0000786748
        0.0001229444  -0.0000290026  -0.0000489272  -0.0000435819   0.0000950390
        0.0000845357   0.0000434686   0.0000347421  -0.0001147514   0.0000252143
        0.0000308807   0.0000028559   0.0000123796  -0.0000130562   0.0000054511
       -0.0000225843   0.0000005477  -0.0000055761   0.0000147413  -0.0000041013
       -0.0000055355   0.0000045370  -0.0000016528   0.0000027255  -0.0000078120
       -0.0000251736  -0.0000102650  -0.0000044535  -0.0001160822  -0.0000297636
       -0.0000179009  -0.0000113237   0.0001650955   0.0000122993   0.0000595500
       -0.0000674370  -0.0001613812   0.0011072243  -0.0000050783  -0.0002310606
       -0.0000661730   0.0000458676  -0.0000335879   0.0011149926  -0.0002179881
        0.0003580293  -0.0025244428  -0.0018161737   0.0030938265   0.0001759601
       -0.0001734917  -0.0010711016  -0.0000019005   0.0001056966   0.0001891787
       -0.0000131955  -0.0001869363  -0.0000375412  -0.0001338272   0.0000419855
        0.0000331928   0.0000510589   0.0001362106  -0.0000187650   0.0000288738
       -0.0000032172  -0.0000131273  -0.0000125416  -0.0000131820   0.0000243441
        0.0000003815   0.0000067625  -0.0000131745  -0.0000040237   0.0000067192
       -0.0000042768  -0.0000017497  -0.0000025756   0.0000077249  -0.0000227079
        0.0000148739   0.0000037901   0.0001025113  -0.0001134038  -0.0000555300
       -0.0000252071   0.0000909870   0.0000387477   0.0003220859  -0.0001225678
       -0.0002990459   0.0000281367   0.0000175465  -0.0000653041   0.0000203273
        0.0000608992   0.0000246652   0.0000423533   0.0000762480   0.0000124354
       -0.0000318687  -0.0000153129   0.0000330144   0.0000050392  -0.0000016156
       -0.0000210510  -0.0000005570  -0.0000107335  -0.0000076671  -0.0000030645
       -0.0000007632   0.0000156399  -0.0000241637  -0.0000360972   0.0000055444
       -0.0000647310   0.0002139475  -0.0001407770  -0.0007700253  -0.0001377335
       -0.0003861042  -0.0004811885  -0.0001899027  -0.0001957009  -0.0002676495
       -0.0000299554   0.0000442180  -0.0000084959   0.0000489665  -0.0000374266
        0.0000181635  -0.0000074286  -0.0000103237  -0.0000160965   0.0000118040
       -0.0000007676  -0.0000121445   0.0000192318  -0.0000071763  -0.0000011633
        0.0000238171  -0.0000146984  -0.0000448700  -0.0000457132   0.0000158421
       -0.0000140739   0.0000148240  -0.0000327303   0.0000065375  -0.0000086569
       -0.0000072722   0.0000106236  -0.0000075347   0.0000267433  -0.0000047184
       -0.0000000334  -0.0000004111  -0.0000104355  -0.0000062312   0.0000011440
       -0.0000086512  -0.0000081097   0.0000064190   0.0000069565   0.0000088748
       -0.0000045647  -0.0000151187  -0.0000200327  -0.0000086302  -0.0000053991
       -0.0000095529  -0.0000181863   0.0000171345   0.0002125936  -0.0002220528
        0.0000107424   0.0000000744   0.0000055168   0.0000053242  -0.0002589532
        0.0002390747  -0.0000098316   0.0000113815   0.0000275892  -0.0000123027
        0.0000171374   0.0000123729   0.0000121187   0.0000094090  -0.0000264700
       -0.0000041615  -0.0000010540   0.0000010597  -0.0000104638   0.0000066624
        0.0000010504  -0.0000084613   0.0000092182  -0.0000043914   0.0000049416
       -0.0000087059   0.0000060053   0.0000124749   0.0000100609   0.0000104184
       -0.0000153816  -0.0000168314   0.0000240665   0.0000300158  -0.0000018123
       -0.0000451751  -0.0000083278  -0.0000091027   0.0000050344  -0.0000103974
       -0.0000200885  -0.0000016891  -0.0000051153  -0.0000213205  -0.0000121932
        0.0000037256   0.0000150829   0.0000092727  -0.0000106986  -0.0000463083
        0.0000375734  -0.0002236070   0.0000711141   0.0000255070
        0.0203781015   0.2932626061  -0.5239234206  -0.0193119368  -0.2907591589
        0.4930997461  -0.0013053992  -0.0044052712   0.0341992103   0.0072355853
        0.0012181349  -0.0004624157  -0.0019707914   0.0010885395  -0.0010896046
        0.0001401935  -0.0014713881   0.0007821902   0.0002487415  -0.0001933448
       -0.0010303881   0.0002694252   0.0001633545  -0.0002767884  -0.0000953442
        0.0000389517   0.0001017827   0.0000382939   0.0000067164   0.0000430869
        0.0000200810  -0.0000018853  -0.0000027678   0.0000098710  -0.0000188405
       -0.0000024617   0.0000346485   0.0000016227  -0.0000136444   0.0000206927
        0.0000075945  -0.0000133818  -0.0001131289  -0.0000038866   0.0000155601
        0.0001104840   0.0000177928  -0.0000403269  -0.0005927689  -0.0001558120
       -0.0001313173   0.0001388304   0.0002300393   0.0000213017  -0.0001332775
       -0.0001817469  -0.0000040905  -0.0000498831   0.0002484219  -0.0000451186
        0.0000287171   0.0000279658  -0.0000074488  -0.0000179566  -0.0000304561
        0.0000080909   0.0000030682   0.0000040033   0.0000090419  -0.0000002630
        0.0000078399  -0.0000089567  -0.0000020592   0.0000079364  -0.0000144832
       -0.0000178661   0.0000222540  -0.0000249333   0.0001814189   0.0001346486
        0.0001134141  -0.0001260373  -0.0001937125  -0.0000423710   0.0008816269
        0.0005512527  -0.0001812462   0.0000541697  -0.0014000632   0.0003880818
        0.0001781959   0.0006396241  -0.0004879978  -0.0003816188  -0.0015415963
        0.0005850397  -0.0069159141   0.0020531714  -0.0010697225   0.0017957903
        0.0009781579  -0.0009142769  -0.0007789949   0.0005555592  -0.0001399874
        0.0000998428  -0.0001762279  -0.0000484355  -0.0001520925   0.0001301885
        0.0001118929   0.0000577043   0.0002225911  -0.0000259300  -0.0000288821
        0.0000318174  -0.0000046296   0.0000147388  -0.0000289864   0.0000015875
       -0.0000045366   0.0000037584   0.0000073984   0.0000004186   0.0000086642
       -0.0000102422   0.0000026586   0.0000094013  -0.0000145133   0.0000177248
        0.0000206938  -0.0000225782   0.0001044927  -0.0001686783  -0.0000186300
       -0.0001079044   0.0001916898   0.0000364005   0.0005289646  -0.0001468342
       -0.0001696729  -0.0000898457   0.0000194748  -0.0000551302   0.0000401999
        0.0000480677   0.0000614278  -0.0000123438   0.0000202121   0.0000365030
       -0.0000311951   0.0000054252  -0.0000123461  -0.0000058025  -0.0000092566
       -0.0000085818  -0.0000040984  -0.0000017341  -0.0000093560  -0.0000075065
        0.0000108658   0.0000000098  -0.0000075231  -0.0000016358  -0.0000424293
       -0.0001677052   0.0001832358  -0.0001447739  -0.0002588574  -0.0000403176
       -0.0008391397  -0.0001888400  -0.0014580608   0.0006265406   0.0004124778
        0.0000087567   0.0003107652   0.0000117938   0.0001249172   0.0000466963
        0.0000044596  -0.0000048051  -0.0000099803   0.0000123474  -0.0000080317
       -0.0000052436   0.0000117285  -0.0000099661  -0.0000000414  -0.0000035729
        0.0000079905  -0.0000074858   0.0000250192   0.0000760010  -0.0000320248
        0.0000240909   0.0000184875   0.0000009679  -0.0000503108   0.0000143497
       -0.0000040402   0.0000011884  -0.0000040457   0.0000027077  -0.0000073344
       -0.0000032918  -0.0000058483  -0.0000035946  -0.0000034088  -0.0000007389
       -0.0000014001  -0.0000041201   0.0000025503   0.0000140143   0.0000043101
        0.0000040996  -0.0000032174  -0.0000206085  -0.0000029271   0.0000466993
        0.0000890696   0.0000015274  -0.0000240871  -0.0002082026   0.0001207389
        0.0000073602   0.0001237266   0.0001407210   0.0000082462  -0.0002012920
        0.0000955403  -0.0000372840   0.0000960727   0.0000028471   0.0000022419
       -0.0000175306  -0.0000060172  -0.0000017689  -0.0000056912   0.0000030968
        0.0000064313  -0.0000031474  -0.0000075666   0.0000034909  -0.0000037986
       -0.0000026104   0.0000010848  -0.0000045142   0.0000008008  -0.0000132631
        0.0000065510   0.0000024818   0.0000492660   0.0000118941  -0.0000048608
       -0.0000189090   0.0000207657   0.0000054798   0.0000254368  -0.0000101296
       -0.0000118420  -0.0000007257  -0.0000040323   0.0000029664  -0.0000034623
       -0.0000048603   0.0000027363   0.0000023944  -0.0000016812  -0.0000007552
        0.0000079843   0.0000104427   0.0000296898  -0.0000045951   0.0001091087
        0.0000521121  -0.0002585375   0.0000173350   0.0003786890
       -0.0387966736  -0.5239234206   1.0166179558   0.0363524472   0.4934597127
       -0.9733728933   0.0023834409   0.0332118655  -0.0449693112  -0.0135589165
        0.0003700514   0.0013536573   0.0034319927  -0.0016204847   0.0032299636
        0.0003028527   0.0015499012  -0.0013841448   0.0001241938  -0.0007841537
       -0.0002276190  -0.0001310586   0.0000704049   0.0000668416   0.0001658287
        0.0001309288   0.0000488792  -0.0000328526   0.0000876808  -0.0000640403
       -0.0000644858  -0.0000403874   0.0000341851  -0.0000153922   0.0000071231
        0.0000144211  -0.0000312764  -0.0000096192   0.0000229347  -0.0000154180
        0.0000252732   0.0000043081   0.0000677786   0.0000159080   0.0000430324
       -0.0001977369  -0.0002532066   0.0000831337   0.0005902272   0.0003323711
        0.0002763859   0.0000557768  -0.0005312187   0.0001342632   0.0001470172
        0.0003417413   0.0000032012   0.0000634174  -0.0003167380   0.0000505795
       -0.0001022722  -0.0000589173  -0.0000133637   0.0000304019   0.0000970547
       -0.0000162358  -0.0000138523  -0.0000151831  -0.0000102488   0.0000028490
       -0.0000126780   0.0000219530  -0.0000029204  -0.0000129403   0.0000229338
        0.0000365177  -0.0000432004   0.0000686454  -0.0002086508  -0.0001687612
       -0.0001126789   0.0002099835   0.0003873593   0.0002259962  -0.0012038763
       -0.0009194273   0.0000173527   0.0001469532   0.0003035988  -0.0027325606
       -0.0001438862  -0.0010274760   0.0011744251   0.0000614400   0.0003914003
       -0.0028934877   0.0131788547  -0.0009032978   0.0017782824  -0.0032468294
       -0.0014042213   0.0030441410   0.0010584259  -0.0009363381  -0.0000036628
       -0.0001475337   0.0003594565   0.0002451611   0.0001583491  -0.0001516450
       -0.0000997038  -0.0000701587  -0.0002684068   0.0000259950   0.0000930319
       -0.0000609785  -0.0000170830  -0.0000171950   0.0000932964  -0.0000018265
        0.0000161220  -0.0000160987  -0.0000049364  -0.0000016984  -0.0000137042
        0.0000262751   0.0000032822  -0.0000125374   0.0000237448  -0.0000305354
       -0.0000419298   0.0000647695  -0.0001024812   0.0003040634   0.0000368127
       -0.0001381886  -0.0004632516   0.0001009268  -0.0006559134   0.0003017192
        0.0002060901   0.0001690171  -0.0002572165   0.0000937193  -0.0001090899
        0.0001115200   0.0000452669   0.0000242989   0.0000978585  -0.0000355560
        0.0000463401  -0.0000623630  -0.0000286318   0.0000140784   0.0000128808
        0.0000058059  -0.0000074648   0.0000072085   0.0000389118   0.0000097023
        0.0000061272   0.0000164690  -0.0000270901   0.0000048640   0.0000659564
        0.0001719599   0.0000661307   0.0000856965  -0.0000117844  -0.0006353666
       -0.0002136676  -0.0002224159   0.0016194742  -0.0013945137   0.0001983712
        0.0001067071  -0.0005405458  -0.0000283278   0.0000485510  -0.0000443059
        0.0000111329   0.0000159483   0.0000051895   0.0000172277  -0.0000102933
        0.0000020797   0.0000085059  -0.0000134880   0.0000005688   0.0000097925
       -0.0000251977   0.0000087183   0.0000160782  -0.0000510454  -0.0000288554
        0.0000621683  -0.0000118058  -0.0000010123   0.0000700345  -0.0000455065
       -0.0000189426   0.0000123586  -0.0000211205  -0.0000006882   0.0000215217
       -0.0000005579   0.0000145831   0.0000097941   0.0000028426   0.0000010936
        0.0000069631   0.0000077834  -0.0000065372  -0.0000226599  -0.0000071385
       -0.0000214441   0.0000153492   0.0000690432  -0.0000117487  -0.0000746476
       -0.0000728081  -0.0001029424   0.0000517663   0.0003158278  -0.0003761017
        0.0000135151   0.0004437242   0.0002025136  -0.0000377267   0.0003144922
       -0.0003498593   0.0000657196  -0.0000683696  -0.0001110713  -0.0000114062
        0.0000652674  -0.0000055547  -0.0000149923  -0.0000188000   0.0000014688
       -0.0000182193   0.0000009314   0.0000176425  -0.0000068820   0.0000031749
        0.0000053197  -0.0000047030   0.0000082993  -0.0000014914   0.0000200425
       -0.0000073018  -0.0000184856  -0.0000664484  -0.0000363689  -0.0000194646
       -0.0000557652  -0.0000098208  -0.0000099252  -0.0000375818   0.0000025816
        0.0000074373  -0.0000159977  -0.0000190430   0.0000147807  -0.0000041259
       -0.0000116982   0.0000022298  -0.0000038412  -0.0000110523   0.0000018258
        0.0000039117   0.0000062287  -0.0000103557   0.0000321513   0.0000422387
       -0.0000331140  -0.0000520129   0.0001859676  -0.0003959127
       -0.0336248827  -0.0193119368   0.0363524472   0.1047222593   0.0219731684
       -0.0424187073  -0.0610434880  -0.0025040436   0.0045692915  -0.0002025274
       -0.0159530866   0.0231678976  -0.0003533275  -0.0010093024  -0.0000241457
       -0.0006440458  -0.0000317496   0.0001850613  -0.0001616651   0.0007320838
        0.0003335134   0.0000515597   0.0001722649  -0.0000511232  -0.0000472859
       -0.0000309852  -0.0000391132  -0.0000218466   0.0000902905  -0.0000085125
        0.0000105732  -0.0000503000   0.0000102747  -0.0000130370   0.0000042477
        0.0000049609   0.0000035364  -0.0000045758   0.0000017698   0.0000033272
        0.0000166188  -0.0000136422   0.0000364507  -0.0000480456   0.0000191043
        0.0000610623   0.0001206147  -0.0000591430  -0.0002326824  -0.0001906258
       -0.0001453940   0.0002109433   0.0001385730   0.0000805914  -0.0001050686
       -0.0001430574  -0.0000508090  -0.0000359134   0.0001705059  -0.0000311047
       -0.0000492742  -0.0000099010  -0.0000209089   0.0000202260   0.0000043179
        0.0000227757  -0.0000110516   0.0000011781  -0.0000174106  -0.0000007752
        0.0000031735  -0.0000039505  -0.0000066322  -0.0000053556   0.0000069663
        0.0000336416   0.0000095555   0.0000118828   0.0001405608   0.0000644708
        0.0000177524   0.0000572886  -0.0001824735  -0.0000844760  -0.0000974462
        0.0000503937   0.0003388981  -0.0050557162  -0.0015138201   0.0025623726
       -0.0007856240  -0.0000629137   0.0000620103  -0.0046754949   0.0022450807
       -0.0026806913   0.0031478960   0.0150478178  -0.0220057184  -0.0008029377
        0.0007729264   0.0004006131  -0.0000032012  -0.0001195407  -0.0003680149
        0.0000567070   0.0002185568   0.0001108140   0.0001537220  -0.0000927313
       -0.0000358160  -0.0000506922  -0.0001954069   0.0000197879  -0.0000361790
        0.0000049928   0.0000186195   0.0000181119   0.0000074862  -0.0000271757
       -0.0000083449  -0.0000027882   0.0000149994  -0.0000001548  -0.0000048407
        0.0000035550  -0.0000050455   0.0000043226  -0.0000063510   0.0000284491
       -0.0000180119  -0.0000058690  -0.0000971175   0.0001788983   0.0000610955
        0.0001740839  -0.0001974649  -0.0000698160  -0.0002732375   0.0001998917
        0.0001847850   0.0000741156  -0.0001643462   0.0000343233  -0.0000463823
        0.0000575741   0.0000333668  -0.0000237209  -0.0000807055  -0.0000001817
        0.0000295591   0.0000373122  -0.0000282725  -0.0000068405  -0.0000067872
        0.0000129805   0.0000029926   0.0000086637   0.0000015981  -0.0000033567
       -0.0000069133  -0.0000101256   0.0000251904   0.0000411470  -0.0000010271
        0.0000563304  -0.0001413566   0.0000733489  -0.0001798048  -0.0005857692
       -0.0002830300  -0.0007431687   0.0000617386  -0.0003033199   0.0001511403
        0.0006788428   0.0006320054   0.0000341188  -0.0001003194   0.0000198181
       -0.0000179431   0.0000030698   0.0000120457   0.0000181497  -0.0000161346
        0.0000031292   0.0000099747  -0.0000210903   0.0000097354  -0.0000016600
       -0.0000286618   0.0000174325   0.0000213724   0.0000136782  -0.0000125573
        0.0000417870  -0.0000467004   0.0000332740   0.0000139015   0.0000172374
        0.0000139137  -0.0000056410   0.0000074910  -0.0000210369   0.0000109984
        0.0000016457   0.0000087013   0.0000158508   0.0000095839   0.0000025555
        0.0000138278   0.0000136882  -0.0000055344  -0.0000022363  -0.0000032195
        0.0000058728   0.0000297311   0.0000314207   0.0000161926   0.0000339909
        0.0000505034   0.0000491982  -0.0001795412  -0.0010298640   0.0011152026
       -0.0000413999  -0.0000101539  -0.0000207756  -0.0001196274   0.0010896599
       -0.0010682308   0.0000351264  -0.0000504851  -0.0000624097   0.0000252480
       -0.0000252092  -0.0000201354  -0.0000069936  -0.0000109946   0.0000216893
        0.0000085737  -0.0000008578  -0.0000077975   0.0000138003  -0.0000090460
       -0.0000045119   0.0000117401  -0.0000136104   0.0000017105  -0.0000001745
        0.0000043281  -0.0000104966   0.0000041843  -0.0000225266  -0.0000170106
        0.0000413259   0.0000421646  -0.0000165623  -0.0000113398   0.0000026882
        0.0000317474   0.0000124039   0.0000126766  -0.0000094258   0.0000118985
        0.0000194395  -0.0000003309   0.0000070951   0.0000230159   0.0000107187
       -0.0000007250  -0.0000148468  -0.0000140716   0.0000413755   0.0000920828
       -0.0000221860   0.0001090488  -0.0004785277  -0.0006154770
       -0.0195507138  -0.2907591589   0.4934597127   0.0219731684   0.4146477746
       -0.6218570879  -0.0029377951  -0.1039349051   0.0924563226  -0.0193411988
       -0.0100950881   0.0153717372   0.0051883316  -0.0026566618   0.0011919173
        0.0002763678   0.0028791502  -0.0016543007   0.0003609607  -0.0005764301
        0.0004070310  -0.0004557341  -0.0002508953   0.0002454959   0.0002052556
        0.0000688285  -0.0000286685  -0.0000877404   0.0000516922  -0.0000955252
       -0.0000575204  -0.0000323140   0.0000237666  -0.0000229730   0.0000347494
        0.0000125852  -0.0000442400   0.0000032065   0.0000210455  -0.0000187906
        0.0000057496   0.0000171044   0.0001289315   0.0000119343  -0.0000029373
       -0.0002414060  -0.0001998871   0.0000970257   0.0010091548   0.0002781309
        0.0003169444  -0.0001537049  -0.0005361611   0.0000202951   0.0002186357
        0.0003758359   0.0000174630   0.0000985641  -0.0004224086   0.0000865591
       -0.0000994510  -0.0000782983  -0.0000117421   0.0000422411   0.0000965404
       -0.0000252320  -0.0000193985  -0.0000135471  -0.0000211561  -0.0000049760
       -0.0000139885   0.0000092352  -0.0000160722  -0.0000219785   0.0000219747
        0.0000526850  -0.0000513329   0.0000717551  -0.0003434762  -0.0002376483
       -0.0002040900   0.0002454529   0.0004976410   0.0000393761  -0.0018422713
       -0.0011313994   0.0001144229  -0.0027949221   0.0053512974   0.0014608408
       -0.0003653862  -0.0014333934   0.0009377073   0.0037146253   0.0053421549
        0.0011414641   0.0187380021  -0.0128378319   0.0179881045  -0.0049241188
       -0.0024924967   0.0009656639   0.0016958732  -0.0011661694   0.0000340659
       -0.0001861361   0.0004922097   0.0000616742   0.0002991317  -0.0002251970
       -0.0002062863  -0.0001204268  -0.0003772198   0.0000531278   0.0000970108
       -0.0000859965  -0.0000207511  -0.0000336592   0.0000985818  -0.0000127178
        0.0000210575  -0.0000137826  -0.0000201427   0.0000050706  -0.0000145011
        0.0000101827   0.0000166032  -0.0000239842   0.0000194284  -0.0000513844
       -0.0000480214   0.0000661517  -0.0001705532   0.0003517036   0.0000474663
        0.0000814404  -0.0004800066  -0.0000071102  -0.0009498616   0.0002312146
        0.0003625016   0.0002111603  -0.0001869708   0.0001076422  -0.0001312304
        0.0000473614   0.0000097379   0.0000664399   0.0000497325  -0.0000730760
        0.0000529640  -0.0000381328  -0.0000206880   0.0000160430   0.0000271200
        0.0000016186   0.0000063174   0.0000108026   0.0000175762   0.0000146348
        0.0000013634   0.0000089946  -0.0000282284  -0.0000050914   0.0000971462
        0.0003917026  -0.0002143043   0.0001749450  -0.0000966508  -0.0005494526
        0.0004241001  -0.0000194765   0.0028949344  -0.0013509045   0.0001450025
       -0.0006863719  -0.0013344105  -0.0000385814  -0.0001173111  -0.0000421321
        0.0000163381   0.0000182137   0.0000078574   0.0000036340  -0.0000018402
        0.0000068517  -0.0000017344  -0.0000029029   0.0000067768   0.0000017889
       -0.0000160699   0.0000178049  -0.0000397748  -0.0000695129   0.0000291836
        0.0000119345  -0.0000520142   0.0000279853   0.0001122146  -0.0000475031
        0.0000100455   0.0000017981  -0.0000161231   0.0000080521   0.0000257303
       -0.0000002570   0.0000240266   0.0000178543   0.0000101529   0.0000070753
        0.0000150490   0.0000152289  -0.0000075241  -0.0000219878   0.0000033832
       -0.0000200280   0.0000360597   0.0000628474   0.0000132688  -0.0000205049
       -0.0001609789   0.0000055555   0.0000476766  -0.0000098512   0.0003313978
       -0.0000327027  -0.0007675786  -0.0008096960  -0.0000325906  -0.0000505559
        0.0003923308  -0.0000028073  -0.0001720437   0.0000020271  -0.0000339856
        0.0000593345   0.0000196638  -0.0000038767  -0.0000157150   0.0000072573
       -0.0000248412   0.0000003512   0.0000258531  -0.0000167107   0.0000114911
        0.0000095620  -0.0000130871   0.0000170783  -0.0000074915   0.0000213334
        0.0000021432  -0.0000177740  -0.0001131555  -0.0000408527   0.0000099712
       -0.0000228155  -0.0000584312   0.0000146838  -0.0000358738   0.0000199024
        0.0000286233  -0.0000100873  -0.0000070433   0.0000121980  -0.0000021411
       -0.0000068702   0.0000041502  -0.0000046245  -0.0000111990   0.0000009078
       -0.0000007336  -0.0000218821  -0.0000438027   0.0000299830  -0.0001115522
       -0.0000430759  -0.0001321101  -0.0004207207  -0.0010766681
        0.0367645603   0.4930997461  -0.9733728933  -0.0424187073  -0.6218570879
        1.2280189395   0.0046402985   0.0925828002  -0.2054852379   0.0327460863
        0.0145277869  -0.0233365442  -0.0088156686   0.0012341443  -0.0060953511
        0.0005942035  -0.0033089765   0.0022247935   0.0009569479   0.0006296704
       -0.0005486712   0.0005330616  -0.0002364136  -0.0001988258  -0.0004561878
       -0.0001505454  -0.0000793920   0.0000639184  -0.0002096655   0.0001256070
        0.0001316500   0.0001322621  -0.0000800391   0.0000501974  -0.0000500258
       -0.0000238309   0.0000674358  -0.0000034322  -0.0000337582   0.0000333130
       -0.0000557965  -0.0000030569  -0.0001893795   0.0000018167  -0.0000525573
        0.0003838649   0.0005267570  -0.0001212228  -0.0013926830  -0.0008227266
       -0.0003417507  -0.0003543874   0.0010383453  -0.0003211019  -0.0002444825
       -0.0005973128   0.0000184593  -0.0001701060   0.0006010349  -0.0001388016
        0.0002305570   0.0001269966   0.0000409273  -0.0000785702  -0.0001952530
        0.0000349162   0.0000414618   0.0000321350   0.0000315888   0.0000089323
        0.0000248487  -0.0000253153   0.0000320787   0.0000375926  -0.0000434874
       -0.0001044413   0.0000859167  -0.0001539069   0.0005542380   0.0003071598
        0.0003080498  -0.0005430065  -0.0008304309  -0.0003472935   0.0027607491
        0.0023865802  -0.0000350424   0.0037410159   0.0021949937   0.0065897459
        0.0003125275   0.0015810093  -0.0020280950  -0.0039458080   0.0021894656
        0.0069712009  -0.0312133500   0.0176068856  -0.0245496110   0.0080703103
        0.0007355950  -0.0062066358  -0.0024032922   0.0024358400   0.0000954738
        0.0004168280  -0.0008029633  -0.0003859221  -0.0004709769   0.0002845256
        0.0002941665   0.0001871233   0.0005192590  -0.0000880157  -0.0002146481
        0.0001346294   0.0000555346   0.0000559773  -0.0001926226   0.0000143855
       -0.0000424315   0.0000331355   0.0000299094  -0.0000094113   0.0000257641
       -0.0000244966  -0.0000315404   0.0000385857  -0.0000354140   0.0000952266
        0.0000823042  -0.0001406008   0.0001678040  -0.0005339197  -0.0000336194
        0.0004973437   0.0008999291  -0.0002538206   0.0012411903  -0.0007765877
       -0.0004251833  -0.0003237997   0.0005266331  -0.0001564108   0.0003497924
       -0.0001295703  -0.0000940754  -0.0000510590  -0.0002063639   0.0000699811
       -0.0000793126   0.0001549315   0.0000779559  -0.0000333016  -0.0000464554
        0.0000055108  -0.0000034090  -0.0000227530  -0.0000388116  -0.0000353911
       -0.0000406449  -0.0000253888   0.0000653278   0.0000181515  -0.0001337793
       -0.0005184839  -0.0001951152  -0.0001573889  -0.0009810675   0.0007836642
       -0.0004359379  -0.0006611310  -0.0032973207   0.0020998797   0.0004400552
       -0.0012391455  -0.0000191241   0.0000082849   0.0000435385   0.0000719196
       -0.0000440360  -0.0000413615  -0.0000061868  -0.0000487294   0.0000309871
       -0.0000051372  -0.0000231516   0.0000393104  -0.0000133158  -0.0000048986
        0.0000594068  -0.0000349660   0.0000115676   0.0001099134   0.0000110608
       -0.0001423943   0.0000652324  -0.0000570262  -0.0001936344   0.0000858568
        0.0000018049  -0.0000105915   0.0000518277  -0.0000219340  -0.0000449097
        0.0000074271  -0.0000459920  -0.0000292119  -0.0000120609  -0.0000160253
       -0.0000270453  -0.0000245633   0.0000098410   0.0000372415  -0.0000066396
        0.0000445276  -0.0000717788  -0.0001553632  -0.0000168452   0.0000878844
        0.0000799999   0.0000995081  -0.0001083485   0.0000799284  -0.0000873117
       -0.0000597484  -0.0015530605  -0.0007013727   0.0001226571   0.0001071325
       -0.0000959848  -0.0000782832   0.0000859026   0.0001092089   0.0000616009
       -0.0001481404  -0.0000273506   0.0000173997   0.0000499470  -0.0000191563
        0.0000420770   0.0000053876  -0.0000437083   0.0000253814  -0.0000138366
       -0.0000159887   0.0000216108  -0.0000268198   0.0000112754  -0.0000354065
       -0.0000077203   0.0000441288   0.0001896157   0.0000679737   0.0000045174
        0.0001438833   0.0000620484  -0.0000177050   0.0000726614  -0.0000327464
       -0.0000560429   0.0000430086   0.0000401659  -0.0000478357   0.0000216888
        0.0000374989  -0.0000140152   0.0000120843   0.0000393014   0.0000052544
       -0.0000075825   0.0000137606   0.0000363438  -0.0000082954   0.0000310803
        0.0000593789  -0.0004286443  -0.0009910820  -0.0002014832
        0.0182091649  -0.0013053992   0.0023834409  -0.0610434880  -0.0029377951
        0.0046402985   0.5960664205  -0.0084895684  -0.0095382659  -0.2209439944
       -0.0360843248   0.0529406923  -0.0506166920  -0.0018090588  -0.0003806744
        0.0000589902  -0.0032714270   0.0028247615  -0.0006671710   0.0005459188
       -0.0001334004   0.0002249658  -0.0004590488   0.0001454479  -0.0004484645
       -0.0002945257  -0.0001277123   0.0000675923  -0.0000828544   0.0000354271
        0.0000422806   0.0001389812  -0.0000113385   0.0000505867  -0.0000076438
       -0.0000336518   0.0000223835  -0.0000058063  -0.0000026354  -0.0000338756
       -0.0000123118   0.0000414996  -0.0001319258   0.0000602455  -0.0000259936
        0.0003875850   0.0005937367  -0.0001178757  -0.0005122585  -0.0013306103
       -0.0001957326  -0.0010392370   0.0007953944  -0.0010158938  -0.0001006154
       -0.0002194197  -0.0001635626  -0.0000359406   0.0003236402  -0.0000685912
        0.0001355606   0.0000278164   0.0000041468  -0.0000780722  -0.0001434530
        0.0000039016   0.0000005742  -0.0000037753   0.0000642063   0.0000129712
        0.0000003830   0.0000149886   0.0000211487   0.0000280678  -0.0000452652
       -0.0001138040   0.0000329215  -0.0000849141   0.0003845211   0.0001744600
        0.0003202276   0.0000225255  -0.0002469207  -0.0002161438   0.0007403426
        0.0049942374   0.0010550399   0.0171691813  -0.0410226986   0.0556421230
       -0.0541622045   0.0017644520  -0.0001433160   0.0206838904   0.0392353244
       -0.0545412423  -0.2137663198   0.0453256263  -0.0511538068  -0.0500735313
        0.0048571035   0.0000023712   0.0003325541  -0.0048878939  -0.0015326358
        0.0000394942   0.0001894364   0.0001808392   0.0003647438  -0.0001556934
       -0.0002889999  -0.0000661244  -0.0002594124   0.0000391379   0.0001266864
       -0.0000380477  -0.0000204188  -0.0000655683   0.0001335794   0.0000128292
       -0.0000005584   0.0000095925  -0.0000598012   0.0000109839   0.0000008885
       -0.0000135053   0.0000184313  -0.0000300046   0.0000388317  -0.0001095782
       -0.0000192669   0.0000749407  -0.0000411062   0.0001185731   0.0001771026
       -0.0011565365  -0.0006809151   0.0010026639  -0.0004450444   0.0011426347
        0.0003367325   0.0003337317  -0.0005148448   0.0001426947  -0.0003644184
        0.0002581525   0.0001609178   0.0000658355   0.0000772433  -0.0000228191
        0.0000155407  -0.0001343979  -0.0000239791  -0.0000030295  -0.0000057458
       -0.0000571378   0.0000087454   0.0000080786  -0.0000090851   0.0000099404
        0.0000210203   0.0000402781  -0.0000931769  -0.0000605095   0.0000642936
        0.0002363402   0.0004291281  -0.0001529197  -0.0006589393  -0.0004430291