$hessian                                                                        
        0.1800200647  -0.2231589956   0.0698903335  -0.1516952782   0.1834587815
       -0.0596265243   0.0171858515  -0.0089376490   0.0003030938  -0.0009024111
       -0.0036130089   0.0009406651   0.0002237828   0.0001698717   0.0009444870
       -0.0000273807  -0.0005624309   0.0005636474   0.0007141280   0.0015926164
        0.0005088358  -0.0021189944  -0.0019927931  -0.0001424743  -0.0382402103
        0.0491743392  -0.0152874325   0.0024654702   0.0050318296  -0.0002269311
       -0.0001537333   0.0010787945   0.0018810910   0.0017875809   0.0003258319
        0.0003490209  -0.0005173007   0.0001727362  -0.0003941405   0.0000707932
       -0.0005662542  -0.0002923308  -0.0003429263  -0.0002307265  -0.0002370129
        0.0009468757  -0.0000977721   0.0000402540  -0.0009412230   0.0001243981
       -0.0000359457   0.0002167795  -0.0003830402  -0.0001657286  -0.0000558909
        0.0001305342  -0.0000021095   0.0000456596  -0.0000614069   0.0000112940
       -0.0000708755  -0.0000486026  -0.0000039022   0.0000248051   0.0000562191
        0.0000202164  -0.0001242536  -0.0001205029  -0.0000096440  -0.0000876969
        0.0001440131   0.0000023562   0.0000062917  -0.0000677445  -0.0000196915
       -0.0000563609   0.0000602115   0.0000010519   0.0000618148   0.0000480487
       -0.0000076895  -0.0000768189  -0.0001247757  -0.0000019055   0.0002739960
        0.0003162263   0.0001812670  -0.0002721410   0.0002316619   0.0002014946
        0.0000729931   0.0005277994   0.0002952234  -0.0030332751   0.0005752960
        0.0016733372  -0.0061212000  -0.0032052882  -0.0008113573  -0.0000799730
       -0.0001484874   0.0001700222  -0.0001172238  -0.0000656476   0.0001617832
        0.0000861129  -0.0001494828  -0.0000778363   0.0002256806   0.0000612046
       -0.0001282613   0.0010706116  -0.0002323075   0.0004491842   0.0002932797
        0.0000841956  -0.0004830716  -0.0000374696  -0.0001136572  -0.0000546038
        0.0001136892   0.0000577309  -0.0000514633  -0.0000569817   0.0000451601
        0.0000395819   0.0000329054  -0.0000431084  -0.0000004969   0.0000141289
        0.0000174791   0.0000006122  -0.0000081729   0.0000147727  -0.0000001315
       -0.0000181661  -0.0000022377   0.0000028525  -0.0000174522   0.0000075201
       -0.0000032118  -0.0000123973  -0.0000119512  -0.0000000036   0.0000088476
       -0.0000158847  -0.0000000497   0.0000334940   0.0000398025   0.0000029293
       -0.0000712188  -0.0000257977  -0.0000443681   0.0000706653  -0.0000583161
        0.0000385625  -0.0007979325   0.0003619216   0.0000254985  -0.0000113433
        0.0001288734  -0.0005903777
       -0.2231589956   0.5893228911  -0.1731564996   0.1816628008  -0.4939322923
        0.1329852792  -0.0016952596  -0.0695816705   0.0279730198  -0.0081817797
       -0.0013155397  -0.0013366108  -0.0019019025  -0.0017582878   0.0023459349
        0.0010608028   0.0011193627  -0.0002159586   0.0000578376  -0.0002918147
        0.0017641158   0.0080550767  -0.0003210046   0.0023883648   0.0461009334
       -0.0227987484   0.0090172800  -0.0071534353  -0.0059451618  -0.0004851284
        0.0028527166  -0.0014080118  -0.0008449313  -0.0032815248   0.0005275505
       -0.0000181236   0.0012968127  -0.0001400636   0.0002462118  -0.0002434429
        0.0009054680   0.0004417911   0.0004611994   0.0002926625   0.0003055164
       -0.0012770963   0.0001351597  -0.0000212226   0.0011761483  -0.0001334544
        0.0000351272  -0.0002489013   0.0004411514   0.0002165714   0.0000853823
       -0.0001438145   0.0000033641  -0.0000623724   0.0000767029  -0.0000182647
        0.0000878640   0.0000705870   0.0000077891  -0.0000349681  -0.0000754516
       -0.0000316911   0.0001372247   0.0001549143   0.0000179309   0.0000964185
       -0.0001784684  -0.0000085201  -0.0000092069   0.0000878554   0.0000238358
        0.0000545795  -0.0000630511  -0.0000074289  -0.0000806909  -0.0000654276
        0.0000050754   0.0001144004   0.0001333155  -0.0000016402  -0.0003355510
       -0.0003859978  -0.0002276040   0.0004111822  -0.0003403077  -0.0002610234
       -0.0003320429  -0.0007815999  -0.0005117315   0.0036831495   0.0008132128
       -0.0006654421   0.0003767096   0.0059731288   0.0001870762   0.0003702838
       -0.0003563910  -0.0007152876  -0.0004389207  -0.0009724496   0.0004454641
        0.0000055499  -0.0003518674  -0.0002041966  -0.0003444615  -0.0001275336
       -0.0000602439  -0.0003192975   0.0001864115  -0.0009528461   0.0004552479
        0.0014158307   0.0005169534   0.0003734307   0.0001774649  -0.0001672175
       -0.0001172661  -0.0001158373   0.0000418981   0.0000599318  -0.0000656480
       -0.0000304237  -0.0000415424   0.0000264788   0.0000060035  -0.0000209867
       -0.0000200675   0.0000001307   0.0000005981  -0.0000196761   0.0000001947
        0.0000169176  -0.0000025112  -0.0000034999   0.0000149373  -0.0000124625
        0.0000030775   0.0000175113   0.0000050992  -0.0000004075   0.0000009939
        0.0000204728   0.0000003320  -0.0000337710  -0.0000502266  -0.0000003892
        0.0000883181   0.0000272843   0.0000459369  -0.0000401829   0.0000922130
        0.0000021373   0.0004601976  -0.0002877391   0.0001550634  -0.0002815581
        0.0000373602   0.0007648574
        0.0698903335  -0.1731564996   0.0733884474  -0.0608240434   0.1326388740
       -0.0935490999   0.0020192578   0.0288552724   0.0066880508   0.0011529605
       -0.0003693954   0.0023884461   0.0022395307  -0.0003931096  -0.0010077567
       -0.0004096365  -0.0003540605   0.0001299571   0.0007577336   0.0000682584
       -0.0014444091  -0.0036142888  -0.0000796305  -0.0012914393  -0.0109487008
        0.0110154292   0.0134295232   0.0012151414   0.0008969565  -0.0001503944
        0.0000311596   0.0004052448  -0.0006729882   0.0004794899  -0.0001419745
       -0.0000171049  -0.0001717445  -0.0000579142   0.0002152356  -0.0000128048
       -0.0001272015  -0.0000544202  -0.0000445698  -0.0000377282  -0.0000157149
        0.0001616103  -0.0000122231  -0.0000280019  -0.0001356749   0.0000138516
        0.0000096539   0.0000288582  -0.0000408761  -0.0000298646  -0.0000161682
        0.0000061861   0.0000177698   0.0000050515  -0.0000097795  -0.0000041598
       -0.0000159426  -0.0000169988   0.0000080256   0.0000096030   0.0000201472
       -0.0000114650  -0.0000153437  -0.0000334940   0.0000232033  -0.0000086898
        0.0000297119  -0.0000089926  -0.0000008929  -0.0000224974   0.0000135913
       -0.0000022887   0.0000207914  -0.0000125059   0.0000074425   0.0000085101
        0.0000003837  -0.0000165705  -0.0000097161   0.0000034286   0.0000343018
        0.0000361581   0.0000243981  -0.0000754798   0.0000749193   0.0000407298
        0.0001106210   0.0000967785   0.0000824720  -0.0003189425   0.0012460672
       -0.0007999540  -0.0020888643  -0.0013655964   0.0017617645  -0.0002358852
        0.0002851030   0.0004243137   0.0000358288   0.0000933865  -0.0001589773
       -0.0001342269   0.0002595295   0.0002778405   0.0001711930   0.0000988389
       -0.0000036794   0.0005949874   0.0002636060   0.0004532267   0.0003814879
       -0.0002063400   0.0000098008  -0.0000424800  -0.0000630227   0.0000424331
        0.0000142486   0.0000178116  -0.0000117844  -0.0000119080   0.0000104831
        0.0000011008   0.0000140429   0.0000003789  -0.0000014847   0.0000041057
        0.0000036788   0.0000004060   0.0000016064   0.0000011605   0.0000004030
       -0.0000004545  -0.0000000501   0.0000017321  -0.0000003515   0.0000015232
       -0.0000016995  -0.0000007708   0.0000002730  -0.0000000971   0.0000002190
       -0.0000002453  -0.0000037735   0.0000059317   0.0000070021  -0.0000065104
        0.0000021503  -0.0000067003  -0.0000045628   0.0000200459  -0.0000232286
       -0.0000135260  -0.0003178360   0.0001280870  -0.0001678051   0.0000756164
       -0.0000757361   0.0000358342
       -0.1516952782   0.1816628008  -0.0608240434   0.5144327740  -0.1113149221
        0.0447017148  -0.1173098029  -0.0549062985   0.0230575260   0.0084312250
       -0.0021884912   0.0033801227   0.0037724956   0.0006878933  -0.0033968010
       -0.0011515161  -0.0001487601  -0.0006012422  -0.0030165534  -0.0019219433
       -0.0067263755  -0.0281782775  -0.0214594065   0.0015967292  -0.1751778130
        0.0042738331   0.0019419861  -0.0380654592  -0.0166110384  -0.0028566251
        0.0038517589  -0.0062027692  -0.0027686356  -0.0056122841   0.0003531804
       -0.0003666066   0.0021103426  -0.0003019428   0.0002159871  -0.0001055343
        0.0016503922   0.0009060612   0.0009142181   0.0005495134   0.0006557961
       -0.0026462330   0.0002976809  -0.0000971628   0.0025944526  -0.0003165891
        0.0000937020  -0.0005922805   0.0010449761   0.0004573207   0.0001636452
       -0.0003502377   0.0000121430  -0.0001358712   0.0001640528  -0.0000255093
        0.0001761136   0.0001219700   0.0000165183  -0.0000730674  -0.0001573616
       -0.0000510391   0.0003393916   0.0003288360   0.0000261098   0.0002468838
       -0.0003960704  -0.0000059114  -0.0000335678   0.0001687928   0.0000484989
        0.0001469637  -0.0001634465  -0.0000051770  -0.0001730104  -0.0001287175
        0.0000166949   0.0002307161   0.0003118027   0.0000056427  -0.0007599026
       -0.0008762762  -0.0005079420   0.0007738210  -0.0007205708  -0.0005857465
       -0.0003805917  -0.0015762956  -0.0008937887   0.0068681250   0.0035412266
        0.0007788525  -0.0187238321   0.0222146582  -0.0007194832  -0.0008251263
        0.0023062034   0.0000602033   0.0002495957   0.0009584542  -0.0005624535
       -0.0002112100   0.0008382675   0.0005118350  -0.0006202116  -0.0007322752
        0.0004454114  -0.0013401582  -0.0002271164   0.0012536208   0.0004891134
        0.0015959369   0.0001336248  -0.0000542542   0.0004920497  -0.0001054804
       -0.0002541415  -0.0001900756   0.0000323276   0.0001714071  -0.0001297043
       -0.0001159576  -0.0000783690   0.0001054689   0.0000053417  -0.0000307176
       -0.0000469178   0.0000038367   0.0000237334  -0.0000412209   0.0000059083
        0.0000505366   0.0000069936  -0.0000046051   0.0000490145  -0.0000199941
        0.0000071991   0.0000336115   0.0000313383  -0.0000052137  -0.0000208266
        0.0000475105  -0.0000066048  -0.0000934088  -0.0000845847  -0.0000139030
        0.0001909283   0.0000871507   0.0001228488  -0.0001843545   0.0002345395
       -0.0000499174   0.0004614787  -0.0007646384   0.0002571438   0.0007713078
       -0.0020978578   0.0005455176
        0.1834587815  -0.4939322923   0.1326388740  -0.1113149221   0.7055121389
       -0.1573053960  -0.0520426241  -0.1140713412   0.0137566605  -0.0017822604
       -0.0267627542   0.0139620691   0.0025613708   0.0034077345   0.0051741419
       -0.0013174391  -0.0021708022   0.0008029468  -0.0010136196   0.0063353678
        0.0004797837  -0.0231445446  -0.0048845149  -0.0046529845  -0.0034732756
       -0.0616911435   0.0038448553  -0.0153041601   0.0080316561  -0.0013548304
       -0.0063269253  -0.0012709284  -0.0031205707   0.0027010188  -0.0018661878
       -0.0005563564  -0.0012276692  -0.0000544709   0.0004579118   0.0001606270
       -0.0007376418  -0.0003922362  -0.0003707459  -0.0001870929  -0.0002259916
        0.0010624762  -0.0001151191   0.0000091004  -0.0009593765   0.0000940614
       -0.0000175637   0.0001969600  -0.0003531061  -0.0001785850  -0.0000767475
        0.0001045647   0.0000081015   0.0000558273  -0.0000637137   0.0000201807
       -0.0000705680  -0.0000615207   0.0000062239   0.0000341962   0.0000629537
        0.0000261153  -0.0001068086  -0.0001319660  -0.0000041693  -0.0000790123
        0.0001504742   0.0000011545   0.0000119529  -0.0000728635  -0.0000203615
       -0.0000427161   0.0000535273  -0.0000044574   0.0000656442   0.0000580893
       -0.0000129233  -0.0000973486  -0.0001000959   0.0000014344   0.0002782508
        0.0003173582   0.0001799716  -0.0003451926   0.0003398092   0.0002182999
        0.0004046229   0.0006600818   0.0004202000   0.0000423600  -0.0041534276
       -0.0031642677   0.0258612347  -0.0101325512   0.0002830635  -0.0002755550
       -0.0000335136  -0.0014267398  -0.0002426478   0.0005672295  -0.0002227057
        0.0008218358  -0.0002478539  -0.0008754846   0.0009979155   0.0003725795
        0.0000496294   0.0031650964  -0.0010588101  -0.0003712271  -0.0023336509
       -0.0015638407   0.0008128637  -0.0016983571  -0.0002349163   0.0002048012
        0.0000422647   0.0001061721   0.0000270352  -0.0000594285   0.0000518745
        0.0000254209   0.0000351607  -0.0000141229   0.0000029091   0.0000158011
        0.0000205316   0.0000100489  -0.0000018712   0.0000151749   0.0000091216
       -0.0000182211   0.0000026434   0.0000076565  -0.0000147261   0.0000110475
       -0.0000059616  -0.0000126029  -0.0000056284  -0.0000080373  -0.0000020120
       -0.0000151179  -0.0000129847   0.0000322783   0.0000359532  -0.0000085888
       -0.0000647630  -0.0000183869  -0.0000389749   0.0000599006  -0.0000926254
        0.0000011911   0.0009592459  -0.0001103624  -0.0001587697   0.0007949695
       -0.0001023110   0.0006984015
       -0.0596265243   0.1329852792  -0.0935490999   0.0447017148  -0.1573053960
        0.2245638696   0.0141706804   0.0176686433  -0.0703851215   0.0092145420
        0.0183690779  -0.0089516013  -0.0044577038   0.0055552916   0.0008982968
       -0.0001738573   0.0007453582  -0.0011824917  -0.0053883147   0.0008119180
        0.0042465299   0.0000547950  -0.0080959166   0.0049471068   0.0017830299
       -0.0040711671  -0.0647729621  -0.0068978126  -0.0001906878   0.0001734211
       -0.0011493865  -0.0026684817   0.0071059219  -0.0007612978  -0.0002287158
       -0.0002353706   0.0003636205   0.0004535687  -0.0017119839   0.0002934927
        0.0001311740   0.0000441030  -0.0000296194  -0.0000850824  -0.0000078272
       -0.0001837560   0.0000848239   0.0001025395   0.0001608755  -0.0000149001
       -0.0000239759  -0.0000340473   0.0000599234   0.0000349442   0.0000162571
       -0.0000185248   0.0000046672  -0.0000076198   0.0000106683  -0.0000088585
        0.0000113841   0.0000107363   0.0000023825  -0.0000047898  -0.0000052842
       -0.0000157427   0.0000159276   0.0000158424   0.0000155668   0.0000098222
       -0.0000194707  -0.0000095896  -0.0000008452   0.0000090542   0.0000076851
        0.0000062106   0.0000009057  -0.0000146020  -0.0000122151  -0.0000098018
       -0.0000064517   0.0000170418   0.0000181837  -0.0000125785  -0.0000439790
       -0.0000540056  -0.0000247943   0.0001313985  -0.0002031644  -0.0000690677
       -0.0004271434  -0.0000455107  -0.0001232393   0.0011082748  -0.0034814844
        0.0069799815   0.0055345171   0.0013562960  -0.0011537313   0.0014579385
       -0.0011308581  -0.0008285594   0.0005237857   0.0006550840  -0.0001037545
        0.0004851491  -0.0009208495  -0.0009427916  -0.0008646733  -0.0006119813
        0.0001731206  -0.0005957758  -0.0015156325  -0.0011355026  -0.0000032870
        0.0010349951  -0.0022563249  -0.0001674393   0.0000481504   0.0000211495
        0.0000145504  -0.0000148910   0.0000046874   0.0000259638  -0.0000091162
       -0.0000061859  -0.0000078089  -0.0000010268   0.0000057620  -0.0000044243
       -0.0000044893   0.0000037077  -0.0000007351  -0.0000044793   0.0000021246
        0.0000028225  -0.0000021349   0.0000000438   0.0000026370  -0.0000033471
       -0.0000021480   0.0000035360  -0.0000005975  -0.0000035793   0.0000028249
        0.0000024796  -0.0000037596  -0.0000011214  -0.0000078046   0.0000005004
       -0.0000047977   0.0000074955  -0.0000051716  -0.0000209709   0.0000391108
        0.0000061104   0.0005365735  -0.0002061225   0.0002847424   0.0002205801
        0.0008568644  -0.0020820973
        0.0171858515  -0.0016952596   0.0020192578  -0.1173098029  -0.0520426241
        0.0141706804   0.5380356269   0.0826715334   0.1581525025  -0.1016729828
        0.0115636057  -0.0392377339   0.0390459068   0.0124288135   0.0141921761
       -0.0272695228   0.0181170496  -0.0276953314  -0.0450167298  -0.0586019332
        0.0218668105  -0.2504440209  -0.0006173245  -0.1194643288  -0.0264462715
       -0.0183631875   0.0049210001  -0.0043111268   0.0018747115   0.0008811829
       -0.0009119712  -0.0005272045  -0.0009075677   0.0006205425   0.0000397146
        0.0000395035  -0.0000820185  -0.0000237202   0.0002058205  -0.0000803621
       -0.0001685185  -0.0001150136  -0.0000927554  -0.0000498148  -0.0000880692
        0.0003147306  -0.0000438893   0.0000114608  -0.0003197138   0.0000420425
       -0.0000104007   0.0000796526  -0.0001371716  -0.0000546460  -0.0000186675
        0.0000517560  -0.0000030912   0.0000142043  -0.0000193869   0.0000018545
       -0.0000214612  -0.0000115282  -0.0000030193   0.0000076255   0.0000198020
        0.0000054985  -0.0000466161  -0.0000386648  -0.0000032909  -0.0000343340
        0.0000490473   0.0000002642   0.0000046580  -0.0000194278  -0.0000059931
       -0.0000228492   0.0000246285   0.0000008340   0.0000176884   0.0000143253
       -0.0000023289  -0.0000282011  -0.0000446059  -0.0000018608   0.0000961441
        0.0001101308   0.0000645646  -0.0000806919   0.0001117420   0.0000921570
        0.0000280022   0.0001825257   0.0000863143  -0.0005006880  -0.0001396768
       -0.0009221213  -0.0009109180  -0.0023138015  -0.0002909577  -0.0089628499
        0.0151093004  -0.0199750136  -0.0002283615  -0.0055672860  -0.0006044409
        0.0000352988   0.0003731034  -0.0005577030  -0.0002493244  -0.0050037149
       -0.0012575473  -0.0093361686   0.0020057459  -0.0068278996   0.0002507387
        0.0001474611   0.0003414275  -0.0004544312  -0.0000324308  -0.0001088962
        0.0000381786   0.0000084666  -0.0000057659  -0.0000222393   0.0000127604
        0.0000212243   0.0000092762  -0.0000230368  -0.0000005342   0.0000035531
        0.0000036289  -0.0000012189  -0.0000027286   0.0000035186  -0.0000013519
       -0.0000044956  -0.0000022495   0.0000005020  -0.0000051002   0.0000015639
       -0.0000002661  -0.0000015198  -0.0000045122   0.0000019463   0.0000066442
       -0.0000039695   0.0000026852   0.0000163344   0.0000121877   0.0000037276
       -0.0000163698  -0.0000142665  -0.0000157428   0.0000514400  -0.0000298881
        0.0000370692  -0.0000549753   0.0000915362   0.0000032289  -0.0009018272
        0.0004683928   0.0010384415
       -0.0089376490  -0.0695816705   0.0288552724  -0.0549062985  -0.1140713412
        0.0176686433   0.0826715334   0.4600055822  -0.2058979119   0.0503121660
       -0.1588147984   0.1306041725  -0.0284407537  -0.0431489477   0.0201552740
        0.0183932943  -0.0055439744   0.0105420897  -0.0196441895   0.0072965865
       -0.0169593084  -0.0411793638  -0.0812843241  -0.0044351473  -0.0102691431
        0.0029841407   0.0008283613   0.0023950260   0.0011346344   0.0008944789
       -0.0004477056   0.0009426286   0.0001850541   0.0006853516  -0.0000604012
        0.0000315431  -0.0002858353   0.0000136768   0.0001124299  -0.0000134511
       -0.0001769132  -0.0000943686  -0.0000946907  -0.0000497463  -0.0000849190
        0.0002588164  -0.0000357528   0.0000099442  -0.0002408785   0.0000300059
       -0.0000075478   0.0000582181  -0.0000965226  -0.0000450060  -0.0000157709
        0.0000345658  -0.0000015900   0.0000122005  -0.0000139450   0.0000011603
       -0.0000151847  -0.0000085736  -0.0000017858   0.0000058434   0.0000157904
        0.0000056509  -0.0000297117  -0.0000316574  -0.0000016485  -0.0000226662
        0.0000392171   0.0000006192   0.0000043145  -0.0000155815  -0.0000060289
       -0.0000193353   0.0000195208   0.0000019814   0.0000150970   0.0000105462
       -0.0000016960  -0.0000242543  -0.0000281420   0.0000006602   0.0000712478
        0.0000793711   0.0000511278  -0.0000840614   0.0000975929   0.0000785802
        0.0000735031   0.0001601190   0.0000978527  -0.0007798451  -0.0001994568
       -0.0005978360   0.0011631463  -0.0019010568   0.0002476535   0.0017416180
        0.0009098605  -0.0013962965  -0.0047903916  -0.0005563727   0.0042193469
        0.0004886255   0.0003448621   0.0000030992  -0.0056759085  -0.0006459710
        0.0042276866   0.0160125182   0.0018896512   0.0110088812   0.0003338285
       -0.0001477188   0.0002058152   0.0001300471  -0.0000315301  -0.0000928396
        0.0000231472   0.0000109262  -0.0000079163  -0.0000089425   0.0000092670
        0.0000127591   0.0000086162  -0.0000178432   0.0000009412   0.0000034615
        0.0000012098  -0.0000013499  -0.0000000687  -0.0000002935  -0.0000012531
       -0.0000011983  -0.0000016094   0.0000011957  -0.0000013103  -0.0000000175
       -0.0000000714   0.0000037692  -0.0000046269   0.0000023206   0.0000054093
       -0.0000016576   0.0000026067   0.0000101478   0.0000066013   0.0000037615
       -0.0000053788  -0.0000136927  -0.0000101241   0.0000251656  -0.0000267437
        0.0000141476   0.0000092143   0.0000453259  -0.0000426430   0.0010186600
        0.0004292003  -0.0003878231
        0.0003030938   0.0279730198   0.0066880508   0.0230575260   0.0137566605
       -0.0703851215   0.1581525025  -0.2058979119   0.3724010962  -0.0717717574
        0.1044666189  -0.1828227337   0.0437028291   0.0456075824  -0.0066165446
       -0.0265210915   0.0092413075  -0.0304841221  -0.0133328367  -0.0370852991
        0.0270748297  -0.0869170920   0.0201651542  -0.1132701791   0.0006922302
        0.0046720466   0.0131322123   0.0012306757  -0.0008208960   0.0012919865
       -0.0000353801   0.0010449379  -0.0009974436   0.0001815520  -0.0000169809
        0.0000532791  -0.0001543964  -0.0000472596   0.0002606384  -0.0000234990
       -0.0000120554  -0.0000031648   0.0000057477   0.0000202120   0.0000028908
       -0.0000065242  -0.0000123070  -0.0000272118   0.0000116400  -0.0000020100
        0.0000079987  -0.0000008762   0.0000036050  -0.0000008456  -0.0000020811
       -0.0000035392   0.0000022874   0.0000018616  -0.0000029127  -0.0000045479
       -0.0000007533   0.0000000716  -0.0000035841   0.0000002957   0.0000005999
       -0.0000029260  -0.0000004937  -0.0000010327   0.0000055482   0.0000032145
        0.0000004454  -0.0000003639  -0.0000027251  -0.0000043296   0.0000057538
        0.0000023689  -0.0000000411   0.0000010958   0.0000006644  -0.0000001688
        0.0000039867   0.0000024785   0.0000027776  -0.0000009009  -0.0000039453
       -0.0000034642  -0.0000012536  -0.0000342875   0.0000247547   0.0000151063
        0.0000999202  -0.0000162289   0.0000155568  -0.0004024524   0.0005358481
       -0.0008952241  -0.0006544759  -0.0004344775  -0.0007744642  -0.0067901729
        0.0093109076  -0.0110337915  -0.0007774704   0.0043398406   0.0039817635
       -0.0000895239  -0.0004540073  -0.0007422869  -0.0008790338   0.0037349016
        0.0041730725  -0.0190346804   0.0001052149  -0.0117722982  -0.0001702612
       -0.0000796810   0.0002404326   0.0002011689   0.0000357473  -0.0000775823
       -0.0000039464  -0.0000050191   0.0000000324  -0.0000045027   0.0000046436
        0.0000004697   0.0000014017   0.0000036153  -0.0000027176  -0.0000008055
        0.0000028651  -0.0000026602  -0.0000016217   0.0000014767  -0.0000019279
       -0.0000028364   0.0000003982  -0.0000004433  -0.0000019530   0.0000002430
        0.0000011245  -0.0000026915  -0.0000010579   0.0000020947  -0.0000016748
       -0.0000022879   0.0000023584  -0.0000014042  -0.0000006738   0.0000011015
        0.0000032453  -0.0000037968   0.0000056036  -0.0000003478   0.0000016859
       -0.0000016004  -0.0000670993  -0.0000196523  -0.0000137192   0.0000402768
       -0.0001300912   0.0005692883
       -0.0009024111  -0.0081817797   0.0011529605   0.0084312250  -0.0017822604
        0.0092145420  -0.1016729828   0.0503121660  -0.0717717574   0.5688848959
        0.1430028962   0.1607882945  -0.1767805421  -0.1494687794   0.0456957277
       -0.0470124462  -0.0185992523  -0.0138527118  -0.0005210837  -0.0096305038
        0.0107403523  -0.0069800872   0.0215016749  -0.0225708136  -0.0020804862
       -0.0014463599  -0.0003981189   0.0001854674   0.0005460529   0.0002630672
       -0.0003254074   0.0001895032   0.0000639531   0.0001434858  -0.0000485067
       -0.0000302741  -0.0001027928  -0.0000106591   0.0000159493   0.0000283952
       -0.0000929192  -0.0000628577  -0.0000493821  -0.0000313589  -0.0000400494
        0.0001817477  -0.0000284986   0.0000074503  -0.0001720184   0.0000123012
       -0.0000172720   0.0000335537  -0.0000655742  -0.0000264413  -0.0000079035
        0.0000192604  -0.0000069787   0.0000156534  -0.0000111092  -0.0000022130
       -0.0000086107  -0.0000057073  -0.0000038373   0.0000043244   0.0000077445
        0.0000007976  -0.0000188906  -0.0000231648  -0.0000009727  -0.0000167413
        0.0000241496   0.0000003997   0.0000061745  -0.0000091360  -0.0000020103
       -0.0000072300   0.0000074449   0.0000013781   0.0000166235   0.0000046918
        0.0000000897  -0.0000144746  -0.0000147050  -0.0000035154   0.0000505493
        0.0000575584   0.0000403508  -0.0000440169   0.0000470583   0.0000235158
        0.0000319759   0.0001217069   0.0000677570  -0.0002360113  -0.0002053915
       -0.0001322021  -0.0011161154  -0.0008166020   0.0011120068  -0.2375553604
       -0.0255607556  -0.1103846680   0.0042226328   0.0045895422  -0.0013044415
       -0.0032695587  -0.0023592625  -0.0046789047   0.0006830244   0.0000732305
        0.0004957162  -0.0034900677  -0.0021017549  -0.0049803154   0.0001121997
       -0.0000039836   0.0000235610  -0.0000533995  -0.0000358892  -0.0000337160
        0.0000111240   0.0000139332   0.0000097223  -0.0000095349   0.0000054962
        0.0000056935  -0.0000038102  -0.0000030697   0.0000020610  -0.0000022066
        0.0000000768  -0.0000021032  -0.0000020698  -0.0000007525  -0.0000022588
       -0.0000029496  -0.0000022279  -0.0000000045  -0.0000019329  -0.0000022036
        0.0000009622   0.0000002450  -0.0000035479   0.0000035706   0.0000007953
       -0.0000040214   0.0000042345   0.0000027225  -0.0000018500   0.0000057283
       -0.0000180389  -0.0000088459  -0.0000066703  -0.0000099436  -0.0000382189
       -0.0000047143  -0.0000385494   0.0000383522   0.0000199217  -0.0005197585
        0.0000238116   0.0005600587
       -0.0036130089  -0.0013155397  -0.0003693954  -0.0021884912  -0.0267627542
        0.0183690779   0.0115636057  -0.1588147984   0.1044666189   0.1430028962
        0.4625014606  -0.2051299644  -0.0938857741  -0.2117681343   0.0809179392
       -0.0603309559   0.0091077195  -0.0437115950  -0.0088230258  -0.0443759431
        0.0262000631   0.0555264093   0.0258565119   0.0151171829   0.0016874843
       -0.0010682322   0.0002342301  -0.0000951335  -0.0003037633  -0.0000097049
        0.0001311474  -0.0002293839  -0.0000188293  -0.0001843847  -0.0000473610
       -0.0000354477   0.0000493727   0.0000292289  -0.0000126520   0.0000109174
        0.0000893486   0.0000566835   0.0000405964   0.0000369097   0.0000336090
       -0.0001567442   0.0000165124   0.0000008896   0.0001575939  -0.0000113693
        0.0000084005  -0.0000350092   0.0000611463   0.0000214382   0.0000039868
       -0.0000223299  -0.0000139748  -0.0000075250   0.0000103371  -0.0000129709
        0.0000129633   0.0000118655  -0.0000150187  -0.0000044605  -0.0000156349
       -0.0000035586   0.0000194133   0.0000267038  -0.0000099806   0.0000198248
       -0.0000266213   0.0000052681  -0.0000043078   0.0000112490   0.0000012043
        0.0000072467  -0.0000159147   0.0000162636  -0.0000097388  -0.0000069854
        0.0000139272   0.0000154175   0.0000192092   0.0000115879  -0.0000533950
       -0.0000575055  -0.0000296268   0.0000436440  -0.0000452795  -0.0000329460
       -0.0000057659  -0.0001022240  -0.0000553637   0.0002608410   0.0001537379
        0.0001705616  -0.0000898557   0.0003098845   0.0000783406  -0.0263746256
       -0.0429981949  -0.0090218835  -0.0120406252  -0.0163975670   0.0078644404
       -0.0023748363   0.0034355842   0.0025195242   0.0001159403  -0.0005551428
        0.0000974379  -0.0021658663   0.0027093244   0.0020467325  -0.0000469365
        0.0001106657   0.0000149007   0.0000282685   0.0000698483   0.0000211220
       -0.0000221217   0.0000004447  -0.0000010070   0.0000115464   0.0000001504
       -0.0000116694  -0.0000043647   0.0000083500  -0.0000082564  -0.0000022738
        0.0000015626  -0.0000172035   0.0000016939  -0.0000010890  -0.0000155557
        0.0000019798   0.0000029215  -0.0000073961   0.0000019318  -0.0000005334
        0.0000037824   0.0000024346   0.0000008054   0.0000116553  -0.0000033157
        0.0000036346   0.0000160428  -0.0000089837  -0.0000051828   0.0000106330
        0.0000101809   0.0000005844   0.0000155356  -0.0000174347   0.0000138733
        0.0000089909   0.0000306970  -0.0000260167   0.0000107882  -0.0002090734
        0.0003739270   0.0001791282
        0.0009406651  -0.0013366108   0.0023884461   0.0033801227   0.0139620691
       -0.0089516013  -0.0392377339   0.1306041725  -0.1828227337   0.1607882945
       -0.2051299644   0.3935116720   0.0010584552   0.0476454870  -0.0879203101
        0.0207488809  -0.0183170583   0.0293574848   0.0103057594   0.0265979188
       -0.0215030452  -0.0517901925  -0.0073754000  -0.0246613575  -0.0013606694
       -0.0005973631  -0.0007956311  -0.0003087285   0.0001389968  -0.0000284223
       -0.0000727288   0.0000401921  -0.0000407097   0.0001031716   0.0000544415
        0.0001315001  -0.0000324849   0.0000272248  -0.0000044472   0.0000080961
       -0.0000466138  -0.0000400138  -0.0000153035  -0.0000059466  -0.0000111063
        0.0000555637  -0.0000126019   0.0000030223  -0.0000434079   0.0000062896
        0.0000001246   0.0000117384  -0.0000157531  -0.0000138772  -0.0000069714
        0.0000056670  -0.0000109151   0.0000032194  -0.0000008021  -0.0000107241