$hessian                                                                        
        0.5032536951  -0.0089353514  -0.0348984406  -0.0847811984  -0.0121298247
       -0.0505786048   0.0062635407   0.0031135868   0.0135786049  -0.0158101828
        0.0047271729  -0.0186076288  -0.0004727660  -0.0011868685  -0.0007797606
       -0.0004582681   0.0002097894   0.0005568763   0.0000434115   0.0000614817
        0.0001293503  -0.0006711375   0.0002335292   0.0007698742  -0.0001478568
        0.0024141513  -0.0013162733  -0.0001952908  -0.0001858091   0.0000112263
        0.0001952599   0.0000349417   0.0000863127  -0.0000140584  -0.0000403393
       -0.0000604080   0.0000084810   0.0000168897   0.0000125534  -0.0000236394
        0.0000027170   0.0000213208   0.0000339873   0.0000124531  -0.0000055444
       -0.0000121147  -0.0000167279  -0.0000048426   0.0000187761  -0.0000000937
       -0.0000080066  -0.0000009338   0.0000007080   0.0000018575   0.0000028370
       -0.0000011722  -0.0000032718   0.0000008476   0.0000017341  -0.0000002863
       -0.0000003363   0.0000000331  -0.0000005918   0.0000001244   0.0000004603
       -0.0000010548   0.0000016199   0.0000025699  -0.0000021750  -0.0000149836
        0.0000096759   0.0000095587   0.0000149171  -0.0000092696  -0.0000100352
       -0.0000041828  -0.0000009867   0.0000016238   0.0000038063   0.0000030491
       -0.0000001274   0.0000008879   0.0000012124   0.0000005060  -0.0000001869
        0.0000002954   0.0000005156  -0.0000011695  -0.0000023305   0.0000009569
       -0.0000002563  -0.0000013590   0.0000017055  -0.0000165226   0.0000085759
        0.0000179418   0.0000369383  -0.0000029211  -0.0000140862  -0.0000191254
        0.0000132958   0.0000160540   0.0003397686  -0.0021354454  -0.0003874486
       -0.0005487179  -0.0001115079   0.0006103915   0.0000616276   0.0002070458
        0.0001232293  -0.0003731463  -0.0000767894   0.0005604589  -0.0006262255
        0.0009417021  -0.0012080879  -0.0126084649  -0.0128424993  -0.0123381919
       -0.0000156722   0.0000959730  -0.0000121215   0.0000403667  -0.0000223513
        0.0000024889  -0.0000175258   0.0000017926  -0.0000026115   0.0000024935
       -0.0000045672   0.0000067483   0.0000128879  -0.0000140113   0.0000023640
       -0.0000287726  -0.0000349565  -0.0000336768  -0.0000409058  -0.0001381989
       -0.0000201130   0.0000655039   0.0000043971  -0.0000163023  -0.0000270012
       -0.0000114217   0.0000107939   0.0000105916  -0.0000057160  -0.0000022385
        0.0000081500  -0.0000029193  -0.0000030296  -0.0000052935   0.0000067776
        0.0000099009  -0.0000198349  -0.0000096293  -0.0000030471  -0.1458714919
        0.0177644671   0.1175787638  -0.1383405762   0.1136895156  -0.0328519268
       -0.1087185281  -0.1065258004   0.0149882163   0.0006326528   0.0003006404
        0.0004534009  -0.0015326570   0.0006494768   0.0037569351   0.0007102774
       -0.0000165187   0.0005720119  -0.0000651181  -0.0003390498  -0.0001860659
       -0.0000048407  -0.0000366454  -0.0000080604   0.0000239527  -0.0000374036
       -0.0001537826  -0.0001039045   0.0000891376  -0.0001594008  -0.0000236903
        0.0000167972   0.0000067711  -0.0000214706  -0.0000051590   0.0000067353
        0.0000026024   0.0000059778   0.0000015929  -0.0000005118   0.0000005969
        0.0000008189  -0.0000015750  -0.0000013979   0.0000001566  -0.0000000927
       -0.0000013858  -0.0000004764   0.0000007473   0.0000004208  -0.0000003750
        0.0000020151   0.0000006186   0.0000014277   0.0000013939  -0.0000000018
       -0.0000009184  -0.0000008457   0.0000009141  -0.0000000013  -0.0000008095
        0.0000012149   0.0000001500   0.0000006981   0.0000027612   0.0000005514
        0.0000035343  -0.0000011808  -0.0000024216  -0.0000121937  -0.0000012078
        0.0000029599   0.0000028364   0.0000120577   0.0000264608  -0.0000659200
       -0.0001128299  -0.0000640471  -0.0000389025   0.0003478729  -0.0001980512
       -0.0000347939   0.0000197300   0.0000095544   0.0000073093  -0.0000076735
        0.0000016810   0.0000020802  -0.0000111384   0.0000015805  -0.0000035756
       -0.0000030978  -0.0000010170   0.0000020870  -0.0000087627  -0.0000135072
       -0.0000056675   0.0000024687   0.0000013536  -0.0000069401  -0.0000009532
       -0.0000006025  -0.0000046131  -0.0000047395  -0.0000026787   0.0000017822
        0.0000073343   0.0000070035
       -0.0089353514   0.5243575578  -0.0176855316  -0.0104909947  -0.0667575289
       -0.0192909742  -0.0013024695   0.0000265082  -0.0053922527   0.0127104178
        0.0027999157   0.0162024207   0.0004732910  -0.0011734713   0.0008893824
        0.0001162297   0.0005445544  -0.0005970847   0.0000680365  -0.0002396874
        0.0001192834   0.0005039446   0.0001854419  -0.0009500497   0.0002063959
       -0.0038204830   0.0012155888  -0.0002119179   0.0024158018  -0.0005387214
       -0.0000069355   0.0000075158   0.0000198901  -0.0000084735   0.0000099203
       -0.0000203276  -0.0000091923   0.0000006888   0.0000031609   0.0000029728
       -0.0000005529   0.0000092336  -0.0000038494  -0.0000177145   0.0000013186
        0.0000160121   0.0000063635  -0.0000091261  -0.0000048179  -0.0000106971
        0.0000034097   0.0000018594   0.0000022906  -0.0000010449  -0.0000007744
        0.0000004444  -0.0000007412   0.0000003513   0.0000012944   0.0000002209
        0.0000007679   0.0000017831  -0.0000002087  -0.0000008008   0.0000019627
       -0.0000009538   0.0000005162   0.0000004846  -0.0000030513  -0.0000021420
        0.0000113223   0.0000010481  -0.0000004411  -0.0000109932   0.0000009759
        0.0000004487   0.0000000931  -0.0000009640   0.0000008302   0.0000012531
       -0.0000001474   0.0000009530   0.0000013316   0.0000000162  -0.0000007577
       -0.0000005023  -0.0000001234   0.0000004828  -0.0000007350  -0.0000008979
       -0.0000037393  -0.0000007005  -0.0000000452  -0.0000011577   0.0000168029
        0.0000000692   0.0000113957   0.0000074763  -0.0000051363   0.0000021351
        0.0000146049  -0.0000306019   0.0011228863  -0.0040320547  -0.0000030508
       -0.0007390951   0.0000319895   0.0008681286   0.0001898385   0.0004518766
       -0.0000407563  -0.0004641628   0.0004621114   0.0004818533  -0.0005452861
       -0.0008292318  -0.0007547735  -0.0176211905  -0.0111281912  -0.0183268777
       -0.0000069201   0.0001650066   0.0000974635  -0.0000866834  -0.0000306208
        0.0000225104   0.0000363476   0.0000398510  -0.0000173934  -0.0000516591
        0.0000089624   0.0000021368   0.0000508813  -0.0000781982   0.0000126639
       -0.0002335994   0.0001078220  -0.0001062443  -0.0001239812  -0.0006465201
        0.0000339372   0.0001522767   0.0000143970  -0.0000105274  -0.0000518042
        0.0000036636   0.0000241446   0.0000272716  -0.0000021788  -0.0000073429
        0.0000068739  -0.0000082925  -0.0000105141  -0.0000025681   0.0000089126
        0.0000143828  -0.0000460171  -0.0000246191  -0.0000075184   0.0176804699
       -0.0476351535  -0.0195606080   0.1137351400  -0.1774962304   0.0407890351
       -0.1063850841  -0.2160928638   0.0224680547   0.0000891449   0.0002359078
        0.0007035596   0.0004390409   0.0003628490  -0.0008492041  -0.0004354009
        0.0000847992  -0.0003517508   0.0006965671  -0.0007195392   0.0012787116
       -0.0000072449  -0.0000354145  -0.0000666744   0.0000267986   0.0000302330
        0.0001565810   0.0001526744  -0.0001359184   0.0001180086  -0.0000031480
       -0.0000127137   0.0000184203  -0.0000007570  -0.0000023030   0.0000014647
        0.0000015318   0.0000014994   0.0000049964  -0.0000003132  -0.0000008871
        0.0000019630  -0.0000004819  -0.0000005773   0.0000014311   0.0000000642
       -0.0000010411   0.0000009917   0.0000011167   0.0000006279   0.0000016157
        0.0000017318  -0.0000020282   0.0000017634   0.0000015876   0.0000001729
        0.0000000363   0.0000002622   0.0000004825   0.0000003224   0.0000001674
        0.0000007317   0.0000001398  -0.0000004492   0.0000016603   0.0000009446
        0.0000010351  -0.0000012679   0.0000003734   0.0000041890   0.0000006268
        0.0000043952   0.0000067774  -0.0000129506   0.0000173846  -0.0001167193
       -0.0001850997   0.0000341517  -0.0006743956  -0.0012274182  -0.0009723441
        0.0000275852  -0.0000091802  -0.0000046106   0.0000145279  -0.0000211725
        0.0000028164   0.0000048593  -0.0000084600   0.0000026494   0.0000029028
       -0.0000043852  -0.0000016903   0.0000093770  -0.0000090852  -0.0000168484
       -0.0000068020   0.0000023877   0.0000046817  -0.0000097918  -0.0000030186
       -0.0000011364  -0.0000065711  -0.0000080664  -0.0000050256   0.0000029733
        0.0000057653   0.0000051434
       -0.0348984406  -0.0176855316   0.4562301575  -0.0436577837  -0.0190521799
       -0.1390513257  -0.0077094264  -0.0067665027  -0.0288659208  -0.0110858856
        0.0048100277  -0.0091347991  -0.0000721266  -0.0006581327   0.0000500236
       -0.0002883250   0.0000051481   0.0002568724  -0.0001425543  -0.0000195217
        0.0000315371  -0.0003693070   0.0003588865   0.0002704382   0.0008937706
        0.0006152258  -0.0008348124   0.0000688942  -0.0004788229  -0.0000933222
       -0.0000681629   0.0000229578   0.0001323848   0.0000223940   0.0000170473
        0.0000119887  -0.0000168351   0.0000010606   0.0000118410   0.0000003774
       -0.0000017775  -0.0000051228  -0.0000152004   0.0000022506   0.0000056890
        0.0000052773  -0.0000001791   0.0000025573  -0.0000097495   0.0000023733
        0.0000035134   0.0000000350   0.0000000897  -0.0000001992   0.0000005194
        0.0000011118  -0.0000001537  -0.0000009779  -0.0000006225   0.0000007850
        0.0000005538  -0.0000012156  -0.0000009643   0.0000011876   0.0000000771
        0.0000001215   0.0000023199  -0.0000001955   0.0000005485   0.0000054838
       -0.0000087795  -0.0000037512  -0.0000082938   0.0000085481   0.0000058449
        0.0000015265  -0.0000028900  -0.0000019242  -0.0000014193   0.0000009560
        0.0000007566   0.0000016100  -0.0000006285  -0.0000011293  -0.0000000634
       -0.0000010943  -0.0000004601   0.0000008097   0.0000014207   0.0000000043
        0.0000047536   0.0000028420  -0.0000007673   0.0000059842  -0.0000055387
       -0.0000075509  -0.0000183642  -0.0000039693  -0.0000022819   0.0000666707
        0.0000025002  -0.0000148871   0.0007359328   0.0007739638  -0.0006158878
       -0.0000426512  -0.0002389424  -0.0000053013  -0.0002269294  -0.0001223708
        0.0000646958  -0.0001138008  -0.0000503801   0.0000522781  -0.0000640088
        0.0010432870  -0.0000297684  -0.0038515749  -0.0059679432   0.0010725858
        0.0000269119  -0.0000520310  -0.0000503584   0.0000494092  -0.0000035914
        0.0000044031  -0.0000174774  -0.0000064581   0.0000086983   0.0000138035
       -0.0000016100   0.0000005200  -0.0000125854  -0.0000291672   0.0000105135
        0.0000838713  -0.0000213738   0.0000399518   0.0001123059   0.0002385864
       -0.0000404413  -0.0001484823  -0.0000513602  -0.0000132201   0.0000240100
        0.0000171254   0.0000162596  -0.0000285804  -0.0000154104  -0.0000049828
        0.0000201509   0.0000010495   0.0000010181  -0.0000246172   0.0000063461
        0.0000051099   0.0000251623   0.0000051384  -0.0000046505   0.1171070063
       -0.0195895898  -0.1761531374  -0.0322292237   0.0403005127  -0.0543429782
        0.0154992211   0.0230335736  -0.0452780034  -0.0010023542  -0.0002311070
        0.0007415162   0.0027556934  -0.0008912299  -0.0047394954  -0.0009475309
        0.0003725224   0.0008641753  -0.0004056349   0.0001380325  -0.0005234361
       -0.0000050344  -0.0000181830  -0.0000166162   0.0000065270  -0.0000314028
       -0.0000625356  -0.0000130164   0.0000509034   0.0000117611   0.0000168022
       -0.0000160792  -0.0000142091  -0.0000071634  -0.0000006952   0.0000007677
        0.0000036890  -0.0000000582  -0.0000030689  -0.0000008026   0.0000004028
        0.0000002913  -0.0000004738  -0.0000001799  -0.0000007281  -0.0000004579
       -0.0000006419  -0.0000008247   0.0000011863  -0.0000003841  -0.0000021747
        0.0000026836   0.0000019318  -0.0000026616  -0.0000006526  -0.0000012148
       -0.0000006178  -0.0000006521  -0.0000001897  -0.0000001922   0.0000002523
        0.0000004759   0.0000002374   0.0000010556  -0.0000008745   0.0000003907
        0.0000012198   0.0000005367   0.0000004582  -0.0000040214   0.0000004113
       -0.0000001312   0.0000019970   0.0000052563   0.0000061084   0.0000429255
        0.0000419095   0.0000365490  -0.0001051781   0.0001238507  -0.0000186651
       -0.0000150760   0.0000053594  -0.0000038880  -0.0000045923   0.0000023890
       -0.0000003332  -0.0000001495   0.0000057385  -0.0000011893   0.0000085081
        0.0000110323   0.0000016535   0.0000006250  -0.0000086960  -0.0000061351
        0.0000092612   0.0000001177  -0.0000038703  -0.0000008497   0.0000009636
        0.0000004530   0.0000027517  -0.0000002044   0.0000012486   0.0000013566
        0.0000050104   0.0000021668
       -0.0847811984  -0.0104909947  -0.0436577837   0.4566129626  -0.0025864708
        0.0035947967  -0.1020774241   0.0079568687   0.0511181690  -0.1091345238
        0.0549501218  -0.0160788609   0.0082214740  -0.0009587894   0.0011592370
       -0.0006042472  -0.0028922791  -0.0000556215  -0.0001243733   0.0010304214
       -0.0002269016  -0.0041104955  -0.0025940333  -0.0004185570  -0.0226089637
        0.0207281272  -0.0065785240   0.0036089568   0.0005338916   0.0005348430
       -0.0001121590   0.0000066203   0.0000180299   0.0002242196  -0.0000145259
       -0.0000840872   0.0000380665   0.0000040365   0.0000040782   0.0000496330
        0.0000084178  -0.0000098258  -0.0000525417  -0.0000223107   0.0000014374
        0.0000465580   0.0000241034  -0.0000064839  -0.0000437676  -0.0000147513
        0.0000131140   0.0000054511   0.0000117132   0.0000022602  -0.0000027989
        0.0000040289   0.0000025675  -0.0000021047   0.0000002027   0.0000040816
       -0.0000007825  -0.0000047005  -0.0000013111   0.0000077417  -0.0000008733
       -0.0000049547   0.0000107565  -0.0000003090  -0.0000024094   0.0000316882
       -0.0000079548  -0.0000112198  -0.0000406796   0.0000151908   0.0000158954
        0.0000132385  -0.0000114233  -0.0000075798  -0.0000029717  -0.0000041054
       -0.0000001395  -0.0000005383  -0.0000039054  -0.0000009265  -0.0000021359
        0.0000020988   0.0000017608   0.0000069790   0.0000078041   0.0000023667
        0.0000103702   0.0000087133   0.0000024999   0.0000470010   0.0000034844
       -0.0000031869   0.0000259071   0.0000104830   0.0000062183   0.0002405082
        0.0000449243   0.0000974390  -0.0184803144  -0.0239598046   0.0034838990
       -0.0043323844   0.0015607524  -0.0012677122   0.0000497850  -0.0010071146
        0.0001646496  -0.0015697136   0.0026169064  -0.0012669068   0.0088666928
        0.0070098484  -0.0007752287  -0.0941730775  -0.0507562389   0.0069654276
        0.0003219584   0.0005994635  -0.0001661818   0.0002610220  -0.0000259753
        0.0000358579   0.0000343384   0.0001329732  -0.0000208223  -0.0001169640
       -0.0000220247  -0.0000051095   0.0000703226  -0.0001302780   0.0000450803
       -0.0001501608   0.0002401302   0.0000231937   0.0001403984   0.0003123122
        0.0000283163  -0.0001852469  -0.0000751517   0.0000044539   0.0000416485
        0.0000313983   0.0000643651  -0.0000360095  -0.0000352986  -0.0000195285
        0.0000471338   0.0000093582   0.0000019086  -0.0000310317   0.0000151759
        0.0000121220   0.0000388249   0.0000058966  -0.0000108920   0.0082591624
        0.0034797080   0.0139791049  -0.0122251605  -0.0014154821  -0.0172448040
       -0.0100599846  -0.0061705484  -0.0133045877  -0.0128983584  -0.0011527709
        0.0133434572   0.0081310646  -0.0012603541  -0.0087958485  -0.0155839978
        0.0052777029   0.0145851628  -0.0003301066  -0.0007014541   0.0003792945
        0.0002204980  -0.0008255819   0.0001763529   0.0000851641  -0.0001214667
        0.0001495173  -0.0007904286   0.0009411245  -0.0002689144  -0.0000517889
        0.0000044268   0.0000039667   0.0000042303  -0.0000007477  -0.0000051675
        0.0000059665   0.0000059507   0.0000019351   0.0000012558  -0.0000007172
       -0.0000011529   0.0000032853   0.0000026184  -0.0000038647   0.0000024634
        0.0000038597  -0.0000015297  -0.0000002113   0.0000030445  -0.0000009978
        0.0000033286   0.0000016704  -0.0000024641   0.0000010955   0.0000017638
       -0.0000001946   0.0000055873   0.0000027175  -0.0000019224   0.0000057057
       -0.0000006172  -0.0000027480   0.0000025491  -0.0000029653  -0.0000007052
        0.0000025082   0.0000024587   0.0000004793   0.0000110796   0.0000174226
        0.0000095855  -0.0000466174  -0.0000088058   0.0000127159  -0.0006935290
       -0.0010214700   0.0002209037  -0.0003093954   0.0006202536   0.0000934533
       -0.0000656863   0.0000001438  -0.0000019944  -0.0000188331   0.0000224169
       -0.0000077926  -0.0000035720   0.0000128939  -0.0000046948   0.0000187494
        0.0000447774  -0.0000012770  -0.0000051748  -0.0000393820  -0.0000302727
        0.0000185412   0.0000008801  -0.0000069419  -0.0000014708   0.0000008690
       -0.0000001733   0.0000060761  -0.0000002218   0.0000029440  -0.0000010240
        0.0000097277   0.0000018617
       -0.0121298247  -0.0667575289  -0.0190521799  -0.0025864708   0.4941623017
       -0.0150717820   0.0092333754  -0.0632529520  -0.0095685726   0.0576500730
       -0.1358907043   0.0216326427   0.0133728248  -0.0300208353   0.0072577842
       -0.0035059503  -0.0027703668   0.0015127954   0.0003929375  -0.0001264450
        0.0000633075  -0.0015062195   0.0005408813   0.0010058453   0.0072823590
        0.0044407287   0.0001814037   0.0004704068  -0.0034885169   0.0001855210
        0.0000427206  -0.0001294860   0.0000391816   0.0000137075  -0.0000445905
        0.0000460114   0.0000358272   0.0000182051   0.0000001249  -0.0000166837
       -0.0000101509  -0.0000216888   0.0000063798   0.0000300034  -0.0000010555
       -0.0000173567  -0.0000177152   0.0000064304   0.0000069071   0.0000155439
       -0.0000011527  -0.0000017132  -0.0000047397   0.0000010035   0.0000015321
        0.0000005566   0.0000008273  -0.0000016728  -0.0000018916   0.0000018538
       -0.0000009049  -0.0000028504   0.0000000504   0.0000003843  -0.0000012568
        0.0000033059  -0.0000023300  -0.0000029574   0.0000061895   0.0000047316
       -0.0000176450  -0.0000040143  -0.0000050432   0.0000209813   0.0000040213
        0.0000052723  -0.0000039373  -0.0000027074  -0.0000021998  -0.0000023717
        0.0000004399  -0.0000019652  -0.0000021701  -0.0000007338   0.0000011825
        0.0000014225  -0.0000002672   0.0000019435   0.0000015479  -0.0000002698
        0.0000042217   0.0000021094  -0.0000006388   0.0000062845  -0.0000224711
       -0.0000006423  -0.0000051597  -0.0000189734  -0.0000080494  -0.0000143973
       -0.0000522461   0.0000414511  -0.0106384271  -0.0008634475  -0.0006292111
        0.0006580670   0.0010157159   0.0008384659  -0.0003323886  -0.0006567207
        0.0001678591   0.0032728630  -0.0017363076   0.0019155070  -0.0074523577
       -0.0316564575   0.0058218170  -0.0529970618  -0.1525353762   0.0160147864
       -0.0006171430  -0.0007559918   0.0002798012   0.0000288574   0.0000119281
       -0.0000115400  -0.0000146335  -0.0000154248  -0.0000153745   0.0000039931
        0.0000598513  -0.0000082915  -0.0000763038  -0.0000574595  -0.0000112737
        0.0002378202  -0.0002823807   0.0000395726   0.0002787993   0.0005852053
       -0.0002646042  -0.0002277476  -0.0000424457  -0.0000415058   0.0000259587
        0.0000104050   0.0000320196  -0.0000303781  -0.0000142018   0.0000098290
        0.0000347458  -0.0000085124  -0.0000038760  -0.0000495554   0.0000103073
        0.0000125932   0.0000439408   0.0000107084  -0.0000088640  -0.0014869046
       -0.0009332255  -0.0041304234   0.0111382758   0.0031229172   0.0180556329
       -0.0140366594  -0.0079558258  -0.0208914651  -0.0160640713   0.0008768363
        0.0186954815   0.0036935631  -0.0008994804  -0.0056876344   0.0156001946
       -0.0045286904  -0.0166089106   0.0009879782   0.0006806278  -0.0006104516
        0.0006396895  -0.0009580405   0.0003153918  -0.0000341269   0.0000789051
       -0.0003212483  -0.0004175904   0.0001231613  -0.0002053298   0.0000145670
        0.0000117429  -0.0000270908  -0.0000025678   0.0000049666  -0.0000058507
        0.0000008867   0.0000002286  -0.0000063921  -0.0000010944   0.0000002269
       -0.0000011688  -0.0000014696  -0.0000000122  -0.0000005175  -0.0000022220
       -0.0000009194   0.0000001054  -0.0000023543  -0.0000031532  -0.0000028573
        0.0000000347   0.0000012437  -0.0000029943  -0.0000018401   0.0000000435
       -0.0000005339   0.0000003817   0.0000004202  -0.0000004279   0.0000004834
       -0.0000002263  -0.0000014148   0.0000010578  -0.0000022385  -0.0000025055
        0.0000000162   0.0000006991  -0.0000001397  -0.0000118996   0.0000032460
       -0.0000061450  -0.0000261728   0.0000139420  -0.0000309834   0.0002345889
        0.0001016276  -0.0000895898  -0.0010482935   0.0006372347  -0.0008262550
       -0.0000548528  -0.0000170360   0.0000155310   0.0000001153   0.0000019536
        0.0000019179  -0.0000035604  -0.0000060428  -0.0000016307   0.0000008473
       -0.0000104408   0.0000004891  -0.0000180845  -0.0000230663  -0.0000124755
        0.0000166477  -0.0000014609  -0.0000123472  -0.0000018044   0.0000048080
       -0.0000004219   0.0000016107  -0.0000013646   0.0000035026   0.0000004019
        0.0000055179   0.0000050067
       -0.0505786048  -0.0192909742  -0.1390513257   0.0035947967  -0.0150717820
        0.4295970318   0.0582364500  -0.0093503081  -0.1248965587  -0.0161776045
        0.0212769070  -0.0600418733  -0.0018930985   0.0058297806  -0.0020635562
       -0.0000951573   0.0017468809   0.0063226324  -0.0000124395   0.0002054606
       -0.0000921723  -0.0008030342   0.0009598021   0.0061926837  -0.0044268537
        0.0012114519   0.0011232828   0.0005616593   0.0002912101  -0.0033337795
       -0.0001021919   0.0000451575   0.0001441541   0.0001055493   0.0000695593
        0.0000305455  -0.0000140628  -0.0000156828  -0.0000421053   0.0000331632
        0.0000123432   0.0000054812  -0.0000233272  -0.0000174332   0.0000038161
        0.0000053055   0.0000131653   0.0000004432  -0.0000133599  -0.0000001856
        0.0000124859   0.0000008204   0.0000019139  -0.0000014495  -0.0000005271
        0.0000025726   0.0000009483  -0.0000014691  -0.0000004941   0.0000008620
        0.0000001000  -0.0000006593  -0.0000004547  -0.0000004477   0.0000021876
        0.0000009219  -0.0000055781  -0.0000025955   0.0000032620   0.0000113388
       -0.0000087861  -0.0000141257  -0.0000095118   0.0000079552   0.0000155951
        0.0000036021  -0.0000025289  -0.0000033743  -0.0000028800  -0.0000003576
        0.0000002110   0.0000011708  -0.0000011795  -0.0000012187  -0.0000000573
        0.0000000111  -0.0000004517   0.0000013165   0.0000044194  -0.0000001347
        0.0000060134   0.0000049644  -0.0000024099   0.0000156903  -0.0000042055
       -0.0000242819  -0.0000213159   0.0000070555  -0.0000318822  -0.0000379437
        0.0001040432   0.0000589319   0.0011662989  -0.0016623500   0.0014386746
       -0.0009419191   0.0008944865   0.0048390156  -0.0000039998   0.0002994475
        0.0003189843  -0.0012871296   0.0020528688   0.0060788672   0.0024160158
        0.0070071363  -0.0024510985   0.0069883486   0.0158527777  -0.0561411484
        0.0001128379   0.0003722832   0.0005979936   0.0000304320  -0.0000214369
       -0.0000376123   0.0000244457   0.0000162795  -0.0000630690  -0.0000334121
       -0.0000111511   0.0000273580   0.0000390051  -0.0000369131  -0.0000620593
       -0.0000619251   0.0000652471  -0.0003780579   0.0001369613  -0.0002848946
       -0.0007242840  -0.0001234223  -0.0000049315  -0.0001076061  -0.0000257747
       -0.0000457795   0.0000512214   0.0000482651   0.0000214071   0.0000337618
        0.0000133535  -0.0000465863  -0.0000455569  -0.0000685464  -0.0000065574
        0.0000137189   0.0000034458   0.0000609126   0.0000086202  -0.0097773770
       -0.0057456667  -0.0243549455  -0.0069503408   0.0002331079  -0.0086291976
       -0.0012770930  -0.0016154796   0.0005361583   0.0059086827   0.0013425577
       -0.0055266318   0.0150399849  -0.0039842206  -0.0242075272  -0.0003395889
       -0.0007674283   0.0023936642   0.0000429682  -0.0007905328  -0.0026460807
       -0.0001328307   0.0001642853   0.0001407160   0.0001953033  -0.0003579420
       -0.0014551043   0.0000793133  -0.0000307557  -0.0004729740   0.0000300772
       -0.0000536611  -0.0000684969   0.0000088105  -0.0000026467  -0.0000095083
        0.0000018097  -0.0000038121   0.0000024248   0.0000023154  -0.0000006164
       -0.0000009573   0.0000025598   0.0000009049  -0.0000008024   0.0000011727
        0.0000005139   0.0000002510   0.0000012859  -0.0000021951  -0.0000011603
        0.0000029098   0.0000015622  -0.0000010707  -0.0000003283  -0.0000005541
        0.0000012995   0.0000007444  -0.0000002169   0.0000005378   0.0000016479
       -0.0000006959   0.0000001345   0.0000009640  -0.0000039161  -0.0000001495
       -0.0000009486  -0.0000001184   0.0000035038  -0.0000038341  -0.0000096398
       -0.0000087146  -0.0000188430  -0.0000500820  -0.0000721824  -0.0000438315
       -0.0001217417  -0.0001810792   0.0004078937  -0.0007305152  -0.0027642135
        0.0000050179   0.0000101080   0.0000378258  -0.0000035966   0.0000053685
        0.0000170698  -0.0000004391   0.0000064592   0.0000140726   0.0000079030
        0.0000011248  -0.0000312984   0.0000094321  -0.0000083792  -0.0000180109
        0.0000070081  -0.0000067686   0.0000045444  -0.0000007400  -0.0000024372
       -0.0000059042  -0.0000043715  -0.0000105038   0.0000006082   0.0000055667
       -0.0000173815  -0.0000066587
        0.0062635407  -0.0013024695  -0.0077094264  -0.1020774241   0.0092333754
        0.0582364500   0.4898335238   0.0060281128   0.0422056831  -0.0199894765
        0.0122356504   0.0125850198  -0.0006163413  -0.0009731030   0.0011205478
       -0.0003374526  -0.0000503734  -0.0007054050   0.0000394955  -0.0000371163
       -0.0001339258  -0.0004939790  -0.0000567971  -0.0009497990   0.0001479085
        0.0027976518   0.0004205320  -0.0002526048  -0.0002649303   0.0000048332
        0.0002168832   0.0000146769  -0.0000512430  -0.0000241132   0.0000003688
       -0.0000095962   0.0000391229   0.0000244147   0.0000111094  -0.0000295928
       -0.0000174086  -0.0000253194   0.0000365182   0.0000184424  -0.0000060537
       -0.0000210021  -0.0000179729  -0.0000039102   0.0000218278   0.0000043249
       -0.0000041058  -0.0000009556   0.0000002048   0.0000005367   0.0000038895
        0.0000000948  -0.0000034298   0.0000004958   0.0000010317  -0.0000004770
        0.0000001593  -0.0000003608  -0.0000009307  -0.0000006790   0.0000023893
        0.0000008442  -0.0000040683  -0.0000000070   0.0000013091  -0.0000144181
        0.0000018963   0.0000022104   0.0000172012  -0.0000020608  -0.0000007788
       -0.0000039435  -0.0000015718   0.0000000093   0.0000022363   0.0000034071
        0.0000000764   0.0000020811   0.0000006623  -0.0000005290   0.0000004203
       -0.0000002437  -0.0000004857  -0.0000012108  -0.0000001809   0.0000005534
        0.0000041514   0.0000013498  -0.0000007727  -0.0000164143   0.0000041349
        0.0000056914   0.0000137863  -0.0000193594  -0.0000100027  -0.0000164804
        0.0000114557   0.0000655936   0.0001473933  -0.0017754620   0.0013218586
       -0.0004607613  -0.0003544507  -0.0006026247   0.0000810097   0.0000637297
       -0.0001872879  -0.0003567195  -0.0003592140  -0.0005391913  -0.0007848776
        0.0014612753   0.0005309114  -0.0157747245  -0.0084237141   0.0146180169
       -0.0000121732   0.0000903786  -0.0000291766   0.0000444327  -0.0000201495
        0.0000174068  -0.0000200272   0.0000007800   0.0000006170   0.0000058519
       -0.0000069036  -0.0000005298   0.0000088464  -0.0000159173   0.0000095048
       -0.0000253162  -0.0000319609   0.0000406561  -0.0000459889  -0.0000716018
        0.0000868329   0.0000605283  -0.0000079047   0.0000144097  -0.0000135106
        0.0000265834   0.0000208511  -0.0000042118  -0.0000121755  -0.0000126700
        0.0000078449   0.0000028371   0.0000012779  -0.0000017809   0.0000073885
        0.0000053618  -0.0000198897  -0.0000125610  -0.0000073057  -0.0005539990
       -0.0007091026  -0.0030393624   0.0006357666  -0.0002039700  -0.0005641385
        0.0005607439   0.0000379758  -0.0005530350  -0.1083473425  -0.1063332675
        0.0169293835  -0.1080562946  -0.0260120917  -0.1038810407  -0.1392675916
        0.1148332268  -0.0299148616  -0.0001667960  -0.0001924401   0.0003189542
       -0.0000102324  -0.0000332271   0.0000342105  -0.0000108030   0.0000255410
        0.0001543923  -0.0001310101   0.0001237919   0.0000732349   0.0000092631
       -0.0000083481  -0.0000274467  -0.0000102143  -0.0000094579   0.0000010237
        0.0000035605   0.0000032022   0.0000025139   0.0000008206   0.0000007609
        0.0000001028  -0.0000006483  -0.0000013425  -0.0000000839   0.0000001534
       -0.0000019473  -0.0000005076   0.0000014282  -0.0000022014  -0.0000015527
        0.0000034981   0.0000017978   0.0000009588   0.0000008265  -0.0000008754
       -0.0000004059  -0.0000015728   0.0000005045   0.0000003309  -0.0000007303
        0.0000014369   0.0000003484   0.0000015832   0.0000008377   0.0000004202
        0.0000035582  -0.0000015676  -0.0000001701  -0.0000209293  -0.0000105579
       -0.0000034377  -0.0000204543  -0.0000129441  -0.0000092211  -0.0000884259
       -0.0000885971   0.0001012617  -0.0000909573   0.0004153985   0.0000693908