$hessian                                                                        
        0.5030639634   0.0219960501  -0.0334930039  -0.0978095827   0.0351996760
       -0.0401372256  -0.0236414921   0.0167345806  -0.0132277513   0.0061509640
       -0.0053113146   0.0056569662  -0.0004142065  -0.0001046290   0.0000388415
       -0.0001146485   0.0002516454   0.0003398987  -0.0001632880  -0.0000103157
       -0.0000792388   0.0002084165  -0.0000504714   0.0000627072   0.0000131044
        0.0000782936   0.0000539216   0.0002214060  -0.0001567256  -0.0000225936
       -0.0001255010  -0.0000945915  -0.0000390348  -0.0000216226   0.0001371662
        0.0000765630   0.0000038998  -0.0001097012  -0.0000115160  -0.0000280118
        0.0000174556  -0.0000085643   0.0000021098  -0.0000260384  -0.0000004182
        0.0000067589  -0.0000057631   0.0000042621   0.0000033668  -0.0000106366
        0.0000031012   0.0000151543  -0.0000026631   0.0000060499   0.0000202627
        0.0000073136   0.0000045491   0.0000335993   0.0000017632   0.0000460199
        0.0000212190  -0.0000439746   0.0000186395   0.0000245409   0.0000237321
       -0.0000010189  -0.0000446775  -0.0000182524   0.0000126387  -0.0000394768
       -0.0000165977   0.0000114207  -0.0000033881  -0.0000138739  -0.0000067302
       -0.0000216363  -0.0000279523  -0.0000028581   0.0000100478  -0.0000184714
       -0.0000014861   0.0000592531   0.0001232908  -0.0000818347  -0.0008861354
       -0.0006339780   0.0006791613   0.0001487017   0.0001766624  -0.0001640722
       -0.0013401190   0.0000085389   0.0001561739   0.0001932862  -0.0000983420
       -0.0003910453   0.0002443511  -0.0003358317  -0.0001079794   0.0000700351
        0.0000590041  -0.0000391281  -0.0000646777  -0.0000989231   0.0000188762
        0.0000433326   0.0002135509  -0.0000673262  -0.0001742835  -0.0001380004
        0.0004317885   0.0006840114   0.0003583608  -0.0000535832  -0.0056112677
        0.0009195160  -0.0112615338  -0.0000243196  -0.0000248840  -0.0000038779
        0.0000342813   0.0000279092   0.0000289407   0.0000172582   0.0000120518
       -0.0000142265  -0.0000062162  -0.0000052962   0.0000134423   0.0000057436
       -0.0000033600  -0.0000142466  -0.0000200233  -0.0000038287   0.0000571869
        0.0000446464   0.0000258474  -0.0000491851  -0.0521467606  -0.0276177162
       -0.0367285783  -0.1016616223  -0.0979209932   0.0353218955  -0.2233269502
        0.0564887477   0.0916062572   0.0006282545   0.0006616025  -0.0011592193
        0.0005821403  -0.0003983448  -0.0006879144  -0.0051248926   0.0026500731
        0.0016657243   0.0005437407  -0.0003896152   0.0008094965  -0.0001954619
       -0.0024844774   0.0008581239  -0.0001069746   0.0000641530   0.0000728022
        0.0000011708   0.0000180544   0.0000136532  -0.0000101386   0.0000064490
        0.0000119928  -0.0000057932  -0.0000131591   0.0000158194  -0.0000047332
        0.0000076196   0.0000004461  -0.0000040913   0.0000098676   0.0000013665
       -0.0000065905   0.0000067090   0.0000021622  -0.0000071978   0.0000038826
        0.0000015883  -0.0000091690  -0.0000000114  -0.0000011734   0.0000744836
        0.0000946133   0.0000071735   0.0000036026  -0.0000025646  -0.0000066508
        0.0000117210   0.0000079251  -0.0000025975   0.0000049597   0.0000177532
        0.0000002493   0.0000067629   0.0000120172  -0.0000000437   0.0001002007
        0.0000953314  -0.0000625404   0.0001352993  -0.0001018025   0.0001031995
        0.0000314647  -0.0000661927  -0.0000258903  -0.0000292424   0.0000294286
        0.0000016612  -0.0002136516  -0.0001319936  -0.0002372320  -0.0000367140
       -0.0000226660  -0.0000180117  -0.0000120310  -0.0000126853  -0.0000001031
       -0.0000060179  -0.0000066843   0.0000003273  -0.0000031726  -0.0000056778
       -0.0000046149  -0.0000017357  -0.0000076353  -0.0000010395
        0.0219960501   0.5027654266   0.0294220341   0.0314028795  -0.0916843747
        0.0345730128   0.0106763486  -0.0064749296   0.0060714136   0.0105447615
       -0.0190733951   0.0159569009   0.0001498034  -0.0001825552  -0.0001089197
       -0.0003507548  -0.0003531830   0.0003395387   0.0003742434   0.0001404842
        0.0003067576  -0.0001290954   0.0002389197  -0.0000138268  -0.0001194133
       -0.0003287105  -0.0001147822   0.0002184007   0.0001705520   0.0002652654
       -0.0001202204  -0.0003808593  -0.0000462590  -0.0000033889   0.0001458278
       -0.0000395808  -0.0000831464  -0.0001045139  -0.0000096912   0.0000295064
       -0.0000029798   0.0000073726  -0.0000017952   0.0000135675   0.0000025336
       -0.0000014236   0.0000038954  -0.0000030008  -0.0000009740  -0.0000007724
        0.0000018849   0.0000004300   0.0000007895  -0.0000031364  -0.0000099055
       -0.0000237509  -0.0000000290   0.0001662206   0.0000832631  -0.0000085570
       -0.0001671045  -0.0001038956  -0.0000146198   0.0000169346   0.0000525070
        0.0000154392  -0.0000403152   0.0001675464   0.0000588554   0.0000202680
        0.0000256437   0.0000210969  -0.0000243249   0.0000326810  -0.0000007133
        0.0000258126  -0.0000013242  -0.0000004667   0.0000123268  -0.0000002617
       -0.0000004552   0.0001906713   0.0001947216   0.0000243096  -0.0003403674
       -0.0000159000   0.0001204690  -0.0004787237  -0.0003417292  -0.0000067554
        0.0003761383  -0.0005874895  -0.0012928926   0.0004302066   0.0001498111
       -0.0006401103   0.0002693196  -0.0005860626   0.0007581167   0.0000671329
        0.0001047440   0.0000896726   0.0000100181   0.0000777690   0.0002473055
       -0.0004437734  -0.0003757650   0.0000578422   0.0007115487   0.0006351169
       -0.0003920307  -0.0009850722  -0.0013657499  -0.0006771271  -0.0060471284
        0.0084666431  -0.0056265654   0.0003663609   0.0004059221  -0.0002555892
       -0.0001762723  -0.0002121786   0.0001470554   0.0002217785   0.0003042698
        0.0000478933   0.0000211148  -0.0000383133  -0.0003266156  -0.0001261303
       -0.0000968921   0.0003233144   0.0001965828   0.0001518720  -0.0005522663
       -0.0001901882  -0.0002044410   0.0003003501  -0.0275409865  -0.1204887974
       -0.1092349196  -0.0984388322  -0.2052576785   0.0564572359   0.0572711152
       -0.0619308382  -0.0304177313  -0.0008932689   0.0006279168   0.0001897014
       -0.0000511763   0.0001378472   0.0006923372   0.0019917244  -0.0006288971
       -0.0005143390   0.0010811172   0.0007670887   0.0012976790  -0.0013105034
       -0.0045721770   0.0024614580  -0.0002096447   0.0000562232   0.0001879294
        0.0000046151   0.0000408756   0.0000033823  -0.0000302663   0.0000283965
       -0.0000178634  -0.0000164421   0.0000265351  -0.0000065864  -0.0000013771
        0.0000007147   0.0000014193   0.0000046668  -0.0000008105   0.0000014748
        0.0000036339   0.0000018046   0.0000013846   0.0000097157   0.0000029464
        0.0000012666   0.0000073405   0.0000013842   0.0000007653   0.0000534858
       -0.0001555746  -0.0000742345  -0.0000165835  -0.0000138848  -0.0000087898
       -0.0000120309  -0.0000266396  -0.0000058453   0.0000018021  -0.0000181505
       -0.0000049156   0.0000169022  -0.0000322212  -0.0000065648  -0.0000422080
        0.0000208516   0.0001052806  -0.0000265267   0.0001505002   0.0000144118
        0.0000541504  -0.0001347976   0.0000015308  -0.0000769815   0.0000267739
       -0.0001039176  -0.0003332515  -0.0002382325  -0.0000757884  -0.0000371024
       -0.0000157455   0.0000450245  -0.0000298171  -0.0000267486   0.0000531231
       -0.0000417697  -0.0000473119   0.0000195692  -0.0000289040  -0.0000455869
       -0.0000357985  -0.0000179369  -0.0000477130  -0.0000521238
       -0.0334930039   0.0294220341   0.4821364633  -0.0448792929   0.0448239084
       -0.1043718758   0.0051635170  -0.0034176393   0.0049307701  -0.0053791870
        0.0102504812  -0.0077637497   0.0000435334  -0.0002802991  -0.0000067574
        0.0004273717  -0.0000241687  -0.0000315468  -0.0002731585  -0.0000188746
       -0.0001401605   0.0001307862  -0.0001228220   0.0000357986   0.0001450682
        0.0001702687   0.0001476734  -0.0003982129   0.0001522681  -0.0002435604
        0.0001190367   0.0000119297  -0.0000787989  -0.0000050207  -0.0000099059
        0.0000390442   0.0000570641  -0.0000331589  -0.0000123593   0.0000098194
       -0.0000122663   0.0000074097   0.0000190850  -0.0000081277  -0.0000036970
        0.0000030026  -0.0000051625   0.0000012714   0.0000073435  -0.0000016555
       -0.0000018129   0.0000147450  -0.0000052601   0.0000027910   0.0000041340
        0.0000023348   0.0000014023   0.0000264904   0.0000355932   0.0000154470
       -0.0000703159  -0.0001279278  -0.0000673260  -0.0000106349   0.0000358133
        0.0000148270  -0.0000177853   0.0000885623   0.0000087761  -0.0000069450
       -0.0000000924  -0.0000014510  -0.0000199501   0.0000158505  -0.0000007402
        0.0000238917  -0.0000345995  -0.0000009444  -0.0000097150  -0.0000042849
        0.0000024789  -0.0000614274   0.0000472311   0.0001507941   0.0009300584
        0.0001442944  -0.0009843031   0.0002023194   0.0001103163  -0.0000747523
       -0.0012451037  -0.0012725365  -0.0008102529   0.0002807282  -0.0005799188
       -0.0007885153   0.0009357955  -0.0009139242  -0.0004441342   0.0001162042
        0.0000975801  -0.0000415601  -0.0001195451  -0.0001787267  -0.0001205685
        0.0000970671   0.0002404328   0.0001836705  -0.0007830509  -0.0000743989
       -0.0000394741   0.0007802595   0.0018446284  -0.0001210883  -0.0169141051
        0.0037068474  -0.0254592027   0.0000754682   0.0000047045  -0.0000240664
       -0.0000741237  -0.0000770773  -0.0000060697   0.0000360352   0.0000557224
        0.0000164812   0.0000044794  -0.0000175855  -0.0000887814  -0.0000310653
       -0.0000213348   0.0000720173   0.0000122469   0.0000259975  -0.0000689796
        0.0000713804   0.0000782840   0.0000245260  -0.0364903087  -0.1086529517
       -0.1946965004   0.0352766146   0.0566965771  -0.0634082439   0.0910325251
       -0.0300949850  -0.0890835862   0.0004661241  -0.0005712924   0.0004422186
        0.0006637488  -0.0002152255   0.0006668479   0.0024293128  -0.0012169140
       -0.0002274153  -0.0003774951  -0.0014017408   0.0008288369   0.0007700544
        0.0014821956  -0.0004810161   0.0000347311  -0.0000381232  -0.0000235704
        0.0000170567   0.0000056702   0.0000094656   0.0000004280   0.0000028807
        0.0000027020   0.0000190428  -0.0000022970   0.0000293212  -0.0000139599
       -0.0000019070  -0.0000011573   0.0000016215   0.0000051486  -0.0000016146
       -0.0000028606   0.0000051076  -0.0000005312   0.0000008276   0.0000058001
        0.0000000877  -0.0000022935  -0.0000014830  -0.0000020422  -0.0000323961
       -0.0000624828  -0.0000355069   0.0000089711   0.0000087591   0.0000093662
        0.0000080920  -0.0000068327  -0.0000095766  -0.0000061422   0.0000178849
       -0.0000038952   0.0000256261  -0.0000066456  -0.0000041633   0.0002483909
        0.0001002978   0.0000220111  -0.0001115528   0.0000821347   0.0000522251
        0.0000480976  -0.0002284055  -0.0001268168  -0.0001184212   0.0000621221
        0.0000023162   0.0001607135  -0.0000691653  -0.0000468039   0.0000089491
        0.0000139541   0.0000174506  -0.0000126934  -0.0000226645   0.0000230937
       -0.0000020555  -0.0000049547   0.0000282177  -0.0000022385   0.0000005471
        0.0000025769   0.0000062019  -0.0000143442   0.0000205896
       -0.0978095827   0.0314028795  -0.0448792929   0.4407511280   0.0077216839
        0.0057278418  -0.1405985257   0.0282671403   0.0483839103  -0.0831776876
       -0.0423823298   0.0121947077  -0.0098926735  -0.0139643208   0.0080101132
        0.0001613213  -0.0003097121   0.0003112944  -0.0004220089  -0.0002578488
       -0.0002953313   0.0001730962  -0.0000977725  -0.0000169500  -0.0000113013
        0.0001058825   0.0000302494  -0.0000151456   0.0000018600  -0.0000339150
       -0.0000302947   0.0000297606   0.0000323466   0.0000341439  -0.0000502851
        0.0000214723  -0.0000390244   0.0000494613   0.0000140377   0.0000149340
       -0.0000169449  -0.0000038864   0.0000156348   0.0000008228  -0.0000022375
        0.0000169685  -0.0000035071   0.0000003371   0.0000037540  -0.0000070323
       -0.0000010762   0.0000215342  -0.0000159249   0.0000005889  -0.0000001221
       -0.0000039847  -0.0000015386   0.0000158254  -0.0000341966   0.0000083961
        0.0000135671   0.0000806990   0.0000341986  -0.0000206522   0.0000007798
       -0.0000007448  -0.0000043474   0.0000061024  -0.0000049878  -0.0000058957
       -0.0000315664   0.0000014929  -0.0000035357   0.0000001575  -0.0000024353
       -0.0000119759  -0.0000345891  -0.0000051765  -0.0000238465   0.0000261200
        0.0000016719   0.0000354509  -0.0000702356  -0.0000441352   0.0001250711
        0.0001528489  -0.0000496521   0.0002809925  -0.0000705376  -0.0010505419
        0.0059057825   0.0038385562   0.0046973082   0.0005533908  -0.0006734522
        0.0031861673   0.0026728786  -0.0057833162   0.0009742412   0.0001141846
       -0.0001786408  -0.0005713633   0.0002299334   0.0001116689   0.0000800398
       -0.0002338577  -0.0002161274  -0.0000399749  -0.0005014234   0.0015698448
       -0.0006058038  -0.0056095493  -0.0079513810  -0.0127202071  -0.0623852832
       -0.0241037459  -0.0247474534   0.0001507526   0.0000049228  -0.0000189672
       -0.0000352547   0.0000364019   0.0000280769   0.0000030780   0.0000170248
        0.0000137432  -0.0000040524  -0.0000014690   0.0000037025  -0.0000110265
       -0.0000078361   0.0000030451  -0.0000073036   0.0000209028  -0.0000725542
       -0.0000656640  -0.0000918841   0.0000249226  -0.0056386722   0.0033276718
       -0.0081271996   0.0066441238  -0.0064127301   0.0078121992  -0.0178145211
        0.0146099055  -0.0158526967  -0.0143739756   0.0018970692   0.0087626309
        0.0028251741   0.0000388674   0.0003061799  -0.0194551576   0.0081203341
        0.0076595074  -0.0069601493  -0.0144870496   0.0015296919   0.0060054397
        0.0153709533  -0.0037126820  -0.0014813310  -0.0000472589   0.0022076532
        0.0000129981   0.0000040804   0.0000249694   0.0000257951   0.0000086917
        0.0000280093   0.0000190562  -0.0000220583   0.0000384235  -0.0000160701
        0.0000041938  -0.0000007761  -0.0000013779   0.0000065344  -0.0000009136
       -0.0000052625   0.0000058493  -0.0000005116  -0.0000026894   0.0000077002
       -0.0000004864  -0.0000149674  -0.0000021067  -0.0000024256   0.0000318720
        0.0000003882   0.0000017679   0.0000034464   0.0000080323   0.0000006640
        0.0000092765   0.0000027763  -0.0000049774  -0.0000059045   0.0000245796
       -0.0000011380   0.0000201052   0.0000126513   0.0000006215   0.0000533657
        0.0001655744   0.0001127293  -0.0006846001   0.0004433588  -0.0002213799
        0.0007743267  -0.0000483798   0.0005428493  -0.0005084050   0.0001941505
       -0.0001358569   0.0001212822  -0.0002893914   0.0003559387  -0.0000139642
       -0.0000251349   0.0000194802   0.0000058078  -0.0000170711  -0.0000002973
        0.0000061576   0.0000025369   0.0000135938   0.0000131702   0.0000073091
        0.0000016308   0.0000322629   0.0000010922   0.0000271204
        0.0351996760  -0.0916843747   0.0448239084   0.0077216839   0.4727478349
        0.0144273906   0.0241518602  -0.0714716472  -0.0157518380  -0.0371238008
       -0.1383399188   0.0227633879  -0.0028712208   0.0039083971   0.0047761539
       -0.0006886300   0.0005175467  -0.0005529343   0.0002692990  -0.0002175892
        0.0000084357  -0.0000670925   0.0000119333   0.0000299180   0.0000037313
       -0.0001109945  -0.0000114632   0.0000298278  -0.0000987453   0.0000873020
        0.0001159249   0.0001788684   0.0000174365  -0.0000072368  -0.0000525870
       -0.0000331232   0.0000251485   0.0000602665   0.0000272792   0.0000213267
       -0.0000264101   0.0000009994   0.0000200469   0.0000005056  -0.0000022867
        0.0000082020  -0.0000055181  -0.0000039052   0.0000059357  -0.0000089811
       -0.0000011295   0.0000201811  -0.0000134905  -0.0000033877  -0.0000042850
       -0.0000017756   0.0000015600  -0.0000252349  -0.0000102056  -0.0000322321
        0.0000588391  -0.0000428429   0.0000078573  -0.0000310683   0.0000298002
        0.0000172793  -0.0000111295  -0.0000469786   0.0000310440  -0.0000040109
        0.0000120652   0.0000152629  -0.0000165827   0.0000065566  -0.0000073487
       -0.0000193808  -0.0000491739  -0.0000074861  -0.0000319316   0.0000475141
       -0.0000000404  -0.0001318428  -0.0000272562   0.0000237449   0.0000430002
        0.0000308485   0.0002148500  -0.0001788985  -0.0007817545  -0.0000108508
        0.0014240312   0.0042238361  -0.0022217510  -0.0011969949   0.0003356165
        0.0026744714  -0.0053841042   0.0004082904  -0.0008504327  -0.0001407927
       -0.0002407269  -0.0009782280   0.0001150803   0.0003371915  -0.0000497049
        0.0001101718   0.0000240083  -0.0000964235   0.0011931778  -0.0000454131
        0.0000100644  -0.0044700995  -0.0126980560  -0.0168530310  -0.0248010707
       -0.1058202062  -0.0689245936  -0.0002082063  -0.0001398091   0.0001386848
        0.0001724895   0.0001372041  -0.0000756636  -0.0001385629  -0.0001932230
       -0.0000280272  -0.0000148562   0.0000273226   0.0002525385   0.0000876904
        0.0000666433  -0.0002204554  -0.0001122101  -0.0001352146   0.0003080808
        0.0000363682   0.0000302773  -0.0001653499  -0.0078706534   0.0067454675
       -0.0090852641   0.0121023566  -0.0163490650   0.0177305074   0.0067618069
       -0.0052125062   0.0049709301  -0.0183736427   0.0048739483   0.0110600183
        0.0168993434  -0.0080553296  -0.0122519837   0.0117667426  -0.0052972121
       -0.0046408503  -0.0086860426  -0.0158288780   0.0013930610  -0.0061226699
       -0.0224688015   0.0075349538   0.0004136242   0.0008917956  -0.0012557256
       -0.0000376538   0.0000126082  -0.0000328421  -0.0000085363   0.0000349292
        0.0000123522  -0.0000046148   0.0000011283  -0.0000061133  -0.0000165867
       -0.0000009546   0.0000005940   0.0000050212   0.0000042087  -0.0000013822
       -0.0000003449   0.0000067597  -0.0000009261   0.0000044894   0.0000117850
       -0.0000003601  -0.0000102508  -0.0000024211  -0.0000010035   0.0000328846
       -0.0000547322  -0.0000539503  -0.0000061799   0.0000007725   0.0000037830
        0.0000147930  -0.0000020607  -0.0000091095  -0.0000109980   0.0000306779
       -0.0000029834   0.0000256973   0.0000152595  -0.0000003371   0.0000661576
       -0.0000886011  -0.0001323120   0.0002116903  -0.0005127776   0.0001253622
       -0.0001719874   0.0006110506   0.0003626151   0.0002327258  -0.0004459078
        0.0000604225  -0.0003680361   0.0001063583   0.0003816805  -0.0000277605
       -0.0000231312   0.0000015308  -0.0000067533  -0.0000037789  -0.0000214541
        0.0000242609   0.0000222972   0.0000137007   0.0000153272   0.0000376815
        0.0000175011  -0.0000086592   0.0000597952   0.0000516215
       -0.0401372256   0.0345730128  -0.1043718758   0.0057278418   0.0144273906
        0.4755976174   0.0426745434  -0.0155242545  -0.0826930797   0.0133601424
        0.0269648543  -0.0716367152   0.0098489968   0.0154246882  -0.0064249754
       -0.0003180835   0.0000103132   0.0000993882   0.0001649487  -0.0000574496
        0.0002261217  -0.0001003577   0.0001262205  -0.0000159505  -0.0000972755
       -0.0001071570  -0.0000176157   0.0000202349  -0.0000160552  -0.0000796439
       -0.0000187234   0.0000310021   0.0000033083   0.0000049145   0.0000191975
        0.0000358758  -0.0000110819   0.0000490901   0.0000618054   0.0000287856
       -0.0000378268  -0.0000097219   0.0000450935  -0.0000110918  -0.0000118470
        0.0000326649  -0.0000161334   0.0000005293   0.0000210896  -0.0000120029
       -0.0000045668   0.0000563025  -0.0000284282   0.0000025463   0.0000085647
       -0.0000026050   0.0000010184   0.0000241276   0.0000155611  -0.0000053856
       -0.0000288779  -0.0000556134   0.0000712476  -0.0000150637   0.0000701723
        0.0000128920  -0.0000062215  -0.0000110070  -0.0000038271  -0.0000595145
       -0.0000149353  -0.0000060537  -0.0000180871   0.0000106520  -0.0000147705
        0.0000010582  -0.0001166738  -0.0000107989  -0.0000694226   0.0000632644
        0.0000020783  -0.0000219506   0.0000721036  -0.0000942052  -0.0001636917
        0.0000789777   0.0000458289  -0.0028982241  -0.0013123140   0.0015515413
       -0.0011982197  -0.0098630066  -0.0251630588   0.0019419838   0.0005813514
       -0.0041413191   0.0013466855  -0.0002230733   0.0023695324  -0.0001402406
       -0.0002400255  -0.0000137341   0.0002953736   0.0004431163   0.0005112169
       -0.0007992613  -0.0011039165  -0.0006870081   0.0013170811   0.0019087271
       -0.0004905403  -0.0059286762  -0.0078349152  -0.0001380115  -0.0211847848
       -0.0586979528  -0.1460924185   0.0003993429   0.0004802847  -0.0003174524
       -0.0001817582  -0.0001838063   0.0002490580   0.0001730076   0.0002271716
        0.0000308575  -0.0000313922  -0.0001128862  -0.0002882261  -0.0001574331
       -0.0001601537   0.0002311198   0.0001847789   0.0001199898  -0.0005545828
       -0.0004184793  -0.0005206337   0.0001700798  -0.0159854455   0.0109878201
       -0.0209852682  -0.0045551058   0.0076732252  -0.0084175251   0.0049320358
       -0.0047677559   0.0068797896   0.0121320903  -0.0019641467  -0.0076074666
        0.0178307931  -0.0093529163  -0.0135645107  -0.0137871666   0.0050316325
        0.0074931304  -0.0098658064  -0.0189219100   0.0038091251   0.0030362994
        0.0124011863  -0.0031963398   0.0028601022   0.0000347915  -0.0026651199
       -0.0000084015  -0.0000059798  -0.0000478390  -0.0000516829   0.0000260257
        0.0000060425  -0.0000241094  -0.0000544679   0.0000116908  -0.0000472367
        0.0000047612   0.0000003671   0.0000005485   0.0000171329  -0.0000040237
       -0.0000106919   0.0000159830  -0.0000016771  -0.0000001409   0.0000208202
       -0.0000003947  -0.0000267028  -0.0000151610  -0.0000050330   0.0000260791
       -0.0000449715  -0.0000168785  -0.0000015874   0.0000099879   0.0000370240
        0.0000284485   0.0000128753  -0.0000166870  -0.0000231632   0.0000744828
       -0.0000065727   0.0000706154   0.0000256981  -0.0000028510   0.0001152634
       -0.0001890318  -0.0001091928  -0.0001516795  -0.0000732866   0.0004640029
       -0.0003512047  -0.0007114870  -0.0003981138  -0.0000675469   0.0001677332
        0.0001698720   0.0002744556   0.0001827533   0.0000371681   0.0000015688
        0.0000050221   0.0000056250  -0.0000274390  -0.0000448342   0.0000282810
        0.0000013054  -0.0000057723   0.0000588785   0.0000079434   0.0000113038
        0.0000040609  -0.0000059535   0.0000152622   0.0000541575
       -0.0236414921   0.0106763486   0.0051635170  -0.1405985257   0.0241518602
        0.0426745434   0.4683725287   0.0272236713   0.0320038722  -0.0191134738
       -0.0017520066   0.0124418926  -0.0009514545  -0.0023236691   0.0002872810
       -0.0001676636   0.0000479138   0.0000710917   0.0000384948   0.0000371902
       -0.0000059302   0.0000152103   0.0000125319  -0.0000076758  -0.0000117618
        0.0000022249  -0.0000054052   0.0000375488   0.0000037616   0.0000065447
        0.0000258693  -0.0001508991  -0.0000306306  -0.0000513746   0.0000888094
        0.0000026165   0.0000146507  -0.0000596154  -0.0000182028  -0.0000279113
        0.0000208680   0.0000023728  -0.0000094528  -0.0000106207  -0.0000030023
       -0.0000059746  -0.0000017081  -0.0000005443  -0.0000012860  -0.0000007081
       -0.0000009466  -0.0000026244   0.0000129667   0.0000007117   0.0000064246
       -0.0000002725  -0.0000003248  -0.0000160919   0.0000657394   0.0000056110
       -0.0000022971  -0.0001043609  -0.0000290986   0.0000374270   0.0000292734
        0.0000106145  -0.0000001503  -0.0000343580  -0.0000007576  -0.0000296437
        0.0000234802   0.0000061165   0.0000092938   0.0000018911   0.0000009356
        0.0000133188   0.0000060726   0.0000003728   0.0000148401  -0.0000191320
       -0.0000009554   0.0000015862   0.0001007722   0.0000485143   0.0000251718
       -0.0000212058   0.0000948133  -0.0004831988  -0.0004399518  -0.0000498744
       -0.0001333832   0.0004636707  -0.0015230131   0.0001454318   0.0002729747
       -0.0004182662  -0.0001985656  -0.0000879053   0.0005989701   0.0000562723
        0.0000843727   0.0000593951   0.0000104543   0.0000754529   0.0002506607
       -0.0001560829  -0.0002665850   0.0000414473   0.0004356902   0.0007660010
       -0.0001032036  -0.0004465555  -0.0015786440  -0.0005459880   0.0034700875
        0.0033990204   0.0043653950   0.0002226557   0.0002377353  -0.0001450923
       -0.0000833854  -0.0000915256   0.0000751345   0.0001265062   0.0001621352
        0.0000147630   0.0000130366  -0.0000197188  -0.0001613545  -0.0000552622
       -0.0000397726   0.0001623174   0.0001069758   0.0000812759  -0.0002719589
       -0.0001015435  -0.0001094324   0.0001675291   0.0004332198  -0.0000724105
        0.0011656076   0.0007537066  -0.0008526415   0.0006703676  -0.0026628977
        0.0026219410  -0.0024272206  -0.0899510657  -0.0850686636   0.0468450748
       -0.0559450743  -0.0393045599  -0.0410754379  -0.1394571007   0.0605271016
       -0.1007294510   0.0000570690   0.0004459253   0.0001704498   0.0005658078
        0.0015085032  -0.0001778824  -0.0005032397  -0.0000299756   0.0007417365
        0.0000001832   0.0000273672   0.0000165969  -0.0000079699   0.0000007931
       -0.0000022241  -0.0000111860   0.0000022666  -0.0000035941   0.0000058392
        0.0000006507  -0.0000007173  -0.0000033300   0.0000074300  -0.0000010315
       -0.0000057347   0.0000036027  -0.0000016681  -0.0000038592  -0.0000020836
       -0.0000019210   0.0000092477   0.0000026607  -0.0000019657  -0.0000280530
        0.0000062839  -0.0000068096  -0.0000043121   0.0000085908  -0.0000049559
        0.0000012940   0.0000141897   0.0000050116   0.0000064750   0.0000024681
        0.0000009576  -0.0000047644  -0.0000002646  -0.0000008563  -0.0000663416
       -0.0000303813  -0.0000384826   0.0001711604  -0.0000468862  -0.0000387887
       -0.0000460142  -0.0000003708   0.0000071535   0.0000113319  -0.0000205438
       -0.0000739102  -0.0001243422  -0.0005444950  -0.0002443792  -0.0000255362
       -0.0000228136   0.0000129187  -0.0000151124  -0.0000129392   0.0000285382
       -0.0000254227  -0.0000341112   0.0000038531  -0.0000208130  -0.0000346880
       -0.0000239534  -0.0000134851  -0.0000378687  -0.0000478252
        0.0167345806  -0.0064749296  -0.0034176393   0.0282671403  -0.0714716472
       -0.0155242545   0.0272236713   0.5183481925  -0.0181400483  -0.0180839684
        0.0007362167   0.0114230030  -0.0027839163  -0.0026560241   0.0009338022
        0.0004526045  -0.0003560741   0.0006013466  -0.0002176574   0.0000038446
       -0.0001175006   0.0000989595  -0.0000293999  -0.0000302150  -0.0000648212
        0.0000218118  -0.0000045328   0.0000339210   0.0001336156  -0.0000200181
       -0.0000446072  -0.0001371190  -0.0000325946  -0.0000048398   0.0000754607
        0.0000014365  -0.0000108012  -0.0000723982   0.0000050524   0.0000090907
       -0.0000036249  -0.0000016962   0.0000048175  -0.0000027283   0.0000001817
        0.0000043661  -0.0000010542  -0.0000020913   0.0000037045  -0.0000027339
        0.0000009527   0.0000057232  -0.0000034018  -0.0000024215   0.0000013797
        0.0000000622   0.0000017191   0.0000700745   0.0000262244   0.0000009763
       -0.0000745045  -0.0000802417  -0.0000020372   0.0000087700   0.0000223073
        0.0000041098  -0.0000215071   0.0000553270   0.0000229530  -0.0000127311
       -0.0000065908   0.0000081612  -0.0000097654   0.0000124298  -0.0000021465
        0.0000086746  -0.0000187806  -0.0000031271  -0.0000014487  -0.0000077144
       -0.0000029820   0.0000648150   0.0001090682   0.0000009490  -0.0001477291
        0.0000174072  -0.0000279285  -0.0000479523  -0.0000922317  -0.0005297262
       -0.0001773931  -0.0016959872  -0.0009784872   0.0001318461   0.0002773525
       -0.0010075004  -0.0005450212   0.0002984434   0.0001351645   0.0001043729
        0.0001271157   0.0000024012  -0.0001155387  -0.0000991897   0.0001438266
        0.0001532401  -0.0000851397  -0.0001593597   0.0000743559  -0.0000085705
        0.0006723427   0.0001768061   0.0003749795  -0.0000173906   0.0131545200
       -0.0070622112  -0.0128998692   0.0001308407   0.0001658015  -0.0001110026
       -0.0000668460  -0.0000548258   0.0000681064   0.0001075676   0.0001451658
        0.0000064325   0.0000029635  -0.0000225119  -0.0001205744  -0.0000517708
       -0.0000374380   0.0001250586   0.0000678618   0.0000495848  -0.0001567360
       -0.0000422957  -0.0000300652   0.0000649373  -0.0005068496   0.0005243584
       -0.0004749906   0.0006657427   0.0004075407  -0.0008275580   0.0024210991
       -0.0013953154   0.0018536752  -0.0849477909  -0.1932500707   0.0851637067
       -0.0391131761  -0.1537037810  -0.1121472307   0.0607347358  -0.0825237798
        0.0639219432  -0.0005615087   0.0000695876   0.0006318362  -0.0023157914
        0.0007102073   0.0010161140  -0.0005431802  -0.0000563043   0.0007759338
        0.0000233288   0.0000389562   0.0000322084  -0.0000239784   0.0000086367
       -0.0000052825  -0.0000122149   0.0000046288   0.0000079454  -0.0000062086
        0.0000008986  -0.0000000613   0.0000024315   0.0000000345   0.0000003354
        0.0000017506   0.0000005212   0.0000003528   0.0000055033   0.0000027189
        0.0000002966  -0.0000016119  -0.0000041067  -0.0000012474   0.0000037009
        0.0000109408  -0.0000089277   0.0000049325  -0.0000006546  -0.0000008962
       -0.0000005258  -0.0000112190  -0.0000056646   0.0000003448  -0.0000009017
       -0.0000033761   0.0000149579  -0.0000096203  -0.0000035240  -0.0000300076